6.6737445 0 0 6.200992391444 2.467095258098 0 0.039124168070 0.007497089093 4.398323004617
6.340015 0 0 -0.139064867404 2.467081097786 0 0.039120613534 0.007496415451 4.398319637242
6.451243333333 0 0 -0.250293200737 2.467081097786 0 0.039120613534 0.007496415451 4.398319637242
6.562471666667 0 0 -0.361521534070 2.467081097786 0 0.039120613534 0.007496415451 4.398319637242
6.784928333333 0 0 -0.583978200737 2.467081097786 0 0.039120613534 0.007496415451 4.398319637242
6.896156666667 0 0 -0.695206534070 2.467081097786 0 0.039120613534 0.007496415451 4.398319637242
7.007385 0 0 -0.806434867404 2.467081097786 0 0.039120613534 0.007496415451 4.398319637242
6.340015 0 0 -0.449112374033 2.343727042896 0 0.039120613534 0.007496415451 4.398319637242
6.451243333333 0 0 -0.456991538490 2.384845061193 0 0.039120613534 0.007496415451 4.398319637242
6.562471666667 0 0 -0.464870702947 2.425963079489 0 0.039120613534 0.007496415451 4.398319637242
6.784928333333 0 0 -0.480629031860 2.508199116082 0 0.039120613534 0.007496415451 4.398319637242
6.896156666667 0 0 -0.488508196317 2.549317134379 0 0.039120613534 0.007496415451 4.398319637242
7.007385 0 0 -0.496387360774 2.590435152675 0 0.039120613534 0.007496415451 4.398319637242
6.340015 0 0 -0.449112374033 2.343727042896 0 0.037164582858 0.007121594679 4.17840365538
6.451243333333 0 0 -0.456991538490 2.384845061193 0 0.037816593083 0.007246534936 4.251708982668
6.562471666667 0 0 -0.464870702947 2.425963079489 0 0.038468603309 0.007371475194 4.325014309955
6.784928333333 0 0 -0.480629031860 2.508199116082 0 0.039772623760 0.007621355709 4.47162496453
6.896156666667 0 0 -0.488508196317 2.549317134379 0 0.040424633985 0.007746295966 4.544930291817
7.007385 0 0 -0.496387360774 2.590435152675 0 0.041076644211 0.007871236224 4.618235619105