0.001114613184 0.000213585483 0.005172427853 2.597479683533 0.497736758761 2.517151458896 11.170576575786 2.140539005396 2.724431227135 6.862951074002 1.315099034178 2.20671782123 12.652830382808 2.424572874937 2.889231991795 6.522748529312 1.249908413828 0.689815386752 8.35036386192 1.600121482935 2.446356051814 4.044552533606 0.775029149017 2.669566545975
6.196689744238 2.464764581332 0.014954253929 2.532888004041 0.506346704921 2.508442314908 10.876263178173 2.137996228823 2.734210971335 6.687707631896 1.323704333456 2.198008914911 12.320128093168 2.422028444475 2.899011609823 6.348460432928 1.247371040894 0.699596688662 8.129099308634 1.597581848049 2.456136008909 3.93496549404 0.772494217886 2.67934633218
0.006448255273 0.00108225725 0.000459736129 2.555246816956 0.507303530707 2.516682040589 10.983258853122 2.141395002526 2.719716453535 6.746940861878 1.324661159242 2.206248640592 12.439916694874 2.425427218178 2.884517092023 6.415458621666 1.250769814597 0.685102170863 8.211751773006 1.600980621753 2.44164149111 3.980401736676 0.775892991589 2.66485181438
6.240692983213 2.471640080339 4.397510704182 2.580978221652 0.501351508621 2.519027363832 11.073719866248 2.137375312379 2.718447784346 6.809546683641 1.318709137156 2.208593963836 12.543170634759 2.421407528031 2.883248422833 6.465922148582 1.24675012445 0.683833501673 8.277869575555 1.596960931606 2.44037282192 4.009303317491 0.771873301442 2.663583145191
6.248536137955 2.466264279977 4.398097890299 2.62279376816 0.495492374263 2.522577330603 11.274137083622 2.131999512016 2.719034970462 6.925111064282 1.312850002798 2.212143930606 12.76917370565 2.416031727669 2.88383560895 6.586344393537 1.241374324088 0.68442068779 8.429600371776 1.591585131243 2.440960008037 4.086601670242 0.766497501079 2.664170331307
6.904308815602 0.004622883717 0.014433545523 2.649044005977 0.499224661526 2.520869026757 11.37011087205 2.144935628994 2.733690262928 6.988235719166 1.316582290062 2.210435626761 12.877940420836 2.428967844646 2.898490901416 6.642320695755 1.254310441065 0.699075980256 8.501230949628 1.604521248221 2.455615300503 4.121016026358 0.779433618057 2.678825623773
7.008424911685 0.007326154607 0.010255930626 2.656551913556 0.501511009217 2.508104733569 11.459285666117 2.147638899883 2.729512648031 7.032618043811 1.318868637753 2.197671333573 12.979908141661 2.431671115536 2.894313286519 6.691498003611 1.257013711955 0.694898365359 8.566062533117 1.60722451911 2.451437685606 4.148631388113 0.782136888946 2.674648008876
6.350928560541 0.005695315434 0.011314397121 2.467681982425 0.471965886478 2.525633431986 10.623038302009 2.039224156015 2.730571114526 6.519714660882 1.248429178736 2.215200031989 12.031243103028 2.309068805044 2.895371753014 6.206728020052 1.192956839516 0.695956831854 7.943730809676 1.525806796986 2.452496152101 3.853336720467 0.74199257011 2.675706475371
6.447616574852 0.00722926964 0.007798200251 2.517992831857 0.489760300656 2.517143289847 10.794251289324 2.076352745119 2.727054917657 6.641162243847 1.27985503834 2.206709889851 12.22713572176 2.350926583023 2.891855556145 6.300779366728 1.215299471477 0.692440634985 8.067981794012 1.553936378842 2.448979955231 3.905791574607 0.75636435087 2.672190278502
6.558995042341 0.000594329527 0.010429777318 2.560037433224 0.486154770781 2.525290269165 10.980154729818 2.105312439905 2.729686494723 6.754343578746 1.289880953891 2.214856869169 12.43771879367 2.384615466683 2.894487133211 6.409521166582 1.22947320912 0.695072212051 8.206923231527 1.57389706638 2.451611532298 3.972936881924 0.762567237312 2.674821855568
6.818194291035 0.013151625243 4.392724513217 2.640030837658 0.505439011735 2.515692323166 11.349283310987 2.181562589966 2.71366159338 6.976610450245 1.336428085696 2.205258923169 12.856206637673 2.470323994493 2.878462231868 6.624326466472 1.276151444894 0.679047310708 8.482127806739 1.632149201945 2.435586630955 4.104549196743 0.793303770685 2.658796954225
6.411912561093 2.547201374717 0.005436456319 2.675839540872 0.523102047139 2.520450219499 11.545155363901 2.209386255413 2.724693173725 7.083555886993 1.367722566526 2.210016819502 13.076758322004 2.502876848814 2.889493812213 6.743036878746 1.289189153197 0.690078891053 8.631037856675 1.650973860143 2.446618211299 4.181663116481 0.798370627787 2.66982853457
6.508145782275 2.587809142892 0.003278299841 2.730715681624 0.521794496894 2.521575010232 11.723792722544 2.244470640189 2.722535017246 7.209568761277 1.380046461706 2.211141610235 13.280075312064 2.542690422465 2.887335655734 6.84451259675 1.309487580831 0.687920734574 8.762713212339 1.677059237671 2.444460054821 4.241542341949 0.81069820422 2.667670378092
6.336063108736 0.001231896768 0.009724451969 2.473054966701 0.472533858665 2.383372145338 10.606963536193 2.03452900478 2.593018333504 6.525225701804 1.249023605773 2.088460415342 12.015095046699 2.30435960965 2.749578940068 6.191558092512 1.188435076248 0.660134764966 7.927779709988 1.521135343046 2.3288471192 3.837286354178 0.73730209439 2.540896926307
6.444046383473 0.007546379057 0.014753414924 2.510345438856 0.475146298569 2.428574471977 10.789874888606 2.076515366157 2.64336824175 6.633606888609 1.26525867282 2.12848885198 12.222710460699 2.351079841288 2.802675525621 6.297006191526 1.215577684493 0.676574435166 8.063687837379 1.554114798076 2.374562444738 3.901431440239 0.756530088918 2.5903324239
6.603321324442 0.009705833241 4.321816028849 2.54980387811 0.480456719348 2.480174971176 10.985609303941 2.106975224236 2.67073749101 6.744156042515 1.284191720741 2.174915461179 12.443148937622 2.386273569627 2.83279145219 6.415277353463 1.231193789439 0.670033446382 8.212419027693 1.575567749809 2.397297111292 3.978399589223 0.764231580148 2.616787262507
6.309578828208 2.503884280001 0.005001878642 2.637843697422 0.496944193784 2.565217788992 11.360820598224 2.171669788283 2.769579541338 6.974377291128 1.327924449462 2.249610498995 12.867768355081 2.460435874196 2.937126857134 6.635562140951 1.266200847222 0.701055020621 8.493623871934 1.622248501164 2.486869996205 4.116078350804 0.783409410497 2.71380049153
6.893056909046 0.006893629487 0.012783645393 2.677070566935 0.509758286448 2.607299436439 11.538597724877 2.218550132939 2.822682253379 7.084694875292 1.354361169268 2.286518256443 13.070249543322 2.512050089113 2.992976246483 6.735876014205 1.298237438746 0.720247494618 8.624397773565 1.660121939473 2.53533812554 4.175089211106 0.807531388304 2.765988792919
6.555844078805 2.593984392886 4.615864553427 2.73003082096 0.52828100228 2.635152514591 11.731623688874 2.243006386527 2.852848487598 7.208745843968 1.386506512242 2.309197444595 13.287979568906 2.541240212962 3.02588915801 6.851438724804 1.307849939202 0.716503490792 8.770420512541 1.675571286715 2.560869777052 4.249348908751 0.809229275043 2.795240616486