-1492.19816265158
-1490.86869362221
-1491.62658673801
-1492.06006168388
-1492.0591245243
-1491.68022742307
-1491.07851573366
-1491.20548793134
-1491.78382355737
-1492.10307877802
-1492.07778349671
-1491.78230312208
-1491.3327814953
-1490.88175929754
-1491.64113488876
-1492.06899708142
-1492.04634647316
-1491.66462891344
-1491.08035930397