0.00440763987081405 0.00127423806800177 0.017716177174266 -0.0198139391590978 -0.00358874393728183 -0.00297502192995329 -0.0299193978000868 -0.00626500383434205 0.000388493486834278 0.0296836277620809 0.00567802128606763 -0.00190904311035375 -0.0231314318530903 -0.00456164887055841 0.0171276519648923 -0.0037083001724757 -0.00139379430319564 -0.032321064021476 0.00908190300161958 0.00134237226655312 -0.00243020545172574 0.0334001554604194 0.0075143022145722 0.00440326899769943
0.000717594521346439 0.175462016321441 -0.540469516359978 0.695827059015292 -2.80618924259581 0.272380214103807 1.17608471289925 -2.33352456664248 0.193459729146325 -0.177990694973337 -0.671685955472725 0.24521626613721 0.154499823084116 0.688045362210178 0.475937688585625 -0.0661426230721809 -0.381571052261461 0.0368978823928439 -1.0959447543428 3.1379639659032 -0.592382119232073 -0.687051117131695 2.19149921542747 -0.0910401447737587
-0.019968976599575 0.105424945304139 -0.192107329582627 0.676416268623471 -1.76859924387568 -0.0139628827197281 0.561550751612131 -1.34107334590753 0.0972794375897795 0.174957823252161 -0.543712447100839 -0.30815041123308 -0.0265299142547948 0.548041154145407 0.375234057575819 -0.0360638169585022 -0.22645056519507 0.170639657725105 -0.892277493812746 1.97879170374548 -0.151254321241423 -0.438084384751963 1.24757779888409 0.0223215347759705
-0.0137893333460595 0.0461471641237349 -0.03613246537742 -0.179294500712409 -0.841902152726079 -0.129932945078149 0.313728416657878 -0.564072745399264 0.0260043810403082 -0.160948146479088 -0.291897448111477 -0.265302227870147 0.033714086994122 0.250507079487359 0.15172868952945 0.0282404683037084 -0.0935384844240358 0.129873552625827 -0.0466493003115492 0.923194736233881 0.0613935408780604 0.0249983088933972 0.571562107926064 0.0623674742520699
0.00248291303928433 -0.0363551227960821 0.239263908285654 -0.0513955542936543 0.163890772525957 -0.152472766399667 -0.206068926751439 0.382600778545228 -0.00449582866365598 0.216109850736441 -0.0734018719850061 -0.298294092359624 -0.143576496950327 -0.0353989300247143 0.0790184439372859 -0.0377082936903301 0.148755724480962 -0.0633439787279114 0.0830550738137242 -0.278667329413905 0.145123014702351 0.137101434096301 -0.271423764222256 0.0552010421153843
0.0192408405607169 -0.047032394484536 0.191817823516329 -0.114667285060083 0.778139341509714 0.0870209983897789 -0.212500280874319 0.658763083444092 0.00996893313370314 0.214163526649522 0.128406739030599 0.124437729132346 -0.181871258968566 -0.184741894164135 0.0330643695611437 -0.0720918956015378 0.181797725456167 -0.305858016839556 0.218248493240404 -0.989961879941085 -0.104481093821565 0.129478117164046 -0.525370720850817 -0.0359707430721792
0.0205065939926726 -0.0453956310582044 0.202247498098349 0.261600355452251 1.02646586953325 0.23674577115127 -0.222598026209812 0.77869598505637 0.0476813405869647 0.529846237809999 0.0885713727945511 0.282586202826432 -0.336341257271429 -0.168998266315476 0.118229032428127 -0.161386776451649 0.248744332071253 -0.494334436414854 -0.0179714875861961 -1.31758118846739 -0.29164316614028 -0.0736553826256538 -0.610502216504166 -0.101512242536009
-0.0393617692785705 -0.00663318561670253 -0.975182672389657 0.999644135220506 0.471047967121287 0.0414633879161505 0.54372530261 0.10441424517393 0.171014781482412 -0.0185756965167458 0.155138998999582 -0.394496238281743 0.564681068092745 0.000364839349978716 0.581027619321037 -0.0945630685041381 -0.0450912126012807 0.847208906907588 -1.33530919271009 -0.531747567614856 -0.291918531146501 -0.620240521803528 -0.147494084811938 0.0208830033008959
-0.0150340037429919 -0.00288889001857706 -0.628764752817759 -0.442205860988861 -0.0504733000664706 -0.0163506649912237 0.589008062297774 0.113124109740441 0.0880586950892251 -0.676744855437617 -0.11060622971624 -0.0345985460243734 0.490054580305097 0.0811028361925907 0.21505492765472 0.00204942527038784 -0.00347972921959968 0.476196855650303 -0.0129257002406483 -0.0352660040599934 -0.140420726561576 0.0657986096470424 0.00848695003766557 0.0408242120006839
-0.00951127700758467 -0.000156322991393277 -0.235433994996519 -0.468290974626698 0.156678831886843 -0.0802176058317896 0.306646059551103 0.0598393098205401 0.0376095633799765 -0.414675788121369 0.0789521095100171 -0.112758756170096 0.239803839670401 -0.0506823306454224 0.11621328859174 0.0202227443504059 -0.0291393255042197 0.22656420789605 0.180457152960896 -0.207545253423445 -0.00234638753199842 0.145348500333029 -0.00794676154273584 0.0503696846626359
-0.00495682722215621 0.00125289792279513 0.322312811454981 -0.455917032839224 0.146963152283604 -0.157468674369672 -0.167179725989613 -0.0296743717954852 -0.0396481900226694 -0.0248589551740959 0.168475818423188 -0.217993954159023 -0.130673165295619 -0.119283698399666 -0.0172178976391999 0.0543597775959126 -0.0313311898161074 -0.139874110312066 0.448605590559206 -0.144025411330217 0.194212290652588 0.280620338365588 0.00762280271188793 0.0556777243950606
-0.00336685784916934 -0.00529209890106548 0.439710349550599 0.0879841331360934 -0.367027100527672 -0.0433456915674502 -0.490111401655587 -0.0987701624320463 -0.0538072478121887 0.450127425733642 -0.206639454247987 -0.0515117680964664 -0.358222876523922 0.08148053105173 -0.0868816446704777 -0.00609582533378815 0.0750689744129568 -0.344626632925456 0.117182079762086 0.39838631535375 0.133507033734988 0.202503065620463 0.122792995290335 0.00695585889663438
-0.0105001227722204 -0.00226334094282075 0.589666007256615 -0.633521548317376 -0.135580884472781 -0.120918662054715 -0.466903865188266 -0.0900351010675805 -0.0968377222950202 0.0718849219040516 0.00288271937417996 -0.167925088410746 -0.317031511181611 -0.0554162433387333 -0.102929176755694 0.111494802509422 0.0247057175049012 -0.377280911744375 0.804199258349596 0.167619898623273 0.248634546023022 0.440378321806586 0.0880869772093785 0.0275912650910965
-0.0625474513803187 -0.0115187933181089 -0.957430242679558 -0.311375601371299 0.13349674932766 0.12218441548667 0.783568994358799 0.150485047573251 0.0536442399560319 -0.643928082982907 -0.00887390086340057 0.651549600143879 0.392624476147955 -0.00297990702343433 -0.32264885446444 -0.0348098905949742 -0.0262396368579477 0.552260332251926 -0.0933937313908871 -0.208244850231967 -0.117192107059231 -0.0301387127863672 -0.0261247086060517 0.0176328734749051
-0.0336966035016635 -0.00348435720289751 -0.656968454365268 -0.181443941844066 0.721277881831143 0.174045596322123 0.463539321330745 0.0899973058706483 0.0374144167509181 -0.383097258309011 0.384992931689838 0.635474557269059 0.28158887242575 -0.241579185485484 -0.23756132465242 -0.0300510382138917 -0.0920837550074187 0.248577724672532 -0.0707119852482356 -0.757927395787003 -0.175525522536695 -0.0461276237498108 -0.101193168798642 -0.0254572505704317
-0.0322819832736277 -0.00360905564175563 -0.0905758037828767 0.282260187114118 0.511825127958443 -0.149142161086331 0.0604244925975321 0.0132933678026424 0.0199563782005976 0.186682818937207 0.341874011303981 -0.419823905319835 -0.0232599869446966 -0.198153275540871 0.109168726681898 -0.0182239697861109 -0.0627127732281244 0.314396388913865 -0.347076635861289 -0.517721692900241 0.139191996996002 -0.108525179893317 -0.0847954526438904 0.0768283793966808
0.0137955039904567 0.00350878267030271 0.292603472674579 0.099881135533708 0.128150657288119 -0.0905560062987693 -0.294854729438789 -0.0550714585830452 0.00222271753387315 0.292732799096735 0.132853202539078 -0.170485134504994 -0.135033239782538 -0.0679567925249291 0.0963967783308105 -0.025059758227185 -0.0234181097073724 -0.219585209082926 -0.047447113210058 -0.115862590301838 0.0635553232985122 0.0959851449274871 -0.0022034342701322 0.0258480580489149
0.0344363094987663 0.0113568139026849 0.413939167446465 -0.129488658681558 0.283004521094519 -0.00417084139207522 -0.407964183898787 -0.073868526967537 -0.00907881767942103 0.220338027699373 0.267411816923406 0.0244483502115054 -0.14060276057129 -0.137464216564814 0.0634308819698373 -0.00379108965147017 -0.0617285554467865 -0.445297610941993 0.213130457933373 -0.261251971153998 -0.0275136178157663 0.213941640561409 -0.0274598817874749 -0.0157575117985522
0.0499850478285498 0.00443900731316599 0.588964353566628 -0.329668733796695 -0.305985029270064 -0.0405658162665553 -0.47024629757003 -0.0952431249387355 -0.0235849742162774 0.202142082923232 -0.149025175952969 -0.00995530629399287 -0.184586599613474 0.0472401395125718 0.0901518290907591 0.00623157951052441 0.0577867992279537 -0.593895212660279 0.413590011817662 0.316438872209306 0.00141024935492125 0.31255290890023 0.124348511898771 -0.0125253796853863