2.5539392 0 0 -1.276968803625 2.211776686708 0 0.000000000000 0.000000000000 4.226855
2.426205 0 0 1.149255000000 2.211742278725 0 0.000000000000 0.000000000000 4.2269
2.46877 0 0 1.191820000000 2.211742278725 0 0.000000000000 0.000000000000 4.2269
2.511335 0 0 1.234385000000 2.211742278725 0 0.000000000000 0.000000000000 4.2269
2.596465 0 0 -1.276950000000 2.211742278725 0 0.000000000000 0.000000000000 4.2269
2.63903 0 0 -1.276950000000 2.211742278725 0 0.000000000000 0.000000000000 4.2269
2.681595 0 0 -1.276950000000 2.211742278725 0 0.000000000000 0.000000000000 4.2269
2.426205 0 0 -1.213102500000 2.101155164789 0 0.000000000000 0.000000000000 4.2269
2.46877 0 0 -1.234385000000 2.138017536101 0 0.000000000000 0.000000000000 4.2269
2.511335 0 0 -1.255667500000 2.174879907413 0 0.000000000000 0.000000000000 4.2269
2.596465 0 0 -1.298232500000 2.248604650037 0 0.000000000000 0.000000000000 4.2269
2.63903 0 0 -1.319515000000 2.285467021349 0 0.000000000000 0.000000000000 4.2269
2.681595 0 0 -1.340797500000 2.322329392661 0 0.000000000000 0.000000000000 4.2269
2.426205 0 0 -1.213102500000 2.101155164789 0 0.000000000000 0.000000000000 4.015555
2.46877 0 0 -1.234385000000 2.138017536101 0 0.000000000000 0.000000000000 4.086003333333
2.511335 0 0 -1.255667500000 2.174879907413 0 0.000000000000 0.000000000000 4.156451666667
2.596465 0 0 -1.298232500000 2.248604650037 0 0.000000000000 0.000000000000 4.297348333333
2.63903 0 0 -1.319515000000 2.285467021349 0 0.000000000000 0.000000000000 4.367796666667
2.681595 0 0 -1.340797500000 2.322329392661 0 0.000000000000 0.000000000000 4.438245