-7.46052e-07 1.474518528398 2.11226088802 1.276971142428 0.737258158311 4.22568838802 -7.46052e-07 1.474518528398 0.52952348698 1.276971142428 0.737258158311 2.64295098698
-0.038455516677 1.470296326722 2.11795204519 1.195931952093 0.733047425986 0.00450204519 -0.038455516677 1.470296326722 0.53519779399 1.195931952093 0.733047425986 2.64864779399
-0.024123530571 1.467471576666 2.120622336327 1.224452299909 0.730222675929 0.007172336327 -0.024123530571 1.467471576666 0.537868085127 1.224452299909 0.730222675929 2.651318085127
-0.020749680482 1.469415330067 2.113844433343 1.242014511708 0.73216642933 0.000394433343 -0.020749680482 1.469415330067 0.531090182143 1.242014511708 0.73216642933 2.644540182143
0.020704168285 1.476117026355 2.104178863971 1.311845083895 0.738868125618 4.217628863971 0.020704168285 1.476117026355 0.521424612771 1.311845083895 0.738868125618 2.634874612771
0.018122841713 1.476628548394 2.107622676447 1.323452119033 0.739379647658 4.221072676447 0.018122841713 1.476628548394 0.524868425247 1.323452119033 0.739379647658 2.638318425247
0.037559737157 1.470425302359 2.112324927977 1.357077376187 0.733176401623 4.225774927977 0.037559737157 1.470425302359 0.529570676777 1.357077376187 0.733176401623 2.643020676777
0.00538606815 1.398762681907 2.104826181133 1.218490994355 0.698376226207 4.218276181133 0.00538606815 1.398762681907 0.522071929933 1.218490994355 0.698376226207 2.635521929933
-0.005386461005 1.43108164355 2.113730982795 1.229001007765 0.718407706171 0.000280982795 -0.005386461005 1.43108164355 0.530976731595 1.229001007765 0.718407706171 2.644426731595
0.002213064031 1.454079591732 2.109023273344 1.257883075366 0.729118172674 4.222473273344 0.002213064031 1.454079591732 0.526269022144 1.257883075366 0.729118172674 2.639719022144
-0.005851858795 1.49357618923 2.10167574684 1.29238323767 0.744039806814 4.21512574684 -0.005851858795 1.49357618923 0.51892149564 1.29238323767 0.744039806814 2.63237149564
-0.00074191032 1.517975389879 2.119186234315 1.31877572871 0.756151525784 0.005736234315 -0.00074191032 1.517975389879 0.536431983115 1.31877572871 0.756151525784 2.649881983115
-0.001186282805 1.551003332996 2.108625372127 1.33961389879 0.776891987223 4.222075372127 -0.001186282805 1.551003332996 0.525871120927 1.33961389879 0.776891987223 2.639321120927
-0.004017463979 1.400773933247 2.009224002531 1.209087462226 0.700387477547 0.001446502531 -0.004017463979 1.400773933247 0.505607463891 1.209087462226 0.700387477547 2.513384963891
-0.004807881929 1.428416687863 2.038702536749 1.229579586841 0.715742750485 4.081704203416 -0.004807881929 1.428416687863 0.508706760589 1.229579586841 0.715742750485 2.551708427256
0.007389202834 1.449546666625 2.088007113172 1.263059214169 0.724585247568 0.009781279839 0.007389202834 1.449546666625 0.531632099492 1.263059214169 0.724585247568 2.609857932826
0.00038030354 1.500000194106 2.145490486855 1.298615400005 0.75046381169 4.294164653522 0.00038030354 1.500000194106 0.536356998135 1.298615400005 0.75046381169 2.685031164802
0.007632958474 1.516437063503 2.190286316423 1.327150597504 0.754613199409 0.00638798309 0.007632958474 1.516437063503 0.554773590183 1.327150597504 0.754613199409 2.738671923517
0.005413700206 1.549438056705 2.220776690252 1.346213881801 0.775326710931 0.001654190252 0.005413700206 1.549438056705 0.558884726492 1.346213881801 0.775326710931 2.778007226492