-746.266232131583
-746.04900988809
-746.174743288158
-746.245152979933
-746.243394581209
-746.181304221559
-746.084382356016
-745.831914721695
-746.084133644095
-746.224536557629
-746.221364120067
-746.100362505114
-745.913219437814
-745.580868745394
-745.980169203904
-746.201639142241
-746.193383348665
-746.000455416235
-745.703304535599