0 0 0.00545047877392446 0 0 0.00545047877392446 0 0 -0.00545047877392446 0 0 -0.00545047877392446
0.194016115582797 0.217337808971465 -0.109234289778617 -0.194150327098434 -0.217343979615862 -0.109237889321182 0.257431828051825 0.328299107850721 0.10924251730448 -0.257297616536188 -0.328292937206324 0.109229661795319
0.0992843827984715 0.124115312962597 -0.0531133074276978 -0.0993286057499841 -0.124154393710446 -0.0531279627081409 0.141897824564132 0.197782008436312 0.0531274484877745 -0.141853858722803 -0.197742927688464 0.0531138216480642
0.0353256536224987 0.0503519440599942 -0.0162426787142744 -0.0353179403170023 -0.0503943672402243 -0.0162413931633584 0.0570216393227129 0.0872909640821522 0.0162442213753737 -0.0570293526282093 -0.0872485409019221 0.0162398505022591
-0.00778323946621261 -0.0245200839526217 0.0122183901266304 0.00777989703383085 0.0245092853249268 0.0122240465506611 -0.0298823739337042 -0.0629580563429093 -0.0122245607710275 0.029885716366086 0.0629691120807874 -0.012217875906264
0.0113820107006397 -0.0251507752320423 0.00482235859633601 -0.0112190028444829 0.0252479628812966 0.00481490240102284 -0.033851898052324 -0.102940489603755 -0.00481721639267176 0.0336888901961672 0.102843559064684 -0.0048200446046871
0.0564526544872634 -0.00382682796693672 -0.014739098362847 -0.0561567206663857 0.00393609979480209 -0.0147540107534733 -0.0131725260165325 -0.122292915983986 0.0147457832276105 0.0128765921956547 0.122183901266304 0.0147473258887098
-4.26802904132959e-05 -1.0284407328505e-05 -0.245925118912327 -0.000209030578951865 0.000103872514017901 -0.245927175793793 0.000194632408691958 -8.5874801193017e-05 0.245924090471594 5.73355708564156e-05 -7.71330549637878e-06 0.245928204234526
0.000152209228461875 -0.000131897523988077 -0.119142287798899 2.80250099701762e-05 -6.22206643374555e-05 -0.119140230917433 -2.31399164891363e-05 6.29919948870933e-05 0.119143316239632 -0.000157094321942914 0.000131383303621652 0.1191392024767
7.45619531316615e-05 -6.37633254367312e-05 -0.038720279371455 -8.87030132083559e-05 3.62525358329802e-05 -0.0387195080409054 5.73355708564156e-05 -1.61979415423954e-05 0.0387220791427375 -4.31945107797211e-05 4.34516209629338e-05 0.0387179653798061
8.9988564124419e-06 -8.74174622922928e-06 0.0187731571374531 3.11103321687277e-05 4.47371718789969e-05 0.0187713573661706 2.85392303366015e-05 -4.44800616957843e-05 -0.0187734142476363 -6.86484189177711e-05 8.48463604601665e-06 -0.0187711002559874
4.65369431614853e-05 6.89055291009837e-05 0.0035249806118451 -2.46825775884121e-05 0.000105158064933964 0.00352472350166189 2.69965692373257e-05 -0.000110300268598216 -0.00352420928129546 -4.91080449936115e-05 -6.40204356199438e-05 -0.00352523772202831
6.50488763527943e-05 -0.00012341288794206 -0.0369459619971047 1.79977128248838e-05 -7.22479614827479e-05 -0.0369472475480208 -8.22752586280403e-06 7.89328262462761e-05 0.03694879020912 -7.48190633148741e-05 0.000116728023178532 0.0369446764461886
0.000111071599147854 -4.93651551768242e-05 -0.114402718681557 0.000111071599147854 4.93651551768242e-05 -0.114402718681557 -0.000111071599147854 -3.80523071154686e-05 0.114402718681557 -0.000111071599147854 3.80523071154686e-05 0.114402718681557
0.000143210372049433 -8.89601233915685e-05 -0.0766779699395014 2.51967979548373e-05 -1.90261535577343e-05 -0.076677455719135 -1.59408313591828e-05 1.59408313591828e-05 0.0766779699395014 -0.000152466338645087 9.20454455901201e-05 0.076677455719135
3.11103321687277e-05 4.8079604260761e-05 -0.0333798437559456 -6.09351134213923e-05 -4.75653838943358e-05 -0.0333801008661288 6.96768596506216e-05 -4.13947394972328e-05 0.0333783010948463 -3.9852078397957e-05 4.08805191308075e-05 0.0333816435272281
3.9852078397957e-05 -2.545390813805e-05 0.0419097311942076 -4.08805191308075e-05 1.97974841073722e-05 0.0419097311942076 4.29374005965085e-05 -2.15972553898606e-05 -0.0419112738553069 -4.1908959863658e-05 2.69965692373257e-05 -0.0419081885331084
-3.21387729015782e-05 5.27075875585883e-05 0.0728061476905025 -0.000123927108308486 9.53878779718842e-05 0.0728110327839835 0.000110300268598216 -0.000100015861269711 -0.0728120612247164 4.602272279506e-05 -4.83367144439737e-05 -0.0728051192497696
-0.000107986276949303 -2.62252386876878e-05 0.100399983883431 -0.000191289976310194 -4.13947394972328e-05 0.100396127230683 0.000181262679164901 1.54266109927576e-05 -0.100396898561233 0.000118013574094595 5.2193367192163e-05 -0.100399212552881