-0.121157261647231 0 0 0 -0.121157261647231 0 0 0 -0.239035975008805
7.72396200925763 1.95735806631346 0 1.95735806631346 0.942295334108374 0 0 0 0.197349713904308
4.88733489285179 1.2550022573916 0 1.2550022573916 0.552160658009872 0 0 0 0.0469617465461044
2.28071982244171 0.602857963860523 0 0.602857963860523 0.196507663961342 0 0 0 -0.099499406286168
-2.33091344442011 -0.55784356856385 0 -0.55784356856385 -0.39724764714134 0 0 0 -0.378763965619127
-4.36544273877063 -1.07638522501699 0 -1.07638522501699 -0.640749488025136 0 0 0 -0.5141702813064
-6.23153429458899 -1.56128685979683 0 -1.56128685979683 -0.852777448977024 0 0 0 -0.648893225854627
8.90647779690268 0 0 0 8.90661228911531 0 0 0 0.670712664378746
5.61299595778576 0 0 0 5.61313521043927 0 0 0 0.346739107246366
2.61044082818447 0 0 0 2.61044082818447 0 0 0 0.044381528763569
-2.59711071274557 0 0 0 -2.59711071274557 0 0 0 -0.513692202538787
-4.83906519903337 0 0 0 -4.83906519903337 0 0 0 -0.772060910384726
-6.86250567148194 0 0 0 -6.86250567148194 0 0 0 -1.02603241443187
9.4450966542195 0 0 0 9.4450966542195 0 0 0 9.44215799799084
5.93983955032097 0 0 0 5.93997416119778 0 0 0 5.89447568483445
2.7614799605927 0 0 0 2.76133826630564 0 0 0 2.67547152834478
-2.72480150090865 0 0 0 -2.72480150090865 0 0 0 -2.87122043213564
-5.07534641872255 0 0 0 -5.07534641872255 0 0 0 -5.24306123866284
-7.18924255957176 0 0 0 -7.18924255957176 0 0 0 -7.37175968363058