ITEM: TIMESTEP
4500
ITEM: NUMBER OF ATOMS
8
ITEM: BOX BOUNDS xy xz yz pp pp pp
-2.7994114333124481e-01 6.7165912424068468e+00 -2.7650236589076388e-01
-6.1610309946489972e-02 2.5362570391402777e+00 3.9407964966380667e-02
-1.5952165625022996e-02 4.4142751702419707e+00 7.5514710957732033e-03
ITEM: ATOMS id type x y z
6 2 0.022907 1.14179 0.652951
2 1 2.65071 0.625839 2.51267
4 1 0.386913 1.64016 2.05733
1 1 -0.330795 2.39205 -0.0561386
7 2 1.78435 1.81965 2.41262
8 2 4.0941 0.791561 2.70804
3 1 4.57672 2.14833 2.88615
5 2 6.01677 2.1573 2.95652
