ITEM: TIMESTEP
5000
ITEM: NUMBER OF ATOMS
8
ITEM: BOX BOUNDS xy xz yz pp pp pp
-2.6603671330885414e-01 6.7065173593566048e+00 -2.7306939817563758e-01
-4.5530030212759920e-02 2.5202529447226412e+00 3.9805544223392525e-02
-3.8300014519154768e-02 4.4366230191360874e+00 7.6276564118676832e-03
ITEM: ATOMS id type x y z
2 1 2.67495 0.603629 2.35734
4 1 0.371234 1.66658 2.13278
7 2 1.77185 1.83701 2.46201
6 2 6.69296 1.19984 0.701627
8 2 4.09308 0.732691 2.5783
1 1 6.38304 2.40098 -0.0228344
3 1 4.56102 2.04886 2.85011
5 2 6.01596 2.17788 3.04041
