ITEM: TIMESTEP
6000
ITEM: NUMBER OF ATOMS
8
ITEM: BOX BOUNDS xy xz yz pp pp pp
-1.7631650868823778e-01 6.6209147278038429e+00 -2.6945006663100035e-01
-2.8576808243786278e-02 2.5033951972716855e+00 4.0303785746607153e-02
-6.6306068852238109e-02 4.4646290734691778e+00 7.7231309298865236e-03
ITEM: ATOMS id type x y z
6 2 0.0842527 1.22357 0.582102
2 1 2.57294 0.538287 2.65641
4 1 0.47307 1.67068 1.97387
7 2 1.90998 1.75425 2.19511
8 2 4.02762 0.717381 3.06815
1 1 6.28245 2.44245 -0.102206
3 1 4.51826 2.02753 2.77806
5 2 6.01698 2.25289 2.93119
