ITEM: TIMESTEP
500
ITEM: NUMBER OF ATOMS
8
ITEM: BOX BOUNDS xy xz yz pp pp pp
-1.7566966374857829e-01 6.6206270781131051e+00 -2.6871374903693102e-01
-2.5127841091165060e-02 2.4998739648170663e+00 3.9926663401458146e-02
-4.5108098798867680e-02 4.4434311034158576e+00 7.6508656279002290e-03
ITEM: ATOMS id type x y z
6 2 0.0369611 1.12514 0.811485
2 1 2.64273 0.650409 2.35891
4 1 0.390365 1.78493 2.06163
7 2 1.82885 1.82581 2.26303
8 2 4.08233 0.676299 2.61946
3 1 4.61744 2.02513 2.72517
5 2 5.99006 2.18011 3.17713
1 1 6.36915 2.39991 4.54065
