 # B4 N4
 
           8  atoms
 2 atom types
 
      0.000000000000       6.673744500000  xlo xhi
      0.000000000000       2.467095258098  ylo yhi
      0.000000000000       4.398323004617  zlo zhi
0 0 0 xy xz yz
      6.200992391444       0.039124168070       0.007497089093  xy xz yz
 
Masses

1 10.81
2 14.007
Atoms # atomic

1 1 0.001114613184 0.000213585483 0.005172427853
2 1 2.597479683533 0.497736758761 2.517151458896
3 1 11.170576575786 2.140539005396 2.724431227135
4 1 6.862951074002 1.315099034178 2.206717821230
5 2 12.652830382808 2.424572874937 2.889231991795
6 2 6.522748529312 1.249908413828 0.689815386752
7 2 8.350363861920 1.600121482935 2.446356051814
8 2 4.044552533606 0.775029149017 2.669566545975

