ITEM: TIMESTEP
0
ITEM: NUMBER OF ATOMS
4
ITEM: BOX BOUNDS xy xz yz pp pp pp
-1.2557994749829999e+00 2.5115996500000000e+00 -1.2557994749829999e+00
0.0000000000000000e+00 2.1751093031190001e+00 0.0000000000000000e+00
0.0000000000000000e+00 8.2677960000000006e+00 0.0000000000000000e+00
ITEM: ATOMS id type x y z
2 1 1.29507 0.732526 6.19553
4 2 0.00851544 0.0189547 6.17267
3 2 1.23178 2.17419 2.0547
1 1 -0.030141 1.48671 2.09179
