ITEM: TIMESTEP
0
ITEM: NUMBER OF ATOMS
4
ITEM: BOX BOUNDS xy xz yz pp pp pp
-1.2557994749829999e+00 2.5115996500000000e+00 -1.2557994749829999e+00
0.0000000000000000e+00 2.1751093031190001e+00 0.0000000000000000e+00
0.0000000000000000e+00 8.2677960000000006e+00 0.0000000000000000e+00
ITEM: ATOMS id type x y z
3 2 0.0460067 0.0340868 2.06411
4 2 2.47885 0.0400784 6.19809
2 1 1.25276 0.754298 6.2061
1 1 0.0428862 1.45602 2.03866
