ITEM: TIMESTEP
6000
ITEM: NUMBER OF ATOMS
8
ITEM: BOX BOUNDS xy xz yz pp pp pp
8.5076723665028275e-02 6.0511670332994081e+00 7.5307520874040301e-01
-1.1907343751443311e-01 4.3403477860347817e+00 3.8933056822401080e-01
1.7818305951941227e-02 4.1639246918329906e+00 1.1168502660353923e+00
ITEM: ATOMS id type x y z
5 2 2.37073 1.30114 0.632503
1 1 1.08127 1.3091 -0.00954014
3 1 2.23495 1.08153 2.0884
7 2 1.16961 1.76854 2.95324
8 2 4.86332 1.96044 0.709233
6 2 3.82003 3.32731 2.75617
2 1 4.8204 2.36118 2.17358
4 1 3.99558 2.93705 4.14035
