ITEM: TIMESTEP
4000
ITEM: NUMBER OF ATOMS
8
ITEM: BOX BOUNDS xy xz yz pp pp pp
4.1783086358099464e-02 6.0265212060598969e+00 6.8056848593534747e-01
4.1839352509593031e-02 4.1925368277638491e+00 3.9389782648264404e-01
-6.5007948040829433e-03 4.1882437925890201e+00 1.1299520977884796e+00
ITEM: ATOMS id type x y z
5 2 2.31861 1.33691 0.678487
1 1 0.980557 1.32192 0.0382363
7 2 1.18444 1.94231 2.87754
3 1 2.22914 1.20398 2.1801
8 2 4.73249 1.87997 0.683726
2 1 4.87061 2.31711 2.10185
6 2 3.87165 3.24537 2.70788
4 1 3.89886 2.87948 4.18712
