ITEM: TIMESTEP
3000
ITEM: NUMBER OF ATOMS
8
ITEM: BOX BOUNDS xy xz yz pp pp pp
5.7745331882444795e-02 6.0175767834542260e+00 6.9037229245115439e-01
2.0081951288253297e-02 4.2063022376657830e+00 3.9111184288550965e-01
8.3336226881556286e-03 4.1734093750967949e+00 1.1219601064690656e+00
ITEM: ATOMS id type x y z
5 2 2.30782 1.41124 0.692371
7 2 1.27243 1.8625 2.90766
1 1 1.33564 2.41502 4.22607
3 1 2.22529 1.13252 2.10756
8 2 4.71673 1.9022 0.731324
4 1 3.51037 1.76439 -0.0394413
6 2 3.83335 3.24389 2.70468
2 1 4.90973 2.35192 2.11053
