ITEM: TIMESTEP
2500
ITEM: NUMBER OF ATOMS
8
ITEM: BOX BOUNDS xy xz yz pp pp pp
7.4995255151187656e-02 6.0073363712007000e+00 6.9410684619749519e-01
1.1793927232408574e-02 4.2239849437617947e+00 3.9438680015436872e-01
-9.1044137185987140e-03 4.1908474115035759e+00 1.1313547885092259e+00
ITEM: ATOMS id type x y z
5 2 2.28694 1.31331 0.620261
3 1 2.24148 1.09819 2.07664
7 2 1.21569 1.87721 2.87226
1 1 1.39235 2.44846 4.19352
8 2 4.7389 1.90338 0.743019
6 2 3.87639 3.30389 2.76158
4 1 3.90408 2.94567 4.21048
2 1 4.88365 2.36875 2.16041
