ITEM: TIMESTEP
5500
ITEM: NUMBER OF ATOMS
8
ITEM: BOX BOUNDS xy xz yz pp pp pp
4.1686661580909945e-02 6.0068833729806403e+00 6.5088356508781153e-01
1.0771853240388030e-01 4.1552025439446574e+00 4.0384848947371943e-01
-5.9484699406335828e-02 4.2412276971912721e+00 1.1584969938635727e+00
ITEM: ATOMS id type x y z
5 2 2.18719 1.31059 0.642316
1 1 0.882763 1.31376 -0.0219747
7 2 1.2693 2.02123 2.88519
3 1 2.38219 1.16031 2.04268
8 2 4.61947 1.86391 0.707133
6 2 3.89712 3.17827 2.79168
2 1 4.95539 2.43315 2.11523
4 1 3.84168 2.99074 4.22672
