2.51242846 0 0 -1.2562146860840000e+00 2.175826608231 0 0.0000000000000000e+00 0.0000000000000000e+00 7.707265
2.51242846 0 0 -1.2562146860840000e+00 2.175826608231 0 0.0000000000000000e+00 0.0000000000000000e+00 7.707265