-0.0122 1.43055 1.91377 1.26065 0.726615 5.80788 0.0356025 1.4485 5.75391 1.25664 0.694759 1.93929
-0.0175923 1.4027 1.96125 1.27623 0.770888 5.80716 0.0126484 1.45764 5.7453 1.29174 0.772073 1.95647