0.487625917514471 -0.417347420035131 0.389393629585705 1.25118505475456 -0.193410621101331 -0.771559377700937 -1.25147816036343 0.1936546186652 0.773813976897528 -0.487332554795425 0.417103422471263 -0.391648228782297
2.77751914317595 3.42741423929086 -0.0289068978985955 -0.327896730413993 -1.43952340616148 -0.862378664827316 0.327133884500401 1.43985173586544 0.867607000402945 -2.77675655437254 -3.42774256899482 0.0236785623229668