-0.336602915140451 -0.217740010731479 0.0552239157652302 -0.217740010731479 -0.206169285523526 0.000262971027453477 0.0552239157652302 0.000262971027453477 0.0136744934275808
1.94782640034791 0.912246494236113 -0.00683724671379041 0.912246494236113 -0.981144903428924 -0.0728429746046132 -0.00683724671379041 -0.0728429746046132 0.00841507287851127