ITEM: TIMESTEP
0
ITEM: NUMBER OF ATOMS
4
ITEM: BOX BOUNDS xy xz yz pp pp pp
-1.2562146860840000e+00 2.5124284600000002e+00 -1.2562146860840000e+00
0.0000000000000000e+00 2.1758266082310000e+00 0.0000000000000000e+00
0.0000000000000000e+00 7.7072649999999996e+00 0.0000000000000000e+00
ITEM: ATOMS id type x y z
4 2 1.23425 0.773591 1.88395
2 1 1.21363 0.729324 5.82936
1 1 -0.0182287 1.40695 1.96069
3 2 -0.0251052 1.43292 5.79698
