
     Program PWSCF v.6.7MaX starts on 13Mar2023 at 17:51:11 

     This program is part of the open-source Quantum ESPRESSO suite
     for quantum simulation of materials; please cite
         "P. Giannozzi et al., J. Phys.:Condens. Matter 21 395502 (2009);
         "P. Giannozzi et al., J. Phys.:Condens. Matter 29 465901 (2017);
          URL http://www.quantum-espresso.org", 
     in publications or presentations arising from this work. More details at
     http://www.quantum-espresso.org/quote

     Parallel version (MPI), running on    16 processors

     MPI processes distributed on     1 nodes
     R & G space division:  proc/nbgrp/npool/nimage =      16
     Reading input from path2_cod-3.in

     Current dimensions of program PWSCF are:
     Max number of different atomic species (ntypx) = 10
     Max number of k-points (npk) =  40000
     Max angular momentum in pseudopotentials (lmaxx) =  3
     Message from routine read_pp_mesh:
     mesh size missing, using the one in header
     file Fe.pbe-spn-kjpaw_psl.0.2.1.UPF: wavefunction(s)  3D renormalized
     file O.pbe-n-kjpaw_psl.0.1.UPF: wavefunction(s)  2P renormalized

     Subspace diagonalization in iterative solution of the eigenvalue problem:
     a serial algorithm will be used


     Parallelization info
     --------------------
     sticks:   dense  smooth     PW     G-vecs:    dense   smooth      PW
     Min        1241     460    123                80927    18242    2559
     Max        1242     462    124                80930    18243    2562
     Sum       19863    7371   1983              1294859   291873   40977



     bravais-lattice index     =            0
     lattice parameter (alat)  =      19.6651  a.u.
     unit-cell volume          =    2160.3578 (a.u.)^3
     number of atoms/cell      =           25
     number of atomic types    =            4
     number of electrons       =       189.00
     number of Kohn-Sham states=          114
     kinetic-energy cutoff     =     100.0000  Ry
     charge density cutoff     =    1080.0000  Ry
     scf convergence threshold =      2.0E-10
     mixing beta               =       0.4000
     number of iterations used =            8  plain     mixing
     Exchange-correlation= PBE
                           (   1   4   3   4   0   0   0)

     celldm(1)=  19.665057  celldm(2)=   0.000000  celldm(3)=   0.000000
     celldm(4)=   0.000000  celldm(5)=   0.000000  celldm(6)=   0.000000

     crystal axes: (cart. coord. in units of alat)
               a(1) = (   1.000000   0.000000   0.000000 )  
               a(2) = (   0.000000   0.597590   0.000000 )  
               a(3) = (   0.000000   0.000000   0.475375 )  

     reciprocal axes: (cart. coord. in units 2 pi/alat)
               b(1) = (  1.000000  0.000000  0.000000 )  
               b(2) = (  0.000000  1.673388  0.000000 )  
               b(3) = (  0.000000  0.000000  2.103600 )  


     PseudoPot. # 1 for Fe read from file:
     /opt/QEpot/SSSP_precision_pseudos/Fe.pbe-spn-kjpaw_psl.0.2.1.UPF
     MD5 check sum: e86618425769142926afa95317d90200
     Pseudo is Projector augmented-wave + core cor, Zval = 16.0
     Generated using "atomic" code by A. Dal Corso  v.5.0.99 svn rev. 10869
     Shape of augmentation charge: PSQ
     Using radial grid of 1191 points,  6 beta functions with: 
                l(1) =   0
                l(2) =   0
                l(3) =   1
                l(4) =   1
                l(5) =   2
                l(6) =   2
     Q(r) pseudized with 0 coefficients 


     PseudoPot. # 2 for Na read from file:
     /opt/QEpot/SSSP_precision_pseudos/Na_ONCV_PBE-1.0.oncvpsp.upf
     MD5 check sum: 24a298df0a6742ae313db96548fdb2a4
     Pseudo is Norm-conserving, Zval =  9.0
     Generated using ONCVPSP code by D. R. Hamann
     Using radial grid of 1992 points,  4 beta functions with: 
                l(1) =   0
                l(2) =   0
                l(3) =   1
                l(4) =   1

     PseudoPot. # 3 for O  read from file:
     /opt/QEpot/SSSP_precision_pseudos/O.pbe-n-kjpaw_psl.0.1.UPF
     MD5 check sum: 0234752ac141de4415c5fc33072bef88
     Pseudo is Projector augmented-wave + core cor, Zval =  6.0
     Generated using "atomic" code by A. Dal Corso  v.5.0.99 svn rev. 10869
     Shape of augmentation charge: BESSEL
     Using radial grid of 1095 points,  4 beta functions with: 
                l(1) =   0
                l(2) =   0
                l(3) =   1
                l(4) =   1
     Q(r) pseudized with 0 coefficients 


     PseudoPot. # 4 for P  read from file:
     /opt/QEpot/SSSP_precision_pseudos/P.pbe-n-rrkjus_psl.1.0.0.UPF
     MD5 check sum: 8b930f418f0a4573dca56cd030ffe088
     Pseudo is Ultrasoft + core correction, Zval =  5.0
     Generated using "atomic" code by A. Dal Corso  v.5.1
     Using radial grid of 1147 points,  6 beta functions with: 
                l(1) =   0
                l(2) =   0
                l(3) =   1
                l(4) =   1
                l(5) =   2
                l(6) =   2
     Q(r) pseudized with 0 coefficients 


     atomic species   valence    mass     pseudopotential
        Fe            16.00    55.84500     Fe( 1.00)
        Na             9.00    22.98977     Na( 1.00)
        O              6.00    15.99940     O ( 1.00)
        P              5.00    30.97376     P ( 1.00)

     Starting magnetic structure 
     atomic species   magnetization
        Fe           0.312
        Na           0.000
        O            0.000
        P            0.000

     No symmetry found


                                    s                        frac. trans.

      isym =  1     identity                                     

 cryst.   s( 1) = (     1          0          0      )
                  (     0          1          0      )
                  (     0          0          1      )

 cart.    s( 1) = (  1.0000000  0.0000000  0.0000000 )
                  (  0.0000000  1.0000000  0.0000000 )
                  (  0.0000000  0.0000000  1.0000000 )


   Cartesian axes

     site n.     atom                  positions (alat units)
         1           Na  tau(   1) = (   0.1559036   0.0331931  -0.0338230  )
         2           Fe  tau(   2) = (   0.3054822   0.3740048   0.4769456  )
         3           Fe  tau(   3) = (   0.2076879   0.1507845   0.2049294  )
         4           Fe  tau(   4) = (   0.7189140   0.1545473   0.0291064  )
         5           Fe  tau(   5) = (   0.7795829   0.4595099   0.2781691  )
         6           P   tau(   6) = (   0.1053348   0.4417416   0.2270013  )
         7           P   tau(   7) = (   0.4171997   0.1620145   0.3912236  )
         8           P   tau(   8) = (   0.8916373   0.1524805   0.2929811  )
         9           P   tau(   9) = (   0.6002784   0.4415528   0.0552348  )
        10           O   tau(  10) = (   0.1586705   0.4322790   0.3664709  )
        11           O   tau(  11) = (   0.3363752   0.1792679   0.0458135  )
        12           O   tau(  12) = (   0.8621916   0.1482588   0.1478992  )
        13           O   tau(  13) = (   0.6341330   0.4490441   0.3862909  )
        14           O   tau(  14) = (   0.4518859   0.4599425   0.0707908  )
        15           O   tau(  15) = (   0.0390881   0.1609484   0.3146445  )
        16           O   tau(  16) = (   0.5565263   0.1229646   0.4127331  )
        17           O   tau(  17) = (   0.9581445   0.4331183   0.2212451  )
        18           O   tau(  18) = (   0.1509526   0.5686357   0.1621421  )
        19           O   tau(  19) = (   0.3400736   0.0643326   0.3083871  )
        20           O   tau(  20) = (   0.8166927   0.2634792   0.3639496  )
        21           O   tau(  21) = (   0.6479600   0.3116851   0.1144553  )
        22           O   tau(  22) = (   0.8328508   0.0314325   0.3644256  )
        23           O   tau(  23) = (   0.6776278   0.5475496   0.1310229  )
        24           O   tau(  24) = (   0.1691056   0.3307436   0.1443027  )
        25           O   tau(  25) = (   0.3979586   0.2976034   0.3290681  )

   Crystallographic axes

     site n.     atom                  positions (cryst. coord.)
         1           Na  tau(   1) = (  0.1559036  0.0555449 -0.0711500  )
         2           Fe  tau(   2) = (  0.3054822  0.6258553  1.0033029  )
         3           Fe  tau(   3) = (  0.2076879  0.2523210  0.4310896  )
         4           Fe  tau(   4) = (  0.7189140  0.2586176  0.0612281  )
         5           Fe  tau(   5) = (  0.7795829  0.7689385  0.5851566  )
         6           P   tau(   6) = (  0.1053348  0.7392053  0.4775200  )
         7           P   tau(   7) = (  0.4171997  0.2711131  0.8229781  )
         8           P   tau(   8) = (  0.8916373  0.2551591  0.6163151  )
         9           P   tau(   9) = (  0.6002784  0.7388893  0.1161920  )
        10           O   tau(  10) = (  0.1586705  0.7233706  0.7709082  )
        11           O   tau(  11) = (  0.3363752  0.2999848  0.0963733  )
        12           O   tau(  12) = (  0.8621916  0.2480946  0.3111207  )
        13           O   tau(  13) = (  0.6341330  0.7514252  0.8126016  )
        14           O   tau(  14) = (  0.4518859  0.7696624  0.1489154  )
        15           O   tau(  15) = (  0.0390881  0.2693292  0.6618862  )
        16           O   tau(  16) = (  0.5565263  0.2057676  0.8682255  )
        17           O   tau(  17) = (  0.9581445  0.7247752  0.4654112  )
        18           O   tau(  18) = (  0.1509526  0.9515484  0.3410821  )
        19           O   tau(  19) = (  0.3400736  0.1076534  0.6487231  )
        20           O   tau(  20) = (  0.8166927  0.4409030  0.7656045  )
        21           O   tau(  21) = (  0.6479600  0.5215703  0.2407683  )
        22           O   tau(  22) = (  0.8328508  0.0525988  0.7666058  )
        23           O   tau(  23) = (  0.6776278  0.9162630  0.2756198  )
        24           O   tau(  24) = (  0.1691056  0.5534626  0.3035552  )
        25           O   tau(  25) = (  0.3979586  0.4980061  0.6922278  )

     number of k points=   158  Marzari-Vanderbilt smearing, width (Ry)=  0.0073
                       cart. coord. in units 2pi/alat
        k(    1) = (   0.0000000   0.0000000   0.0000000), wk =   0.0031746
        k(    2) = (   0.0000000   0.0000000   0.2337334), wk =   0.0063492
        k(    3) = (   0.0000000   0.0000000   0.4674667), wk =   0.0063492
        k(    4) = (   0.0000000   0.0000000   0.7012001), wk =   0.0063492
        k(    5) = (   0.0000000   0.0000000   0.9349334), wk =   0.0063492
        k(    6) = (   0.0000000   0.2390555   0.0000000), wk =   0.0063492
        k(    7) = (   0.0000000   0.2390555   0.2337334), wk =   0.0063492
        k(    8) = (   0.0000000   0.2390555   0.4674667), wk =   0.0063492
        k(    9) = (   0.0000000   0.2390555   0.7012001), wk =   0.0063492
        k(   10) = (   0.0000000   0.2390555   0.9349334), wk =   0.0063492
        k(   11) = (   0.0000000   0.4781110   0.0000000), wk =   0.0063492
        k(   12) = (   0.0000000   0.4781110   0.2337334), wk =   0.0063492
        k(   13) = (   0.0000000   0.4781110   0.4674667), wk =   0.0063492
        k(   14) = (   0.0000000   0.4781110   0.7012001), wk =   0.0063492
        k(   15) = (   0.0000000   0.4781110   0.9349334), wk =   0.0063492
        k(   16) = (   0.0000000   0.7171664   0.0000000), wk =   0.0063492
        k(   17) = (   0.0000000   0.7171664   0.2337334), wk =   0.0063492
        k(   18) = (   0.0000000   0.7171664   0.4674667), wk =   0.0063492
        k(   19) = (   0.0000000   0.7171664   0.7012001), wk =   0.0063492
        k(   20) = (   0.0000000   0.7171664   0.9349334), wk =   0.0063492
        k(   21) = (   0.2000000   0.0000000   0.0000000), wk =   0.0063492
        k(   22) = (   0.2000000   0.0000000   0.2337334), wk =   0.0063492
        k(   23) = (   0.2000000   0.0000000   0.4674667), wk =   0.0063492
        k(   24) = (   0.2000000   0.0000000   0.7012001), wk =   0.0063492
        k(   25) = (   0.2000000   0.0000000   0.9349334), wk =   0.0063492
        k(   26) = (   0.2000000   0.2390555   0.0000000), wk =   0.0063492
        k(   27) = (   0.2000000   0.2390555   0.2337334), wk =   0.0063492
        k(   28) = (   0.2000000   0.2390555   0.4674667), wk =   0.0063492
        k(   29) = (   0.2000000   0.2390555   0.7012001), wk =   0.0063492
        k(   30) = (   0.2000000   0.2390555   0.9349334), wk =   0.0063492
        k(   31) = (   0.2000000   0.4781110   0.0000000), wk =   0.0063492
        k(   32) = (   0.2000000   0.4781110   0.2337334), wk =   0.0063492
        k(   33) = (   0.2000000   0.4781110   0.4674667), wk =   0.0063492
        k(   34) = (   0.2000000   0.4781110   0.7012001), wk =   0.0063492
        k(   35) = (   0.2000000   0.4781110   0.9349334), wk =   0.0063492
        k(   36) = (   0.2000000   0.7171664   0.0000000), wk =   0.0063492
        k(   37) = (   0.2000000   0.7171664   0.2337334), wk =   0.0063492
        k(   38) = (   0.2000000   0.7171664   0.4674667), wk =   0.0063492
        k(   39) = (   0.2000000   0.7171664   0.7012001), wk =   0.0063492
        k(   40) = (   0.2000000   0.7171664   0.9349334), wk =   0.0063492
        k(   41) = (   0.4000000   0.0000000   0.0000000), wk =   0.0063492
        k(   42) = (   0.4000000   0.0000000   0.2337334), wk =   0.0063492
        k(   43) = (   0.4000000   0.0000000   0.4674667), wk =   0.0063492
        k(   44) = (   0.4000000   0.0000000   0.7012001), wk =   0.0063492
        k(   45) = (   0.4000000   0.0000000   0.9349334), wk =   0.0063492
        k(   46) = (   0.4000000   0.2390555   0.0000000), wk =   0.0063492
        k(   47) = (   0.4000000   0.2390555   0.2337334), wk =   0.0063492
        k(   48) = (   0.4000000   0.2390555   0.4674667), wk =   0.0063492
        k(   49) = (   0.4000000   0.2390555   0.7012001), wk =   0.0063492
        k(   50) = (   0.4000000   0.2390555   0.9349334), wk =   0.0063492
        k(   51) = (   0.4000000   0.4781110   0.0000000), wk =   0.0063492
        k(   52) = (   0.4000000   0.4781110   0.2337334), wk =   0.0063492
        k(   53) = (   0.4000000   0.4781110   0.4674667), wk =   0.0063492
        k(   54) = (   0.4000000   0.4781110   0.7012001), wk =   0.0063492
        k(   55) = (   0.4000000   0.4781110   0.9349334), wk =   0.0063492
        k(   56) = (   0.4000000   0.7171664   0.0000000), wk =   0.0063492
        k(   57) = (   0.4000000   0.7171664   0.2337334), wk =   0.0063492
        k(   58) = (   0.4000000   0.7171664   0.4674667), wk =   0.0063492
        k(   59) = (   0.4000000   0.7171664   0.7012001), wk =   0.0063492
        k(   60) = (   0.4000000   0.7171664   0.9349334), wk =   0.0063492
        k(   61) = (   0.0000000  -0.2390555   0.2337334), wk =   0.0063492
        k(   62) = (   0.0000000  -0.2390555   0.4674667), wk =   0.0063492
        k(   63) = (   0.0000000  -0.2390555   0.7012001), wk =   0.0063492
        k(   64) = (   0.0000000  -0.2390555   0.9349334), wk =   0.0063492
        k(   65) = (   0.0000000  -0.4781110   0.2337334), wk =   0.0063492
        k(   66) = (   0.0000000  -0.4781110   0.4674667), wk =   0.0063492
        k(   67) = (   0.0000000  -0.4781110   0.7012001), wk =   0.0063492
        k(   68) = (   0.0000000  -0.4781110   0.9349334), wk =   0.0063492
        k(   69) = (   0.0000000  -0.7171664   0.2337334), wk =   0.0063492
        k(   70) = (   0.0000000  -0.7171664   0.4674667), wk =   0.0063492
        k(   71) = (   0.0000000  -0.7171664   0.7012001), wk =   0.0063492
        k(   72) = (   0.0000000  -0.7171664   0.9349334), wk =   0.0063492
        k(   73) = (  -0.2000000   0.0000000   0.2337334), wk =   0.0063492
        k(   74) = (  -0.2000000   0.0000000   0.4674667), wk =   0.0063492
        k(   75) = (  -0.2000000   0.0000000   0.7012001), wk =   0.0063492
        k(   76) = (  -0.2000000   0.0000000   0.9349334), wk =   0.0063492
        k(   77) = (  -0.2000000   0.2390555   0.0000000), wk =   0.0063492
        k(   78) = (  -0.2000000  -0.2390555   0.2337334), wk =   0.0063492
        k(   79) = (  -0.2000000   0.2390555  -0.2337334), wk =   0.0063492
        k(   80) = (   0.2000000  -0.2390555  -0.2337334), wk =   0.0063492
        k(   81) = (  -0.2000000  -0.2390555   0.4674667), wk =   0.0063492
        k(   82) = (  -0.2000000   0.2390555  -0.4674667), wk =   0.0063492
        k(   83) = (   0.2000000  -0.2390555  -0.4674667), wk =   0.0063492
        k(   84) = (  -0.2000000  -0.2390555   0.7012001), wk =   0.0063492
        k(   85) = (  -0.2000000   0.2390555  -0.7012001), wk =   0.0063492
        k(   86) = (   0.2000000  -0.2390555  -0.7012001), wk =   0.0063492
        k(   87) = (  -0.2000000  -0.2390555   0.9349334), wk =   0.0063492
        k(   88) = (  -0.2000000   0.2390555  -0.9349334), wk =   0.0063492
        k(   89) = (   0.2000000  -0.2390555  -0.9349334), wk =   0.0063492
        k(   90) = (  -0.2000000   0.4781110   0.0000000), wk =   0.0063492
        k(   91) = (  -0.2000000  -0.4781110   0.2337334), wk =   0.0063492
        k(   92) = (  -0.2000000   0.4781110  -0.2337334), wk =   0.0063492
        k(   93) = (   0.2000000  -0.4781110  -0.2337334), wk =   0.0063492
        k(   94) = (  -0.2000000  -0.4781110   0.4674667), wk =   0.0063492
        k(   95) = (  -0.2000000   0.4781110  -0.4674667), wk =   0.0063492
        k(   96) = (   0.2000000  -0.4781110  -0.4674667), wk =   0.0063492
        k(   97) = (  -0.2000000  -0.4781110   0.7012001), wk =   0.0063492
        k(   98) = (  -0.2000000   0.4781110  -0.7012001), wk =   0.0063492
        k(   99) = (   0.2000000  -0.4781110  -0.7012001), wk =   0.0063492
        k(  100) = (  -0.2000000  -0.4781110   0.9349334), wk =   0.0063492
        k(  101) = (  -0.2000000   0.4781110  -0.9349334), wk =   0.0063492
        k(  102) = (   0.2000000  -0.4781110  -0.9349334), wk =   0.0063492
        k(  103) = (  -0.2000000   0.7171664   0.0000000), wk =   0.0063492
        k(  104) = (  -0.2000000  -0.7171664   0.2337334), wk =   0.0063492
        k(  105) = (  -0.2000000   0.7171664  -0.2337334), wk =   0.0063492
        k(  106) = (   0.2000000  -0.7171664  -0.2337334), wk =   0.0063492
        k(  107) = (  -0.2000000  -0.7171664   0.4674667), wk =   0.0063492
        k(  108) = (  -0.2000000   0.7171664  -0.4674667), wk =   0.0063492
        k(  109) = (   0.2000000  -0.7171664  -0.4674667), wk =   0.0063492
        k(  110) = (  -0.2000000  -0.7171664   0.7012001), wk =   0.0063492
        k(  111) = (  -0.2000000   0.7171664  -0.7012001), wk =   0.0063492
        k(  112) = (   0.2000000  -0.7171664  -0.7012001), wk =   0.0063492
        k(  113) = (  -0.2000000  -0.7171664   0.9349334), wk =   0.0063492
        k(  114) = (  -0.2000000   0.7171664  -0.9349334), wk =   0.0063492
        k(  115) = (   0.2000000  -0.7171664  -0.9349334), wk =   0.0063492
        k(  116) = (  -0.4000000   0.0000000   0.2337334), wk =   0.0063492
        k(  117) = (  -0.4000000   0.0000000   0.4674667), wk =   0.0063492
        k(  118) = (  -0.4000000   0.0000000   0.7012001), wk =   0.0063492
        k(  119) = (  -0.4000000   0.0000000   0.9349334), wk =   0.0063492
        k(  120) = (  -0.4000000   0.2390555   0.0000000), wk =   0.0063492
        k(  121) = (  -0.4000000  -0.2390555   0.2337334), wk =   0.0063492
        k(  122) = (  -0.4000000   0.2390555  -0.2337334), wk =   0.0063492
        k(  123) = (   0.4000000  -0.2390555  -0.2337334), wk =   0.0063492
        k(  124) = (  -0.4000000  -0.2390555   0.4674667), wk =   0.0063492
        k(  125) = (  -0.4000000   0.2390555  -0.4674667), wk =   0.0063492
        k(  126) = (   0.4000000  -0.2390555  -0.4674667), wk =   0.0063492
        k(  127) = (  -0.4000000  -0.2390555   0.7012001), wk =   0.0063492
        k(  128) = (  -0.4000000   0.2390555  -0.7012001), wk =   0.0063492
        k(  129) = (   0.4000000  -0.2390555  -0.7012001), wk =   0.0063492
        k(  130) = (  -0.4000000  -0.2390555   0.9349334), wk =   0.0063492
        k(  131) = (  -0.4000000   0.2390555  -0.9349334), wk =   0.0063492
        k(  132) = (   0.4000000  -0.2390555  -0.9349334), wk =   0.0063492
        k(  133) = (  -0.4000000   0.4781110   0.0000000), wk =   0.0063492
        k(  134) = (  -0.4000000  -0.4781110   0.2337334), wk =   0.0063492
        k(  135) = (  -0.4000000   0.4781110  -0.2337334), wk =   0.0063492
        k(  136) = (   0.4000000  -0.4781110  -0.2337334), wk =   0.0063492
        k(  137) = (  -0.4000000  -0.4781110   0.4674667), wk =   0.0063492
        k(  138) = (  -0.4000000   0.4781110  -0.4674667), wk =   0.0063492
        k(  139) = (   0.4000000  -0.4781110  -0.4674667), wk =   0.0063492
        k(  140) = (  -0.4000000  -0.4781110   0.7012001), wk =   0.0063492
        k(  141) = (  -0.4000000   0.4781110  -0.7012001), wk =   0.0063492
        k(  142) = (   0.4000000  -0.4781110  -0.7012001), wk =   0.0063492
        k(  143) = (  -0.4000000  -0.4781110   0.9349334), wk =   0.0063492
        k(  144) = (  -0.4000000   0.4781110  -0.9349334), wk =   0.0063492
        k(  145) = (   0.4000000  -0.4781110  -0.9349334), wk =   0.0063492
        k(  146) = (  -0.4000000   0.7171664   0.0000000), wk =   0.0063492
        k(  147) = (  -0.4000000  -0.7171664   0.2337334), wk =   0.0063492
        k(  148) = (  -0.4000000   0.7171664  -0.2337334), wk =   0.0063492
        k(  149) = (   0.4000000  -0.7171664  -0.2337334), wk =   0.0063492
        k(  150) = (  -0.4000000  -0.7171664   0.4674667), wk =   0.0063492
        k(  151) = (  -0.4000000   0.7171664  -0.4674667), wk =   0.0063492
        k(  152) = (   0.4000000  -0.7171664  -0.4674667), wk =   0.0063492
        k(  153) = (  -0.4000000  -0.7171664   0.7012001), wk =   0.0063492
        k(  154) = (  -0.4000000   0.7171664  -0.7012001), wk =   0.0063492
        k(  155) = (   0.4000000  -0.7171664  -0.7012001), wk =   0.0063492
        k(  156) = (  -0.4000000  -0.7171664   0.9349334), wk =   0.0063492
        k(  157) = (  -0.4000000   0.7171664  -0.9349334), wk =   0.0063492
        k(  158) = (   0.4000000  -0.7171664  -0.9349334), wk =   0.0063492

                       cryst. coord.
        k(    1) = (   0.0000000   0.0000000   0.0000000), wk =   0.0031746
        k(    2) = (   0.0000000   0.0000000   0.1111111), wk =   0.0063492
        k(    3) = (   0.0000000   0.0000000   0.2222222), wk =   0.0063492
        k(    4) = (   0.0000000   0.0000000   0.3333333), wk =   0.0063492
        k(    5) = (   0.0000000   0.0000000   0.4444444), wk =   0.0063492
        k(    6) = (   0.0000000   0.1428571   0.0000000), wk =   0.0063492
        k(    7) = (   0.0000000   0.1428571   0.1111111), wk =   0.0063492
        k(    8) = (   0.0000000   0.1428571   0.2222222), wk =   0.0063492
        k(    9) = (   0.0000000   0.1428571   0.3333333), wk =   0.0063492
        k(   10) = (   0.0000000   0.1428571   0.4444444), wk =   0.0063492
        k(   11) = (   0.0000000   0.2857143   0.0000000), wk =   0.0063492
        k(   12) = (   0.0000000   0.2857143   0.1111111), wk =   0.0063492
        k(   13) = (   0.0000000   0.2857143   0.2222222), wk =   0.0063492
        k(   14) = (   0.0000000   0.2857143   0.3333333), wk =   0.0063492
        k(   15) = (   0.0000000   0.2857143   0.4444444), wk =   0.0063492
        k(   16) = (   0.0000000   0.4285714   0.0000000), wk =   0.0063492
        k(   17) = (   0.0000000   0.4285714   0.1111111), wk =   0.0063492
        k(   18) = (   0.0000000   0.4285714   0.2222222), wk =   0.0063492
        k(   19) = (   0.0000000   0.4285714   0.3333333), wk =   0.0063492
        k(   20) = (   0.0000000   0.4285714   0.4444444), wk =   0.0063492
        k(   21) = (   0.2000000   0.0000000   0.0000000), wk =   0.0063492
        k(   22) = (   0.2000000   0.0000000   0.1111111), wk =   0.0063492
        k(   23) = (   0.2000000   0.0000000   0.2222222), wk =   0.0063492
        k(   24) = (   0.2000000   0.0000000   0.3333333), wk =   0.0063492
        k(   25) = (   0.2000000   0.0000000   0.4444444), wk =   0.0063492
        k(   26) = (   0.2000000   0.1428571   0.0000000), wk =   0.0063492
        k(   27) = (   0.2000000   0.1428571   0.1111111), wk =   0.0063492
        k(   28) = (   0.2000000   0.1428571   0.2222222), wk =   0.0063492
        k(   29) = (   0.2000000   0.1428571   0.3333333), wk =   0.0063492
        k(   30) = (   0.2000000   0.1428571   0.4444444), wk =   0.0063492
        k(   31) = (   0.2000000   0.2857143   0.0000000), wk =   0.0063492
        k(   32) = (   0.2000000   0.2857143   0.1111111), wk =   0.0063492
        k(   33) = (   0.2000000   0.2857143   0.2222222), wk =   0.0063492
        k(   34) = (   0.2000000   0.2857143   0.3333333), wk =   0.0063492
        k(   35) = (   0.2000000   0.2857143   0.4444444), wk =   0.0063492
        k(   36) = (   0.2000000   0.4285714   0.0000000), wk =   0.0063492
        k(   37) = (   0.2000000   0.4285714   0.1111111), wk =   0.0063492
        k(   38) = (   0.2000000   0.4285714   0.2222222), wk =   0.0063492
        k(   39) = (   0.2000000   0.4285714   0.3333333), wk =   0.0063492
        k(   40) = (   0.2000000   0.4285714   0.4444444), wk =   0.0063492
        k(   41) = (   0.4000000   0.0000000   0.0000000), wk =   0.0063492
        k(   42) = (   0.4000000   0.0000000   0.1111111), wk =   0.0063492
        k(   43) = (   0.4000000   0.0000000   0.2222222), wk =   0.0063492
        k(   44) = (   0.4000000   0.0000000   0.3333333), wk =   0.0063492
        k(   45) = (   0.4000000   0.0000000   0.4444444), wk =   0.0063492
        k(   46) = (   0.4000000   0.1428571   0.0000000), wk =   0.0063492
        k(   47) = (   0.4000000   0.1428571   0.1111111), wk =   0.0063492
        k(   48) = (   0.4000000   0.1428571   0.2222222), wk =   0.0063492
        k(   49) = (   0.4000000   0.1428571   0.3333333), wk =   0.0063492
        k(   50) = (   0.4000000   0.1428571   0.4444444), wk =   0.0063492
        k(   51) = (   0.4000000   0.2857143   0.0000000), wk =   0.0063492
        k(   52) = (   0.4000000   0.2857143   0.1111111), wk =   0.0063492
        k(   53) = (   0.4000000   0.2857143   0.2222222), wk =   0.0063492
        k(   54) = (   0.4000000   0.2857143   0.3333333), wk =   0.0063492
        k(   55) = (   0.4000000   0.2857143   0.4444444), wk =   0.0063492
        k(   56) = (   0.4000000   0.4285714   0.0000000), wk =   0.0063492
        k(   57) = (   0.4000000   0.4285714   0.1111111), wk =   0.0063492
        k(   58) = (   0.4000000   0.4285714   0.2222222), wk =   0.0063492
        k(   59) = (   0.4000000   0.4285714   0.3333333), wk =   0.0063492
        k(   60) = (   0.4000000   0.4285714   0.4444444), wk =   0.0063492
        k(   61) = (   0.0000000  -0.1428571   0.1111111), wk =   0.0063492
        k(   62) = (   0.0000000  -0.1428571   0.2222222), wk =   0.0063492
        k(   63) = (   0.0000000  -0.1428571   0.3333333), wk =   0.0063492
        k(   64) = (   0.0000000  -0.1428571   0.4444444), wk =   0.0063492
        k(   65) = (   0.0000000  -0.2857143   0.1111111), wk =   0.0063492
        k(   66) = (   0.0000000  -0.2857143   0.2222222), wk =   0.0063492
        k(   67) = (   0.0000000  -0.2857143   0.3333333), wk =   0.0063492
        k(   68) = (   0.0000000  -0.2857143   0.4444444), wk =   0.0063492
        k(   69) = (   0.0000000  -0.4285714   0.1111111), wk =   0.0063492
        k(   70) = (   0.0000000  -0.4285714   0.2222222), wk =   0.0063492
        k(   71) = (   0.0000000  -0.4285714   0.3333333), wk =   0.0063492
        k(   72) = (   0.0000000  -0.4285714   0.4444444), wk =   0.0063492
        k(   73) = (  -0.2000000   0.0000000   0.1111111), wk =   0.0063492
        k(   74) = (  -0.2000000   0.0000000   0.2222222), wk =   0.0063492
        k(   75) = (  -0.2000000   0.0000000   0.3333333), wk =   0.0063492
        k(   76) = (  -0.2000000   0.0000000   0.4444444), wk =   0.0063492
        k(   77) = (  -0.2000000   0.1428571   0.0000000), wk =   0.0063492
        k(   78) = (  -0.2000000  -0.1428571   0.1111111), wk =   0.0063492
        k(   79) = (  -0.2000000   0.1428571  -0.1111111), wk =   0.0063492
        k(   80) = (   0.2000000  -0.1428571  -0.1111111), wk =   0.0063492
        k(   81) = (  -0.2000000  -0.1428571   0.2222222), wk =   0.0063492
        k(   82) = (  -0.2000000   0.1428571  -0.2222222), wk =   0.0063492
        k(   83) = (   0.2000000  -0.1428571  -0.2222222), wk =   0.0063492
        k(   84) = (  -0.2000000  -0.1428571   0.3333333), wk =   0.0063492
        k(   85) = (  -0.2000000   0.1428571  -0.3333333), wk =   0.0063492
        k(   86) = (   0.2000000  -0.1428571  -0.3333333), wk =   0.0063492
        k(   87) = (  -0.2000000  -0.1428571   0.4444444), wk =   0.0063492
        k(   88) = (  -0.2000000   0.1428571  -0.4444444), wk =   0.0063492
        k(   89) = (   0.2000000  -0.1428571  -0.4444444), wk =   0.0063492
        k(   90) = (  -0.2000000   0.2857143   0.0000000), wk =   0.0063492
        k(   91) = (  -0.2000000  -0.2857143   0.1111111), wk =   0.0063492
        k(   92) = (  -0.2000000   0.2857143  -0.1111111), wk =   0.0063492
        k(   93) = (   0.2000000  -0.2857143  -0.1111111), wk =   0.0063492
        k(   94) = (  -0.2000000  -0.2857143   0.2222222), wk =   0.0063492
        k(   95) = (  -0.2000000   0.2857143  -0.2222222), wk =   0.0063492
        k(   96) = (   0.2000000  -0.2857143  -0.2222222), wk =   0.0063492
        k(   97) = (  -0.2000000  -0.2857143   0.3333333), wk =   0.0063492
        k(   98) = (  -0.2000000   0.2857143  -0.3333333), wk =   0.0063492
        k(   99) = (   0.2000000  -0.2857143  -0.3333333), wk =   0.0063492
        k(  100) = (  -0.2000000  -0.2857143   0.4444444), wk =   0.0063492
        k(  101) = (  -0.2000000   0.2857143  -0.4444444), wk =   0.0063492
        k(  102) = (   0.2000000  -0.2857143  -0.4444444), wk =   0.0063492
        k(  103) = (  -0.2000000   0.4285714   0.0000000), wk =   0.0063492
        k(  104) = (  -0.2000000  -0.4285714   0.1111111), wk =   0.0063492
        k(  105) = (  -0.2000000   0.4285714  -0.1111111), wk =   0.0063492
        k(  106) = (   0.2000000  -0.4285714  -0.1111111), wk =   0.0063492
        k(  107) = (  -0.2000000  -0.4285714   0.2222222), wk =   0.0063492
        k(  108) = (  -0.2000000   0.4285714  -0.2222222), wk =   0.0063492
        k(  109) = (   0.2000000  -0.4285714  -0.2222222), wk =   0.0063492
        k(  110) = (  -0.2000000  -0.4285714   0.3333333), wk =   0.0063492
        k(  111) = (  -0.2000000   0.4285714  -0.3333333), wk =   0.0063492
        k(  112) = (   0.2000000  -0.4285714  -0.3333333), wk =   0.0063492
        k(  113) = (  -0.2000000  -0.4285714   0.4444444), wk =   0.0063492
        k(  114) = (  -0.2000000   0.4285714  -0.4444444), wk =   0.0063492
        k(  115) = (   0.2000000  -0.4285714  -0.4444444), wk =   0.0063492
        k(  116) = (  -0.4000000   0.0000000   0.1111111), wk =   0.0063492
        k(  117) = (  -0.4000000   0.0000000   0.2222222), wk =   0.0063492
        k(  118) = (  -0.4000000   0.0000000   0.3333333), wk =   0.0063492
        k(  119) = (  -0.4000000   0.0000000   0.4444444), wk =   0.0063492
        k(  120) = (  -0.4000000   0.1428571   0.0000000), wk =   0.0063492
        k(  121) = (  -0.4000000  -0.1428571   0.1111111), wk =   0.0063492
        k(  122) = (  -0.4000000   0.1428571  -0.1111111), wk =   0.0063492
        k(  123) = (   0.4000000  -0.1428571  -0.1111111), wk =   0.0063492
        k(  124) = (  -0.4000000  -0.1428571   0.2222222), wk =   0.0063492
        k(  125) = (  -0.4000000   0.1428571  -0.2222222), wk =   0.0063492
        k(  126) = (   0.4000000  -0.1428571  -0.2222222), wk =   0.0063492
        k(  127) = (  -0.4000000  -0.1428571   0.3333333), wk =   0.0063492
        k(  128) = (  -0.4000000   0.1428571  -0.3333333), wk =   0.0063492
        k(  129) = (   0.4000000  -0.1428571  -0.3333333), wk =   0.0063492
        k(  130) = (  -0.4000000  -0.1428571   0.4444444), wk =   0.0063492
        k(  131) = (  -0.4000000   0.1428571  -0.4444444), wk =   0.0063492
        k(  132) = (   0.4000000  -0.1428571  -0.4444444), wk =   0.0063492
        k(  133) = (  -0.4000000   0.2857143   0.0000000), wk =   0.0063492
        k(  134) = (  -0.4000000  -0.2857143   0.1111111), wk =   0.0063492
        k(  135) = (  -0.4000000   0.2857143  -0.1111111), wk =   0.0063492
        k(  136) = (   0.4000000  -0.2857143  -0.1111111), wk =   0.0063492
        k(  137) = (  -0.4000000  -0.2857143   0.2222222), wk =   0.0063492
        k(  138) = (  -0.4000000   0.2857143  -0.2222222), wk =   0.0063492
        k(  139) = (   0.4000000  -0.2857143  -0.2222222), wk =   0.0063492
        k(  140) = (  -0.4000000  -0.2857143   0.3333333), wk =   0.0063492
        k(  141) = (  -0.4000000   0.2857143  -0.3333333), wk =   0.0063492
        k(  142) = (   0.4000000  -0.2857143  -0.3333333), wk =   0.0063492
        k(  143) = (  -0.4000000  -0.2857143   0.4444444), wk =   0.0063492
        k(  144) = (  -0.4000000   0.2857143  -0.4444444), wk =   0.0063492
        k(  145) = (   0.4000000  -0.2857143  -0.4444444), wk =   0.0063492
        k(  146) = (  -0.4000000   0.4285714   0.0000000), wk =   0.0063492
        k(  147) = (  -0.4000000  -0.4285714   0.1111111), wk =   0.0063492
        k(  148) = (  -0.4000000   0.4285714  -0.1111111), wk =   0.0063492
        k(  149) = (   0.4000000  -0.4285714  -0.1111111), wk =   0.0063492
        k(  150) = (  -0.4000000  -0.4285714   0.2222222), wk =   0.0063492
        k(  151) = (  -0.4000000   0.4285714  -0.2222222), wk =   0.0063492
        k(  152) = (   0.4000000  -0.4285714  -0.2222222), wk =   0.0063492
        k(  153) = (  -0.4000000  -0.4285714   0.3333333), wk =   0.0063492
        k(  154) = (  -0.4000000   0.4285714  -0.3333333), wk =   0.0063492
        k(  155) = (   0.4000000  -0.4285714  -0.3333333), wk =   0.0063492
        k(  156) = (  -0.4000000  -0.4285714   0.4444444), wk =   0.0063492
        k(  157) = (  -0.4000000   0.4285714  -0.4444444), wk =   0.0063492
        k(  158) = (   0.4000000  -0.4285714  -0.4444444), wk =   0.0063492

     Dense  grid:  1294859 G-vectors     FFT dimensions: ( 216, 125, 100)

     Smooth grid:   291873 G-vectors     FFT dimensions: ( 125,  75,  60)

     Dynamical RAM for                 wfc:       3.97 MB

     Dynamical RAM for     wfc (w. buffer):    1257.24 MB

     Dynamical RAM for           str. fact:       4.94 MB

     Dynamical RAM for           local pot:       0.00 MB

     Dynamical RAM for          nlocal pot:       9.74 MB

     Dynamical RAM for                qrad:      10.54 MB

     Dynamical RAM for          rho,v,vnew:      16.06 MB

     Dynamical RAM for               rhoin:       5.35 MB

     Dynamical RAM for            rho*nmix:      39.52 MB

     Dynamical RAM for           G-vectors:       4.77 MB

     Dynamical RAM for          h,s,v(r/c):       2.38 MB

     Dynamical RAM for          <psi|beta>:       0.49 MB

     Dynamical RAM for                 psi:       7.93 MB

     Dynamical RAM for                hpsi:       7.93 MB

     Dynamical RAM for                spsi:       7.93 MB

     Dynamical RAM for      wfcinit/wfcrot:       9.96 MB

     Dynamical RAM for           addusdens:     250.68 MB

     Dynamical RAM for          addusforce:     287.85 MB

     Dynamical RAM for         addusstress:     250.06 MB

     Estimated static dynamical RAM per process >       1.33 GB

     Estimated max dynamical RAM per process >       1.61 GB

     Estimated total dynamical RAM >      25.79 GB

     Check: negative core charge=   -0.000003
     Generating pointlists ...
     new r_m :   0.0749 (alat units)  1.4726 (a.u.) for type    1
     new r_m :   0.0848 (alat units)  1.6681 (a.u.) for type    2
     new r_m :   0.0603 (alat units)  1.1866 (a.u.) for type    3
     new r_m :   0.0603 (alat units)  1.1866 (a.u.) for type    4

     Initial potential from superposition of free atoms

     starting charge  188.99132, renormalised to  189.00000
     Starting wfcs are  137 randomized atomic wfcs
     Checking if some PAW data can be deallocated... 
       PAW data deallocated on   13 nodes for type:  1
       PAW data deallocated on    4 nodes for type:  3

     total cpu time spent up to now is       84.8 secs

     Self-consistent Calculation

     iteration #  1     ecut=   100.00 Ry     beta= 0.40
     Davidson diagonalization with overlap
     ethr =  1.00E-02,  avg # of iterations =  3.0

     negative rho (up, down):  0.000E+00 7.210E-05

     total cpu time spent up to now is      331.9 secs

     total energy              =   -2123.76715388 Ry
     estimated scf accuracy    <       7.14136955 Ry

     total magnetization       =    19.00 Bohr mag/cell
     absolute magnetization    =    19.01 Bohr mag/cell

     iteration #  2     ecut=   100.00 Ry     beta= 0.40
     Davidson diagonalization with overlap
     ethr =  3.78E-03,  avg # of iterations =  2.0

     negative rho (up, down):  0.000E+00 3.717E-05

     total cpu time spent up to now is      556.7 secs

     total energy              =   -2120.97066250 Ry
     estimated scf accuracy    <      38.17649754 Ry

     total magnetization       =     7.76 Bohr mag/cell
     absolute magnetization    =     8.86 Bohr mag/cell

     iteration #  3     ecut=   100.00 Ry     beta= 0.40
     Davidson diagonalization with overlap
     ethr =  3.78E-03,  avg # of iterations =  2.1

     negative rho (up, down):  0.000E+00 1.551E-05

     total cpu time spent up to now is      753.1 secs

     total energy              =   -2124.02127563 Ry
     estimated scf accuracy    <      41.00896570 Ry

     total magnetization       =     6.76 Bohr mag/cell
     absolute magnetization    =     9.24 Bohr mag/cell

     iteration #  4     ecut=   100.00 Ry     beta= 0.40
     Davidson diagonalization with overlap
     ethr =  3.78E-03,  avg # of iterations =  2.0

     negative rho (up, down):  0.000E+00 2.103E-05

     total cpu time spent up to now is      944.4 secs

     total energy              =   -2124.48298885 Ry
     estimated scf accuracy    <      32.99985702 Ry

     total magnetization       =     9.53 Bohr mag/cell
     absolute magnetization    =     9.94 Bohr mag/cell

     iteration #  5     ecut=   100.00 Ry     beta= 0.40
     Davidson diagonalization with overlap
     ethr =  3.78E-03,  avg # of iterations =  1.5

     negative rho (up, down):  0.000E+00 5.587E-05

     total cpu time spent up to now is     1124.3 secs

     total energy              =   -2125.68460379 Ry
     estimated scf accuracy    <       6.24800105 Ry

     total magnetization       =    16.04 Bohr mag/cell
     absolute magnetization    =    16.13 Bohr mag/cell

     iteration #  6     ecut=   100.00 Ry     beta= 0.40
     Davidson diagonalization with overlap
     ethr =  3.31E-03,  avg # of iterations =  1.5

     negative rho (up, down):  0.000E+00 1.908E-04

     total cpu time spent up to now is     1303.4 secs

     total energy              =   -2126.02521463 Ry
     estimated scf accuracy    <       0.90935441 Ry

     total magnetization       =    18.82 Bohr mag/cell
     absolute magnetization    =    18.83 Bohr mag/cell

     iteration #  7     ecut=   100.00 Ry     beta= 0.40
     Davidson diagonalization with overlap
     ethr =  4.81E-04,  avg # of iterations =  1.1

     negative rho (up, down):  0.000E+00 5.018E-04

     total cpu time spent up to now is     1472.5 secs

     total energy              =   -2126.02298334 Ry
     estimated scf accuracy    <       0.44340506 Ry

     total magnetization       =    19.00 Bohr mag/cell
     absolute magnetization    =    19.01 Bohr mag/cell

     iteration #  8     ecut=   100.00 Ry     beta= 0.40
     Davidson diagonalization with overlap
     ethr =  2.35E-04,  avg # of iterations =  2.7

     negative rho (up, down):  0.000E+00 5.819E-04

     total cpu time spent up to now is     1668.6 secs

     total energy              =   -2126.03348713 Ry
     estimated scf accuracy    <       0.39069156 Ry

     total magnetization       =    19.00 Bohr mag/cell
     absolute magnetization    =    19.01 Bohr mag/cell

     iteration #  9     ecut=   100.00 Ry     beta= 0.40
     Davidson diagonalization with overlap
     ethr =  2.07E-04,  avg # of iterations =  1.0

     negative rho (up, down):  0.000E+00 8.839E-04

     total cpu time spent up to now is     1836.3 secs

     total energy              =   -2126.03512640 Ry
     estimated scf accuracy    <       0.08941470 Ry

     total magnetization       =    19.00 Bohr mag/cell
     absolute magnetization    =    19.01 Bohr mag/cell

     iteration # 10     ecut=   100.00 Ry     beta= 0.40
     Davidson diagonalization with overlap
     c_bands:  1 eigenvalues not converged
     c_bands:  1 eigenvalues not converged
     c_bands:  1 eigenvalues not converged
     c_bands:  1 eigenvalues not converged
     c_bands:  1 eigenvalues not converged
     ethr =  4.73E-05,  avg # of iterations = 14.0

     negative rho (up, down):  0.000E+00 8.832E-04

     total cpu time spent up to now is     2159.4 secs

     total energy              =   -2126.04513984 Ry
     estimated scf accuracy    <       0.36050721 Ry

     total magnetization       =    19.00 Bohr mag/cell
     absolute magnetization    =    19.03 Bohr mag/cell

     iteration # 11     ecut=   100.00 Ry     beta= 0.40
     Davidson diagonalization with overlap
     ethr =  4.73E-05,  avg # of iterations =  1.0

     negative rho (up, down):  0.000E+00 9.027E-04

     total cpu time spent up to now is     2326.0 secs

     total energy              =   -2126.04751033 Ry
     estimated scf accuracy    <       0.27122453 Ry

     total magnetization       =    19.00 Bohr mag/cell
     absolute magnetization    =    19.03 Bohr mag/cell

     iteration # 12     ecut=   100.00 Ry     beta= 0.40
     Davidson diagonalization with overlap
     ethr =  4.73E-05,  avg # of iterations =  1.0

     negative rho (up, down):  0.000E+00 8.539E-04

     total cpu time spent up to now is     2491.7 secs

     total energy              =   -2126.04390489 Ry
     estimated scf accuracy    <       0.27613659 Ry

     total magnetization       =    19.00 Bohr mag/cell
     absolute magnetization    =    19.03 Bohr mag/cell

     iteration # 13     ecut=   100.00 Ry     beta= 0.40
     Davidson diagonalization with overlap
     ethr =  4.73E-05,  avg # of iterations =  1.0

     negative rho (up, down):  0.000E+00 9.006E-04

     total cpu time spent up to now is     2657.4 secs

     total energy              =   -2126.04419956 Ry
     estimated scf accuracy    <       0.05344377 Ry

     total magnetization       =    19.00 Bohr mag/cell
     absolute magnetization    =    19.03 Bohr mag/cell

     iteration # 14     ecut=   100.00 Ry     beta= 0.40
     Davidson diagonalization with overlap
     ethr =  2.83E-05,  avg # of iterations =  1.0

     negative rho (up, down):  0.000E+00 9.297E-04

     total cpu time spent up to now is     2823.3 secs

     total energy              =   -2126.04655541 Ry
     estimated scf accuracy    <       0.02070923 Ry

     total magnetization       =    19.00 Bohr mag/cell
     absolute magnetization    =    19.04 Bohr mag/cell

     iteration # 15     ecut=   100.00 Ry     beta= 0.40
     Davidson diagonalization with overlap
     ethr =  1.10E-05,  avg # of iterations =  1.1

     negative rho (up, down):  0.000E+00 9.296E-04

     total cpu time spent up to now is     2990.7 secs

     total energy              =   -2126.04678612 Ry
     estimated scf accuracy    <       0.01180947 Ry

     total magnetization       =    19.00 Bohr mag/cell
     absolute magnetization    =    19.05 Bohr mag/cell

     iteration # 16     ecut=   100.00 Ry     beta= 0.40
     Davidson diagonalization with overlap
     ethr =  6.25E-06,  avg # of iterations =  1.3

     negative rho (up, down):  0.000E+00 9.210E-04

     total cpu time spent up to now is     3161.5 secs

     total energy              =   -2126.04673810 Ry
     estimated scf accuracy    <       0.00719882 Ry

     total magnetization       =    19.00 Bohr mag/cell
     absolute magnetization    =    19.05 Bohr mag/cell

     iteration # 17     ecut=   100.00 Ry     beta= 0.40
     Davidson diagonalization with overlap
     c_bands:  1 eigenvalues not converged
     c_bands:  1 eigenvalues not converged
     c_bands:  1 eigenvalues not converged
     c_bands:  1 eigenvalues not converged
     ethr =  3.81E-06,  avg # of iterations =  3.0

     negative rho (up, down):  0.000E+00 9.234E-04

     total cpu time spent up to now is     3353.6 secs

     total energy              =   -2126.04684029 Ry
     estimated scf accuracy    <       0.00172178 Ry

     total magnetization       =    19.00 Bohr mag/cell
     absolute magnetization    =    19.05 Bohr mag/cell

     iteration # 18     ecut=   100.00 Ry     beta= 0.40
     Davidson diagonalization with overlap
     c_bands:  1 eigenvalues not converged
     c_bands:  1 eigenvalues not converged
     c_bands:  1 eigenvalues not converged
     c_bands:  1 eigenvalues not converged
     c_bands:  1 eigenvalues not converged
     c_bands:  1 eigenvalues not converged
     c_bands:  1 eigenvalues not converged
     c_bands:  1 eigenvalues not converged
     c_bands:  1 eigenvalues not converged
     c_bands:  1 eigenvalues not converged
     c_bands:  1 eigenvalues not converged
     c_bands:  1 eigenvalues not converged
     c_bands:  1 eigenvalues not converged
     c_bands:  1 eigenvalues not converged
     c_bands:  1 eigenvalues not converged
     ethr =  9.11E-07,  avg # of iterations =  6.7

     negative rho (up, down):  0.000E+00 9.210E-04

     total cpu time spent up to now is     3585.4 secs

     total energy              =   -2126.04694432 Ry
     estimated scf accuracy    <       0.00063409 Ry

     total magnetization       =    19.00 Bohr mag/cell
     absolute magnetization    =    19.05 Bohr mag/cell

     iteration # 19     ecut=   100.00 Ry     beta= 0.40
     Davidson diagonalization with overlap
     ethr =  3.35E-07,  avg # of iterations =  3.3

     negative rho (up, down):  0.000E+00 9.191E-04

     total cpu time spent up to now is     3796.4 secs

     total energy              =   -2126.04702773 Ry
     estimated scf accuracy    <       0.00026623 Ry

     total magnetization       =    19.00 Bohr mag/cell
     absolute magnetization    =    19.05 Bohr mag/cell

     iteration # 20     ecut=   100.00 Ry     beta= 0.40
     Davidson diagonalization with overlap
     ethr =  1.41E-07,  avg # of iterations =  2.6

     negative rho (up, down):  0.000E+00 9.152E-04

     total cpu time spent up to now is     3995.5 secs

     total energy              =   -2126.04704891 Ry
     estimated scf accuracy    <       0.00011186 Ry

     total magnetization       =    19.00 Bohr mag/cell
     absolute magnetization    =    19.05 Bohr mag/cell

     iteration # 21     ecut=   100.00 Ry     beta= 0.40
     Davidson diagonalization with overlap
     ethr =  5.92E-08,  avg # of iterations =  3.3

     negative rho (up, down):  0.000E+00 9.138E-04

     total cpu time spent up to now is     4206.1 secs

     total energy              =   -2126.04706336 Ry
     estimated scf accuracy    <       0.00001906 Ry

     total magnetization       =    19.00 Bohr mag/cell
     absolute magnetization    =    19.05 Bohr mag/cell

     iteration # 22     ecut=   100.00 Ry     beta= 0.40
     Davidson diagonalization with overlap
     ethr =  1.01E-08,  avg # of iterations =  4.3

     negative rho (up, down):  0.000E+00 9.131E-04

     total cpu time spent up to now is     4501.8 secs

     total energy              =   -2126.04707176 Ry
     estimated scf accuracy    <       0.00000250 Ry

     total magnetization       =    19.00 Bohr mag/cell
     absolute magnetization    =    19.05 Bohr mag/cell

     iteration # 23     ecut=   100.00 Ry     beta= 0.40
     Davidson diagonalization with overlap
     ethr =  1.32E-09,  avg # of iterations =  1.5

     negative rho (up, down):  0.000E+00 9.125E-04

     total cpu time spent up to now is     4677.9 secs

     total energy              =   -2126.04707204 Ry
     estimated scf accuracy    <       0.00000360 Ry

     total magnetization       =    19.00 Bohr mag/cell
     absolute magnetization    =    19.05 Bohr mag/cell

     iteration # 24     ecut=   100.00 Ry     beta= 0.40
     Davidson diagonalization with overlap
     ethr =  1.32E-09,  avg # of iterations =  1.2

     negative rho (up, down):  0.000E+00 9.128E-04

     total cpu time spent up to now is     4849.1 secs

     total energy              =   -2126.04707228 Ry
     estimated scf accuracy    <       0.00000018 Ry

     total magnetization       =    19.00 Bohr mag/cell
     absolute magnetization    =    19.05 Bohr mag/cell

     iteration # 25     ecut=   100.00 Ry     beta= 0.40
     Davidson diagonalization with overlap
     ethr =  9.36E-11,  avg # of iterations =  4.7

     negative rho (up, down):  0.000E+00 9.128E-04

     total cpu time spent up to now is     5118.4 secs

     total energy              =   -2126.04707238 Ry
     estimated scf accuracy    <       0.00000035 Ry

     total magnetization       =    19.00 Bohr mag/cell
     absolute magnetization    =    19.05 Bohr mag/cell

     iteration # 26     ecut=   100.00 Ry     beta= 0.40
     Davidson diagonalization with overlap
     ethr =  9.36E-11,  avg # of iterations =  2.0

     negative rho (up, down):  0.000E+00 9.130E-04

     total cpu time spent up to now is     5310.6 secs

     total energy              =   -2126.04707241 Ry
     estimated scf accuracy    <       0.00000009 Ry

     total magnetization       =    19.00 Bohr mag/cell
     absolute magnetization    =    19.05 Bohr mag/cell

     iteration # 27     ecut=   100.00 Ry     beta= 0.40
     Davidson diagonalization with overlap
     ethr =  4.71E-11,  avg # of iterations =  2.0

     negative rho (up, down):  0.000E+00 9.129E-04

     total cpu time spent up to now is     5504.3 secs

     total energy              =   -2126.04707243 Ry
     estimated scf accuracy    <       0.00000004 Ry

     total magnetization       =    19.00 Bohr mag/cell
     absolute magnetization    =    19.05 Bohr mag/cell

     iteration # 28     ecut=   100.00 Ry     beta= 0.40
     Davidson diagonalization with overlap
     ethr =  2.15E-11,  avg # of iterations =  2.1

     negative rho (up, down):  0.000E+00 9.130E-04

     total cpu time spent up to now is     5701.0 secs

     total energy              =   -2126.04707245 Ry
     estimated scf accuracy    <          7.5E-09 Ry

     total magnetization       =    19.00 Bohr mag/cell
     absolute magnetization    =    19.05 Bohr mag/cell

     iteration # 29     ecut=   100.00 Ry     beta= 0.40
     Davidson diagonalization with overlap
     ethr =  3.97E-12,  avg # of iterations =  3.5

     negative rho (up, down):  0.000E+00 9.129E-04

     total cpu time spent up to now is     5922.9 secs

     total energy              =   -2126.04707245 Ry
     estimated scf accuracy    <       0.00000002 Ry

     total magnetization       =    19.00 Bohr mag/cell
     absolute magnetization    =    19.05 Bohr mag/cell

     iteration # 30     ecut=   100.00 Ry     beta= 0.40
     Davidson diagonalization with overlap
     ethr =  3.97E-12,  avg # of iterations =  2.0

     negative rho (up, down):  0.000E+00 9.129E-04

     total cpu time spent up to now is     6117.7 secs

     total energy              =   -2126.04707246 Ry
     estimated scf accuracy    <       0.00000001 Ry

     total magnetization       =    19.00 Bohr mag/cell
     absolute magnetization    =    19.05 Bohr mag/cell

     iteration # 31     ecut=   100.00 Ry     beta= 0.40
     Davidson diagonalization with overlap
     ethr =  3.97E-12,  avg # of iterations =  1.0

     negative rho (up, down):  0.000E+00 9.129E-04

     total cpu time spent up to now is     6284.0 secs

     total energy              =   -2126.04707246 Ry
     estimated scf accuracy    <          8.7E-10 Ry

     total magnetization       =    19.00 Bohr mag/cell
     absolute magnetization    =    19.05 Bohr mag/cell

     iteration # 32     ecut=   100.00 Ry     beta= 0.40
     Davidson diagonalization with overlap
     ethr =  4.62E-13,  avg # of iterations =  4.0

     negative rho (up, down):  0.000E+00 9.129E-04

     total cpu time spent up to now is     6513.6 secs

     total energy              =   -2126.04707246 Ry
     estimated scf accuracy    <          4.1E-09 Ry

     total magnetization       =    19.00 Bohr mag/cell
     absolute magnetization    =    19.05 Bohr mag/cell

     iteration # 33     ecut=   100.00 Ry     beta= 0.40
     Davidson diagonalization with overlap
     ethr =  4.62E-13,  avg # of iterations =  1.1

     negative rho (up, down):  0.000E+00 9.129E-04

     total cpu time spent up to now is     6682.8 secs

     total energy              =   -2126.04707246 Ry
     estimated scf accuracy    <          7.8E-10 Ry

     total magnetization       =    19.00 Bohr mag/cell
     absolute magnetization    =    19.05 Bohr mag/cell

     iteration # 34     ecut=   100.00 Ry     beta= 0.40
     Davidson diagonalization with overlap
     ethr =  4.13E-13,  avg # of iterations =  1.0

     negative rho (up, down):  0.000E+00 9.129E-04

     total cpu time spent up to now is     6848.6 secs

     total energy              =   -2126.04707246 Ry
     estimated scf accuracy    <          2.7E-10 Ry

     total magnetization       =    19.00 Bohr mag/cell
     absolute magnetization    =    19.05 Bohr mag/cell

     iteration # 35     ecut=   100.00 Ry     beta= 0.40
     Davidson diagonalization with overlap
     ethr =  1.45E-13,  avg # of iterations =  2.0

     negative rho (up, down):  0.000E+00 9.129E-04

     Magnetic moment per site:
     atom:    1    charge:    7.8665    magn:    0.0000    constr:    0.0000
     atom:    2    charge:   12.8050    magn:    3.5764    constr:    0.0000
     atom:    3    charge:   12.8519    magn:    3.4159    constr:    0.0000
     atom:    4    charge:   12.7688    magn:    3.6606    constr:    0.0000
     atom:    5    charge:   12.7768    magn:    3.6321    constr:    0.0000
     atom:    6    charge:    0.8122    magn:    0.0115    constr:    0.0000
     atom:    7    charge:    0.8229    magn:    0.0097    constr:    0.0000
     atom:    8    charge:    0.8141    magn:    0.0095    constr:    0.0000
     atom:    9    charge:    0.8130    magn:    0.0118    constr:    0.0000
     atom:   10    charge:    4.2118    magn:    0.0900    constr:    0.0000
     atom:   11    charge:    4.1875    magn:    0.1527    constr:    0.0000
     atom:   12    charge:    4.2109    magn:    0.1158    constr:    0.0000
     atom:   13    charge:    4.2148    magn:    0.1548    constr:    0.0000
     atom:   14    charge:    4.1923    magn:    0.1535    constr:    0.0000
     atom:   15    charge:    4.2047    magn:    0.0827    constr:    0.0000
     atom:   16    charge:    4.2139    magn:    0.1037    constr:    0.0000
     atom:   17    charge:    4.2112    magn:    0.1099    constr:    0.0000
     atom:   18    charge:    4.2208    magn:    0.0924    constr:    0.0000
     atom:   19    charge:    4.2027    magn:    0.1134    constr:    0.0000
     atom:   20    charge:    4.1833    magn:    0.1555    constr:    0.0000
     atom:   21    charge:    4.1887    magn:    0.1477    constr:    0.0000
     atom:   22    charge:    4.1865    magn:    0.1508    constr:    0.0000
     atom:   23    charge:    4.1785    magn:    0.1431    constr:    0.0000
     atom:   24    charge:    4.2059    magn:    0.1199    constr:    0.0000
     atom:   25    charge:    4.1834    magn:    0.1708    constr:    0.0000

     total cpu time spent up to now is     7041.8 secs

     End of self-consistent calculation

 ------ SPIN UP ------------


          k = 0.0000 0.0000 0.0000 ( 36463 PWs)   bands (ev):

   -85.3731 -85.2983 -85.2850 -84.5004 -51.4030 -51.3810 -51.3634 -51.3189
   -51.3039 -51.3004 -51.2708 -51.2383 -51.2037 -50.9004 -50.4961 -50.1787
   -44.9564 -17.0326 -17.0158 -16.9698 -16.2989 -16.0761 -15.9490 -15.7867
   -13.9594 -13.8176 -13.7313 -13.6588 -13.6222 -13.5848 -13.5346 -13.4455
   -13.4151 -13.4066 -13.3567 -13.2573  -4.4213  -3.7663  -3.6233  -3.2683
    -2.2636  -2.0313  -1.9565  -1.7758  -1.5473  -1.5027  -1.3519  -1.2632
    -1.0880  -1.0267  -0.9658  -0.7261  -0.1332  -0.0462   0.0025   0.1784
     0.3346   0.3535   0.4518   0.5008   0.7224   0.7744   0.8638   1.0019
     1.0297   1.1238   1.2001   1.3102   1.4841   1.5599   1.7469   1.8020
     1.8903   1.9523   2.0779   2.1425   2.2800   2.3015   2.3793   2.4257
     2.5884   2.6313   2.7925   2.8476   2.9262   2.9922   3.0371   3.2239
     3.3263   3.4236   3.4869   3.5262   3.6012   3.6607   3.6917   3.8534
     4.0314   4.0672   4.2243   4.2817   4.4542   4.5021   4.7154   4.7521
     8.9116  10.9043  11.3090  11.6576  12.1109  12.6031  13.0914  13.1077
    13.3373  13.3948

     occupation numbers 
     1.0000   1.0000   1.0000   1.0000   1.0000   1.0000   1.0000   1.0000
     1.0000   1.0000   1.0000   1.0000   1.0000   1.0000   1.0000   1.0000
     1.0000   1.0000   1.0000   1.0000   1.0000   1.0000   1.0000   1.0000
     1.0000   1.0000   1.0000   1.0000   1.0000   1.0000   1.0000   1.0000
     1.0000   1.0000   1.0000   1.0000   1.0000   1.0000   1.0000   1.0000
     1.0000   1.0000   1.0000   1.0000   1.0000   1.0000   1.0000   1.0000
     1.0000   1.0000   1.0000   1.0000   1.0000   1.0000   1.0000   1.0000
     1.0000   1.0000   1.0000   1.0000   1.0000   1.0000   1.0000   1.0000
     1.0000   1.0000   1.0000   1.0000   1.0000   1.0000   1.0000   1.0000
     1.0000   1.0000   1.0000   1.0000   1.0000   1.0000   1.0000   1.0000
     1.0000   1.0000   1.0000   1.0000   1.0000   1.0000   1.0000   1.0000
     1.0000   1.0000   1.0000   1.0000   1.0000   1.0000   1.0000   1.0000
     1.0000   1.0000   1.0000   1.0000   1.0000   1.0000   1.0000   1.0000
     0.0000   0.0000   0.0000   0.0000   0.0000   0.0000   0.0000   0.0000
     0.0000   0.0000

          k = 0.0000 0.0000 0.2337 ( 36493 PWs)   bands (ev):

   -85.3731 -85.2983 -85.2850 -84.5004 -51.4030 -51.3810 -51.3634 -51.3189
   -51.3039 -51.3004 -51.2708 -51.2383 -51.2037 -50.9004 -50.4961 -50.1787
   -44.9564 -17.0430 -17.0103 -16.9693 -16.2835 -16.0736 -15.9391 -15.7846
   -13.9654 -13.8203 -13.7341 -13.6631 -13.6299 -13.5899 -13.5391 -13.4505
   -13.4189 -13.4019 -13.3627 -13.2607  -4.3949  -3.7585  -3.6178  -3.2688
    -2.2521  -2.0295  -1.9372  -1.7570  -1.5387  -1.5074  -1.3432  -1.2516
    -1.0899  -1.0182  -0.9538  -0.7376  -0.1489  -0.0494   0.0249   0.1983
     0.3310   0.3567   0.4486   0.5056   0.7069   0.7758   0.8553   0.9903
     1.0386   1.1106   1.1881   1.3244   1.4923   1.5402   1.7249   1.7785
     1.8921   1.9378   2.0429   2.1643   2.2692   2.2864   2.3671   2.4203
     2.6092   2.6532   2.7752   2.8399   2.9321   2.9949   3.0313   3.2274
     3.3276   3.4010   3.4755   3.5045   3.5901   3.6274   3.7512   3.8543
     4.0158   4.0596   4.2322   4.2789   4.4522   4.4987   4.7056   4.7597
     9.0539  10.9662  11.3487  11.7029  12.1518  12.5151  13.0190  13.1435
    13.2787  13.3880

     occupation numbers 
     1.0000   1.0000   1.0000   1.0000   1.0000   1.0000   1.0000   1.0000
     1.0000   1.0000   1.0000   1.0000   1.0000   1.0000   1.0000   1.0000
     1.0000   1.0000   1.0000   1.0000   1.0000   1.0000   1.0000   1.0000
     1.0000   1.0000   1.0000   1.0000   1.0000   1.0000   1.0000   1.0000
     1.0000   1.0000   1.0000   1.0000   1.0000   1.0000   1.0000   1.0000
     1.0000   1.0000   1.0000   1.0000   1.0000   1.0000   1.0000   1.0000
     1.0000   1.0000   1.0000   1.0000   1.0000   1.0000   1.0000   1.0000
     1.0000   1.0000   1.0000   1.0000   1.0000   1.0000   1.0000   1.0000
     1.0000   1.0000   1.0000   1.0000   1.0000   1.0000   1.0000   1.0000
     1.0000   1.0000   1.0000   1.0000   1.0000   1.0000   1.0000   1.0000
     1.0000   1.0000   1.0000   1.0000   1.0000   1.0000   1.0000   1.0000
     1.0000   1.0000   1.0000   1.0000   1.0000   1.0000   1.0000   1.0000
     1.0000   1.0000   1.0000   1.0000   1.0000   1.0000   1.0000   1.0000
     0.0000   0.0000   0.0000   0.0000   0.0000   0.0000   0.0000   0.0000
     0.0000   0.0000

          k = 0.0000 0.0000 0.4675 ( 36542 PWs)   bands (ev):

   -85.3731 -85.2983 -85.2851 -84.5004 -51.4030 -51.3810 -51.3634 -51.3189
   -51.3039 -51.3004 -51.2708 -51.2383 -51.2037 -50.9004 -50.4961 -50.1787
   -44.9564 -17.0615 -17.0038 -16.9681 -16.2426 -16.0689 -15.9124 -15.7807
   -13.9831 -13.8287 -13.7412 -13.6750 -13.6491 -13.6042 -13.5464 -13.4634
   -13.4283 -13.3918 -13.3742 -13.2704  -4.3242  -3.7344  -3.6046  -3.2880
    -2.2258  -2.0009  -1.8928  -1.7244  -1.5231  -1.5103  -1.3331  -1.2048
    -1.1000  -0.9820  -0.9331  -0.7655  -0.1478  -0.0523   0.0694   0.2446
     0.3076   0.3728   0.4503   0.5205   0.6964   0.7523   0.8547   0.9472
     1.0425   1.1075   1.1787   1.3415   1.4499   1.4912   1.6911   1.7166
     1.8527   1.9188   2.0054   2.1574   2.2181   2.2632   2.3513   2.4576
     2.5718   2.6818   2.7207   2.8687   2.9131   2.9405   3.0917   3.2076
     3.3045   3.3564   3.4493   3.5517   3.5965   3.6160   3.7771   3.8856
     3.9884   4.0408   4.2394   4.2787   4.4517   4.4883   4.6692   4.7841
     9.4365  11.1191  11.4488  11.7957  12.2175  12.3882  12.9070  13.0556
    13.1943  13.2738

     occupation numbers 
     1.0000   1.0000   1.0000   1.0000   1.0000   1.0000   1.0000   1.0000
     1.0000   1.0000   1.0000   1.0000   1.0000   1.0000   1.0000   1.0000
     1.0000   1.0000   1.0000   1.0000   1.0000   1.0000   1.0000   1.0000
     1.0000   1.0000   1.0000   1.0000   1.0000   1.0000   1.0000   1.0000
     1.0000   1.0000   1.0000   1.0000   1.0000   1.0000   1.0000   1.0000
     1.0000   1.0000   1.0000   1.0000   1.0000   1.0000   1.0000   1.0000
     1.0000   1.0000   1.0000   1.0000   1.0000   1.0000   1.0000   1.0000
     1.0000   1.0000   1.0000   1.0000   1.0000   1.0000   1.0000   1.0000
     1.0000   1.0000   1.0000   1.0000   1.0000   1.0000   1.0000   1.0000
     1.0000   1.0000   1.0000   1.0000   1.0000   1.0000   1.0000   1.0000
     1.0000   1.0000   1.0000   1.0000   1.0000   1.0000   1.0000   1.0000
     1.0000   1.0000   1.0000   1.0000   1.0000   1.0000   1.0000   1.0000
     1.0000   1.0000   1.0000   1.0000   1.0000   1.0000   1.0000   1.0000
     0.0000   0.0000   0.0000   0.0000   0.0000   0.0000   0.0000   0.0000
     0.0000   0.0000

          k = 0.0000 0.0000 0.7012 ( 36506 PWs)   bands (ev):

   -85.3731 -85.2983 -85.2850 -84.5004 -51.4030 -51.3810 -51.3634 -51.3189
   -51.3039 -51.3004 -51.2708 -51.2383 -51.2037 -50.9004 -50.4961 -50.1788
   -44.9563 -17.0786 -16.9991 -16.9669 -16.1906 -16.0684 -15.8775 -15.7804
   -14.0071 -13.8413 -13.7500 -13.6884 -13.6688 -13.6252 -13.5491 -13.4765
   -13.4406 -13.3862 -13.3753 -13.2840  -4.2356  -3.6942  -3.5910  -3.3454
    -2.2019  -1.9632  -1.8196  -1.7007  -1.5261  -1.4940  -1.3233  -1.1623
    -1.0958  -0.9577  -0.9040  -0.7831  -0.0923  -0.0122   0.1011   0.2522
     0.3211   0.3843   0.4747   0.5408   0.6988   0.7620   0.8411   0.8928
     1.0009   1.1045   1.1994   1.2846   1.3529   1.4245   1.6204   1.7177
     1.7976   1.8906   1.9787   2.0790   2.2184   2.2256   2.3718   2.4290
     2.5285   2.6509   2.7100   2.7969   2.8328   2.9954   3.1446   3.1847
     3.2730   3.3342   3.4573   3.5812   3.6276   3.7043   3.7814   3.9080
     3.9806   4.0376   4.2413   4.2770   4.4430   4.4843   4.6090   4.8142
     9.9634  11.2557  11.5341  11.7789  12.1748  12.5729  12.7192  12.9184
    13.0343  13.2162

     occupation numbers 
     1.0000   1.0000   1.0000   1.0000   1.0000   1.0000   1.0000   1.0000
     1.0000   1.0000   1.0000   1.0000   1.0000   1.0000   1.0000   1.0000
     1.0000   1.0000   1.0000   1.0000   1.0000   1.0000   1.0000   1.0000
     1.0000   1.0000   1.0000   1.0000   1.0000   1.0000   1.0000   1.0000
     1.0000   1.0000   1.0000   1.0000   1.0000   1.0000   1.0000   1.0000
     1.0000   1.0000   1.0000   1.0000   1.0000   1.0000   1.0000   1.0000
     1.0000   1.0000   1.0000   1.0000   1.0000   1.0000   1.0000   1.0000
     1.0000   1.0000   1.0000   1.0000   1.0000   1.0000   1.0000   1.0000
     1.0000   1.0000   1.0000   1.0000   1.0000   1.0000   1.0000   1.0000
     1.0000   1.0000   1.0000   1.0000   1.0000   1.0000   1.0000   1.0000
     1.0000   1.0000   1.0000   1.0000   1.0000   1.0000   1.0000   1.0000
     1.0000   1.0000   1.0000   1.0000   1.0000   1.0000   1.0000   1.0000
     1.0000   1.0000   1.0000   1.0000   1.0000   1.0000   1.0000   1.0000
     0.0000   0.0000   0.0000   0.0000   0.0000   0.0000   0.0000   0.0000
     0.0000   0.0000

          k = 0.0000 0.0000 0.9349 ( 36496 PWs)   bands (ev):

   -85.3731 -85.2983 -85.2850 -84.5004 -51.4030 -51.3810 -51.3634 -51.3189
   -51.3039 -51.3004 -51.2708 -51.2383 -51.2037 -50.9004 -50.4961 -50.1788
   -44.9563 -17.0888 -16.9967 -16.9663 -16.1481 -16.0759 -15.8487 -15.7861
   -14.0249 -13.8513 -13.7571 -13.6963 -13.6787 -13.6435 -13.5486 -13.4822
   -13.4498 -13.3902 -13.3642 -13.2959  -4.1715  -3.6534  -3.5758  -3.4175
    -2.1877  -1.9486  -1.7582  -1.6818  -1.5221  -1.4881  -1.3169  -1.1595
    -1.0661  -0.9721  -0.8907  -0.7633  -0.0047   0.0568   0.0945   0.2486
     0.3099   0.4212   0.5129   0.6051   0.6885   0.7651   0.8068   0.8875
     0.9547   1.0315   1.1180   1.1541   1.3842   1.4355   1.6018   1.7142
     1.7462   1.8971   1.9417   2.0655   2.1490   2.1964   2.3451   2.4229
     2.5283   2.6032   2.7028   2.7571   2.8003   3.0006   3.1611   3.2018
     3.2876   3.3220   3.4316   3.5923   3.6485   3.7593   3.8448   3.8943
     4.0052   4.0759   4.2159   4.2823   4.4092   4.4973   4.5554   4.8347
    10.5318  11.0659  11.5091  11.8570  12.1885  12.5466  12.7906  12.8556
    12.9319  13.1688

     occupation numbers 
     1.0000   1.0000   1.0000   1.0000   1.0000   1.0000   1.0000   1.0000
     1.0000   1.0000   1.0000   1.0000   1.0000   1.0000   1.0000   1.0000
     1.0000   1.0000   1.0000   1.0000   1.0000   1.0000   1.0000   1.0000
     1.0000   1.0000   1.0000   1.0000   1.0000   1.0000   1.0000   1.0000
     1.0000   1.0000   1.0000   1.0000   1.0000   1.0000   1.0000   1.0000
     1.0000   1.0000   1.0000   1.0000   1.0000   1.0000   1.0000   1.0000
     1.0000   1.0000   1.0000   1.0000   1.0000   1.0000   1.0000   1.0000
     1.0000   1.0000   1.0000   1.0000   1.0000   1.0000   1.0000   1.0000
     1.0000   1.0000   1.0000   1.0000   1.0000   1.0000   1.0000   1.0000
     1.0000   1.0000   1.0000   1.0000   1.0000   1.0000   1.0000   1.0000
     1.0000   1.0000   1.0000   1.0000   1.0000   1.0000   1.0000   1.0000
     1.0000   1.0000   1.0000   1.0000   1.0000   1.0000   1.0000   1.0000
     1.0000   1.0000   1.0000   1.0000   1.0000   1.0000   1.0000   1.0000
     0.0000   0.0000   0.0000   0.0000   0.0000   0.0000   0.0000   0.0000
     0.0000   0.0000

          k = 0.0000 0.2391 0.0000 ( 36485 PWs)   bands (ev):

   -85.3731 -85.2983 -85.2850 -84.5004 -51.4030 -51.3810 -51.3634 -51.3189
   -51.3039 -51.3004 -51.2708 -51.2383 -51.2037 -50.9004 -50.4961 -50.1787
   -44.9564 -17.0327 -17.0175 -16.9695 -16.2821 -16.0773 -15.9456 -15.7992
   -13.9693 -13.8204 -13.7373 -13.6632 -13.6234 -13.5840 -13.5405 -13.4485
   -13.4275 -13.3688 -13.3610 -13.2574  -4.3879  -3.7567  -3.6338  -3.2765
    -2.2445  -2.0257  -1.9449  -1.7756  -1.5476  -1.4838  -1.3536  -1.2330
    -1.0970  -1.0363  -0.9433  -0.7107  -0.1573  -0.0650  -0.0014   0.1785
     0.3131   0.3575   0.4205   0.5042   0.6913   0.7977   0.8644   1.0118
     1.0883   1.1271   1.1951   1.3113   1.4484   1.5593   1.6833   1.7430
     1.8817   1.9449   2.0794   2.1631   2.2575   2.3193   2.3805   2.4579
     2.5918   2.6513   2.7183   2.8146   2.9047   3.0270   3.0785   3.1980
     3.3333   3.3634   3.4524   3.5396   3.6164   3.6676   3.7195   3.8463
     4.0168   4.0795   4.2155   4.2654   4.3829   4.5545   4.7352   4.7998
     9.0632  10.9971  11.3452  11.6281  12.1277  12.6205  13.0617  13.1114
    13.3338  13.3494

     occupation numbers 
     1.0000   1.0000   1.0000   1.0000   1.0000   1.0000   1.0000   1.0000
     1.0000   1.0000   1.0000   1.0000   1.0000   1.0000   1.0000   1.0000
     1.0000   1.0000   1.0000   1.0000   1.0000   1.0000   1.0000   1.0000
     1.0000   1.0000   1.0000   1.0000   1.0000   1.0000   1.0000   1.0000
     1.0000   1.0000   1.0000   1.0000   1.0000   1.0000   1.0000   1.0000
     1.0000   1.0000   1.0000   1.0000   1.0000   1.0000   1.0000   1.0000
     1.0000   1.0000   1.0000   1.0000   1.0000   1.0000   1.0000   1.0000
     1.0000   1.0000   1.0000   1.0000   1.0000   1.0000   1.0000   1.0000
     1.0000   1.0000   1.0000   1.0000   1.0000   1.0000   1.0000   1.0000
     1.0000   1.0000   1.0000   1.0000   1.0000   1.0000   1.0000   1.0000
     1.0000   1.0000   1.0000   1.0000   1.0000   1.0000   1.0000   1.0000
     1.0000   1.0000   1.0000   1.0000   1.0000   1.0000   1.0000   1.0000
     1.0000   1.0000   1.0000   1.0000   1.0000   1.0000   1.0000   1.0000
     0.0000   0.0000   0.0000   0.0000   0.0000   0.0000   0.0000   0.0000
     0.0000   0.0000

          k = 0.0000 0.2391 0.2337 ( 36495 PWs)   bands (ev):

   -85.3731 -85.2983 -85.2850 -84.5004 -51.4030 -51.3810 -51.3634 -51.3189
   -51.3039 -51.3004 -51.2708 -51.2383 -51.2037 -50.9004 -50.4961 -50.1787
   -44.9564 -17.0429 -17.0115 -16.9690 -16.2674 -16.0780 -15.9333 -15.7968
   -13.9696 -13.8192 -13.7480 -13.6673 -13.6328 -13.5887 -13.5437 -13.4528
   -13.4259 -13.3758 -13.3637 -13.2604  -4.3534  -3.7528  -3.6229  -3.2895
    -2.2327  -2.0185  -1.9295  -1.7506  -1.5458  -1.4942  -1.3584  -1.2206
    -1.0782  -1.0387  -0.9319  -0.6995  -0.1780  -0.0666   0.0173   0.1844
     0.2935   0.3628   0.4163   0.4998   0.7222   0.7994   0.8726   0.9823
     1.0804   1.1276   1.1969   1.3009   1.4536   1.5464   1.6346   1.7509
     1.8728   1.9201   2.1126   2.1324   2.2302   2.3333   2.3691   2.4441
     2.6070   2.6737   2.7326   2.8301   2.8826   2.9980   3.0838   3.2161
     3.3120   3.3368   3.4726   3.4918   3.5782   3.6787   3.7719   3.8518
     3.9936   4.0671   4.1974   4.2653   4.4131   4.5377   4.7329   4.8031
     9.1934  11.0431  11.3908  11.6826  12.1903  12.5592  13.0147  13.1249
    13.2799  13.3628

     occupation numbers 
     1.0000   1.0000   1.0000   1.0000   1.0000   1.0000   1.0000   1.0000
     1.0000   1.0000   1.0000   1.0000   1.0000   1.0000   1.0000   1.0000
     1.0000   1.0000   1.0000   1.0000   1.0000   1.0000   1.0000   1.0000
     1.0000   1.0000   1.0000   1.0000   1.0000   1.0000   1.0000   1.0000
     1.0000   1.0000   1.0000   1.0000   1.0000   1.0000   1.0000   1.0000
     1.0000   1.0000   1.0000   1.0000   1.0000   1.0000   1.0000   1.0000
     1.0000   1.0000   1.0000   1.0000   1.0000   1.0000   1.0000   1.0000
     1.0000   1.0000   1.0000   1.0000   1.0000   1.0000   1.0000   1.0000
     1.0000   1.0000   1.0000   1.0000   1.0000   1.0000   1.0000   1.0000
     1.0000   1.0000   1.0000   1.0000   1.0000   1.0000   1.0000   1.0000
     1.0000   1.0000   1.0000   1.0000   1.0000   1.0000   1.0000   1.0000
     1.0000   1.0000   1.0000   1.0000   1.0000   1.0000   1.0000   1.0000
     1.0000   1.0000   1.0000   1.0000   1.0000   1.0000   1.0000   1.0000
     0.0000   0.0000   0.0000   0.0000   0.0000   0.0000   0.0000   0.0000
     0.0000   0.0000

          k = 0.0000 0.2391 0.4675 ( 36500 PWs)   bands (ev):

   -85.3731 -85.2983 -85.2850 -84.5004 -51.4030 -51.3810 -51.3634 -51.3189
   -51.3039 -51.3004 -51.2708 -51.2383 -51.2037 -50.9004 -50.4961 -50.1787
   -44.9564 -17.0607 -17.0046 -16.9678 -16.2282 -16.0750 -15.9054 -15.7912
   -13.9849 -13.8267 -13.7547 -13.6793 -13.6516 -13.6067 -13.5512 -13.4638
   -13.4297 -13.3896 -13.3613 -13.2679  -4.2780  -3.7319  -3.6006  -3.3185
    -2.2072  -1.9842  -1.8869  -1.7169  -1.5298  -1.5081  -1.3473  -1.1799
    -1.0867  -0.9793  -0.9383  -0.7069  -0.1856  -0.0709   0.0495   0.2228
     0.2678   0.3657   0.4325   0.5178   0.7236   0.7655   0.8691   0.9733
     1.0822   1.1268   1.1647   1.3161   1.4228   1.5177   1.6072   1.7258
     1.8241   1.9036   1.9964   2.1395   2.2104   2.3192   2.3540   2.4656
     2.5746   2.6400   2.7449   2.8292   2.9045   2.9567   3.0541   3.2246
     3.2929   3.3433   3.4127   3.5081   3.5792   3.6687   3.8113   3.8869
     3.9577   4.0540   4.2166   4.2577   4.4176   4.5142   4.7306   4.8140
     9.5549  11.1875  11.5009  11.7982  12.2428  12.4908  12.9176  13.0134
    13.1959  13.2885

     occupation numbers 
     1.0000   1.0000   1.0000   1.0000   1.0000   1.0000   1.0000   1.0000
     1.0000   1.0000   1.0000   1.0000   1.0000   1.0000   1.0000   1.0000
     1.0000   1.0000   1.0000   1.0000   1.0000   1.0000   1.0000   1.0000
     1.0000   1.0000   1.0000   1.0000   1.0000   1.0000   1.0000   1.0000
     1.0000   1.0000   1.0000   1.0000   1.0000   1.0000   1.0000   1.0000
     1.0000   1.0000   1.0000   1.0000   1.0000   1.0000   1.0000   1.0000
     1.0000   1.0000   1.0000   1.0000   1.0000   1.0000   1.0000   1.0000
     1.0000   1.0000   1.0000   1.0000   1.0000   1.0000   1.0000   1.0000
     1.0000   1.0000   1.0000   1.0000   1.0000   1.0000   1.0000   1.0000
     1.0000   1.0000   1.0000   1.0000   1.0000   1.0000   1.0000   1.0000
     1.0000   1.0000   1.0000   1.0000   1.0000   1.0000   1.0000   1.0000
     1.0000   1.0000   1.0000   1.0000   1.0000   1.0000   1.0000   1.0000
     1.0000   1.0000   1.0000   1.0000   1.0000   1.0000   1.0000   1.0000
     0.0000   0.0000   0.0000   0.0000   0.0000   0.0000   0.0000   0.0000
     0.0000   0.0000

          k = 0.0000 0.2391 0.7012 ( 36515 PWs)   bands (ev):

   -85.3731 -85.2983 -85.2850 -84.5004 -51.4030 -51.3810 -51.3634 -51.3189
   -51.3039 -51.3004 -51.2708 -51.2383 -51.2037 -50.9004 -50.4961 -50.1788
   -44.9563 -17.0774 -16.9998 -16.9667 -16.1784 -16.0736 -15.8717 -15.7883
   -14.0103 -13.8423 -13.7554 -13.6937 -13.6710 -13.6312 -13.5543 -13.4768
   -13.4405 -13.3974 -13.3532 -13.2787  -4.1915  -3.6956  -3.5742  -3.3758
    -2.1872  -1.9464  -1.8123  -1.6983  -1.5146  -1.5026  -1.3336  -1.1353
    -1.0909  -0.9818  -0.8838  -0.7317  -0.1283  -0.0432   0.0581   0.2418
     0.2547   0.3985   0.4884   0.5202   0.6942   0.7735   0.8505   0.9725
     1.0464   1.1082   1.1847   1.3089   1.3636   1.4353   1.5741   1.6535
     1.7949   1.8673   1.9465   2.0511   2.1939   2.2750   2.3941   2.4656
     2.5296   2.6073   2.7007   2.7902   2.8514   2.9761   3.0516   3.2211
     3.2766   3.3266   3.4051   3.5578   3.5995   3.7158   3.8169   3.9109
     3.9649   4.0597   4.2197   4.2717   4.3853   4.5176   4.7001   4.8388
    10.0590  11.3476  11.5892  11.8167  12.2061  12.6588  12.7437  12.9043
    12.9953  13.2496

     occupation numbers 
     1.0000   1.0000   1.0000   1.0000   1.0000   1.0000   1.0000   1.0000
     1.0000   1.0000   1.0000   1.0000   1.0000   1.0000   1.0000   1.0000
     1.0000   1.0000   1.0000   1.0000   1.0000   1.0000   1.0000   1.0000
     1.0000   1.0000   1.0000   1.0000   1.0000   1.0000   1.0000   1.0000
     1.0000   1.0000   1.0000   1.0000   1.0000   1.0000   1.0000   1.0000
     1.0000   1.0000   1.0000   1.0000   1.0000   1.0000   1.0000   1.0000
     1.0000   1.0000   1.0000   1.0000   1.0000   1.0000   1.0000   1.0000
     1.0000   1.0000   1.0000   1.0000   1.0000   1.0000   1.0000   1.0000
     1.0000   1.0000   1.0000   1.0000   1.0000   1.0000   1.0000   1.0000
     1.0000   1.0000   1.0000   1.0000   1.0000   1.0000   1.0000   1.0000
     1.0000   1.0000   1.0000   1.0000   1.0000   1.0000   1.0000   1.0000
     1.0000   1.0000   1.0000   1.0000   1.0000   1.0000   1.0000   1.0000
     1.0000   1.0000   1.0000   1.0000   1.0000   1.0000   1.0000   1.0000
     0.0000   0.0000   0.0000   0.0000   0.0000   0.0000   0.0000   0.0000
     0.0000   0.0000

          k = 0.0000 0.2391 0.9349 ( 36488 PWs)   bands (ev):

   -85.3731 -85.2983 -85.2850 -84.5004 -51.4030 -51.3810 -51.3634 -51.3189
   -51.3039 -51.3004 -51.2708 -51.2383 -51.2037 -50.9004 -50.4961 -50.1788
   -44.9563 -17.0875 -16.9972 -16.9661 -16.1407 -16.0749 -15.8478 -15.7899
   -14.0310 -13.8559 -13.7579 -13.6991 -13.6825 -13.6491 -13.5544 -13.4846
   -13.4506 -13.3987 -13.3434 -13.2885  -4.1395  -3.6556  -3.5560  -3.4270
    -2.1832  -1.9345  -1.7521  -1.6824  -1.5080  -1.4810  -1.3143  -1.1411
    -1.0590  -1.0085  -0.8491  -0.7554  -0.0318   0.0147   0.0355   0.2120
     0.2723   0.4756   0.5079   0.5671   0.6814   0.8025   0.8222   0.9465
     0.9781   1.0919   1.1415   1.1687   1.3755   1.4129   1.5553   1.6450
     1.7905   1.8607   1.9139   2.0455   2.1445   2.2010   2.3438   2.4548
     2.5595   2.5965   2.6496   2.7717   2.8075   2.9887   3.0569   3.2096
     3.2633   3.3274   3.3851   3.5916   3.6178   3.7678   3.8239   3.9426
     3.9911   4.0868   4.1960   4.2960   4.3477   4.5408   4.6678   4.8499
    10.6068  11.1908  11.5633  11.8823  12.2493  12.5687  12.7916  12.8442
    12.9683  13.1874

     occupation numbers 
     1.0000   1.0000   1.0000   1.0000   1.0000   1.0000   1.0000   1.0000
     1.0000   1.0000   1.0000   1.0000   1.0000   1.0000   1.0000   1.0000
     1.0000   1.0000   1.0000   1.0000   1.0000   1.0000   1.0000   1.0000
     1.0000   1.0000   1.0000   1.0000   1.0000   1.0000   1.0000   1.0000
     1.0000   1.0000   1.0000   1.0000   1.0000   1.0000   1.0000   1.0000
     1.0000   1.0000   1.0000   1.0000   1.0000   1.0000   1.0000   1.0000
     1.0000   1.0000   1.0000   1.0000   1.0000   1.0000   1.0000   1.0000
     1.0000   1.0000   1.0000   1.0000   1.0000   1.0000   1.0000   1.0000
     1.0000   1.0000   1.0000   1.0000   1.0000   1.0000   1.0000   1.0000
     1.0000   1.0000   1.0000   1.0000   1.0000   1.0000   1.0000   1.0000
     1.0000   1.0000   1.0000   1.0000   1.0000   1.0000   1.0000   1.0000
     1.0000   1.0000   1.0000   1.0000   1.0000   1.0000   1.0000   1.0000
     1.0000   1.0000   1.0000   1.0000   1.0000   1.0000   1.0000   1.0000
     0.0000   0.0000   0.0000   0.0000   0.0000   0.0000   0.0000   0.0000
     0.0000   0.0000

          k = 0.0000 0.4781 0.0000 ( 36507 PWs)   bands (ev):

   -85.3731 -85.2983 -85.2850 -84.5004 -51.4030 -51.3810 -51.3634 -51.3189
   -51.3039 -51.3004 -51.2708 -51.2383 -51.2037 -50.9004 -50.4961 -50.1787
   -44.9564 -17.0331 -17.0209 -16.9690 -16.2380 -16.0844 -15.9384 -15.8290
   -13.9923 -13.8223 -13.7583 -13.6670 -13.6277 -13.5805 -13.5492 -13.4539
   -13.4173 -13.3775 -13.3235 -13.2573  -4.3040  -3.7684  -3.6255  -3.3026
    -2.1946  -2.0166  -1.9215  -1.7721  -1.5153  -1.4737  -1.3510  -1.1818
    -1.1129  -1.0307  -0.8964  -0.6892  -0.2182  -0.1086  -0.0145   0.1845
     0.2306   0.3508   0.4678   0.5145   0.6148   0.7937   0.8785   1.0200
     1.1159   1.1374   1.2209   1.3450   1.3798   1.4708   1.5906   1.7904
     1.8389   1.9460   2.0577   2.1366   2.2355   2.3086   2.4227   2.4802
     2.5420   2.6211   2.7364   2.7665   2.9137   3.0381   3.0536   3.1199
     3.2806   3.3685   3.4792   3.5218   3.5942   3.6693   3.7979   3.8560
     4.0045   4.0695   4.1457   4.2150   4.3973   4.6105   4.7801   4.8574
     9.4709  11.1154  11.2988  11.7374  12.1188  12.6220  12.9552  13.1364
    13.2498  13.3673

     occupation numbers 
     1.0000   1.0000   1.0000   1.0000   1.0000   1.0000   1.0000   1.0000
     1.0000   1.0000   1.0000   1.0000   1.0000   1.0000   1.0000   1.0000
     1.0000   1.0000   1.0000   1.0000   1.0000   1.0000   1.0000   1.0000
     1.0000   1.0000   1.0000   1.0000   1.0000   1.0000   1.0000   1.0000
     1.0000   1.0000   1.0000   1.0000   1.0000   1.0000   1.0000   1.0000
     1.0000   1.0000   1.0000   1.0000   1.0000   1.0000   1.0000   1.0000
[...]
     atom   14 type  3   force =     0.00126777   -0.00048000    0.00043672
     atom   15 type  3   force =    -0.00321063    0.00071811   -0.00186982
     atom   16 type  3   force =     0.00098042   -0.00070428    0.00440069
     atom   17 type  3   force =    -0.00195149    0.00052373   -0.00074565
     atom   18 type  3   force =     0.00093468   -0.00326280    0.00023656
     atom   19 type  3   force =     0.00161785   -0.00236238    0.00554748
     atom   20 type  3   force =    -0.00076765    0.00013443   -0.00045059
     atom   21 type  3   force =     0.00208326    0.00031302    0.00016074
     atom   22 type  3   force =     0.00022482    0.00001685   -0.00058526
     atom   23 type  3   force =     0.00101094    0.00023477   -0.00025976
     atom   24 type  3   force =     0.00080239    0.00155150   -0.00089117
     atom   25 type  3   force =    -0.00096983   -0.00075796    0.00237713
     The non-local contrib.  to forces
     atom    1 type  2   force =     0.03352326    0.11877672    0.00677967
     atom    2 type  1   force =    -0.18458471    0.11802982    0.09451988
     atom    3 type  1   force =    -0.03678347    0.10559752   -0.08022563
     atom    4 type  1   force =    -0.02348839   -0.20200672   -0.03378701
     atom    5 type  1   force =     0.08034470   -0.16430708   -0.15684394
     atom    6 type  4   force =     0.02386759   -0.03625180   -0.02454389
     atom    7 type  4   force =    -0.01631462   -0.02362658    0.06111109
     atom    8 type  4   force =     0.01602515   -0.00225946    0.03087490
     atom    9 type  4   force =    -0.04587654    0.02310346    0.03408179
     atom   10 type  3   force =    -0.09724420    0.09919518   -1.32271803
     atom   11 type  3   force =     0.41006848    0.07785548   -1.18560759
     atom   12 type  3   force =    -0.21695878    0.06523958    1.45214163
     atom   13 type  3   force =     0.26195548   -0.08341050    1.44989959
     atom   14 type  3   force =     1.18930603   -0.62307888   -0.56506340
     atom   15 type  3   force =    -1.27702906   -0.24526368   -0.49356739
     atom   16 type  3   force =    -1.33012216    0.68065707    0.12208667
     atom   17 type  3   force =     1.28692124    0.20567970    0.33495519
     atom   18 type  3   force =    -0.37429447   -0.92536476    0.76375078
     atom   19 type  3   force =     0.36159465    1.54450906    0.81340641
     atom   20 type  3   force =     0.58453378   -1.19832024   -0.66798790
     atom   21 type  3   force =    -0.28139841    1.10224350   -0.97666271
     atom   22 type  3   force =     0.37427083    1.02713956   -0.89207461
     atom   23 type  3   force =    -0.57565866   -1.24487982   -0.62637531
     atom   24 type  3   force =    -0.28674273    0.83531954    0.81450707
     atom   25 type  3   force =    -0.15558845   -1.43566970    1.21271027
     The ionic contribution  to forces
     atom    1 type  2   force =    -6.97579751   -1.81550537    2.00127752
     atom    2 type  1   force =     2.59990142   10.65121600    0.79520980
     atom    3 type  1   force =    -2.51007185   -0.18297047   -1.85609810
     atom    4 type  1   force =    -3.33556625   -2.93212784    3.71293556
     atom    5 type  1   force =     3.28084846   -2.36672452   -1.89506135
     atom    6 type  4   force =    -3.33135019    0.03844701   -0.11986058
     atom    7 type  4   force =     5.63815871   -3.47130749   -1.06189694
     atom    8 type  4   force =     1.74794106    0.52054588   -0.65173623
     atom    9 type  4   force =    -1.96757522    1.11941978    0.83503139
     atom   10 type  3   force =    -6.78697281    0.33317727    1.83969442
     atom   11 type  3   force =     6.30693399   -6.34764797    3.64896025
     atom   12 type  3   force =     7.07182585   -0.06050041   -2.31350066
     atom   13 type  3   force =    -8.17006662    0.55914504   -2.04691235
     atom   14 type  3   force =     2.51488705    7.57711398    6.19778416
     atom   15 type  3   force =    -3.22825603    2.53868236    4.88062780
     atom   16 type  3   force =    -1.36976093   -4.40532211   -4.60740285
     atom   17 type  3   force =     0.41413151   -1.39089101   -4.64648074
     atom   18 type  3   force =    -3.02387175   -2.95178511   -3.22292455
     atom   19 type  3   force =     9.38421367  -10.46599429   -1.25942393
     atom   20 type  3   force =     2.66868625    4.70922515    1.22544744
     atom   21 type  3   force =    -3.40055915   -0.90677182    6.38896591
     atom   22 type  3   force =     3.64071563   -2.71118270    4.03354533
     atom   23 type  3   force =    -3.02033520    4.86740873    0.50999076
     atom   24 type  3   force =    -6.94301777    2.35062705   -1.91674882
     atom   25 type  3   force =     8.79495768    4.74372287  -10.47142326
     The local contribution  to forces
     atom    1 type  2   force =     6.92783414    1.70128694   -2.01139748
     atom    2 type  1   force =    -2.41732995  -10.76859384   -0.88992750
     atom    3 type  1   force =     2.55158175    0.07908869    1.93413588
     atom    4 type  1   force =     3.36032242    3.13311605   -3.68020277
     atom    5 type  1   force =    -3.35918797    2.52921124    2.05126268
     atom    6 type  4   force =     3.31222615   -0.00403100    0.13953187
     atom    7 type  4   force =    -5.62710485    3.48808331    1.00789614
     atom    8 type  4   force =    -1.75635669   -0.51805076    0.62316520
     atom    9 type  4   force =     2.01077515   -1.14027295   -0.86584387
     atom   10 type  3   force =     6.88490289   -0.43243348   -0.52723480
     atom   11 type  3   force =    -6.71429451    6.27220364   -2.47271930
     atom   12 type  3   force =    -6.85842136   -0.00405719    0.87159281
     atom   13 type  3   force =     7.91234790   -0.47642615    0.60947816
     atom   14 type  3   force =    -3.69261185   -6.96051291   -5.63778501
     atom   15 type  3   force =     4.49124398   -2.29493851   -4.39385381
     atom   16 type  3   force =     2.68968761    3.73017298    4.49135625
     atom   17 type  3   force =    -1.69224553    1.18764988    4.31412625
     atom   18 type  3   force =     3.39590550    3.86633895    2.46653206
     atom   19 type  3   force =    -9.74136333    8.93330259    0.45865893
     atom   20 type  3   force =    -3.24896723   -3.52132453   -0.56387686
     atom   21 type  3   force =     3.68172722   -0.18574414   -5.42127751
     atom   22 type  3   force =    -4.01163488    1.69284314   -3.15031996
     atom   23 type  3   force =     3.59207579   -3.63345127    0.11069915
     atom   24 type  3   force =     7.22825717   -3.17712533    1.10867834
     atom   25 type  3   force =    -8.64201249   -3.32148162    9.27234845
     The core correction contribution to forces
     atom    1 type  2   force =     0.00000000    0.00000000    0.00000000
     atom    2 type  1   force =     0.00066552   -0.00017653    0.00010304
     atom    3 type  1   force =     0.00018621   -0.00170872   -0.00063178
     atom    4 type  1   force =     0.00048936    0.00159111    0.00004836
     atom    5 type  1   force =    -0.00033152    0.00173738    0.00026409
     atom    6 type  4   force =    -0.00173037    0.00332866    0.00120252
     atom    7 type  4   force =    -0.00018158    0.00237222   -0.00424936
     atom    8 type  4   force =    -0.00150779   -0.00024260   -0.00214214
     atom    9 type  4   force =     0.00392104   -0.00185592   -0.00306969
     atom   10 type  3   force =     0.00012367   -0.00066574    0.01156302
     atom   11 type  3   force =    -0.00334305   -0.00074002    0.01039675
     atom   12 type  3   force =     0.00255952   -0.00059170   -0.01260158
     atom   13 type  3   force =    -0.00292027    0.00080039   -0.01270089
     atom   14 type  3   force =    -0.01030631    0.00600126    0.00550342
     atom   15 type  3   force =     0.01082847    0.00223825    0.00492336
     atom   16 type  3   force =     0.01117840   -0.00621214   -0.00163951
     atom   17 type  3   force =    -0.01076474   -0.00191386   -0.00334495
     atom   18 type  3   force =     0.00319254    0.00755091   -0.00712083
     atom   19 type  3   force =    -0.00282686   -0.01417804   -0.00709459
     atom   20 type  3   force =    -0.00502182    0.01055716    0.00596620
     atom   21 type  3   force =     0.00231634   -0.00941290    0.00913638
     atom   22 type  3   force =    -0.00312871   -0.00878572    0.00826306
     atom   23 type  3   force =     0.00493195    0.01115608    0.00542796
     atom   24 type  3   force =     0.00230059   -0.00727164   -0.00732433
     atom   25 type  3   force =     0.00167768    0.01266829   -0.01126185
     The Hubbard contrib.    to forces
     atom    1 type  2   force =     0.00000000    0.00000000    0.00000000
     atom    2 type  1   force =     0.00000000    0.00000000    0.00000000
     atom    3 type  1   force =     0.00000000    0.00000000    0.00000000
     atom    4 type  1   force =     0.00000000    0.00000000    0.00000000
     atom    5 type  1   force =     0.00000000    0.00000000    0.00000000
     atom    6 type  4   force =     0.00000000    0.00000000    0.00000000
     atom    7 type  4   force =     0.00000000    0.00000000    0.00000000
     atom    8 type  4   force =     0.00000000    0.00000000    0.00000000
     atom    9 type  4   force =     0.00000000    0.00000000    0.00000000
     atom   10 type  3   force =     0.00000000    0.00000000    0.00000000
     atom   11 type  3   force =     0.00000000    0.00000000    0.00000000
     atom   12 type  3   force =     0.00000000    0.00000000    0.00000000
     atom   13 type  3   force =     0.00000000    0.00000000    0.00000000
     atom   14 type  3   force =     0.00000000    0.00000000    0.00000000
     atom   15 type  3   force =     0.00000000    0.00000000    0.00000000
     atom   16 type  3   force =     0.00000000    0.00000000    0.00000000
     atom   17 type  3   force =     0.00000000    0.00000000    0.00000000
     atom   18 type  3   force =     0.00000000    0.00000000    0.00000000
     atom   19 type  3   force =     0.00000000    0.00000000    0.00000000
     atom   20 type  3   force =     0.00000000    0.00000000    0.00000000
     atom   21 type  3   force =     0.00000000    0.00000000    0.00000000
     atom   22 type  3   force =     0.00000000    0.00000000    0.00000000
     atom   23 type  3   force =     0.00000000    0.00000000    0.00000000
     atom   24 type  3   force =     0.00000000    0.00000000    0.00000000
     atom   25 type  3   force =     0.00000000    0.00000000    0.00000000
     The SCF correction term to forces
     atom    1 type  2   force =     0.00000383   -0.00000221    0.00000011
     atom    2 type  1   force =    -0.00000040    0.00000128   -0.00000009
     atom    3 type  1   force =     0.00000401    0.00000165   -0.00000056
     atom    4 type  1   force =    -0.00000303    0.00000086   -0.00000010
     atom    5 type  1   force =     0.00000056    0.00000081   -0.00000014
     atom    6 type  4   force =     0.00000357   -0.00000039   -0.00000017
     atom    7 type  4   force =    -0.00000243    0.00000154    0.00000076
     atom    8 type  4   force =     0.00000167    0.00000020    0.00000031
     atom    9 type  4   force =    -0.00000409   -0.00000016   -0.00000021
     atom   10 type  3   force =     0.00000612   -0.00000156    0.00000280
     atom   11 type  3   force =    -0.00000068    0.00000467   -0.00000178
     atom   12 type  3   force =     0.00000111    0.00000022   -0.00000022
     atom   13 type  3   force =    -0.00000532   -0.00000038    0.00000211
     atom   14 type  3   force =    -0.00000744   -0.00000291   -0.00000210
     atom   15 type  3   force =     0.00000173    0.00000024    0.00000056
     atom   16 type  3   force =    -0.00000279    0.00000046    0.00000047
     atom   17 type  3   force =     0.00000574   -0.00000044   -0.00000107
     atom   18 type  3   force =     0.00000258   -0.00000224   -0.00000056
     atom   19 type  3   force =    -0.00000056   -0.00000116    0.00000100
     atom   20 type  3   force =     0.00000108   -0.00000257    0.00000086
     atom   21 type  3   force =    -0.00000303   -0.00000108   -0.00000099
     atom   22 type  3   force =     0.00000167    0.00000312    0.00000126
     atom   23 type  3   force =    -0.00000322    0.00000159   -0.00000198
     atom   24 type  3   force =     0.00000483    0.00000243   -0.00000310
     atom   25 type  3   force =    -0.00000454    0.00000273    0.00000386

     Total force =     0.023007     Total SCF correction =     0.000021


     Computing stress (Cartesian axis) and pressure


     negative rho (up, down):  0.000E+00 9.129E-04
          total   stress  (Ry/bohr**3)                   (kbar)     P=       -1.75
  -0.00029613   0.00002376  -0.00002341          -43.56        3.50       -3.44
   0.00002376   0.00010642   0.00009451            3.50       15.65       13.90
  -0.00002341   0.00009451   0.00015394           -3.44       13.90       22.65

     kinetic stress (kbar)  26446.41     33.38    -12.60
                               33.38  26622.72     21.81
                              -12.60     21.81  26607.07

     local   stress (kbar)  -2387.19    376.68   1341.10
                              376.68 -15807.91    664.01
                             1341.10    664.01  -9620.39

     nonloc. stress (kbar)  -6758.77      9.30     -3.62
                                9.30  -6743.00      1.32
                               -3.62      1.32  -6749.04

     hartree stress (kbar)  11685.75    -42.45   -631.60
                              -42.45  18321.00   -303.28
                             -631.60   -303.28  15582.50

     exc-cor stress (kbar)  -2801.70     -1.28     -0.19
                               -1.28  -2806.26      0.01
                               -0.19      0.01  -2806.49

     corecor stress (kbar)  -3115.94     -0.22      0.08
                               -0.22  -3114.24     -0.77
                                0.08     -0.77  -3115.79

     ewald   stress (kbar) -23112.12   -371.91   -696.61
                             -371.91 -16456.67   -369.20
                             -696.61   -369.20 -19875.21

     hubbard stress (kbar)      0.00      0.00      0.00
                                0.00      0.00      0.00
                                0.00      0.00      0.00

     DFT-D   stress (kbar)      0.00      0.00      0.00
                                0.00      0.00      0.00
                                0.00      0.00      0.00

     XDM     stress (kbar)      0.00      0.00      0.00
                                0.00      0.00      0.00
                                0.00      0.00      0.00

     dft-nl  stress (kbar)      0.00      0.00      0.00
                                0.00      0.00      0.00
                                0.00      0.00      0.00

     TS-vdW  stress (kbar)      0.00      0.00      0.00
                                0.00      0.00      0.00
                                0.00      0.00      0.00



     init_run     :     82.67s CPU     84.41s WALL (       1 calls)
     electrons    :   6856.44s CPU   6957.03s WALL (       1 calls)
     forces       :     39.15s CPU     39.91s WALL (       1 calls)
     stress       :    445.19s CPU    447.00s WALL (       1 calls)

     Called by init_run:
     wfcinit      :     75.93s CPU     77.40s WALL (       1 calls)
     wfcinit:atom :      1.73s CPU      1.75s WALL (     316 calls)
     wfcinit:wfcr :     67.65s CPU     69.02s WALL (     316 calls)
     potinit      :      2.39s CPU      2.46s WALL (       1 calls)
     hinit0       :      2.41s CPU      2.45s WALL (       1 calls)

     Called by electrons:
     c_bands      :   5892.73s CPU   5967.88s WALL (      35 calls)
     sum_band     :    876.13s CPU    896.44s WALL (      35 calls)
     v_of_rho     :     18.89s CPU     19.54s WALL (      36 calls)
     v_h          :      0.86s CPU      0.91s WALL (      36 calls)
     v_xc         :     19.04s CPU     19.67s WALL (      38 calls)
     newd         :     47.86s CPU     52.22s WALL (      36 calls)
     PAW_pot      :     17.23s CPU     17.29s WALL (      36 calls)
     mix_rho      :      3.89s CPU      4.05s WALL (      35 calls)

     Called by c_bands:
     init_us_2    :    140.09s CPU    142.37s WALL (   23068 calls)
     cegterg      :   5618.31s CPU   5690.37s WALL (   11060 calls)

     Called by sum_band:
     sum_band:wei :      0.30s CPU      0.30s WALL (      35 calls)
     sum_band:loo :    782.70s CPU    796.31s WALL (      35 calls)
     sum_band:buf :     33.44s CPU     33.90s WALL (   11060 calls)
     sum_band:ini :     69.04s CPU     70.09s WALL (   11060 calls)
     sum_band:cal :    200.01s CPU    204.72s WALL (   11060 calls)
     sum_band:bec :      1.65s CPU      1.69s WALL (   11060 calls)
     addusdens    :     85.65s CPU     92.21s WALL (      35 calls)
     addusd:skk   :      0.38s CPU      0.40s WALL (     105 calls)
     addusd:dgemm :     17.65s CPU     23.44s WALL (     210 calls)
     addusd:qvan2 :     66.67s CPU     67.22s WALL (     210 calls)

     Called by *egterg:
     cdiaghg      :    289.94s CPU    294.69s WALL (   39137 calls)
     cegterg:over :    414.68s CPU    421.43s WALL (   28077 calls)
     cegterg:upda :    354.19s CPU    357.11s WALL (   28077 calls)
     cegterg:last :    575.29s CPU    579.50s WALL (   18269 calls)
     h_psi        :   3063.23s CPU   3108.81s WALL (   39453 calls)
     s_psi        :    648.27s CPU    653.02s WALL (   39453 calls)
     g_psi        :     26.08s CPU     26.50s WALL (   28077 calls)

     Called by h_psi:
     h_psi:calbec :    498.05s CPU    508.89s WALL (   39453 calls)
     vloc_psi     :   1798.53s CPU   1826.72s WALL (   39453 calls)
     add_vuspsi   :    695.31s CPU    700.88s WALL (   39453 calls)

     General routines
     calbec       :    727.95s CPU    744.23s WALL (   52093 calls)
     fft          :     19.69s CPU     20.71s WALL (     938 calls)
     ffts         :      0.15s CPU      0.16s WALL (     142 calls)
     fftw         :   1934.86s CPU   1964.75s WALL ( 6812176 calls)
     interpolate  :      1.39s CPU      1.47s WALL (      72 calls)

     Parallel routines
     fft_scatt_xy :    279.44s CPU    283.67s WALL ( 6813256 calls)
     fft_scatt_yz :    496.46s CPU    505.60s WALL ( 6813256 calls)

     PAW routines
     PAW_pot      :     17.23s CPU     17.29s WALL (      36 calls)

     PWSCF        :      2h 3m CPU      2h 5m WALL


   This run was terminated on:  19:56:40  13Mar2023            

=------------------------------------------------------------------------------=
   JOB DONE.
=------------------------------------------------------------------------------=
Note: The following floating-point exceptions are signalling: IEEE_UNDERFLOW_FLAG IEEE_DENORMAL
Note: The following floating-point exceptions are signalling: IEEE_DENORMAL
Note: The following floating-point exceptions are signalling: IEEE_DENORMAL
Note: The following floating-point exceptions are signalling: IEEE_DENORMAL
Note: The following floating-point exceptions are signalling: IEEE_DENORMAL
Note: The following floating-point exceptions are signalling: IEEE_DENORMAL
Note: The following floating-point exceptions are signalling: IEEE_DENORMAL
Note: The following floating-point exceptions are signalling: IEEE_DENORMAL
Note: The following floating-point exceptions are signalling: IEEE_DENORMAL
Note: The following floating-point exceptions are signalling: IEEE_DENORMAL
Note: The following floating-point exceptions are signalling: IEEE_DENORMAL
Note: The following floating-point exceptions are signalling: IEEE_DENORMAL
Note: The following floating-point exceptions are signalling: IEEE_DENORMAL
Note: The following floating-point exceptions are signalling: IEEE_INVALID_FLAG IEEE_DENORMAL
