ITEM: TIMESTEP
4500
ITEM: NUMBER OF ATOMS
4
ITEM: BOX BOUNDS xy xz yz pp pp pp
-2.6113650700742665e+00 3.9086707484670411e+00 -1.2566335216059852e+00
1.7610885465491277e-02 2.1941658012424798e+00 0.0000000000000000e+00
-4.7539860507310294e-02 4.2743948605073507e+00 0.0000000000000000e+00
ITEM: ATOMS id type x y z
4 2 0.943435 0.559451 2.71793
1 1 0.207981 1.57611 1.9932
2 1 1.07798 0.60791 4.15843
3 2 0.469952 1.72305 0.579419
