ITEM: TIMESTEP
3000
ITEM: NUMBER OF ATOMS
4
ITEM: BOX BOUNDS xy xz yz pp pp pp
-2.9021529803622039e+00 4.1990816707626362e+00 -1.2570105095988593e+00
1.7284404015257548e-02 2.1944922826927229e+00 0.0000000000000000e+00
-1.2935709002339646e-02 4.2397907090023672e+00 0.0000000000000000e+00
ITEM: ATOMS id type x y z
4 2 0.968122 0.563795 2.69695
2 1 1.00517 0.57016 4.14112
3 2 0.382382 1.65727 0.580127
1 1 0.380808 1.69349 2.02525
