ITEM: TIMESTEP
1500
ITEM: NUMBER OF ATOMS
4
ITEM: BOX BOUNDS xy xz yz pp pp pp
-1.3825413912463409e+00 2.6222664392245720e+00 -1.3142141520217727e+00
-3.2255444705640013e-02 2.2440321314136336e+00 0.0000000000000000e+00
-7.6633885704127103e-02 4.3034888857041347e+00 0.0000000000000000e+00
ITEM: ATOMS id type x y z
2 1 0.920216 0.477186 4.20695
3 2 0.243773 1.66533 0.552219
1 1 0.453514 1.79228 1.98459
4 2 0.932176 0.553498 2.72182
