ITEM: TIMESTEP
3000
ITEM: NUMBER OF ATOMS
8
ITEM: BOX BOUNDS xy xz yz pp pp pp
-4.2027905857593129e-01 6.7284995156513308e+00 -4.0534242573437385e-01
-1.1530491778959817e-02 2.4862558664568311e+00 3.9818382809803418e-02
-3.9021668841106028e-02 4.4373446734581101e+00 7.6301165798635722e-03
ITEM: ATOMS id type x y z
2 1 2.61404 0.460907 2.44796
6 2 -0.0272313 1.23725 0.702714
4 1 0.283691 1.8454 2.02994
7 2 1.71663 1.64657 2.30678
1 1 6.70752 -0.102619 -0.0122778
8 2 4.00218 0.667212 2.75641
3 1 4.54499 1.99607 2.87272
5 2 6.00736 2.20973 3.03441
