ITEM: TIMESTEP
5000
ITEM: NUMBER OF ATOMS
8
ITEM: BOX BOUNDS xy xz yz pp pp pp
-4.0326573057366644e-01 6.6938097320149303e+00 -4.2315723278009032e-01
-6.6251698026266626e-02 2.5410035840118437e+00 3.9956734221360903e-02
-4.6798373448426300e-02 4.4451213780654442e+00 7.6566278875732701e-03
ITEM: ATOMS id type x y z
2 1 2.63758 0.466754 2.43089
6 2 0.0060813 1.16662 0.694914
4 1 0.308635 1.73204 2.07913
7 2 1.7238 1.66139 2.37174
1 1 6.61841 -0.175583 0.00475209
8 2 4.01995 0.705669 2.69779
3 1 4.52046 2.09414 2.78319
5 2 5.93177 2.30108 3.06314
