ITEM: TIMESTEP
4000
ITEM: NUMBER OF ATOMS
4
ITEM: BOX BOUNDS xy xz yz pp pp pp
-1.2020594669090232e+00 2.4847855613161269e+00 -1.2297023655929098e+00
2.2960331943845391e-02 2.1528662762871429e+00 0.0000000000000000e+00
-7.7463339049236723e+01 8.5170604049216735e+01 0.0000000000000000e+00
ITEM: ATOMS id type x y z
4 2 1.28308 0.720556 -76.8847
2 1 1.21506 0.77837 83.5018
1 1 0.0499418 1.41172 -76.9859
3 2 0.00607262 1.49332 83.3965
