ITEM: TIMESTEP
2500
ITEM: NUMBER OF ATOMS
4
ITEM: BOX BOUNDS xy xz yz pp pp pp
-1.2099187302361158e+00 2.4894965566847729e+00 -1.2328506335513487e+00
2.0233853233761590e-02 2.1555927549972367e+00 0.0000000000000000e+00
-2.2905913477256906e+01 3.0613178477256842e+01 0.0000000000000000e+00
ITEM: ATOMS id type x y z
4 2 1.19937 0.757956 -21.8313
2 1 1.3233 0.733419 29.2491
1 1 -0.0227885 1.46324 -21.9525
3 2 0.0568147 1.45098 29.1595
