ITEM: TIMESTEP
3500
ITEM: NUMBER OF ATOMS
4
ITEM: BOX BOUNDS xy xz yz pp pp pp
-1.2073730413736865e+00 2.4880763854195687e+00 -1.2317251159541340e+00
2.1208579593502419e-02 2.1546180286374907e+00 0.0000000000000000e+00
-5.7508543813497653e+01 6.5215808813483577e+01 0.0000000000000000e+00
ITEM: ATOMS id type x y z
4 2 1.21863 0.775821 -56.6689
2 1 1.28789 0.724884 63.5635
1 1 -0.00899996 1.4593 -56.7789
3 2 0.0562272 1.4427 63.4923
