ITEM: TIMESTEP
2000
ITEM: NUMBER OF ATOMS
4
ITEM: BOX BOUNDS xy xz yz pp pp pp
-1.2032241579925507e+00 2.4858506640763234e+00 -1.2298019539162344e+00
2.2874085967673707e-02 2.1529525222633206e+00 0.0000000000000000e+00
-1.3949082439905649e+01 2.1656347439905602e+01 0.0000000000000000e+00
ITEM: ATOMS id type x y z
4 2 1.30464 0.739634 -12.9036
2 1 1.21745 0.747712 20.4744
1 1 0.0671168 1.45502 -13.0353
3 2 -0.0307475 1.46449 20.3549
