
     Program PWSCF v.6.7MaX starts on 19Mar2023 at 19: 3:36 

     This program is part of the open-source Quantum ESPRESSO suite
     for quantum simulation of materials; please cite
         "P. Giannozzi et al., J. Phys.:Condens. Matter 21 395502 (2009);
         "P. Giannozzi et al., J. Phys.:Condens. Matter 29 465901 (2017);
          URL http://www.quantum-espresso.org", 
     in publications or presentations arising from this work. More details at
     http://www.quantum-espresso.org/quote

     Parallel version (MPI), running on    16 processors

     MPI processes distributed on     1 nodes
     R & G space division:  proc/nbgrp/npool/nimage =      16
     Reading input from scale_3d-01.in

     Current dimensions of program PWSCF are:
     Max number of different atomic species (ntypx) = 10
     Max number of k-points (npk) =  40000
     Max angular momentum in pseudopotentials (lmaxx) =  3
     Message from routine read_pp_mesh:
     mesh size missing, using the one in header
     file Fe.pbe-spn-kjpaw_psl.0.2.1.UPF: wavefunction(s)  3D renormalized
     file O.pbe-n-kjpaw_psl.0.1.UPF: wavefunction(s)  2P renormalized

     Subspace diagonalization in iterative solution of the eigenvalue problem:
     a serial algorithm will be used

     Message from routine setup:
     using ibrav=0 with symmetry is DISCOURAGED, use correct ibrav instead

     Parallelization info
     --------------------
     sticks:   dense  smooth     PW     G-vecs:    dense   smooth      PW
     Min        1160     430    116                73102    16474    2320
     Max        1162     431    117                73103    16477    2322
     Sum       18565    6893   1863              1169635   263601   37143



     bravais-lattice index     =            0
     lattice parameter (alat)  =      19.0096  a.u.
     unit-cell volume          =    1951.4432 (a.u.)^3
     number of atoms/cell      =           25
     number of atomic types    =            4
     number of electrons       =       189.00
     number of Kohn-Sham states=          114
     kinetic-energy cutoff     =     100.0000  Ry
     charge density cutoff     =    1080.0000  Ry
     scf convergence threshold =      2.0E-10
     mixing beta               =       0.4000
     number of iterations used =            8  plain     mixing
     Exchange-correlation= PBE
                           (   1   4   3   4   0   0   0)

     celldm(1)=  19.009555  celldm(2)=   0.000000  celldm(3)=   0.000000
     celldm(4)=   0.000000  celldm(5)=   0.000000  celldm(6)=   0.000000

     crystal axes: (cart. coord. in units of alat)
               a(1) = (   1.000000   0.000000   0.000000 )  
               a(2) = (   0.000000   0.597590   0.000000 )  
               a(3) = (   0.000000   0.000000   0.475375 )  

     reciprocal axes: (cart. coord. in units 2 pi/alat)
               b(1) = (  1.000000  0.000000  0.000000 )  
               b(2) = (  0.000000  1.673388  0.000000 )  
               b(3) = (  0.000000  0.000000  2.103600 )  


     PseudoPot. # 1 for Fe read from file:
     /opt/QEpot/SSSP_precision_pseudos/Fe.pbe-spn-kjpaw_psl.0.2.1.UPF
     MD5 check sum: e86618425769142926afa95317d90200
     Pseudo is Projector augmented-wave + core cor, Zval = 16.0
     Generated using "atomic" code by A. Dal Corso  v.5.0.99 svn rev. 10869
     Shape of augmentation charge: PSQ
     Using radial grid of 1191 points,  6 beta functions with: 
                l(1) =   0
                l(2) =   0
                l(3) =   1
                l(4) =   1
                l(5) =   2
                l(6) =   2
     Q(r) pseudized with 0 coefficients 


     PseudoPot. # 2 for Na read from file:
     /opt/QEpot/SSSP_precision_pseudos/Na_ONCV_PBE-1.0.oncvpsp.upf
     MD5 check sum: 24a298df0a6742ae313db96548fdb2a4
     Pseudo is Norm-conserving, Zval =  9.0
     Generated using ONCVPSP code by D. R. Hamann
     Using radial grid of 1992 points,  4 beta functions with: 
                l(1) =   0
                l(2) =   0
                l(3) =   1
                l(4) =   1

     PseudoPot. # 3 for O  read from file:
     /opt/QEpot/SSSP_precision_pseudos/O.pbe-n-kjpaw_psl.0.1.UPF
     MD5 check sum: 0234752ac141de4415c5fc33072bef88
     Pseudo is Projector augmented-wave + core cor, Zval =  6.0
     Generated using "atomic" code by A. Dal Corso  v.5.0.99 svn rev. 10869
     Shape of augmentation charge: BESSEL
     Using radial grid of 1095 points,  4 beta functions with: 
                l(1) =   0
                l(2) =   0
                l(3) =   1
                l(4) =   1
     Q(r) pseudized with 0 coefficients 


     PseudoPot. # 4 for P  read from file:
     /opt/QEpot/SSSP_precision_pseudos/P.pbe-n-rrkjus_psl.1.0.0.UPF
     MD5 check sum: 8b930f418f0a4573dca56cd030ffe088
     Pseudo is Ultrasoft + core correction, Zval =  5.0
     Generated using "atomic" code by A. Dal Corso  v.5.1
     Using radial grid of 1147 points,  6 beta functions with: 
                l(1) =   0
                l(2) =   0
                l(3) =   1
                l(4) =   1
                l(5) =   2
                l(6) =   2
     Q(r) pseudized with 0 coefficients 


     atomic species   valence    mass     pseudopotential
        Fe            16.00    55.84500     Fe( 1.00)
        Na             9.00    22.98977     Na( 1.00)
        O              6.00    15.99940     O ( 1.00)
        P              5.00    30.97376     P ( 1.00)

     Starting magnetic structure 
     atomic species   magnetization
        Fe           0.312
        Na           0.000
        O            0.000
        P            0.000

      2 Sym. Ops., with inversion, found


                                    s                        frac. trans.

      isym =  1     identity                                     

 cryst.   s( 1) = (     1          0          0      )
                  (     0          1          0      )
                  (     0          0          1      )

 cart.    s( 1) = (  1.0000000  0.0000000  0.0000000 )
                  (  0.0000000  1.0000000  0.0000000 )
                  (  0.0000000  0.0000000  1.0000000 )


      isym =  2     inversion                                    

 cryst.   s( 2) = (    -1          0          0      )
                  (     0         -1          0      )
                  (     0          0         -1      )

 cart.    s( 2) = ( -1.0000000  0.0000000  0.0000000 )
                  (  0.0000000 -1.0000000  0.0000000 )
                  (  0.0000000  0.0000000 -1.0000000 )


   Cartesian axes

     site n.     atom                  positions (alat units)
         1           Na  tau(   1) = (   0.9999980   0.0000000   0.0000000  )
         2           Fe  tau(   2) = (   0.2867560   0.4460794   0.4706484  )
         3           Fe  tau(   3) = (   0.2233670   0.1521093   0.2355671  )
         4           Fe  tau(   4) = (   0.7132500   0.1515135   0.0047300  )
         5           Fe  tau(   5) = (   0.7766390   0.4454836   0.2398112  )
         6           P   tau(   6) = (   0.1081020   0.4457710   0.2116994  )
         7           P   tau(   7) = (   0.3915960   0.1487097   0.4492774  )
         8           P   tau(   8) = (   0.8919040   0.1518219   0.2636789  )
         9           P   tau(   9) = (   0.6084100   0.4488833   0.0261014  )
        10           O   tau(  10) = (   0.1288530   0.4505057   0.3586057  )
        11           O   tau(  11) = (   0.3681240   0.1483858   0.1200499  )
        12           O   tau(  12) = (   0.8711530   0.1470872   0.1167727  )
        13           O   tau(  13) = (   0.6318820   0.4492071   0.3553284  )
        14           O   tau(  14) = (   0.4626860   0.4491420   0.0550708  )
        15           O   tau(  15) = (   0.0379730   0.1464053   0.2960543  )
        16           O   tau(  16) = (   0.5373200   0.1484509   0.4203075  )
        17           O   tau(  17) = (   0.9620320   0.4511876   0.1793240  )
        18           O   tau(  18) = (   0.1766340   0.5619359   0.1403822  )
        19           O   tau(  19) = (   0.3194030   0.0336192   0.3812136  )
        20           O   tau(  20) = (   0.8223270   0.2689908   0.3287012  )
        21           O   tau(  21) = (   0.6786820   0.3316977   0.0933495  )
        22           O   tau(  22) = (   0.8233720   0.0356570   0.3349962  )
        23           O   tau(  23) = (   0.6806030   0.5639737   0.0941648  )
        24           O   tau(  24) = (   0.1776790   0.3286021   0.1466771  )
        25           O   tau(  25) = (   0.3213240   0.2658952   0.3820289  )

   Crystallographic axes

     site n.     atom                  positions (cryst. coord.)
         1           Na  tau(   1) = (  0.9999980  0.0000000  0.0000000  )
         2           Fe  tau(   2) = (  0.2867560  0.7464640  0.9900560  )
         3           Fe  tau(   3) = (  0.2233670  0.2545380  0.4955390  )
         4           Fe  tau(   4) = (  0.7132500  0.2535410  0.0099500  )
         5           Fe  tau(   5) = (  0.7766390  0.7454670  0.5044670  )
         6           P   tau(   6) = (  0.1081020  0.7459480  0.4453310  )
         7           P   tau(   7) = (  0.3915960  0.2488490  0.9451000  )
         8           P   tau(   8) = (  0.8919040  0.2540570  0.5546750  )
         9           P   tau(   9) = (  0.6084100  0.7511560  0.0549070  )
        10           O   tau(  10) = (  0.1288530  0.7538710  0.7543630  )
        11           O   tau(  11) = (  0.3681240  0.2483070  0.2525370  )
        12           O   tau(  12) = (  0.8711530  0.2461340  0.2456430  )
        13           O   tau(  13) = (  0.6318820  0.7516980  0.7474690  )
        14           O   tau(  14) = (  0.4626860  0.7515890  0.1158470  )
        15           O   tau(  15) = (  0.0379730  0.2449930  0.6227800  )
        16           O   tau(  16) = (  0.5373200  0.2484160  0.8841590  )
        17           O   tau(  17) = (  0.9620320  0.7550120  0.3772260  )
        18           O   tau(  18) = (  0.1766340  0.9403370  0.2953080  )
        19           O   tau(  19) = (  0.3194030  0.0562580  0.8019210  )
        20           O   tau(  20) = (  0.8223270  0.4501260  0.6914560  )
        21           O   tau(  21) = (  0.6786820  0.5550590  0.1963700  )
        22           O   tau(  22) = (  0.8233720  0.0596680  0.7046980  )
        23           O   tau(  23) = (  0.6806030  0.9437470  0.1980850  )
        24           O   tau(  24) = (  0.1776790  0.5498790  0.3085500  )
        25           O   tau(  25) = (  0.3213240  0.4449460  0.8036360  )

     number of k points=   158  Marzari-Vanderbilt smearing, width (Ry)=  0.0073
                       cart. coord. in units 2pi/alat
        k(    1) = (   0.0000000   0.0000000   0.0000000), wk =   0.0031746
        k(    2) = (   0.0000000   0.0000000   0.2337334), wk =   0.0063492
        k(    3) = (   0.0000000   0.0000000   0.4674667), wk =   0.0063492
        k(    4) = (   0.0000000   0.0000000   0.7012001), wk =   0.0063492
        k(    5) = (   0.0000000   0.0000000   0.9349334), wk =   0.0063492
        k(    6) = (   0.0000000   0.2390555   0.0000000), wk =   0.0063492
        k(    7) = (   0.0000000   0.2390555   0.2337334), wk =   0.0063492
        k(    8) = (   0.0000000   0.2390555   0.4674667), wk =   0.0063492
        k(    9) = (   0.0000000   0.2390555   0.7012001), wk =   0.0063492
        k(   10) = (   0.0000000   0.2390555   0.9349334), wk =   0.0063492
        k(   11) = (   0.0000000   0.4781110   0.0000000), wk =   0.0063492
        k(   12) = (   0.0000000   0.4781110   0.2337334), wk =   0.0063492
        k(   13) = (   0.0000000   0.4781110   0.4674667), wk =   0.0063492
        k(   14) = (   0.0000000   0.4781110   0.7012001), wk =   0.0063492
        k(   15) = (   0.0000000   0.4781110   0.9349334), wk =   0.0063492
        k(   16) = (   0.0000000   0.7171664   0.0000000), wk =   0.0063492
        k(   17) = (   0.0000000   0.7171664   0.2337334), wk =   0.0063492
        k(   18) = (   0.0000000   0.7171664   0.4674667), wk =   0.0063492
        k(   19) = (   0.0000000   0.7171664   0.7012001), wk =   0.0063492
        k(   20) = (   0.0000000   0.7171664   0.9349334), wk =   0.0063492
        k(   21) = (   0.2000000   0.0000000   0.0000000), wk =   0.0063492
        k(   22) = (   0.2000000   0.0000000   0.2337334), wk =   0.0063492
        k(   23) = (   0.2000000   0.0000000   0.4674667), wk =   0.0063492
        k(   24) = (   0.2000000   0.0000000   0.7012001), wk =   0.0063492
        k(   25) = (   0.2000000   0.0000000   0.9349334), wk =   0.0063492
        k(   26) = (   0.2000000   0.2390555   0.0000000), wk =   0.0063492
        k(   27) = (   0.2000000   0.2390555   0.2337334), wk =   0.0063492
        k(   28) = (   0.2000000   0.2390555   0.4674667), wk =   0.0063492
        k(   29) = (   0.2000000   0.2390555   0.7012001), wk =   0.0063492
        k(   30) = (   0.2000000   0.2390555   0.9349334), wk =   0.0063492
        k(   31) = (   0.2000000   0.4781110   0.0000000), wk =   0.0063492
        k(   32) = (   0.2000000   0.4781110   0.2337334), wk =   0.0063492
        k(   33) = (   0.2000000   0.4781110   0.4674667), wk =   0.0063492
        k(   34) = (   0.2000000   0.4781110   0.7012001), wk =   0.0063492
        k(   35) = (   0.2000000   0.4781110   0.9349334), wk =   0.0063492
        k(   36) = (   0.2000000   0.7171664   0.0000000), wk =   0.0063492
        k(   37) = (   0.2000000   0.7171664   0.2337334), wk =   0.0063492
        k(   38) = (   0.2000000   0.7171664   0.4674667), wk =   0.0063492
        k(   39) = (   0.2000000   0.7171664   0.7012001), wk =   0.0063492
        k(   40) = (   0.2000000   0.7171664   0.9349334), wk =   0.0063492
        k(   41) = (   0.4000000   0.0000000   0.0000000), wk =   0.0063492
        k(   42) = (   0.4000000   0.0000000   0.2337334), wk =   0.0063492
        k(   43) = (   0.4000000   0.0000000   0.4674667), wk =   0.0063492
        k(   44) = (   0.4000000   0.0000000   0.7012001), wk =   0.0063492
        k(   45) = (   0.4000000   0.0000000   0.9349334), wk =   0.0063492
        k(   46) = (   0.4000000   0.2390555   0.0000000), wk =   0.0063492
        k(   47) = (   0.4000000   0.2390555   0.2337334), wk =   0.0063492
        k(   48) = (   0.4000000   0.2390555   0.4674667), wk =   0.0063492
        k(   49) = (   0.4000000   0.2390555   0.7012001), wk =   0.0063492
        k(   50) = (   0.4000000   0.2390555   0.9349334), wk =   0.0063492
        k(   51) = (   0.4000000   0.4781110   0.0000000), wk =   0.0063492
        k(   52) = (   0.4000000   0.4781110   0.2337334), wk =   0.0063492
        k(   53) = (   0.4000000   0.4781110   0.4674667), wk =   0.0063492
        k(   54) = (   0.4000000   0.4781110   0.7012001), wk =   0.0063492
        k(   55) = (   0.4000000   0.4781110   0.9349334), wk =   0.0063492
        k(   56) = (   0.4000000   0.7171664   0.0000000), wk =   0.0063492
        k(   57) = (   0.4000000   0.7171664   0.2337334), wk =   0.0063492
        k(   58) = (   0.4000000   0.7171664   0.4674667), wk =   0.0063492
        k(   59) = (   0.4000000   0.7171664   0.7012001), wk =   0.0063492
        k(   60) = (   0.4000000   0.7171664   0.9349334), wk =   0.0063492
        k(   61) = (   0.0000000   0.2390555  -0.2337334), wk =   0.0063492
        k(   62) = (   0.0000000   0.2390555  -0.4674667), wk =   0.0063492
        k(   63) = (   0.0000000   0.2390555  -0.7012001), wk =   0.0063492
        k(   64) = (   0.0000000   0.2390555  -0.9349334), wk =   0.0063492
        k(   65) = (   0.0000000   0.4781110  -0.2337334), wk =   0.0063492
        k(   66) = (   0.0000000   0.4781110  -0.4674667), wk =   0.0063492
        k(   67) = (   0.0000000   0.4781110  -0.7012001), wk =   0.0063492
        k(   68) = (   0.0000000   0.4781110  -0.9349334), wk =   0.0063492
        k(   69) = (   0.0000000   0.7171664  -0.2337334), wk =   0.0063492
        k(   70) = (   0.0000000   0.7171664  -0.4674667), wk =   0.0063492
        k(   71) = (   0.0000000   0.7171664  -0.7012001), wk =   0.0063492
        k(   72) = (   0.0000000   0.7171664  -0.9349334), wk =   0.0063492
        k(   73) = (   0.2000000   0.0000000  -0.2337334), wk =   0.0063492
        k(   74) = (   0.2000000   0.0000000  -0.4674667), wk =   0.0063492
        k(   75) = (   0.2000000   0.0000000  -0.7012001), wk =   0.0063492
        k(   76) = (   0.2000000   0.0000000  -0.9349334), wk =   0.0063492
        k(   77) = (  -0.2000000   0.2390555   0.0000000), wk =   0.0063492
        k(   78) = (  -0.2000000   0.2390555  -0.2337334), wk =   0.0063492
        k(   79) = (   0.2000000  -0.2390555  -0.2337334), wk =   0.0063492
        k(   80) = (  -0.2000000  -0.2390555   0.2337334), wk =   0.0063492
        k(   81) = (  -0.2000000   0.2390555  -0.4674667), wk =   0.0063492
        k(   82) = (   0.2000000  -0.2390555  -0.4674667), wk =   0.0063492
        k(   83) = (  -0.2000000  -0.2390555   0.4674667), wk =   0.0063492
        k(   84) = (  -0.2000000   0.2390555  -0.7012001), wk =   0.0063492
        k(   85) = (   0.2000000  -0.2390555  -0.7012001), wk =   0.0063492
        k(   86) = (  -0.2000000  -0.2390555   0.7012001), wk =   0.0063492
        k(   87) = (  -0.2000000   0.2390555  -0.9349334), wk =   0.0063492
        k(   88) = (   0.2000000  -0.2390555  -0.9349334), wk =   0.0063492
        k(   89) = (  -0.2000000  -0.2390555   0.9349334), wk =   0.0063492
        k(   90) = (  -0.2000000   0.4781110   0.0000000), wk =   0.0063492
        k(   91) = (  -0.2000000   0.4781110  -0.2337334), wk =   0.0063492
        k(   92) = (   0.2000000  -0.4781110  -0.2337334), wk =   0.0063492
        k(   93) = (  -0.2000000  -0.4781110   0.2337334), wk =   0.0063492
        k(   94) = (  -0.2000000   0.4781110  -0.4674667), wk =   0.0063492
        k(   95) = (   0.2000000  -0.4781110  -0.4674667), wk =   0.0063492
        k(   96) = (  -0.2000000  -0.4781110   0.4674667), wk =   0.0063492
        k(   97) = (  -0.2000000   0.4781110  -0.7012001), wk =   0.0063492
        k(   98) = (   0.2000000  -0.4781110  -0.7012001), wk =   0.0063492
        k(   99) = (  -0.2000000  -0.4781110   0.7012001), wk =   0.0063492
        k(  100) = (  -0.2000000   0.4781110  -0.9349334), wk =   0.0063492
        k(  101) = (   0.2000000  -0.4781110  -0.9349334), wk =   0.0063492
        k(  102) = (  -0.2000000  -0.4781110   0.9349334), wk =   0.0063492
        k(  103) = (  -0.2000000   0.7171664   0.0000000), wk =   0.0063492
        k(  104) = (  -0.2000000   0.7171664  -0.2337334), wk =   0.0063492
        k(  105) = (   0.2000000  -0.7171664  -0.2337334), wk =   0.0063492
        k(  106) = (  -0.2000000  -0.7171664   0.2337334), wk =   0.0063492
        k(  107) = (  -0.2000000   0.7171664  -0.4674667), wk =   0.0063492
        k(  108) = (   0.2000000  -0.7171664  -0.4674667), wk =   0.0063492
        k(  109) = (  -0.2000000  -0.7171664   0.4674667), wk =   0.0063492
        k(  110) = (  -0.2000000   0.7171664  -0.7012001), wk =   0.0063492
        k(  111) = (   0.2000000  -0.7171664  -0.7012001), wk =   0.0063492
        k(  112) = (  -0.2000000  -0.7171664   0.7012001), wk =   0.0063492
        k(  113) = (  -0.2000000   0.7171664  -0.9349334), wk =   0.0063492
        k(  114) = (   0.2000000  -0.7171664  -0.9349334), wk =   0.0063492
        k(  115) = (  -0.2000000  -0.7171664   0.9349334), wk =   0.0063492
        k(  116) = (   0.4000000   0.0000000  -0.2337334), wk =   0.0063492
        k(  117) = (   0.4000000   0.0000000  -0.4674667), wk =   0.0063492
        k(  118) = (   0.4000000   0.0000000  -0.7012001), wk =   0.0063492
        k(  119) = (   0.4000000   0.0000000  -0.9349334), wk =   0.0063492
        k(  120) = (  -0.4000000   0.2390555   0.0000000), wk =   0.0063492
        k(  121) = (  -0.4000000   0.2390555  -0.2337334), wk =   0.0063492
        k(  122) = (   0.4000000  -0.2390555  -0.2337334), wk =   0.0063492
        k(  123) = (  -0.4000000  -0.2390555   0.2337334), wk =   0.0063492
        k(  124) = (  -0.4000000   0.2390555  -0.4674667), wk =   0.0063492
        k(  125) = (   0.4000000  -0.2390555  -0.4674667), wk =   0.0063492
        k(  126) = (  -0.4000000  -0.2390555   0.4674667), wk =   0.0063492
        k(  127) = (  -0.4000000   0.2390555  -0.7012001), wk =   0.0063492
        k(  128) = (   0.4000000  -0.2390555  -0.7012001), wk =   0.0063492
        k(  129) = (  -0.4000000  -0.2390555   0.7012001), wk =   0.0063492
        k(  130) = (  -0.4000000   0.2390555  -0.9349334), wk =   0.0063492
        k(  131) = (   0.4000000  -0.2390555  -0.9349334), wk =   0.0063492
        k(  132) = (  -0.4000000  -0.2390555   0.9349334), wk =   0.0063492
        k(  133) = (  -0.4000000   0.4781110   0.0000000), wk =   0.0063492
        k(  134) = (  -0.4000000   0.4781110  -0.2337334), wk =   0.0063492
        k(  135) = (   0.4000000  -0.4781110  -0.2337334), wk =   0.0063492
        k(  136) = (  -0.4000000  -0.4781110   0.2337334), wk =   0.0063492
        k(  137) = (  -0.4000000   0.4781110  -0.4674667), wk =   0.0063492
        k(  138) = (   0.4000000  -0.4781110  -0.4674667), wk =   0.0063492
        k(  139) = (  -0.4000000  -0.4781110   0.4674667), wk =   0.0063492
        k(  140) = (  -0.4000000   0.4781110  -0.7012001), wk =   0.0063492
        k(  141) = (   0.4000000  -0.4781110  -0.7012001), wk =   0.0063492
        k(  142) = (  -0.4000000  -0.4781110   0.7012001), wk =   0.0063492
        k(  143) = (  -0.4000000   0.4781110  -0.9349334), wk =   0.0063492
        k(  144) = (   0.4000000  -0.4781110  -0.9349334), wk =   0.0063492
        k(  145) = (  -0.4000000  -0.4781110   0.9349334), wk =   0.0063492
        k(  146) = (  -0.4000000   0.7171664   0.0000000), wk =   0.0063492
        k(  147) = (  -0.4000000   0.7171664  -0.2337334), wk =   0.0063492
        k(  148) = (   0.4000000  -0.7171664  -0.2337334), wk =   0.0063492
        k(  149) = (  -0.4000000  -0.7171664   0.2337334), wk =   0.0063492
        k(  150) = (  -0.4000000   0.7171664  -0.4674667), wk =   0.0063492
        k(  151) = (   0.4000000  -0.7171664  -0.4674667), wk =   0.0063492
        k(  152) = (  -0.4000000  -0.7171664   0.4674667), wk =   0.0063492
        k(  153) = (  -0.4000000   0.7171664  -0.7012001), wk =   0.0063492
        k(  154) = (   0.4000000  -0.7171664  -0.7012001), wk =   0.0063492
        k(  155) = (  -0.4000000  -0.7171664   0.7012001), wk =   0.0063492
        k(  156) = (  -0.4000000   0.7171664  -0.9349334), wk =   0.0063492
        k(  157) = (   0.4000000  -0.7171664  -0.9349334), wk =   0.0063492
        k(  158) = (  -0.4000000  -0.7171664   0.9349334), wk =   0.0063492

                       cryst. coord.
        k(    1) = (   0.0000000   0.0000000   0.0000000), wk =   0.0031746
        k(    2) = (   0.0000000   0.0000000   0.1111111), wk =   0.0063492
        k(    3) = (   0.0000000   0.0000000   0.2222222), wk =   0.0063492
        k(    4) = (   0.0000000   0.0000000   0.3333333), wk =   0.0063492
        k(    5) = (   0.0000000   0.0000000   0.4444444), wk =   0.0063492
        k(    6) = (   0.0000000   0.1428571   0.0000000), wk =   0.0063492
        k(    7) = (   0.0000000   0.1428571   0.1111111), wk =   0.0063492
        k(    8) = (   0.0000000   0.1428571   0.2222222), wk =   0.0063492
        k(    9) = (   0.0000000   0.1428571   0.3333333), wk =   0.0063492
        k(   10) = (   0.0000000   0.1428571   0.4444444), wk =   0.0063492
        k(   11) = (   0.0000000   0.2857143   0.0000000), wk =   0.0063492
        k(   12) = (   0.0000000   0.2857143   0.1111111), wk =   0.0063492
        k(   13) = (   0.0000000   0.2857143   0.2222222), wk =   0.0063492
        k(   14) = (   0.0000000   0.2857143   0.3333333), wk =   0.0063492
        k(   15) = (   0.0000000   0.2857143   0.4444444), wk =   0.0063492
        k(   16) = (   0.0000000   0.4285714   0.0000000), wk =   0.0063492
        k(   17) = (   0.0000000   0.4285714   0.1111111), wk =   0.0063492
        k(   18) = (   0.0000000   0.4285714   0.2222222), wk =   0.0063492
        k(   19) = (   0.0000000   0.4285714   0.3333333), wk =   0.0063492
        k(   20) = (   0.0000000   0.4285714   0.4444444), wk =   0.0063492
        k(   21) = (   0.2000000   0.0000000   0.0000000), wk =   0.0063492
        k(   22) = (   0.2000000   0.0000000   0.1111111), wk =   0.0063492
        k(   23) = (   0.2000000   0.0000000   0.2222222), wk =   0.0063492
        k(   24) = (   0.2000000   0.0000000   0.3333333), wk =   0.0063492
        k(   25) = (   0.2000000   0.0000000   0.4444444), wk =   0.0063492
        k(   26) = (   0.2000000   0.1428571   0.0000000), wk =   0.0063492
        k(   27) = (   0.2000000   0.1428571   0.1111111), wk =   0.0063492
        k(   28) = (   0.2000000   0.1428571   0.2222222), wk =   0.0063492
        k(   29) = (   0.2000000   0.1428571   0.3333333), wk =   0.0063492
        k(   30) = (   0.2000000   0.1428571   0.4444444), wk =   0.0063492
        k(   31) = (   0.2000000   0.2857143   0.0000000), wk =   0.0063492
        k(   32) = (   0.2000000   0.2857143   0.1111111), wk =   0.0063492
        k(   33) = (   0.2000000   0.2857143   0.2222222), wk =   0.0063492
        k(   34) = (   0.2000000   0.2857143   0.3333333), wk =   0.0063492
        k(   35) = (   0.2000000   0.2857143   0.4444444), wk =   0.0063492
        k(   36) = (   0.2000000   0.4285714   0.0000000), wk =   0.0063492
        k(   37) = (   0.2000000   0.4285714   0.1111111), wk =   0.0063492
        k(   38) = (   0.2000000   0.4285714   0.2222222), wk =   0.0063492
        k(   39) = (   0.2000000   0.4285714   0.3333333), wk =   0.0063492
        k(   40) = (   0.2000000   0.4285714   0.4444444), wk =   0.0063492
        k(   41) = (   0.4000000   0.0000000   0.0000000), wk =   0.0063492
        k(   42) = (   0.4000000   0.0000000   0.1111111), wk =   0.0063492
        k(   43) = (   0.4000000   0.0000000   0.2222222), wk =   0.0063492
        k(   44) = (   0.4000000   0.0000000   0.3333333), wk =   0.0063492
        k(   45) = (   0.4000000   0.0000000   0.4444444), wk =   0.0063492
        k(   46) = (   0.4000000   0.1428571   0.0000000), wk =   0.0063492
        k(   47) = (   0.4000000   0.1428571   0.1111111), wk =   0.0063492
        k(   48) = (   0.4000000   0.1428571   0.2222222), wk =   0.0063492
        k(   49) = (   0.4000000   0.1428571   0.3333333), wk =   0.0063492
        k(   50) = (   0.4000000   0.1428571   0.4444444), wk =   0.0063492
        k(   51) = (   0.4000000   0.2857143   0.0000000), wk =   0.0063492
        k(   52) = (   0.4000000   0.2857143   0.1111111), wk =   0.0063492
        k(   53) = (   0.4000000   0.2857143   0.2222222), wk =   0.0063492
        k(   54) = (   0.4000000   0.2857143   0.3333333), wk =   0.0063492
        k(   55) = (   0.4000000   0.2857143   0.4444444), wk =   0.0063492
        k(   56) = (   0.4000000   0.4285714   0.0000000), wk =   0.0063492
        k(   57) = (   0.4000000   0.4285714   0.1111111), wk =   0.0063492
        k(   58) = (   0.4000000   0.4285714   0.2222222), wk =   0.0063492
        k(   59) = (   0.4000000   0.4285714   0.3333333), wk =   0.0063492
        k(   60) = (   0.4000000   0.4285714   0.4444444), wk =   0.0063492
        k(   61) = (   0.0000000   0.1428571  -0.1111111), wk =   0.0063492
        k(   62) = (   0.0000000   0.1428571  -0.2222222), wk =   0.0063492
        k(   63) = (   0.0000000   0.1428571  -0.3333333), wk =   0.0063492
        k(   64) = (   0.0000000   0.1428571  -0.4444444), wk =   0.0063492
        k(   65) = (   0.0000000   0.2857143  -0.1111111), wk =   0.0063492
        k(   66) = (   0.0000000   0.2857143  -0.2222222), wk =   0.0063492
        k(   67) = (   0.0000000   0.2857143  -0.3333333), wk =   0.0063492
        k(   68) = (   0.0000000   0.2857143  -0.4444444), wk =   0.0063492
        k(   69) = (   0.0000000   0.4285714  -0.1111111), wk =   0.0063492
        k(   70) = (   0.0000000   0.4285714  -0.2222222), wk =   0.0063492
        k(   71) = (   0.0000000   0.4285714  -0.3333333), wk =   0.0063492
        k(   72) = (   0.0000000   0.4285714  -0.4444444), wk =   0.0063492
        k(   73) = (   0.2000000   0.0000000  -0.1111111), wk =   0.0063492
        k(   74) = (   0.2000000   0.0000000  -0.2222222), wk =   0.0063492
        k(   75) = (   0.2000000   0.0000000  -0.3333333), wk =   0.0063492
        k(   76) = (   0.2000000   0.0000000  -0.4444444), wk =   0.0063492
        k(   77) = (  -0.2000000   0.1428571   0.0000000), wk =   0.0063492
        k(   78) = (  -0.2000000   0.1428571  -0.1111111), wk =   0.0063492
        k(   79) = (   0.2000000  -0.1428571  -0.1111111), wk =   0.0063492
        k(   80) = (  -0.2000000  -0.1428571   0.1111111), wk =   0.0063492
        k(   81) = (  -0.2000000   0.1428571  -0.2222222), wk =   0.0063492
        k(   82) = (   0.2000000  -0.1428571  -0.2222222), wk =   0.0063492
        k(   83) = (  -0.2000000  -0.1428571   0.2222222), wk =   0.0063492
        k(   84) = (  -0.2000000   0.1428571  -0.3333333), wk =   0.0063492
        k(   85) = (   0.2000000  -0.1428571  -0.3333333), wk =   0.0063492
        k(   86) = (  -0.2000000  -0.1428571   0.3333333), wk =   0.0063492
        k(   87) = (  -0.2000000   0.1428571  -0.4444444), wk =   0.0063492
        k(   88) = (   0.2000000  -0.1428571  -0.4444444), wk =   0.0063492
        k(   89) = (  -0.2000000  -0.1428571   0.4444444), wk =   0.0063492
        k(   90) = (  -0.2000000   0.2857143   0.0000000), wk =   0.0063492
        k(   91) = (  -0.2000000   0.2857143  -0.1111111), wk =   0.0063492
        k(   92) = (   0.2000000  -0.2857143  -0.1111111), wk =   0.0063492
        k(   93) = (  -0.2000000  -0.2857143   0.1111111), wk =   0.0063492
        k(   94) = (  -0.2000000   0.2857143  -0.2222222), wk =   0.0063492
        k(   95) = (   0.2000000  -0.2857143  -0.2222222), wk =   0.0063492
        k(   96) = (  -0.2000000  -0.2857143   0.2222222), wk =   0.0063492
        k(   97) = (  -0.2000000   0.2857143  -0.3333333), wk =   0.0063492
        k(   98) = (   0.2000000  -0.2857143  -0.3333333), wk =   0.0063492
        k(   99) = (  -0.2000000  -0.2857143   0.3333333), wk =   0.0063492
        k(  100) = (  -0.2000000   0.2857143  -0.4444444), wk =   0.0063492
        k(  101) = (   0.2000000  -0.2857143  -0.4444444), wk =   0.0063492
        k(  102) = (  -0.2000000  -0.2857143   0.4444444), wk =   0.0063492
        k(  103) = (  -0.2000000   0.4285714   0.0000000), wk =   0.0063492
        k(  104) = (  -0.2000000   0.4285714  -0.1111111), wk =   0.0063492
        k(  105) = (   0.2000000  -0.4285714  -0.1111111), wk =   0.0063492
        k(  106) = (  -0.2000000  -0.4285714   0.1111111), wk =   0.0063492
        k(  107) = (  -0.2000000   0.4285714  -0.2222222), wk =   0.0063492
        k(  108) = (   0.2000000  -0.4285714  -0.2222222), wk =   0.0063492
        k(  109) = (  -0.2000000  -0.4285714   0.2222222), wk =   0.0063492
        k(  110) = (  -0.2000000   0.4285714  -0.3333333), wk =   0.0063492
        k(  111) = (   0.2000000  -0.4285714  -0.3333333), wk =   0.0063492
        k(  112) = (  -0.2000000  -0.4285714   0.3333333), wk =   0.0063492
        k(  113) = (  -0.2000000   0.4285714  -0.4444444), wk =   0.0063492
        k(  114) = (   0.2000000  -0.4285714  -0.4444444), wk =   0.0063492
        k(  115) = (  -0.2000000  -0.4285714   0.4444444), wk =   0.0063492
        k(  116) = (   0.4000000   0.0000000  -0.1111111), wk =   0.0063492
        k(  117) = (   0.4000000   0.0000000  -0.2222222), wk =   0.0063492
        k(  118) = (   0.4000000   0.0000000  -0.3333333), wk =   0.0063492
        k(  119) = (   0.4000000   0.0000000  -0.4444444), wk =   0.0063492
        k(  120) = (  -0.4000000   0.1428571   0.0000000), wk =   0.0063492
        k(  121) = (  -0.4000000   0.1428571  -0.1111111), wk =   0.0063492
        k(  122) = (   0.4000000  -0.1428571  -0.1111111), wk =   0.0063492
        k(  123) = (  -0.4000000  -0.1428571   0.1111111), wk =   0.0063492
        k(  124) = (  -0.4000000   0.1428571  -0.2222222), wk =   0.0063492
        k(  125) = (   0.4000000  -0.1428571  -0.2222222), wk =   0.0063492
        k(  126) = (  -0.4000000  -0.1428571   0.2222222), wk =   0.0063492
        k(  127) = (  -0.4000000   0.1428571  -0.3333333), wk =   0.0063492
        k(  128) = (   0.4000000  -0.1428571  -0.3333333), wk =   0.0063492
        k(  129) = (  -0.4000000  -0.1428571   0.3333333), wk =   0.0063492
        k(  130) = (  -0.4000000   0.1428571  -0.4444444), wk =   0.0063492
        k(  131) = (   0.4000000  -0.1428571  -0.4444444), wk =   0.0063492
        k(  132) = (  -0.4000000  -0.1428571   0.4444444), wk =   0.0063492
        k(  133) = (  -0.4000000   0.2857143   0.0000000), wk =   0.0063492
        k(  134) = (  -0.4000000   0.2857143  -0.1111111), wk =   0.0063492
        k(  135) = (   0.4000000  -0.2857143  -0.1111111), wk =   0.0063492
        k(  136) = (  -0.4000000  -0.2857143   0.1111111), wk =   0.0063492
        k(  137) = (  -0.4000000   0.2857143  -0.2222222), wk =   0.0063492
        k(  138) = (   0.4000000  -0.2857143  -0.2222222), wk =   0.0063492
        k(  139) = (  -0.4000000  -0.2857143   0.2222222), wk =   0.0063492
        k(  140) = (  -0.4000000   0.2857143  -0.3333333), wk =   0.0063492
        k(  141) = (   0.4000000  -0.2857143  -0.3333333), wk =   0.0063492
        k(  142) = (  -0.4000000  -0.2857143   0.3333333), wk =   0.0063492
        k(  143) = (  -0.4000000   0.2857143  -0.4444444), wk =   0.0063492
        k(  144) = (   0.4000000  -0.2857143  -0.4444444), wk =   0.0063492
        k(  145) = (  -0.4000000  -0.2857143   0.4444444), wk =   0.0063492
        k(  146) = (  -0.4000000   0.4285714   0.0000000), wk =   0.0063492
        k(  147) = (  -0.4000000   0.4285714  -0.1111111), wk =   0.0063492
        k(  148) = (   0.4000000  -0.4285714  -0.1111111), wk =   0.0063492
        k(  149) = (  -0.4000000  -0.4285714   0.1111111), wk =   0.0063492
        k(  150) = (  -0.4000000   0.4285714  -0.2222222), wk =   0.0063492
        k(  151) = (   0.4000000  -0.4285714  -0.2222222), wk =   0.0063492
        k(  152) = (  -0.4000000  -0.4285714   0.2222222), wk =   0.0063492
        k(  153) = (  -0.4000000   0.4285714  -0.3333333), wk =   0.0063492
        k(  154) = (   0.4000000  -0.4285714  -0.3333333), wk =   0.0063492
        k(  155) = (  -0.4000000  -0.4285714   0.3333333), wk =   0.0063492
        k(  156) = (  -0.4000000   0.4285714  -0.4444444), wk =   0.0063492
        k(  157) = (   0.4000000  -0.4285714  -0.4444444), wk =   0.0063492
        k(  158) = (  -0.4000000  -0.4285714   0.4444444), wk =   0.0063492

     Dense  grid:  1169635 G-vectors     FFT dimensions: ( 200, 120,  96)

     Smooth grid:   263601 G-vectors     FFT dimensions: ( 125,  75,  60)

     Dynamical RAM for                 wfc:       3.58 MB

     Dynamical RAM for     wfc (w. buffer):    1135.38 MB

     Dynamical RAM for           str. fact:       4.46 MB

     Dynamical RAM for           local pot:       0.00 MB

     Dynamical RAM for          nlocal pot:       8.80 MB

     Dynamical RAM for                qrad:      10.54 MB

     Dynamical RAM for          rho,v,vnew:      13.28 MB

     Dynamical RAM for               rhoin:       4.43 MB

     Dynamical RAM for            rho*nmix:      35.69 MB

     Dynamical RAM for           G-vectors:       4.31 MB

     Dynamical RAM for          h,s,v(r/c):       2.38 MB

     Dynamical RAM for          <psi|beta>:       0.49 MB

     Dynamical RAM for                 psi:       7.16 MB

     Dynamical RAM for                hpsi:       7.16 MB

     Dynamical RAM for                spsi:       7.16 MB

     Dynamical RAM for      wfcinit/wfcrot:       9.04 MB

     Dynamical RAM for           addusdens:     226.44 MB

     Dynamical RAM for          addusforce:     260.03 MB

     Dynamical RAM for         addusstress:     225.88 MB

     Estimated static dynamical RAM per process >       1.20 GB

     Estimated max dynamical RAM per process >       1.45 GB

     Estimated total dynamical RAM >      23.27 GB

     Check: negative core charge=   -0.000003
     Generating pointlists ...
     new r_m :   0.0764 (alat units)  1.4525 (a.u.) for type    1
     new r_m :   0.0939 (alat units)  1.7859 (a.u.) for type    2
     new r_m :   0.0611 (alat units)  1.1607 (a.u.) for type    3
     new r_m :   0.0611 (alat units)  1.1607 (a.u.) for type    4

     Initial potential from superposition of free atoms

     starting charge  188.99132, renormalised to  189.00000
     Starting wfcs are  137 randomized atomic wfcs
     Checking if some PAW data can be deallocated... 
       PAW data deallocated on   13 nodes for type:  1
       PAW data deallocated on    4 nodes for type:  3

     total cpu time spent up to now is       79.3 secs

     Self-consistent Calculation

     iteration #  1     ecut=   100.00 Ry     beta= 0.40
     Davidson diagonalization with overlap
     ethr =  1.00E-02,  avg # of iterations =  3.6

     negative rho (up, down):  0.000E+00 2.148E-05

     total cpu time spent up to now is      311.7 secs

     total energy              =   -2124.11808568 Ry
     estimated scf accuracy    <       6.55018405 Ry

     total magnetization       =    19.00 Bohr mag/cell
     absolute magnetization    =    19.00 Bohr mag/cell

     iteration #  2     ecut=   100.00 Ry     beta= 0.40
     Davidson diagonalization with overlap
     ethr =  3.47E-03,  avg # of iterations =  2.0

     negative rho (up, down):  0.000E+00 8.969E-07

     total cpu time spent up to now is      518.9 secs

     total energy              =   -2124.34944192 Ry
     estimated scf accuracy    <       6.63075114 Ry

     total magnetization       =    14.83 Bohr mag/cell
     absolute magnetization    =    14.85 Bohr mag/cell

     iteration #  3     ecut=   100.00 Ry     beta= 0.40
     Davidson diagonalization with overlap
     ethr =  3.47E-03,  avg # of iterations =  2.0

     negative rho (up, down):  0.000E+00 6.200E-05

     total cpu time spent up to now is      696.9 secs

     total energy              =   -2125.75229579 Ry
     estimated scf accuracy    <       2.66894546 Ry

     total magnetization       =    17.37 Bohr mag/cell
     absolute magnetization    =    17.38 Bohr mag/cell

     iteration #  4     ecut=   100.00 Ry     beta= 0.40
     Davidson diagonalization with overlap
     ethr =  1.41E-03,  avg # of iterations =  2.0

     negative rho (up, down):  0.000E+00 1.185E-04

     total cpu time spent up to now is      873.8 secs

     total energy              =   -2125.77401116 Ry
     estimated scf accuracy    <       3.69605681 Ry

     total magnetization       =    15.91 Bohr mag/cell
     absolute magnetization    =    15.98 Bohr mag/cell

     iteration #  5     ecut=   100.00 Ry     beta= 0.40
     Davidson diagonalization with overlap
     ethr =  1.41E-03,  avg # of iterations =  1.5

     negative rho (up, down):  0.000E+00 4.382E-04

     total cpu time spent up to now is     1039.2 secs

     total energy              =   -2126.02130504 Ry
     estimated scf accuracy    <       0.39268504 Ry

     total magnetization       =    19.00 Bohr mag/cell
     absolute magnetization    =    19.00 Bohr mag/cell

     iteration #  6     ecut=   100.00 Ry     beta= 0.40
     Davidson diagonalization with overlap
     c_bands:  2 eigenvalues not converged
     ethr =  2.08E-04,  avg # of iterations =  9.1

     negative rho (up, down):  0.000E+00 8.342E-04

     total cpu time spent up to now is     1275.2 secs

     total energy              =   -2126.05282360 Ry
     estimated scf accuracy    <       0.02974658 Ry

     total magnetization       =    19.00 Bohr mag/cell
     absolute magnetization    =    19.01 Bohr mag/cell

     iteration #  7     ecut=   100.00 Ry     beta= 0.40
     Davidson diagonalization with overlap
     c_bands:  1 eigenvalues not converged
     c_bands:  1 eigenvalues not converged
     c_bands:  1 eigenvalues not converged
     c_bands:  1 eigenvalues not converged
     c_bands:  1 eigenvalues not converged
     c_bands:  3 eigenvalues not converged
     c_bands:  1 eigenvalues not converged
     c_bands:  1 eigenvalues not converged
     c_bands:  1 eigenvalues not converged
     c_bands:  1 eigenvalues not converged
     c_bands:  1 eigenvalues not converged
     c_bands:  1 eigenvalues not converged
     c_bands:  1 eigenvalues not converged
     c_bands:  1 eigenvalues not converged
     c_bands:  1 eigenvalues not converged
     c_bands:  1 eigenvalues not converged
     c_bands:  1 eigenvalues not converged
     c_bands:  1 eigenvalues not converged
     c_bands:  1 eigenvalues not converged
     c_bands:  1 eigenvalues not converged
     c_bands:  1 eigenvalues not converged
     ethr =  1.57E-05,  avg # of iterations = 13.9

     negative rho (up, down):  0.000E+00 1.007E-03

     total cpu time spent up to now is     1661.6 secs

     total energy              =   -2126.06814024 Ry
     estimated scf accuracy    <       0.01007579 Ry

     total magnetization       =    19.00 Bohr mag/cell
     absolute magnetization    =    19.02 Bohr mag/cell

     iteration #  8     ecut=   100.00 Ry     beta= 0.40
     Davidson diagonalization with overlap
     c_bands:  1 eigenvalues not converged
     c_bands:  1 eigenvalues not converged
     c_bands:  1 eigenvalues not converged
     c_bands:  1 eigenvalues not converged
     c_bands:  1 eigenvalues not converged
     c_bands:  1 eigenvalues not converged
     c_bands:  1 eigenvalues not converged
     c_bands:  1 eigenvalues not converged
     c_bands:  1 eigenvalues not converged
     c_bands:  1 eigenvalues not converged
     c_bands:  1 eigenvalues not converged
     c_bands:  1 eigenvalues not converged
     ethr =  5.33E-06,  avg # of iterations =  7.3

     negative rho (up, down):  0.000E+00 1.052E-03

     total cpu time spent up to now is     1882.8 secs

     total energy              =   -2126.06945113 Ry
     estimated scf accuracy    <       0.00122222 Ry

     total magnetization       =    19.00 Bohr mag/cell
     absolute magnetization    =    19.03 Bohr mag/cell

     iteration #  9     ecut=   100.00 Ry     beta= 0.40
     Davidson diagonalization with overlap
     c_bands:  1 eigenvalues not converged
     c_bands:  1 eigenvalues not converged
     c_bands:  1 eigenvalues not converged
     c_bands:  1 eigenvalues not converged
     c_bands:  1 eigenvalues not converged
     c_bands:  1 eigenvalues not converged
     ethr =  6.47E-07,  avg # of iterations =  6.4

     negative rho (up, down):  0.000E+00 1.053E-03

     total cpu time spent up to now is     2133.5 secs

     total energy              =   -2126.06988061 Ry
     estimated scf accuracy    <       0.00036250 Ry

     total magnetization       =    19.00 Bohr mag/cell
     absolute magnetization    =    19.03 Bohr mag/cell

     iteration # 10     ecut=   100.00 Ry     beta= 0.40
     Davidson diagonalization with overlap
     ethr =  1.92E-07,  avg # of iterations =  2.8

     negative rho (up, down):  0.000E+00 1.056E-03

     total cpu time spent up to now is     2320.5 secs

     total energy              =   -2126.06994796 Ry
     estimated scf accuracy    <       0.00021986 Ry

     total magnetization       =    19.00 Bohr mag/cell
     absolute magnetization    =    19.04 Bohr mag/cell

     iteration # 11     ecut=   100.00 Ry     beta= 0.40
     Davidson diagonalization with overlap
     ethr =  1.16E-07,  avg # of iterations =  1.9

     negative rho (up, down):  0.000E+00 1.056E-03

     total cpu time spent up to now is     2496.3 secs

     total energy              =   -2126.06998448 Ry
     estimated scf accuracy    <       0.00005984 Ry

     total magnetization       =    19.00 Bohr mag/cell
     absolute magnetization    =    19.04 Bohr mag/cell

     iteration # 12     ecut=   100.00 Ry     beta= 0.40
     Davidson diagonalization with overlap
     ethr =  3.17E-08,  avg # of iterations =  3.4

     negative rho (up, down):  0.000E+00 1.054E-03

     total cpu time spent up to now is     2716.8 secs

     total energy              =   -2126.07000851 Ry
     estimated scf accuracy    <       0.00000772 Ry

     total magnetization       =    19.00 Bohr mag/cell
     absolute magnetization    =    19.04 Bohr mag/cell

     iteration # 13     ecut=   100.00 Ry     beta= 0.40
     Davidson diagonalization with overlap
     ethr =  4.09E-09,  avg # of iterations =  3.9

     negative rho (up, down):  0.000E+00 1.053E-03

     total cpu time spent up to now is     2956.4 secs

     total energy              =   -2126.07001246 Ry
     estimated scf accuracy    <       0.00001567 Ry

     total magnetization       =    19.00 Bohr mag/cell
     absolute magnetization    =    19.04 Bohr mag/cell

     iteration # 14     ecut=   100.00 Ry     beta= 0.40
     Davidson diagonalization with overlap
     ethr =  4.09E-09,  avg # of iterations =  2.0

     negative rho (up, down):  0.000E+00 1.052E-03

     total cpu time spent up to now is     3146.4 secs

     total energy              =   -2126.07001591 Ry
     estimated scf accuracy    <       0.00000095 Ry

     total magnetization       =    19.00 Bohr mag/cell
     absolute magnetization    =    19.04 Bohr mag/cell

     iteration # 15     ecut=   100.00 Ry     beta= 0.40
     Davidson diagonalization with overlap
     ethr =  5.05E-10,  avg # of iterations =  2.5

     negative rho (up, down):  0.000E+00 1.052E-03

     total cpu time spent up to now is     3340.4 secs

     total energy              =   -2126.07001631 Ry
     estimated scf accuracy    <       0.00000037 Ry

     total magnetization       =    19.00 Bohr mag/cell
     absolute magnetization    =    19.04 Bohr mag/cell

     iteration # 16     ecut=   100.00 Ry     beta= 0.40
     Davidson diagonalization with overlap
     ethr =  1.98E-10,  avg # of iterations =  2.3

     negative rho (up, down):  0.000E+00 1.053E-03

     total cpu time spent up to now is     3549.5 secs

     total energy              =   -2126.07001656 Ry
     estimated scf accuracy    <       0.00000007 Ry

     total magnetization       =    19.00 Bohr mag/cell
     absolute magnetization    =    19.04 Bohr mag/cell

     iteration # 17     ecut=   100.00 Ry     beta= 0.40
     Davidson diagonalization with overlap
     ethr =  3.88E-11,  avg # of iterations =  3.7

     negative rho (up, down):  0.000E+00 1.053E-03

     total cpu time spent up to now is     3783.9 secs

     total energy              =   -2126.07001663 Ry
     estimated scf accuracy    <       0.00000002 Ry

     total magnetization       =    19.00 Bohr mag/cell
     absolute magnetization    =    19.04 Bohr mag/cell

     iteration # 18     ecut=   100.00 Ry     beta= 0.40
     Davidson diagonalization with overlap
     ethr =  1.21E-11,  avg # of iterations =  2.6

     negative rho (up, down):  0.000E+00 1.053E-03

     total cpu time spent up to now is     3997.8 secs

     total energy              =   -2126.07001665 Ry
     estimated scf accuracy    <       0.00000003 Ry

     total magnetization       =    19.00 Bohr mag/cell
     absolute magnetization    =    19.04 Bohr mag/cell

     iteration # 19     ecut=   100.00 Ry     beta= 0.40
     Davidson diagonalization with overlap
     ethr =  1.21E-11,  avg # of iterations =  2.0

     negative rho (up, down):  0.000E+00 1.053E-03

     total cpu time spent up to now is     4176.6 secs

     total energy              =   -2126.07001666 Ry
     estimated scf accuracy    <          9.2E-09 Ry

     total magnetization       =    19.00 Bohr mag/cell
     absolute magnetization    =    19.04 Bohr mag/cell

     iteration # 20     ecut=   100.00 Ry     beta= 0.40
     Davidson diagonalization with overlap
     ethr =  4.89E-12,  avg # of iterations =  2.0

     negative rho (up, down):  0.000E+00 1.053E-03

     total cpu time spent up to now is     4355.0 secs

     total energy              =   -2126.07001667 Ry
     estimated scf accuracy    <          2.1E-09 Ry

     total magnetization       =    19.00 Bohr mag/cell
     absolute magnetization    =    19.04 Bohr mag/cell

     iteration # 21     ecut=   100.00 Ry     beta= 0.40
     Davidson diagonalization with overlap
     ethr =  1.14E-12,  avg # of iterations =  3.1

     negative rho (up, down):  0.000E+00 1.053E-03

     total cpu time spent up to now is     4559.6 secs

     total energy              =   -2126.07001667 Ry
     estimated scf accuracy    <          5.6E-10 Ry

     total magnetization       =    19.00 Bohr mag/cell
     absolute magnetization    =    19.04 Bohr mag/cell

     iteration # 22     ecut=   100.00 Ry     beta= 0.40
     Davidson diagonalization with overlap
     ethr =  2.98E-13,  avg # of iterations =  3.6

     negative rho (up, down):  0.000E+00 1.053E-03

     Magnetic moment per site:
     atom:    1    charge:    7.9593    magn:    0.0010    constr:    0.0000
     atom:    2    charge:   12.7355    magn:    3.5867    constr:    0.0000
     atom:    3    charge:   12.7332    magn:    3.6004    constr:    0.0000
     atom:    4    charge:   12.7355    magn:    3.5867    constr:    0.0000
     atom:    5    charge:   12.7332    magn:    3.6004    constr:    0.0000
     atom:    6    charge:    0.7993    magn:    0.0091    constr:    0.0000
     atom:    7    charge:    0.7993    magn:    0.0118    constr:    0.0000
     atom:    8    charge:    0.7993    magn:    0.0091    constr:    0.0000
     atom:    9    charge:    0.7993    magn:    0.0118    constr:    0.0000
     atom:   10    charge:    4.1459    magn:    0.0831    constr:    0.0000
     atom:   11    charge:    4.1449    magn:    0.1287    constr:    0.0000
     atom:   12    charge:    4.1459    magn:    0.0831    constr:    0.0000
     atom:   13    charge:    4.1449    magn:    0.1287    constr:    0.0000
     atom:   14    charge:    4.1380    magn:    0.1322    constr:    0.0000
     atom:   15    charge:    4.1331    magn:    0.0902    constr:    0.0000
     atom:   16    charge:    4.1380    magn:    0.1322    constr:    0.0000
     atom:   17    charge:    4.1331    magn:    0.0902    constr:    0.0000
     atom:   18    charge:    4.1176    magn:    0.1222    constr:    0.0000
     atom:   19    charge:    4.1158    magn:    0.1459    constr:    0.0000
     atom:   20    charge:    4.1200    magn:    0.1334    constr:    0.0000
     atom:   21    charge:    4.1172    magn:    0.1538    constr:    0.0000
     atom:   22    charge:    4.1176    magn:    0.1222    constr:    0.0000
     atom:   23    charge:    4.1158    magn:    0.1459    constr:    0.0000
     atom:   24    charge:    4.1200    magn:    0.1334    constr:    0.0000
     atom:   25    charge:    4.1173    magn:    0.1538    constr:    0.0000

     total cpu time spent up to now is     4787.3 secs

     End of self-consistent calculation

 ------ SPIN UP ------------


          k = 0.0000 0.0000 0.0000 ( 32965 PWs)   bands (ev):

   -83.7649 -83.7634 -83.7180 -83.7175 -49.9099 -49.9094 -49.9088 -49.9084
   -49.7425 -49.7411 -49.6464 -49.6448 -49.6316 -49.6311 -49.6210 -49.6207
   -43.3948 -15.8032 -15.7963 -15.5013 -15.4273 -15.4173 -15.3771 -15.0856
   -13.0443 -13.0045 -12.9444 -12.8978 -12.7898 -12.7354 -12.7186 -12.6949
   -12.6536 -12.6360 -12.5019 -12.4652  -3.2084  -2.6588  -2.5446  -2.0521
    -1.5810  -1.1670  -1.0557  -0.9690  -0.8337  -0.5604  -0.5539  -0.4851
    -0.3436  -0.1336   0.0370   0.3346   0.4920   0.5432   1.1188   1.2154
     1.2276   1.3480   1.5199   1.5310   1.6707   1.7170   1.9904   2.1124
     2.2072   2.3307   2.4516   2.4861   2.5380   2.6455   2.6485   2.6995
     2.7389   3.0791   3.1791   3.2634   3.3835   3.3889   3.5261   3.5297
     3.7234   3.8528   3.9020   4.0196   4.0618   4.1125   4.3962   4.4152
     4.4767   4.5590   4.6062   4.6447   4.8335   4.8642   4.8833   5.0668
     5.1097   5.3199   5.4561   5.7364   5.9117   6.0742   6.2492   6.3286
    11.0225  13.1486  13.3733  13.8698  13.9269  14.3268  15.1138  15.3699
    15.4119  15.5141

     occupation numbers 
     1.0000   1.0000   1.0000   1.0000   1.0000   1.0000   1.0000   1.0000
     1.0000   1.0000   1.0000   1.0000   1.0000   1.0000   1.0000   1.0000
     1.0000   1.0000   1.0000   1.0000   1.0000   1.0000   1.0000   1.0000
     1.0000   1.0000   1.0000   1.0000   1.0000   1.0000   1.0000   1.0000
     1.0000   1.0000   1.0000   1.0000   1.0000   1.0000   1.0000   1.0000
     1.0000   1.0000   1.0000   1.0000   1.0000   1.0000   1.0000   1.0000
     1.0000   1.0000   1.0000   1.0000   1.0000   1.0000   1.0000   1.0000
     1.0000   1.0000   1.0000   1.0000   1.0000   1.0000   1.0000   1.0000
     1.0000   1.0000   1.0000   1.0000   1.0000   1.0000   1.0000   1.0000
     1.0000   1.0000   1.0000   1.0000   1.0000   1.0000   1.0000   1.0000
     1.0000   1.0000   1.0000   1.0000   1.0000   1.0000   1.0000   1.0000
     1.0000   1.0000   1.0000   1.0000   1.0000   1.0000   1.0000   1.0000
     1.0000   1.0000   1.0000   1.0000   1.0000   1.0000   1.0000   1.0000
     0.0000   0.0000   0.0000   0.0000   0.0000   0.0000   0.0000   0.0000
     0.0000   0.0000

          k = 0.0000 0.0000 0.2337 ( 32923 PWs)   bands (ev):

   -83.7649 -83.7634 -83.7180 -83.7175 -49.9099 -49.9094 -49.9088 -49.9084
   -49.7425 -49.7411 -49.6464 -49.6448 -49.6316 -49.6311 -49.6210 -49.6207
   -43.3948 -15.8290 -15.7517 -15.5240 -15.4174 -15.3847 -15.3685 -15.1006
   -13.0543 -13.0209 -12.9539 -12.9033 -12.7829 -12.7557 -12.7061 -12.6941
   -12.6603 -12.6390 -12.5066 -12.4723  -3.1821  -2.6488  -2.5457  -2.0682
    -1.5173  -1.1317  -1.0672  -0.9460  -0.8291  -0.6190  -0.5253  -0.4179
    -0.3292  -0.0964  -0.0156   0.3591   0.4994   0.5101   1.1274   1.2031
     1.2423   1.3779   1.4622   1.5924   1.6704   1.6863   1.9459   2.1460
     2.1952   2.2918   2.4245   2.4630   2.5210   2.5981   2.6351   2.6714
     2.8728   3.0592   3.1507   3.2762   3.3231   3.3570   3.4957   3.5657
     3.7347   3.8268   3.8803   4.0308   4.1019   4.1604   4.2984   4.4121
     4.4504   4.5603   4.5943   4.6402   4.8088   4.8610   4.9906   5.0972
     5.1337   5.3066   5.5027   5.7238   5.9099   6.0563   6.2205   6.3025
    11.1744  13.1966  13.4538  13.7978  14.0719  14.3159  15.1820  15.2239
    15.2422  15.3930

     occupation numbers 
     1.0000   1.0000   1.0000   1.0000   1.0000   1.0000   1.0000   1.0000
     1.0000   1.0000   1.0000   1.0000   1.0000   1.0000   1.0000   1.0000
     1.0000   1.0000   1.0000   1.0000   1.0000   1.0000   1.0000   1.0000
     1.0000   1.0000   1.0000   1.0000   1.0000   1.0000   1.0000   1.0000
     1.0000   1.0000   1.0000   1.0000   1.0000   1.0000   1.0000   1.0000
     1.0000   1.0000   1.0000   1.0000   1.0000   1.0000   1.0000   1.0000
     1.0000   1.0000   1.0000   1.0000   1.0000   1.0000   1.0000   1.0000
     1.0000   1.0000   1.0000   1.0000   1.0000   1.0000   1.0000   1.0000
     1.0000   1.0000   1.0000   1.0000   1.0000   1.0000   1.0000   1.0000
     1.0000   1.0000   1.0000   1.0000   1.0000   1.0000   1.0000   1.0000
     1.0000   1.0000   1.0000   1.0000   1.0000   1.0000   1.0000   1.0000
     1.0000   1.0000   1.0000   1.0000   1.0000   1.0000   1.0000   1.0000
     1.0000   1.0000   1.0000   1.0000   1.0000   1.0000   1.0000   1.0000
     0.0000   0.0000   0.0000   0.0000   0.0000   0.0000   0.0000   0.0000
     0.0000   0.0000

          k = 0.0000 0.0000 0.4675 ( 32947 PWs)   bands (ev):

   -83.7649 -83.7634 -83.7180 -83.7175 -49.9099 -49.9094 -49.9088 -49.9084
   -49.7425 -49.7411 -49.6464 -49.6448 -49.6316 -49.6311 -49.6210 -49.6207
   -43.3948 -15.8493 -15.6792 -15.5404 -15.4124 -15.3579 -15.3124 -15.1414
   -13.0795 -13.0614 -12.9816 -12.9231 -12.7898 -12.7656 -12.7026 -12.6838
   -12.6651 -12.6446 -12.5205 -12.4923  -3.1057  -2.6359  -2.5406  -2.1287
    -1.3415  -1.0804  -1.0438  -0.9167  -0.8088  -0.6489  -0.5199  -0.3468
    -0.1980  -0.1448  -0.0003   0.3491   0.4592   0.5642   1.1415   1.2114
     1.2627   1.3935   1.4725   1.6093   1.6679   1.6826   1.8262   2.1703
     2.1996   2.2822   2.3515   2.4021   2.4170   2.5011   2.6162   2.6629
     2.8487   3.0035   3.1469   3.2520   3.2681   3.3559   3.4227   3.6348
     3.6989   3.7786   3.9881   4.0193   4.0843   4.1430   4.2368   4.3536
     4.4260   4.4788   4.5801   4.7200   4.8614   4.9151   5.1029   5.1390
     5.2523   5.2735   5.5965   5.7053   5.9004   6.0125   6.1349   6.2245
    11.5833  13.3242  13.6691  13.8033  14.2706  14.3219  14.7626  15.0111
    15.1298  15.2261

     occupation numbers 
     1.0000   1.0000   1.0000   1.0000   1.0000   1.0000   1.0000   1.0000
     1.0000   1.0000   1.0000   1.0000   1.0000   1.0000   1.0000   1.0000
     1.0000   1.0000   1.0000   1.0000   1.0000   1.0000   1.0000   1.0000
     1.0000   1.0000   1.0000   1.0000   1.0000   1.0000   1.0000   1.0000
     1.0000   1.0000   1.0000   1.0000   1.0000   1.0000   1.0000   1.0000
     1.0000   1.0000   1.0000   1.0000   1.0000   1.0000   1.0000   1.0000
     1.0000   1.0000   1.0000   1.0000   1.0000   1.0000   1.0000   1.0000
     1.0000   1.0000   1.0000   1.0000   1.0000   1.0000   1.0000   1.0000
     1.0000   1.0000   1.0000   1.0000   1.0000   1.0000   1.0000   1.0000
     1.0000   1.0000   1.0000   1.0000   1.0000   1.0000   1.0000   1.0000
     1.0000   1.0000   1.0000   1.0000   1.0000   1.0000   1.0000   1.0000
     1.0000   1.0000   1.0000   1.0000   1.0000   1.0000   1.0000   1.0000
     1.0000   1.0000   1.0000   1.0000   1.0000   1.0000   1.0000   1.0000
     0.0000   0.0000   0.0000   0.0000   0.0000   0.0000   0.0000   0.0000
     0.0000   0.0000

          k = 0.0000 0.0000 0.7012 ( 32929 PWs)   bands (ev):

   -83.7649 -83.7634 -83.7180 -83.7175 -49.9099 -49.9094 -49.9088 -49.9084
   -49.7425 -49.7411 -49.6464 -49.6448 -49.6316 -49.6311 -49.6210 -49.6207
   -43.3947 -15.8655 -15.5858 -15.5351 -15.4090 -15.3380 -15.2861 -15.1764
   -13.1114 -13.1025 -13.0184 -12.9596 -12.8126 -12.7485 -12.7152 -12.6735
   -12.6548 -12.6337 -12.5423 -12.5214  -2.9880  -2.6534  -2.5158  -2.2332
    -1.1716  -1.0273  -0.9650  -0.8901  -0.7583  -0.6542  -0.5034  -0.3610
    -0.2631   0.0482   0.1202   0.1795   0.5877   0.6764   1.1306   1.2525
     1.3057   1.3449   1.5367   1.5638   1.6289   1.6751   1.7815   2.0802
     2.1673   2.2497   2.2780   2.3420   2.3966   2.4385   2.5283   2.6192
     2.6694   2.8662   3.0986   3.1446   3.3001   3.3946   3.5734   3.6112
     3.7179   3.8102   3.9033   3.9404   4.0433   4.1637   4.1779   4.2784
     4.4085   4.4534   4.6404   4.7754   4.9596   5.0862   5.1350   5.2097
     5.2436   5.4289   5.6788   5.7033   5.8763   5.9586   6.0069   6.0989
    12.1495  13.5093  13.8516  13.9093  14.1870  14.4002  14.5750  14.7940
    14.9261  14.9571

     occupation numbers 
     1.0000   1.0000   1.0000   1.0000   1.0000   1.0000   1.0000   1.0000
     1.0000   1.0000   1.0000   1.0000   1.0000   1.0000   1.0000   1.0000
     1.0000   1.0000   1.0000   1.0000   1.0000   1.0000   1.0000   1.0000
     1.0000   1.0000   1.0000   1.0000   1.0000   1.0000   1.0000   1.0000
     1.0000   1.0000   1.0000   1.0000   1.0000   1.0000   1.0000   1.0000
     1.0000   1.0000   1.0000   1.0000   1.0000   1.0000   1.0000   1.0000
     1.0000   1.0000   1.0000   1.0000   1.0000   1.0000   1.0000   1.0000
     1.0000   1.0000   1.0000   1.0000   1.0000   1.0000   1.0000   1.0000
     1.0000   1.0000   1.0000   1.0000   1.0000   1.0000   1.0000   1.0000
     1.0000   1.0000   1.0000   1.0000   1.0000   1.0000   1.0000   1.0000
     1.0000   1.0000   1.0000   1.0000   1.0000   1.0000   1.0000   1.0000
     1.0000   1.0000   1.0000   1.0000   1.0000   1.0000   1.0000   1.0000
     1.0000   1.0000   1.0000   1.0000   1.0000   1.0000   1.0000   1.0000
     0.0000   0.0000   0.0000   0.0000   0.0000   0.0000   0.0000   0.0000
     0.0000   0.0000

          k = 0.0000 0.0000 0.9349 ( 32952 PWs)   bands (ev):

   -83.7649 -83.7634 -83.7180 -83.7175 -49.9099 -49.9094 -49.9088 -49.9084
   -49.7425 -49.7411 -49.6464 -49.6448 -49.6316 -49.6311 -49.6210 -49.6207
   -43.3947 -15.8754 -15.5333 -15.4717 -15.4073 -15.3636 -15.3152 -15.1642
   -13.1386 -13.1221 -13.0454 -12.9911 -12.8207 -12.7421 -12.7159 -12.6843
   -12.6239 -12.6136 -12.5691 -12.5486  -2.8501  -2.7267  -2.4595  -2.3498
    -1.1104  -1.0303  -0.8580  -0.8287  -0.6642  -0.6287  -0.5277  -0.5127
    -0.1766  -0.0198   0.2167   0.2399   0.8084   0.8776   1.0608   1.1564
     1.2988   1.3633   1.4927   1.5314   1.5538   1.6299   1.8271   1.9884
     2.1167   2.2020   2.2611   2.2689   2.3334   2.4208   2.5034   2.6361
     2.6692   2.8157   2.9241   2.9722   3.3263   3.5528   3.5822   3.6961
     3.7586   3.8215   3.8430   3.8920   3.9403   4.0387   4.2023   4.2670
     4.3982   4.4503   4.7436   4.8190   5.0087   5.0985   5.1234   5.2884
     5.4175   5.6053   5.6789   5.7199   5.7835   5.8958   5.9398   5.9707
    12.7799  13.4026  13.7169  14.0366  14.2866  14.3883  14.5601  14.6238
    14.8852  14.9635

     occupation numbers 
     1.0000   1.0000   1.0000   1.0000   1.0000   1.0000   1.0000   1.0000
     1.0000   1.0000   1.0000   1.0000   1.0000   1.0000   1.0000   1.0000
     1.0000   1.0000   1.0000   1.0000   1.0000   1.0000   1.0000   1.0000
     1.0000   1.0000   1.0000   1.0000   1.0000   1.0000   1.0000   1.0000
     1.0000   1.0000   1.0000   1.0000   1.0000   1.0000   1.0000   1.0000
     1.0000   1.0000   1.0000   1.0000   1.0000   1.0000   1.0000   1.0000
     1.0000   1.0000   1.0000   1.0000   1.0000   1.0000   1.0000   1.0000
     1.0000   1.0000   1.0000   1.0000   1.0000   1.0000   1.0000   1.0000
     1.0000   1.0000   1.0000   1.0000   1.0000   1.0000   1.0000   1.0000
     1.0000   1.0000   1.0000   1.0000   1.0000   1.0000   1.0000   1.0000
     1.0000   1.0000   1.0000   1.0000   1.0000   1.0000   1.0000   1.0000
     1.0000   1.0000   1.0000   1.0000   1.0000   1.0000   1.0000   1.0000
     1.0000   1.0000   1.0000   1.0000   1.0000   1.0000   1.0000   1.0000
     0.0000   0.0000   0.0000   0.0000   0.0000   0.0000   0.0000   0.0000
     0.0000   0.0000

          k = 0.0000 0.2391 0.0000 ( 32916 PWs)   bands (ev):

   -83.7649 -83.7634 -83.7180 -83.7175 -49.9099 -49.9094 -49.9088 -49.9084
   -49.7425 -49.7411 -49.6464 -49.6448 -49.6316 -49.6311 -49.6210 -49.6207
   -43.3948 -15.8266 -15.7521 -15.5004 -15.4267 -15.4180 -15.3819 -15.0981
   -13.0546 -13.0025 -12.9379 -12.9011 -12.8429 -12.7498 -12.7164 -12.6749
   -12.6509 -12.6010 -12.4891 -12.4788  -3.1788  -2.6822  -2.5127  -2.0590
    -1.5506  -1.1770  -1.0562  -0.9736  -0.7875  -0.5701  -0.5346  -0.4627
    -0.3115  -0.1326   0.0767   0.3530   0.4404   0.5774   1.1543   1.1974
     1.2307   1.3081   1.4020   1.4587   1.5688   1.8199   2.0435   2.1249
     2.3091   2.3750   2.4094   2.4231   2.4917   2.5048   2.6612   2.6792
     2.7972   3.0818   3.2244   3.2474   3.3580   3.4267   3.5007   3.5744
     3.7675   3.7845   3.8755   3.9490   4.0631   4.1138   4.3225   4.3755
     4.4459   4.4861   4.6164   4.7311   4.8510   4.8961   4.9020   5.0793
     5.1109   5.3013   5.5419   5.6607   5.8874   5.9995   6.3448   6.3565
    11.1809  13.2411  13.4675  13.7963  14.0516  14.4238  15.0538  15.2626
    15.3772  15.5031

     occupation numbers 
     1.0000   1.0000   1.0000   1.0000   1.0000   1.0000   1.0000   1.0000
     1.0000   1.0000   1.0000   1.0000   1.0000   1.0000   1.0000   1.0000
     1.0000   1.0000   1.0000   1.0000   1.0000   1.0000   1.0000   1.0000
     1.0000   1.0000   1.0000   1.0000   1.0000   1.0000   1.0000   1.0000
     1.0000   1.0000   1.0000   1.0000   1.0000   1.0000   1.0000   1.0000
     1.0000   1.0000   1.0000   1.0000   1.0000   1.0000   1.0000   1.0000
     1.0000   1.0000   1.0000   1.0000   1.0000   1.0000   1.0000   1.0000
     1.0000   1.0000   1.0000   1.0000   1.0000   1.0000   1.0000   1.0000
     1.0000   1.0000   1.0000   1.0000   1.0000   1.0000   1.0000   1.0000
     1.0000   1.0000   1.0000   1.0000   1.0000   1.0000   1.0000   1.0000
     1.0000   1.0000   1.0000   1.0000   1.0000   1.0000   1.0000   1.0000
     1.0000   1.0000   1.0000   1.0000   1.0000   1.0000   1.0000   1.0000
     1.0000   1.0000   1.0000   1.0000   1.0000   1.0000   1.0000   1.0000
     0.0000   0.0000   0.0000   0.0000   0.0000   0.0000   0.0000   0.0000
     0.0000   0.0000

          k = 0.0000 0.2391 0.2337 ( 32949 PWs)   bands (ev):

   -83.7649 -83.7634 -83.7180 -83.7175 -49.9099 -49.9094 -49.9088 -49.9084
   -49.7425 -49.7411 -49.6464 -49.6448 -49.6316 -49.6311 -49.6210 -49.6207
   -43.3948 -15.7932 -15.7731 -15.5174 -15.4202 -15.3939 -15.3661 -15.1072
   -13.0629 -13.0176 -12.9435 -12.9081 -12.8476 -12.7533 -12.7218 -12.6818
   -12.6484 -12.5988 -12.4967 -12.4826  -3.1530  -2.6707  -2.5134  -2.0748
    -1.4902  -1.1425  -1.0591  -0.9569  -0.7814  -0.6152  -0.5069  -0.4029
    -0.2921  -0.1004   0.0269   0.3288   0.4521   0.5814   1.1510   1.1895
     1.2699   1.2937   1.3899   1.4933   1.5280   1.7991   2.0445   2.1170
     2.2401   2.3460   2.3572   2.4586   2.4927   2.5363   2.6321   2.6708
     2.9200   3.0411   3.1830   3.2668   3.3074   3.4429   3.4569   3.5679
     3.7736   3.8010   3.8353   3.9600   4.0428   4.1757   4.2562   4.3769
     4.4208   4.4860   4.6206   4.6732   4.8579   4.8939   4.9896   5.1126
     5.1270   5.2934   5.5797   5.6298   5.8699   6.0092   6.3238   6.3397
    11.3273  13.2894  13.5444  13.8077  14.1065  14.4066  15.1064  15.1424
    15.2151  15.3915

     occupation numbers 
     1.0000   1.0000   1.0000   1.0000   1.0000   1.0000   1.0000   1.0000
     1.0000   1.0000   1.0000   1.0000   1.0000   1.0000   1.0000   1.0000
     1.0000   1.0000   1.0000   1.0000   1.0000   1.0000   1.0000   1.0000
     1.0000   1.0000   1.0000   1.0000   1.0000   1.0000   1.0000   1.0000
     1.0000   1.0000   1.0000   1.0000   1.0000   1.0000   1.0000   1.0000
     1.0000   1.0000   1.0000   1.0000   1.0000   1.0000   1.0000   1.0000
     1.0000   1.0000   1.0000   1.0000   1.0000   1.0000   1.0000   1.0000
     1.0000   1.0000   1.0000   1.0000   1.0000   1.0000   1.0000   1.0000
     1.0000   1.0000   1.0000   1.0000   1.0000   1.0000   1.0000   1.0000
     1.0000   1.0000   1.0000   1.0000   1.0000   1.0000   1.0000   1.0000
     1.0000   1.0000   1.0000   1.0000   1.0000   1.0000   1.0000   1.0000
     1.0000   1.0000   1.0000   1.0000   1.0000   1.0000   1.0000   1.0000
     1.0000   1.0000   1.0000   1.0000   1.0000   1.0000   1.0000   1.0000
     0.0000   0.0000   0.0000   0.0000   0.0000   0.0000   0.0000   0.0000
     0.0000   0.0000

          k = 0.0000 0.2391 0.4675 ( 32955 PWs)   bands (ev):

   -83.7649 -83.7634 -83.7180 -83.7175 -49.9099 -49.9094 -49.9088 -49.9084
   -49.7425 -49.7411 -49.6464 -49.6448 -49.6316 -49.6311 -49.6210 -49.6207
   -43.3948 -15.8174 -15.7047 -15.5297 -15.4130 -15.3670 -15.3179 -15.1373
   -13.0871 -13.0625 -12.9697 -12.9285 -12.8369 -12.7804 -12.7259 -12.6778
   -12.6563 -12.5916 -12.5116 -12.4964  -3.0777  -2.6521  -2.5108  -2.1335
    -1.3230  -1.0638  -1.0521  -0.9269  -0.7595  -0.6428  -0.5008  -0.3048
    -0.1897  -0.0997  -0.0099   0.2549   0.4975   0.5968   1.1453   1.1981
     1.2255   1.3030   1.4594   1.4901   1.5712   1.7617   1.9711   2.1372
     2.1728   2.2909   2.3295   2.4079   2.4778   2.5290   2.5732   2.6524
     2.8683   3.0358   3.1531   3.2493   3.2620   3.3302   3.4751   3.5963
     3.6628   3.8140   3.9304   3.9607   4.0844   4.0896   4.2256   4.3018
     4.3979   4.5113   4.6247   4.6735   4.8699   4.9484   5.1147   5.1278
     5.2242   5.2701   5.5781   5.6622   5.8312   6.0122   6.2639   6.2882
    11.7238  13.4139  13.7533  13.8701  14.2593  14.3979  14.7537  14.9832
    15.0792  15.2896

     occupation numbers 
     1.0000   1.0000   1.0000   1.0000   1.0000   1.0000   1.0000   1.0000
     1.0000   1.0000   1.0000   1.0000   1.0000   1.0000   1.0000   1.0000
     1.0000   1.0000   1.0000   1.0000   1.0000   1.0000   1.0000   1.0000
     1.0000   1.0000   1.0000   1.0000   1.0000   1.0000   1.0000   1.0000
     1.0000   1.0000   1.0000   1.0000   1.0000   1.0000   1.0000   1.0000
     1.0000   1.0000   1.0000   1.0000   1.0000   1.0000   1.0000   1.0000
     1.0000   1.0000   1.0000   1.0000   1.0000   1.0000   1.0000   1.0000
     1.0000   1.0000   1.0000   1.0000   1.0000   1.0000   1.0000   1.0000
     1.0000   1.0000   1.0000   1.0000   1.0000   1.0000   1.0000   1.0000
     1.0000   1.0000   1.0000   1.0000   1.0000   1.0000   1.0000   1.0000
     1.0000   1.0000   1.0000   1.0000   1.0000   1.0000   1.0000   1.0000
     1.0000   1.0000   1.0000   1.0000   1.0000   1.0000   1.0000   1.0000
     1.0000   1.0000   1.0000   1.0000   1.0000   1.0000   1.0000   1.0000
     0.0000   0.0000   0.0000   0.0000   0.0000   0.0000   0.0000   0.0000
     0.0000   0.0000

          k = 0.0000 0.2391 0.7012 ( 32947 PWs)   bands (ev):

   -83.7649 -83.7634 -83.7180 -83.7175 -49.9099 -49.9094 -49.9088 -49.9084
   -49.7425 -49.7411 -49.6464 -49.6448 -49.6316 -49.6311 -49.6210 -49.6207
   -43.3947 -15.8434 -15.6065 -15.5228 -15.4090 -15.3438 -15.3061 -15.1563
   -13.1169 -13.1116 -13.0072 -12.9648 -12.8313 -12.7894 -12.7338 -12.6757
   -12.6519 -12.5777 -12.5312 -12.5188  -2.9623  -2.6594  -2.4919  -2.2359
    -1.1523  -1.0141  -0.9655  -0.8973  -0.7094  -0.6429  -0.4894  -0.3322
    -0.2127   0.0497   0.1090   0.1331   0.6054   0.6475   1.0764   1.1642
     1.2352   1.3578   1.4703   1.5485   1.6432   1.7719   1.8584   2.0650
     2.1422   2.2516   2.2926   2.3501   2.4397   2.4729   2.5191   2.6163
     2.6441   2.8741   3.0836   3.1475   3.2906   3.3944   3.5486   3.6085
     3.6508   3.8253   3.8740   3.9932   4.0257   4.0992   4.1309   4.2749
     4.3801   4.4780   4.7002   4.7685   4.9321   5.0463   5.1339   5.1963
     5.2282   5.3763   5.5353   5.6697   5.8482   6.0112   6.1695   6.2131
    12.2771  13.5975  13.9301  14.0063  14.2618  14.4267  14.5457  14.7588
    14.9005  14.9970

     occupation numbers 
     1.0000   1.0000   1.0000   1.0000   1.0000   1.0000   1.0000   1.0000
     1.0000   1.0000   1.0000   1.0000   1.0000   1.0000   1.0000   1.0000
     1.0000   1.0000   1.0000   1.0000   1.0000   1.0000   1.0000   1.0000
     1.0000   1.0000   1.0000   1.0000   1.0000   1.0000   1.0000   1.0000
     1.0000   1.0000   1.0000   1.0000   1.0000   1.0000   1.0000   1.0000
     1.0000   1.0000   1.0000   1.0000   1.0000   1.0000   1.0000   1.0000
     1.0000   1.0000   1.0000   1.0000   1.0000   1.0000   1.0000   1.0000
     1.0000   1.0000   1.0000   1.0000   1.0000   1.0000   1.0000   1.0000
     1.0000   1.0000   1.0000   1.0000   1.0000   1.0000   1.0000   1.0000
     1.0000   1.0000   1.0000   1.0000   1.0000   1.0000   1.0000   1.0000
     1.0000   1.0000   1.0000   1.0000   1.0000   1.0000   1.0000   1.0000
     1.0000   1.0000   1.0000   1.0000   1.0000   1.0000   1.0000   1.0000
     1.0000   1.0000   1.0000   1.0000   1.0000   1.0000   1.0000   1.0000
     0.0000   0.0000   0.0000   0.0000   0.0000   0.0000   0.0000   0.0000
     0.0000   0.0000

          k = 0.0000 0.2391 0.9349 ( 32946 PWs)   bands (ev):

   -83.7649 -83.7634 -83.7180 -83.7175 -49.9099 -49.9094 -49.9088 -49.9084
   -49.7425 -49.7411 -49.6464 -49.6448 -49.6316 -49.6311 -49.6210 -49.6207
   -43.3947 -15.8613 -15.5225 -15.4842 -15.4072 -15.3739 -15.3241 -15.1482
   -13.1443 -13.1330 -13.0407 -12.9933 -12.8368 -12.7809 -12.7299 -12.6923
   -12.6262 -12.5608 -12.5577 -12.5373  -2.8288  -2.7190  -2.4467  -2.3473
    -1.0835  -1.0181  -0.8594  -0.8351  -0.6233  -0.6134  -0.5079  -0.4799
    -0.1470  -0.0407   0.2210   0.2354   0.7643   0.7923   0.9452   1.0096
     1.3436   1.4038   1.4848   1.6094   1.6722   1.6957   1.8227   1.9624
     2.1167   2.2145   2.2578   2.2956   2.3583   2.4255   2.4801   2.5976
     2.6262   2.7929   2.9081   3.0206   3.3203   3.5135   3.5578   3.6448
     3.7212   3.7979   3.8428   3.9612   3.9743   4.0341   4.1143   4.2861
     4.3701   4.4584   4.7807   4.8333   4.9952   5.0985   5.1270   5.2488
     5.2770   5.4617   5.5154   5.6296   5.8979   6.0023   6.0785   6.1470
    12.8972  13.5031  13.7985  14.1473  14.3499  14.4416  14.5315  14.6396
    14.8497  14.9634

     occupation numbers 
     1.0000   1.0000   1.0000   1.0000   1.0000   1.0000   1.0000   1.0000
     1.0000   1.0000   1.0000   1.0000   1.0000   1.0000   1.0000   1.0000
     1.0000   1.0000   1.0000   1.0000   1.0000   1.0000   1.0000   1.0000
     1.0000   1.0000   1.0000   1.0000   1.0000   1.0000   1.0000   1.0000
     1.0000   1.0000   1.0000   1.0000   1.0000   1.0000   1.0000   1.0000
     1.0000   1.0000   1.0000   1.0000   1.0000   1.0000   1.0000   1.0000
     1.0000   1.0000   1.0000   1.0000   1.0000   1.0000   1.0000   1.0000
     1.0000   1.0000   1.0000   1.0000   1.0000   1.0000   1.0000   1.0000
     1.0000   1.0000   1.0000   1.0000   1.0000   1.0000   1.0000   1.0000
     1.0000   1.0000   1.0000   1.0000   1.0000   1.0000   1.0000   1.0000
     1.0000   1.0000   1.0000   1.0000   1.0000   1.0000   1.0000   1.0000
     1.0000   1.0000   1.0000   1.0000   1.0000   1.0000   1.0000   1.0000
     1.0000   1.0000   1.0000   1.0000   1.0000   1.0000   1.0000   1.0000
     0.0000   0.0000   0.0000   0.0000   0.0000   0.0000   0.0000   0.0000
     0.0000   0.0000

          k = 0.0000 0.4781 0.0000 ( 33016 PWs)   bands (ev):

   -83.7649 -83.7634 -83.7180 -83.7175 -49.9099 -49.9094 -49.9088 -49.9084
   -49.7425 -49.7411 -49.6464 -49.6448 -49.6316 -49.6311 -49.6210 -49.6207
   -43.3948 -15.8386 -15.6842 -15.4977 -15.4340 -15.4193 -15.3954 -15.1245
   -13.0760 -12.9949 -12.9469 -12.9232 -12.8764 -12.7826 -12.6906 -12.6662
   -12.6581 -12.5387 -12.5110 -12.4658  -3.0969  -2.7518  -2.4236  -2.0966
    -1.4662  -1.2079  -1.0521  -0.9837  -0.6996  -0.5881  -0.4682  -0.3808
    -0.2796  -0.0859   0.1402   0.2995   0.4479   0.6551   1.0757   1.1120
     1.2461   1.2785   1.3240   1.3810   1.4668   1.8574   2.0133   2.1647
     2.1686   2.2818   2.3411   2.4282   2.5143   2.5530   2.6698   2.7332
     2.9494   3.0467   3.1846   3.2784   3.3343   3.3703   3.4186   3.6187
     3.7497   3.7942   3.8551   3.9299   4.0503   4.0886   4.1801   4.2486
     4.3527   4.3879   4.7816   4.7963   4.8763   4.9024   4.9582   5.0921
     5.1592   5.2738   5.4602   5.5953   5.7987   6.1417   6.3835   6.4065
    11.6131  13.4126  13.5578  13.7296  14.3069  14.6670  14.8556  15.0636
    15.2916  15.5149

     occupation numbers 
     1.0000   1.0000   1.0000   1.0000   1.0000   1.0000   1.0000   1.0000
     1.0000   1.0000   1.0000   1.0000   1.0000   1.0000   1.0000   1.0000
     1.0000   1.0000   1.0000   1.0000   1.0000   1.0000   1.0000   1.0000
     1.0000   1.0000   1.0000   1.0000   1.0000   1.0000   1.0000   1.0000
     1.0000   1.0000   1.0000   1.0000   1.0000   1.0000   1.0000   1.0000
     1.0000   1.0000   1.0000   1.0000   1.0000   1.0000   1.0000   1.0000
     1.0000   1.0000   1.0000   1.0000   1.0000   1.0000   1.0000   1.0000
     1.0000   1.0000   1.0000   1.0000   1.0000   1.0000   1.0000   1.0000
     1.0000   1.0000   1.0000   1.0000   1.0000   1.0000   1.0000   1.0000
     1.0000   1.0000   1.0000   1.0000   1.0000   1.0000   1.0000   1.0000
     1.0000   1.0000   1.0000   1.0000   1.0000   1.0000   1.0000   1.0000
     1.0000   1.0000   1.0000   1.0000   1.0000   1.0000   1.0000   1.0000
     1.0000   1.0000   1.0000   1.0000   1.0000   1.0000   1.0000   1.0000
     0.0000   0.0000   0.0000   0.0000   0.0000   0.0000   0.0000   0.0000
     0.0000   0.0000

          k = 0.0000 0.4781 0.2337 ( 32976 PWs)   bands (ev):

   -83.7649 -83.7634 -83.7180 -83.7175 -49.9099 -49.9094 -49.9088 -49.9084
   -49.7425 -49.7411 -49.6464 -49.6448 -49.6316 -49.6311 -49.6210 -49.6207
   -43.3948 -15.8056 -15.7152 -15.5069 -15.4305 -15.4017 -15.3691 -15.1313
   -13.0813 -13.0079 -12.9500 -12.9242 -12.8987 -12.7884 -12.7049 -12.6641
   -12.6581 -12.5310 -12.5124 -12.4733  -3.0725  -2.7365  -2.4254  -2.1109
    -1.4131  -1.1724  -1.0409  -0.9718  -0.6946  -0.6059  -0.4295  -0.3608
    -0.2275  -0.0829   0.0924   0.2371   0.4840   0.6615   1.0473   1.0861
     1.2262   1.2944   1.3314   1.4002   1.4752   1.8872   1.9896   2.1031
     2.1523   2.2392   2.3527   2.4389   2.5121   2.5636   2.7130   2.7397
     2.9946   3.0268   3.1795   3.2552   3.3195   3.3790   3.4394   3.5619
     3.7065   3.7843   3.8720   3.8992   3.9632   4.1664   4.1820   4.2534
     4.2947   4.3796   4.7379   4.8064   4.9044   4.9483   4.9888   5.1150
     5.1612   5.2710   5.4174   5.5812   5.8292   6.1483   6.3822   6.3932
    11.7449  13.4507  13.6222  13.8101  14.3133  14.6217  14.9347  14.9867
    15.1640  15.4125

     occupation numbers 
     1.0000   1.0000   1.0000   1.0000   1.0000   1.0000   1.0000   1.0000
     1.0000   1.0000   1.0000   1.0000   1.0000   1.0000   1.0000   1.0000
     1.0000   1.0000   1.0000   1.0000   1.0000   1.0000   1.0000   1.0000
     1.0000   1.0000   1.0000   1.0000   1.0000   1.0000   1.0000   1.0000
     1.0000   1.0000   1.0000   1.0000   1.0000   1.0000   1.0000   1.0000
     1.0000   1.0000   1.0000   1.0000   1.0000   1.0000   1.0000   1.0000
     1.0000   1.0000   1.0000   1.0000   1.0000   1.0000   1.0000   1.0000
     1.0000   1.0000   1.0000   1.0000   1.0000   1.0000   1.0000   1.0000
     1.0000   1.0000   1.0000   1.0000   1.0000   1.0000   1.0000   1.0000
     1.0000   1.0000   1.0000   1.0000   1.0000   1.0000   1.0000   1.0000
     1.0000   1.0000   1.0000   1.0000   1.0000   1.0000   1.0000   1.0000
     1.0000   1.0000   1.0000   1.0000   1.0000   1.0000   1.0000   1.0000
     1.0000   1.0000   1.0000   1.0000   1.0000   1.0000   1.0000   1.0000
     0.0000   0.0000   0.0000   0.0000   0.0000   0.0000   0.0000   0.0000
     0.0000   0.0000

          k = 0.0000 0.4781 0.4675 ( 32955 PWs)   bands (ev):

   -83.7649 -83.7634 -83.7180 -83.7175 -49.9099 -49.9094 -49.9088 -49.9084
   -49.7425 -49.7411 -49.6464 -49.6448 -49.6316 -49.6311 -49.6210 -49.6207
   -43.3948 -15.7838 -15.7086 -15.5082 -15.4165 -15.3878 -15.3163 -15.1518
   -13.1023 -13.0628 -12.9575 -12.9394 -12.9107 -12.8164 -12.7261 -12.6727
   -12.6451 -12.5260 -12.5136 -12.4860  -3.0015  -2.7037  -2.4311  -2.1616
    -1.2648  -1.0809  -1.0158  -0.9410  -0.6729  -0.6207  -0.4236  -0.2283
    -0.1466  -0.0400  -0.0217   0.1412   0.5079   0.6754   0.9610   1.0536
     1.1773   1.3285   1.3619   1.5214   1.5456   1.8312   2.0274   2.0491
     2.1048   2.1465   2.3480   2.4619   2.4869   2.5647   2.6812   2.7422
     2.8541   3.0637   3.1607   3.2406   3.3110   3.3299   3.4304   3.5036
     3.6161   3.7852   3.8545   3.8998   3.9708   4.1086   4.1773   4.2270
     4.2713   4.4329   4.6920   4.8065   4.9331   4.9860   5.0980   5.1564
     5.1944   5.2641   5.3484   5.5368   5.9082   6.1526   6.3505   6.3761
    12.1063  13.5656  13.7910  14.0254  14.3787  14.6048  14.6990  14.9551
    15.0542  15.2533

     occupation numbers 
     1.0000   1.0000   1.0000   1.0000   1.0000   1.0000   1.0000   1.0000
     1.0000   1.0000   1.0000   1.0000   1.0000   1.0000   1.0000   1.0000
     1.0000   1.0000   1.0000   1.0000   1.0000   1.0000   1.0000   1.0000
     1.0000   1.0000   1.0000   1.0000   1.0000   1.0000   1.0000   1.0000
     1.0000   1.0000   1.0000   1.0000   1.0000   1.0000   1.0000   1.0000
     1.0000   1.0000   1.0000   1.0000   1.0000   1.0000   1.0000   1.0000
     1.0000   1.0000   1.0000   1.0000   1.0000   1.0000   1.0000   1.0000
     1.0000   1.0000   1.0000   1.0000   1.0000   1.0000   1.0000   1.0000
     1.0000   1.0000   1.0000   1.0000   1.0000   1.0000   1.0000   1.0000
     1.0000   1.0000   1.0000   1.0000   1.0000   1.0000   1.0000   1.0000
     1.0000   1.0000   1.0000   1.0000   1.0000   1.0000   1.0000   1.0000
     1.0000   1.0000   1.0000   1.0000   1.0000   1.0000   1.0000   1.0000
     1.0000   1.0000   1.0000   1.0000   1.0000   1.0000   1.0000   1.0000
[...]
     atom    8 type  4   force =     0.00300065    0.00083103    0.00318549
     atom    9 type  4   force =    -0.00078981   -0.00001040    0.00850300
     atom   10 type  3   force =    -0.00766200   -0.00077426    0.07959926
     atom   11 type  3   force =     0.01457541   -0.00095411    0.07720038
     atom   12 type  3   force =     0.00766200    0.00077426   -0.07959926
     atom   13 type  3   force =    -0.01457541    0.00095411   -0.07720038
     atom   14 type  3   force =    -0.06739441    0.00077048    0.03272485
     atom   15 type  3   force =     0.07110762   -0.00025312    0.02821363
     atom   16 type  3   force =     0.06739441   -0.00077048   -0.03272485
     atom   17 type  3   force =    -0.07110762    0.00025312   -0.02821363
     atom   18 type  3   force =     0.03277168    0.06419574   -0.03129774
     atom   19 type  3   force =    -0.03084022   -0.06349575   -0.03377583
     atom   20 type  3   force =    -0.02995239    0.06204223    0.03918356
     atom   21 type  3   force =     0.02848404   -0.06104314    0.03295749
     atom   22 type  3   force =    -0.03277168   -0.06419574    0.03129774
     atom   23 type  3   force =     0.03084022    0.06349575    0.03377583
     atom   24 type  3   force =     0.02995239   -0.06204223   -0.03918356
     atom   25 type  3   force =    -0.02848404    0.06104314   -0.03295749
     The non-local contrib.  to forces
     atom    1 type  2   force =     0.00000000    0.00000000    0.00000000
     atom    2 type  1   force =    -0.07853934    0.00548088    0.10544900
     atom    3 type  1   force =    -0.10174593   -0.06306426    0.12677395
     atom    4 type  1   force =     0.07853934   -0.00548088   -0.10544900
     atom    5 type  1   force =     0.10174593    0.06306426   -0.12677395
     atom    6 type  4   force =    -0.01979859    0.00338253   -0.02874757
     atom    7 type  4   force =     0.01384059    0.00498154   -0.05028277
     atom    8 type  4   force =     0.01979859   -0.00338253    0.02874757
     atom    9 type  4   force =    -0.01384059   -0.00498154    0.05028277
     atom   10 type  3   force =     0.17891004    0.01738064   -1.44179791
     atom   11 type  3   force =    -0.30626307    0.02109456   -1.46274217
     atom   12 type  3   force =    -0.17891004   -0.01738064    1.44179791
     atom   13 type  3   force =     0.30626307   -0.02109456    1.46274217
     atom   14 type  3   force =     1.15866935   -0.01329275   -0.63813839
     atom   15 type  3   force =    -1.18753943    0.01036975   -0.53249894
     atom   16 type  3   force =    -1.15866935    0.01329275    0.63813839
     atom   17 type  3   force =     1.18753943   -0.01036975    0.53249894
     atom   18 type  3   force =    -0.61797098   -1.07343528    0.66302475
     atom   19 type  3   force =     0.55545012    1.08112146    0.72072784
     atom   20 type  3   force =     0.56679522   -1.06595039   -0.78402211
     atom   21 type  3   force =    -0.51476728    1.05521055   -0.71095376
     atom   22 type  3   force =     0.61797098    1.07343528   -0.66302475
     atom   23 type  3   force =    -0.55545012   -1.08112146   -0.72072784
     atom   24 type  3   force =    -0.56679522    1.06595039    0.78402211
     atom   25 type  3   force =     0.51476728   -1.05521055    0.71095376
     The ionic contribution  to forces
     atom    1 type  2   force =     0.00084326   -0.00034132    0.00026216
     atom    2 type  1   force =    10.18981657   -1.77953764   -0.66450271
     atom    3 type  1   force =     2.00204538    1.06675943   -0.69204654
     atom    4 type  1   force =   -10.19019994    1.77976353    0.66453157
     atom    5 type  1   force =    -2.00235027   -1.06696811    0.69206020
     atom    6 type  4   force =    -1.49837072   -1.67383412    0.97039801
     atom    7 type  4   force =     4.59898160    0.05305388    0.43863497
     atom    8 type  4   force =     1.49842321    1.67392842   -0.97050218
     atom    9 type  4   force =    -4.59912825   -0.05307354   -0.43866631
     atom   10 type  3   force =    -6.26139829   -2.71099777    1.99770362
     atom   11 type  3   force =    11.97702147   -0.08880304    2.96988619
     atom   12 type  3   force =     6.26158453    2.71116870   -1.99760510
     atom   13 type  3   force =   -11.97719325    0.08877430   -2.96984622
     atom   14 type  3   force =     3.09948866    0.10311081    6.74127897
     atom   15 type  3   force =    -0.52452180    2.75543034    4.24148027
     atom   16 type  3   force =    -3.09965333   -0.10310419   -6.74129884
     atom   17 type  3   force =     0.52515058   -2.75546316   -4.24147656
     atom   18 type  3   force =     1.53331229    3.09153634   -0.75490055
     atom   19 type  3   force =     5.50614226   -3.45852255   -2.96977838
     atom   20 type  3   force =     1.45956174    2.82698848    3.29897304
     atom   21 type  3   force =    -5.01946735   -3.31117000    2.82008202
     atom   22 type  3   force =    -1.53357886   -3.09137162    0.75459010
     atom   23 type  3   force =    -5.50633598    3.45854457    2.96981332
     atom   24 type  3   force =    -1.45954353   -2.82698854   -3.29899223
     atom   25 type  3   force =     5.01937002    3.31111682   -2.82007880
     The local contribution  to forces
     atom    1 type  2   force =     0.00300751    0.00015196   -0.00002580
     atom    2 type  1   force =   -10.12721527    1.76928440    0.55750978
     atom    3 type  1   force =    -1.92232681   -1.01651296    0.56530314
     atom    4 type  1   force =    10.10585504   -1.78011135   -0.56771299
     atom    5 type  1   force =     1.90056340    1.00583049   -0.57581394
     atom    6 type  4   force =     1.51357856    1.66920644   -0.94594392
     atom    7 type  4   force =    -4.61041312   -0.05779363   -0.40001905
     atom    8 type  4   force =    -1.51364280   -1.66937023    0.94592493
     atom    9 type  4   force =     4.61067219    0.05772971    0.40014756
     atom   10 type  3   force =     6.07477177    2.69169195   -0.48817547
     atom   11 type  3   force =   -11.66186988    0.06559951   -1.44277736
     atom   12 type  3   force =    -6.07927133   -2.69438674    0.48682027
     atom   13 type  3   force =    11.65685341   -0.06825077    1.43999579
     atom   14 type  3   force =    -4.31844959   -0.09047269   -6.07706532
     atom   15 type  3   force =     1.77303502   -2.76720986   -3.68682161
     atom   16 type  3   force =     4.31527592    0.08783550    6.07475452
     atom   17 type  3   force =    -1.77617339    2.76460420    3.68406705
     atom   18 type  3   force =    -0.89005413   -1.96313268    0.06478311
     atom   19 type  3   force =    -6.09060103    2.32128132    2.22018989
     atom   20 type  3   force =    -2.05468323   -1.70845206   -2.48371397
     atom   21 type  3   force =     5.55610369    2.20205973   -2.08283237
     atom   22 type  3   force =     0.88496597    1.96130740   -0.06709175
     atom   23 type  3   force =     6.08574056   -2.32331836   -2.22226770
     atom   24 type  3   force =     2.04910823    1.70593295    2.48087845
     atom   25 type  3   force =    -5.56124297   -2.20406521    2.08122912
     The core correction contribution to forces
     atom    1 type  2   force =     0.00000000    0.00000000    0.00000000
     atom    2 type  1   force =     0.00096209   -0.00003249    0.00072185
     atom    3 type  1   force =     0.00242432    0.00100086   -0.00051495
     atom    4 type  1   force =    -0.00024177    0.00039751   -0.00036820
     atom    5 type  1   force =    -0.00167718   -0.00063630    0.00086895
     atom    6 type  4   force =     0.00159431    0.00038233    0.00105023
     atom    7 type  4   force =    -0.00155001   -0.00026978    0.00321752
     atom    8 type  4   force =    -0.00157801   -0.00037624   -0.00104168
     atom    9 type  4   force =     0.00156780    0.00027647   -0.00320786
     atom   10 type  3   force =    -0.00210350   -0.00011214    0.01123450
     atom   11 type  3   force =     0.00310054   -0.00018605    0.01145420
     atom   12 type  3   force =     0.00209896    0.00011064   -0.01123833
     atom   13 type  3   force =    -0.00310446    0.00018444   -0.01145605
     atom   14 type  3   force =    -0.00876526    0.00010891    0.00548184
     atom   15 type  3   force =     0.00887026   -0.00016308    0.00467591
     atom   16 type  3   force =     0.00875893   -0.00011064   -0.00548334
     atom   17 type  3   force =    -0.00887582    0.00016178   -0.00467769
     atom   18 type  3   force =     0.00480769    0.00839007   -0.00551314
     atom   19 type  3   force =    -0.00435122   -0.00838232   -0.00593428
     atom   20 type  3   force =    -0.00440764    0.00819059    0.00651865
     atom   21 type  3   force =     0.00398443   -0.00817045    0.00585491
     atom   22 type  3   force =    -0.00481124   -0.00839383    0.00551233
     atom   23 type  3   force =     0.00434600    0.00837866    0.00593081
     atom   24 type  3   force =     0.00440494   -0.00819201   -0.00651947
     atom   25 type  3   force =    -0.00398838    0.00816882   -0.00585866
     The Hubbard contrib.    to forces
     atom    1 type  2   force =     0.00000000    0.00000000    0.00000000
     atom    2 type  1   force =     0.00000000    0.00000000    0.00000000
     atom    3 type  1   force =     0.00000000    0.00000000    0.00000000
     atom    4 type  1   force =     0.00000000    0.00000000    0.00000000
     atom    5 type  1   force =     0.00000000    0.00000000    0.00000000
     atom    6 type  4   force =     0.00000000    0.00000000    0.00000000
     atom    7 type  4   force =     0.00000000    0.00000000    0.00000000
     atom    8 type  4   force =     0.00000000    0.00000000    0.00000000
     atom    9 type  4   force =     0.00000000    0.00000000    0.00000000
     atom   10 type  3   force =     0.00000000    0.00000000    0.00000000
     atom   11 type  3   force =     0.00000000    0.00000000    0.00000000
     atom   12 type  3   force =     0.00000000    0.00000000    0.00000000
     atom   13 type  3   force =     0.00000000    0.00000000    0.00000000
     atom   14 type  3   force =     0.00000000    0.00000000    0.00000000
     atom   15 type  3   force =     0.00000000    0.00000000    0.00000000
     atom   16 type  3   force =     0.00000000    0.00000000    0.00000000
     atom   17 type  3   force =     0.00000000    0.00000000    0.00000000
     atom   18 type  3   force =     0.00000000    0.00000000    0.00000000
     atom   19 type  3   force =     0.00000000    0.00000000    0.00000000
     atom   20 type  3   force =     0.00000000    0.00000000    0.00000000
     atom   21 type  3   force =     0.00000000    0.00000000    0.00000000
     atom   22 type  3   force =     0.00000000    0.00000000    0.00000000
     atom   23 type  3   force =     0.00000000    0.00000000    0.00000000
     atom   24 type  3   force =     0.00000000    0.00000000    0.00000000
     atom   25 type  3   force =     0.00000000    0.00000000    0.00000000
     The SCF correction term to forces
     atom    1 type  2   force =     0.00000000   -0.00000000    0.00000000
     atom    2 type  1   force =    -0.00001018    0.00000070   -0.00000629
     atom    3 type  1   force =    -0.00000975    0.00000065   -0.00000183
     atom    4 type  1   force =     0.00001016   -0.00000071    0.00000628
     atom    5 type  1   force =     0.00000973   -0.00000066    0.00000182
     atom    6 type  4   force =    -0.00000194    0.00000010    0.00000045
     atom    7 type  4   force =    -0.00000414   -0.00000005   -0.00000027
     atom    8 type  4   force =     0.00000194   -0.00000010   -0.00000045
     atom    9 type  4   force =     0.00000414    0.00000005    0.00000027
     atom   10 type  3   force =    -0.00000094    0.00000038    0.00000426
     atom   11 type  3   force =    -0.00000973    0.00000010    0.00000779
     atom   12 type  3   force =     0.00000094   -0.00000038   -0.00000426
     atom   13 type  3   force =     0.00000973   -0.00000010   -0.00000779
     atom   14 type  3   force =    -0.00000991    0.00000005    0.00000166
     atom   15 type  3   force =     0.00000599   -0.00000016    0.00000168
     atom   16 type  3   force =     0.00000991   -0.00000005   -0.00000166
     atom   17 type  3   force =    -0.00000600    0.00000016   -0.00000169
     atom   18 type  3   force =    -0.00000232    0.00000513   -0.00000186
     atom   19 type  3   force =    -0.00001006   -0.00000300   -0.00000407
     atom   20 type  3   force =     0.00000178    0.00000532    0.00000018
     atom   21 type  3   force =     0.00001027   -0.00000313    0.00000480
     atom   22 type  3   force =     0.00000232   -0.00000513    0.00000185
     atom   23 type  3   force =     0.00001005    0.00000300    0.00000407
     atom   24 type  3   force =    -0.00000178   -0.00000532   -0.00000018
     atom   25 type  3   force =    -0.00001027    0.00000313   -0.00000480

     Total force =     0.311487     Total SCF correction =     0.000043


     Computing stress (Cartesian axis) and pressure


     negative rho (up, down):  0.000E+00 1.053E-03
          total   stress  (Ry/bohr**3)                   (kbar)     P=      161.94
   0.00111554  -0.00005141   0.00003264          164.10       -7.56        4.80
  -0.00005141   0.00096299  -0.00002121           -7.56      141.66       -3.12
   0.00003264  -0.00002121   0.00122403            4.80       -3.12      180.06

     kinetic stress (kbar)  29633.93     18.54     -1.84
                               18.54  29833.20     -0.04
                               -1.84     -0.04  29622.23

     local   stress (kbar)  -3830.92   3173.28  -1020.44
                             3173.28 -15319.12   1096.60
                            -1020.44   1096.60  -7032.40

     nonloc. stress (kbar)  -7598.13      1.89      0.50
                                1.89  -7526.27      2.75
                                0.50      2.75  -7510.59

     hartree stress (kbar)  13457.56  -1267.59    387.26
                            -1267.59  19631.13   -438.77
                              387.26   -438.77  15611.03

     exc-cor stress (kbar)  -3131.90     -1.85      0.81
                               -1.85  -3139.50     -0.44
                                0.81     -0.44  -3137.80

     corecor stress (kbar)  -3453.30      0.77     -0.67
                                0.77  -3451.67     -0.05
                               -0.67     -0.05  -3454.50

     ewald   stress (kbar) -24913.14  -1932.60    639.19
                            -1932.60 -19886.12   -663.17
                              639.19   -663.17 -23917.91

     hubbard stress (kbar)      0.00      0.00      0.00
                                0.00      0.00      0.00
                                0.00      0.00      0.00

     DFT-D   stress (kbar)      0.00      0.00      0.00
                                0.00      0.00      0.00
                                0.00      0.00      0.00

     XDM     stress (kbar)      0.00      0.00      0.00
                                0.00      0.00      0.00
                                0.00      0.00      0.00

     dft-nl  stress (kbar)      0.00      0.00      0.00
                                0.00      0.00      0.00
                                0.00      0.00      0.00

     TS-vdW  stress (kbar)      0.00      0.00      0.00
                                0.00      0.00      0.00
                                0.00      0.00      0.00



     init_run     :     76.91s CPU     78.90s WALL (       1 calls)
     electrons    :   4636.53s CPU   4708.12s WALL (       1 calls)
     forces       :     35.25s CPU     36.04s WALL (       1 calls)
     stress       :    395.78s CPU    397.79s WALL (       1 calls)

     Called by init_run:
     wfcinit      :     70.56s CPU     72.25s WALL (       1 calls)
     wfcinit:atom :      1.60s CPU      1.64s WALL (     316 calls)
     wfcinit:wfcr :     63.22s CPU     64.80s WALL (     316 calls)
     potinit      :      2.14s CPU      2.21s WALL (       1 calls)
     hinit0       :      2.52s CPU      2.56s WALL (       1 calls)

     Called by electrons:
     c_bands      :   4070.64s CPU   4124.77s WALL (      22 calls)
     sum_band     :    517.73s CPU    532.10s WALL (      22 calls)
     v_of_rho     :      9.71s CPU     10.09s WALL (      23 calls)
     v_h          :      0.42s CPU      0.45s WALL (      23 calls)
     v_xc         :     10.11s CPU     10.48s WALL (      25 calls)
     newd         :     26.46s CPU     29.19s WALL (      23 calls)
     PAW_pot      :     11.04s CPU     11.09s WALL (      23 calls)
     mix_rho      :      1.91s CPU      1.99s WALL (      22 calls)

     Called by c_bands:
     init_us_2    :     81.88s CPU     83.31s WALL (   14852 calls)
     cegterg      :   3914.54s CPU   3966.75s WALL (    6952 calls)

     Called by sum_band:
     sum_band:wei :      0.19s CPU      0.19s WALL (      22 calls)
     sum_band:loo :    470.58s CPU    479.06s WALL (      22 calls)
     sum_band:buf :     19.36s CPU     19.65s WALL (    6952 calls)
     sum_band:ini :     39.93s CPU     40.58s WALL (    6952 calls)
     sum_band:cal :    112.26s CPU    115.17s WALL (    6952 calls)
     sum_band:bec :      1.08s CPU      1.11s WALL (    6952 calls)
     addusdens    :     45.63s CPU     51.38s WALL (      22 calls)
     addusd:skk   :      0.36s CPU      0.38s WALL (      66 calls)
     addusd:dgemm :     12.93s CPU     18.28s WALL (     132 calls)
     addusd:qvan2 :     31.83s CPU     32.11s WALL (     132 calls)

     Called by *egterg:
     cdiaghg      :    262.33s CPU    266.40s WALL (   33364 calls)
     cegterg:over :    312.16s CPU    317.79s WALL (   26412 calls)
     cegterg:upda :    249.17s CPU    251.23s WALL (   26412 calls)
     cegterg:last :    462.66s CPU    466.48s WALL (   14496 calls)
     h_psi        :   2060.50s CPU   2092.69s WALL (   33680 calls)
     s_psi        :    407.24s CPU    410.23s WALL (   33680 calls)
     g_psi        :     13.73s CPU     13.92s WALL (   26412 calls)

     Called by h_psi:
     h_psi:calbec :    335.02s CPU    342.48s WALL (   33680 calls)
     vloc_psi     :   1278.65s CPU   1299.05s WALL (   33680 calls)
     add_vuspsi   :    402.84s CPU    406.34s WALL (   33680 calls)

     General routines
     calbec       :    477.12s CPU    488.17s WALL (   42212 calls)
     fft          :      7.41s CPU      7.95s WALL (     613 calls)
     ffts         :      0.09s CPU      0.09s WALL (      90 calls)
     fftw         :   1351.94s CPU   1373.45s WALL ( 4785044 calls)
     interpolate  :      0.73s CPU      0.77s WALL (      46 calls)

     Parallel routines
     fft_scatt_xy :    194.89s CPU    197.95s WALL ( 4785747 calls)
     fft_scatt_yz :    353.38s CPU    359.97s WALL ( 4785747 calls)

     PAW routines
     PAW_pot      :     11.04s CPU     11.09s WALL (      23 calls)
     PAW_symme    :      0.02s CPU      0.02s WALL (      45 calls)

     PWSCF        :      1h25m CPU      1h27m WALL


   This run was terminated on:  20:30:37  19Mar2023            

=------------------------------------------------------------------------------=
   JOB DONE.
=------------------------------------------------------------------------------=
Note: The following floating-point exceptions are signalling: IEEE_DENORMAL
Note: The following floating-point exceptions are signalling: IEEE_DENORMAL
Note: The following floating-point exceptions are signalling: IEEE_DENORMAL
Note: The following floating-point exceptions are signalling: IEEE_DENORMAL
Note: The following floating-point exceptions are signalling: IEEE_DENORMAL
Note: The following floating-point exceptions are signalling: IEEE_DENORMAL
Note: The following floating-point exceptions are signalling: IEEE_DENORMAL
Note: The following floating-point exceptions are signalling: IEEE_UNDERFLOW_FLAG IEEE_DENORMAL
