
     Program PWSCF v.6.7MaX starts on 19Mar2023 at  5:35:32 

     This program is part of the open-source Quantum ESPRESSO suite
     for quantum simulation of materials; please cite
         "P. Giannozzi et al., J. Phys.:Condens. Matter 21 395502 (2009);
         "P. Giannozzi et al., J. Phys.:Condens. Matter 29 465901 (2017);
          URL http://www.quantum-espresso.org", 
     in publications or presentations arising from this work. More details at
     http://www.quantum-espresso.org/quote

     Parallel version (MPI), running on    16 processors

     MPI processes distributed on     1 nodes
     R & G space division:  proc/nbgrp/npool/nimage =      16
     Reading input from scale_1da-05.in

     Current dimensions of program PWSCF are:
     Max number of different atomic species (ntypx) = 10
     Max number of k-points (npk) =  40000
     Max angular momentum in pseudopotentials (lmaxx) =  3
     Message from routine read_pp_mesh:
     mesh size missing, using the one in header
     file Fe.pbe-spn-kjpaw_psl.0.2.1.UPF: wavefunction(s)  3D renormalized
     file O.pbe-n-kjpaw_psl.0.1.UPF: wavefunction(s)  2P renormalized

     Subspace diagonalization in iterative solution of the eigenvalue problem:
     a serial algorithm will be used

     Message from routine setup:
     using ibrav=0 with symmetry is DISCOURAGED, use correct ibrav instead

     Parallelization info
     --------------------
     sticks:   dense  smooth     PW     G-vecs:    dense   smooth      PW
     Min        1303     482    130                84978    19148    2688
     Max        1305     483    131                84980    19151    2691
     Sum       20861    7725   2091              1359665   306383   43025



     bravais-lattice index     =            0
     lattice parameter (alat)  =      20.6483  a.u.
     unit-cell volume          =    2268.3757 (a.u.)^3
     number of atoms/cell      =           25
     number of atomic types    =            4
     number of electrons       =       189.00
     number of Kohn-Sham states=          114
     kinetic-energy cutoff     =     100.0000  Ry
     charge density cutoff     =    1080.0000  Ry
     scf convergence threshold =      2.0E-10
     mixing beta               =       0.4000
     number of iterations used =            8  plain     mixing
     Exchange-correlation= PBE
                           (   1   4   3   4   0   0   0)

     celldm(1)=  20.648310  celldm(2)=   0.000000  celldm(3)=   0.000000
     celldm(4)=   0.000000  celldm(5)=   0.000000  celldm(6)=   0.000000

     crystal axes: (cart. coord. in units of alat)
               a(1) = (   1.000000   0.000000   0.000000 )  
               a(2) = (   0.000000   0.569133   0.000000 )  
               a(3) = (   0.000000   0.000000   0.452739 )  

     reciprocal axes: (cart. coord. in units 2 pi/alat)
               b(1) = (  1.000000  0.000000  0.000000 )  
               b(2) = (  0.000000  1.757058  0.000000 )  
               b(3) = (  0.000000  0.000000  2.208780 )  


     PseudoPot. # 1 for Fe read from file:
     /opt/QEpot/SSSP_precision_pseudos/Fe.pbe-spn-kjpaw_psl.0.2.1.UPF
     MD5 check sum: e86618425769142926afa95317d90200
     Pseudo is Projector augmented-wave + core cor, Zval = 16.0
     Generated using "atomic" code by A. Dal Corso  v.5.0.99 svn rev. 10869
     Shape of augmentation charge: PSQ
     Using radial grid of 1191 points,  6 beta functions with: 
                l(1) =   0
                l(2) =   0
                l(3) =   1
                l(4) =   1
                l(5) =   2
                l(6) =   2
     Q(r) pseudized with 0 coefficients 


     PseudoPot. # 2 for Na read from file:
     /opt/QEpot/SSSP_precision_pseudos/Na_ONCV_PBE-1.0.oncvpsp.upf
     MD5 check sum: 24a298df0a6742ae313db96548fdb2a4
     Pseudo is Norm-conserving, Zval =  9.0
     Generated using ONCVPSP code by D. R. Hamann
     Using radial grid of 1992 points,  4 beta functions with: 
                l(1) =   0
                l(2) =   0
                l(3) =   1
                l(4) =   1

     PseudoPot. # 3 for O  read from file:
     /opt/QEpot/SSSP_precision_pseudos/O.pbe-n-kjpaw_psl.0.1.UPF
     MD5 check sum: 0234752ac141de4415c5fc33072bef88
     Pseudo is Projector augmented-wave + core cor, Zval =  6.0
     Generated using "atomic" code by A. Dal Corso  v.5.0.99 svn rev. 10869
     Shape of augmentation charge: BESSEL
     Using radial grid of 1095 points,  4 beta functions with: 
                l(1) =   0
                l(2) =   0
                l(3) =   1
                l(4) =   1
     Q(r) pseudized with 0 coefficients 


     PseudoPot. # 4 for P  read from file:
     /opt/QEpot/SSSP_precision_pseudos/P.pbe-n-rrkjus_psl.1.0.0.UPF
     MD5 check sum: 8b930f418f0a4573dca56cd030ffe088
     Pseudo is Ultrasoft + core correction, Zval =  5.0
     Generated using "atomic" code by A. Dal Corso  v.5.1
     Using radial grid of 1147 points,  6 beta functions with: 
                l(1) =   0
                l(2) =   0
                l(3) =   1
                l(4) =   1
                l(5) =   2
                l(6) =   2
     Q(r) pseudized with 0 coefficients 


     atomic species   valence    mass     pseudopotential
        Fe            16.00    55.84500     Fe( 1.00)
        Na             9.00    22.98977     Na( 1.00)
        O              6.00    15.99940     O ( 1.00)
        P              5.00    30.97376     P ( 1.00)

     Starting magnetic structure 
     atomic species   magnetization
        Fe           0.312
        Na           0.000
        O            0.000
        P            0.000

      2 Sym. Ops., with inversion, found


                                    s                        frac. trans.

      isym =  1     identity                                     

 cryst.   s( 1) = (     1          0          0      )
                  (     0          1          0      )
                  (     0          0          1      )

 cart.    s( 1) = (  1.0000000  0.0000000  0.0000000 )
                  (  0.0000000  1.0000000  0.0000000 )
                  (  0.0000000  0.0000000  1.0000000 )


      isym =  2     inversion                                    

 cryst.   s( 2) = (    -1          0          0      )
                  (     0         -1          0      )
                  (     0          0         -1      )

 cart.    s( 2) = ( -1.0000000  0.0000000  0.0000000 )
                  (  0.0000000 -1.0000000  0.0000000 )
                  (  0.0000000  0.0000000 -1.0000000 )


   Cartesian axes

     site n.     atom                  positions (alat units)
         1           Na  tau(   1) = (   0.9999980   0.0000000   0.0000000  )
         2           Fe  tau(   2) = (   0.2867560   0.4248375   0.4482365  )
         3           Fe  tau(   3) = (   0.2233670   0.1448660   0.2243496  )
         4           Fe  tau(   4) = (   0.7132500   0.1442986   0.0045047  )
         5           Fe  tau(   5) = (   0.7766390   0.4242701   0.2283917  )
         6           P   tau(   6) = (   0.1081020   0.4245438   0.2016185  )
         7           P   tau(   7) = (   0.3915960   0.1416282   0.4278832  )
         8           P   tau(   8) = (   0.8919040   0.1445923   0.2511228  )
         9           P   tau(   9) = (   0.6084100   0.4275079   0.0248585  )
        10           O   tau(  10) = (   0.1288530   0.4290531   0.3415292  )
        11           O   tau(  11) = (   0.3681240   0.1413198   0.1143332  )
        12           O   tau(  12) = (   0.8711530   0.1400830   0.1112121  )
        13           O   tau(  13) = (   0.6318820   0.4278163   0.3384080  )
        14           O   tau(  14) = (   0.4626860   0.4277543   0.0524484  )
        15           O   tau(  15) = (   0.0379730   0.1394337   0.2819565  )
        16           O   tau(  16) = (   0.5373200   0.1413818   0.4002929  )
        17           O   tau(  17) = (   0.9620320   0.4297024   0.1707848  )
        18           O   tau(  18) = (   0.1766340   0.5351771   0.1336973  )
        19           O   tau(  19) = (   0.3194030   0.0320183   0.3630606  )
        20           O   tau(  20) = (   0.8223270   0.2561817   0.3130488  )
        21           O   tau(  21) = (   0.6786820   0.3159025   0.0889043  )
        22           O   tau(  22) = (   0.8233720   0.0339590   0.3190440  )
        23           O   tau(  23) = (   0.6806030   0.5371178   0.0896807  )
        24           O   tau(  24) = (   0.1776790   0.3129544   0.1396925  )
        25           O   tau(  25) = (   0.3213240   0.2532336   0.3638370  )

   Crystallographic axes

     site n.     atom                  positions (cryst. coord.)
         1           Na  tau(   1) = (  0.9999980  0.0000000  0.0000000  )
         2           Fe  tau(   2) = (  0.2867560  0.7464640  0.9900560  )
         3           Fe  tau(   3) = (  0.2233670  0.2545380  0.4955390  )
         4           Fe  tau(   4) = (  0.7132500  0.2535410  0.0099500  )
         5           Fe  tau(   5) = (  0.7766390  0.7454670  0.5044670  )
         6           P   tau(   6) = (  0.1081020  0.7459480  0.4453310  )
         7           P   tau(   7) = (  0.3915960  0.2488490  0.9451000  )
         8           P   tau(   8) = (  0.8919040  0.2540570  0.5546750  )
         9           P   tau(   9) = (  0.6084100  0.7511560  0.0549070  )
        10           O   tau(  10) = (  0.1288530  0.7538710  0.7543630  )
        11           O   tau(  11) = (  0.3681240  0.2483070  0.2525370  )
        12           O   tau(  12) = (  0.8711530  0.2461340  0.2456430  )
        13           O   tau(  13) = (  0.6318820  0.7516980  0.7474690  )
        14           O   tau(  14) = (  0.4626860  0.7515890  0.1158470  )
        15           O   tau(  15) = (  0.0379730  0.2449930  0.6227800  )
        16           O   tau(  16) = (  0.5373200  0.2484160  0.8841590  )
        17           O   tau(  17) = (  0.9620320  0.7550120  0.3772260  )
        18           O   tau(  18) = (  0.1766340  0.9403370  0.2953080  )
        19           O   tau(  19) = (  0.3194030  0.0562580  0.8019210  )
        20           O   tau(  20) = (  0.8223270  0.4501260  0.6914560  )
        21           O   tau(  21) = (  0.6786820  0.5550590  0.1963700  )
        22           O   tau(  22) = (  0.8233720  0.0596680  0.7046980  )
        23           O   tau(  23) = (  0.6806030  0.9437470  0.1980850  )
        24           O   tau(  24) = (  0.1776790  0.5498790  0.3085500  )
        25           O   tau(  25) = (  0.3213240  0.4449460  0.8036360  )

     number of k points=   158  Marzari-Vanderbilt smearing, width (Ry)=  0.0073
                       cart. coord. in units 2pi/alat
        k(    1) = (   0.0000000   0.0000000   0.0000000), wk =   0.0031746
        k(    2) = (   0.0000000   0.0000000   0.2454200), wk =   0.0063492
        k(    3) = (   0.0000000   0.0000000   0.4908401), wk =   0.0063492
        k(    4) = (   0.0000000   0.0000000   0.7362601), wk =   0.0063492
        k(    5) = (   0.0000000   0.0000000   0.9816801), wk =   0.0063492
        k(    6) = (   0.0000000   0.2510082   0.0000000), wk =   0.0063492
        k(    7) = (   0.0000000   0.2510082   0.2454200), wk =   0.0063492
        k(    8) = (   0.0000000   0.2510082   0.4908401), wk =   0.0063492
        k(    9) = (   0.0000000   0.2510082   0.7362601), wk =   0.0063492
        k(   10) = (   0.0000000   0.2510082   0.9816801), wk =   0.0063492
        k(   11) = (   0.0000000   0.5020165   0.0000000), wk =   0.0063492
        k(   12) = (   0.0000000   0.5020165   0.2454200), wk =   0.0063492
        k(   13) = (   0.0000000   0.5020165   0.4908401), wk =   0.0063492
        k(   14) = (   0.0000000   0.5020165   0.7362601), wk =   0.0063492
        k(   15) = (   0.0000000   0.5020165   0.9816801), wk =   0.0063492
        k(   16) = (   0.0000000   0.7530247   0.0000000), wk =   0.0063492
        k(   17) = (   0.0000000   0.7530247   0.2454200), wk =   0.0063492
        k(   18) = (   0.0000000   0.7530247   0.4908401), wk =   0.0063492
        k(   19) = (   0.0000000   0.7530247   0.7362601), wk =   0.0063492
        k(   20) = (   0.0000000   0.7530247   0.9816801), wk =   0.0063492
        k(   21) = (   0.2000000   0.0000000   0.0000000), wk =   0.0063492
        k(   22) = (   0.2000000   0.0000000   0.2454200), wk =   0.0063492
        k(   23) = (   0.2000000   0.0000000   0.4908401), wk =   0.0063492
        k(   24) = (   0.2000000   0.0000000   0.7362601), wk =   0.0063492
        k(   25) = (   0.2000000   0.0000000   0.9816801), wk =   0.0063492
        k(   26) = (   0.2000000   0.2510082   0.0000000), wk =   0.0063492
        k(   27) = (   0.2000000   0.2510082   0.2454200), wk =   0.0063492
        k(   28) = (   0.2000000   0.2510082   0.4908401), wk =   0.0063492
        k(   29) = (   0.2000000   0.2510082   0.7362601), wk =   0.0063492
        k(   30) = (   0.2000000   0.2510082   0.9816801), wk =   0.0063492
        k(   31) = (   0.2000000   0.5020165   0.0000000), wk =   0.0063492
        k(   32) = (   0.2000000   0.5020165   0.2454200), wk =   0.0063492
        k(   33) = (   0.2000000   0.5020165   0.4908401), wk =   0.0063492
        k(   34) = (   0.2000000   0.5020165   0.7362601), wk =   0.0063492
        k(   35) = (   0.2000000   0.5020165   0.9816801), wk =   0.0063492
        k(   36) = (   0.2000000   0.7530247   0.0000000), wk =   0.0063492
        k(   37) = (   0.2000000   0.7530247   0.2454200), wk =   0.0063492
        k(   38) = (   0.2000000   0.7530247   0.4908401), wk =   0.0063492
        k(   39) = (   0.2000000   0.7530247   0.7362601), wk =   0.0063492
        k(   40) = (   0.2000000   0.7530247   0.9816801), wk =   0.0063492
        k(   41) = (   0.4000000   0.0000000   0.0000000), wk =   0.0063492
        k(   42) = (   0.4000000   0.0000000   0.2454200), wk =   0.0063492
        k(   43) = (   0.4000000   0.0000000   0.4908401), wk =   0.0063492
        k(   44) = (   0.4000000   0.0000000   0.7362601), wk =   0.0063492
        k(   45) = (   0.4000000   0.0000000   0.9816801), wk =   0.0063492
        k(   46) = (   0.4000000   0.2510082   0.0000000), wk =   0.0063492
        k(   47) = (   0.4000000   0.2510082   0.2454200), wk =   0.0063492
        k(   48) = (   0.4000000   0.2510082   0.4908401), wk =   0.0063492
        k(   49) = (   0.4000000   0.2510082   0.7362601), wk =   0.0063492
        k(   50) = (   0.4000000   0.2510082   0.9816801), wk =   0.0063492
        k(   51) = (   0.4000000   0.5020165   0.0000000), wk =   0.0063492
        k(   52) = (   0.4000000   0.5020165   0.2454200), wk =   0.0063492
        k(   53) = (   0.4000000   0.5020165   0.4908401), wk =   0.0063492
        k(   54) = (   0.4000000   0.5020165   0.7362601), wk =   0.0063492
        k(   55) = (   0.4000000   0.5020165   0.9816801), wk =   0.0063492
        k(   56) = (   0.4000000   0.7530247   0.0000000), wk =   0.0063492
        k(   57) = (   0.4000000   0.7530247   0.2454200), wk =   0.0063492
        k(   58) = (   0.4000000   0.7530247   0.4908401), wk =   0.0063492
        k(   59) = (   0.4000000   0.7530247   0.7362601), wk =   0.0063492
        k(   60) = (   0.4000000   0.7530247   0.9816801), wk =   0.0063492
        k(   61) = (   0.0000000   0.2510082  -0.2454200), wk =   0.0063492
        k(   62) = (   0.0000000   0.2510082  -0.4908401), wk =   0.0063492
        k(   63) = (   0.0000000   0.2510082  -0.7362601), wk =   0.0063492
        k(   64) = (   0.0000000   0.2510082  -0.9816801), wk =   0.0063492
        k(   65) = (   0.0000000   0.5020165  -0.2454200), wk =   0.0063492
        k(   66) = (   0.0000000   0.5020165  -0.4908401), wk =   0.0063492
        k(   67) = (   0.0000000   0.5020165  -0.7362601), wk =   0.0063492
        k(   68) = (   0.0000000   0.5020165  -0.9816801), wk =   0.0063492
        k(   69) = (   0.0000000   0.7530247  -0.2454200), wk =   0.0063492
        k(   70) = (   0.0000000   0.7530247  -0.4908401), wk =   0.0063492
        k(   71) = (   0.0000000   0.7530247  -0.7362601), wk =   0.0063492
        k(   72) = (   0.0000000   0.7530247  -0.9816801), wk =   0.0063492
        k(   73) = (   0.2000000   0.0000000  -0.2454200), wk =   0.0063492
        k(   74) = (   0.2000000   0.0000000  -0.4908401), wk =   0.0063492
        k(   75) = (   0.2000000   0.0000000  -0.7362601), wk =   0.0063492
        k(   76) = (   0.2000000   0.0000000  -0.9816801), wk =   0.0063492
        k(   77) = (  -0.2000000   0.2510082   0.0000000), wk =   0.0063492
        k(   78) = (  -0.2000000   0.2510082  -0.2454200), wk =   0.0063492
        k(   79) = (   0.2000000  -0.2510082  -0.2454200), wk =   0.0063492
        k(   80) = (  -0.2000000  -0.2510082   0.2454200), wk =   0.0063492
        k(   81) = (  -0.2000000   0.2510082  -0.4908401), wk =   0.0063492
        k(   82) = (   0.2000000  -0.2510082  -0.4908401), wk =   0.0063492
        k(   83) = (  -0.2000000  -0.2510082   0.4908401), wk =   0.0063492
        k(   84) = (  -0.2000000   0.2510082  -0.7362601), wk =   0.0063492
        k(   85) = (   0.2000000  -0.2510082  -0.7362601), wk =   0.0063492
        k(   86) = (  -0.2000000  -0.2510082   0.7362601), wk =   0.0063492
        k(   87) = (  -0.2000000   0.2510082  -0.9816801), wk =   0.0063492
        k(   88) = (   0.2000000  -0.2510082  -0.9816801), wk =   0.0063492
        k(   89) = (  -0.2000000  -0.2510082   0.9816801), wk =   0.0063492
        k(   90) = (  -0.2000000   0.5020165   0.0000000), wk =   0.0063492
        k(   91) = (  -0.2000000   0.5020165  -0.2454200), wk =   0.0063492
        k(   92) = (   0.2000000  -0.5020165  -0.2454200), wk =   0.0063492
        k(   93) = (  -0.2000000  -0.5020165   0.2454200), wk =   0.0063492
        k(   94) = (  -0.2000000   0.5020165  -0.4908401), wk =   0.0063492
        k(   95) = (   0.2000000  -0.5020165  -0.4908401), wk =   0.0063492
        k(   96) = (  -0.2000000  -0.5020165   0.4908401), wk =   0.0063492
        k(   97) = (  -0.2000000   0.5020165  -0.7362601), wk =   0.0063492
        k(   98) = (   0.2000000  -0.5020165  -0.7362601), wk =   0.0063492
        k(   99) = (  -0.2000000  -0.5020165   0.7362601), wk =   0.0063492
        k(  100) = (  -0.2000000   0.5020165  -0.9816801), wk =   0.0063492
        k(  101) = (   0.2000000  -0.5020165  -0.9816801), wk =   0.0063492
        k(  102) = (  -0.2000000  -0.5020165   0.9816801), wk =   0.0063492
        k(  103) = (  -0.2000000   0.7530247   0.0000000), wk =   0.0063492
        k(  104) = (  -0.2000000   0.7530247  -0.2454200), wk =   0.0063492
        k(  105) = (   0.2000000  -0.7530247  -0.2454200), wk =   0.0063492
        k(  106) = (  -0.2000000  -0.7530247   0.2454200), wk =   0.0063492
        k(  107) = (  -0.2000000   0.7530247  -0.4908401), wk =   0.0063492
        k(  108) = (   0.2000000  -0.7530247  -0.4908401), wk =   0.0063492
        k(  109) = (  -0.2000000  -0.7530247   0.4908401), wk =   0.0063492
        k(  110) = (  -0.2000000   0.7530247  -0.7362601), wk =   0.0063492
        k(  111) = (   0.2000000  -0.7530247  -0.7362601), wk =   0.0063492
        k(  112) = (  -0.2000000  -0.7530247   0.7362601), wk =   0.0063492
        k(  113) = (  -0.2000000   0.7530247  -0.9816801), wk =   0.0063492
        k(  114) = (   0.2000000  -0.7530247  -0.9816801), wk =   0.0063492
        k(  115) = (  -0.2000000  -0.7530247   0.9816801), wk =   0.0063492
        k(  116) = (   0.4000000   0.0000000  -0.2454200), wk =   0.0063492
        k(  117) = (   0.4000000   0.0000000  -0.4908401), wk =   0.0063492
        k(  118) = (   0.4000000   0.0000000  -0.7362601), wk =   0.0063492
        k(  119) = (   0.4000000   0.0000000  -0.9816801), wk =   0.0063492
        k(  120) = (  -0.4000000   0.2510082   0.0000000), wk =   0.0063492
        k(  121) = (  -0.4000000   0.2510082  -0.2454200), wk =   0.0063492
        k(  122) = (   0.4000000  -0.2510082  -0.2454200), wk =   0.0063492
        k(  123) = (  -0.4000000  -0.2510082   0.2454200), wk =   0.0063492
        k(  124) = (  -0.4000000   0.2510082  -0.4908401), wk =   0.0063492
        k(  125) = (   0.4000000  -0.2510082  -0.4908401), wk =   0.0063492
        k(  126) = (  -0.4000000  -0.2510082   0.4908401), wk =   0.0063492
        k(  127) = (  -0.4000000   0.2510082  -0.7362601), wk =   0.0063492
        k(  128) = (   0.4000000  -0.2510082  -0.7362601), wk =   0.0063492
        k(  129) = (  -0.4000000  -0.2510082   0.7362601), wk =   0.0063492
        k(  130) = (  -0.4000000   0.2510082  -0.9816801), wk =   0.0063492
        k(  131) = (   0.4000000  -0.2510082  -0.9816801), wk =   0.0063492
        k(  132) = (  -0.4000000  -0.2510082   0.9816801), wk =   0.0063492
        k(  133) = (  -0.4000000   0.5020165   0.0000000), wk =   0.0063492
        k(  134) = (  -0.4000000   0.5020165  -0.2454200), wk =   0.0063492
        k(  135) = (   0.4000000  -0.5020165  -0.2454200), wk =   0.0063492
        k(  136) = (  -0.4000000  -0.5020165   0.2454200), wk =   0.0063492
        k(  137) = (  -0.4000000   0.5020165  -0.4908401), wk =   0.0063492
        k(  138) = (   0.4000000  -0.5020165  -0.4908401), wk =   0.0063492
        k(  139) = (  -0.4000000  -0.5020165   0.4908401), wk =   0.0063492
        k(  140) = (  -0.4000000   0.5020165  -0.7362601), wk =   0.0063492
        k(  141) = (   0.4000000  -0.5020165  -0.7362601), wk =   0.0063492
        k(  142) = (  -0.4000000  -0.5020165   0.7362601), wk =   0.0063492
        k(  143) = (  -0.4000000   0.5020165  -0.9816801), wk =   0.0063492
        k(  144) = (   0.4000000  -0.5020165  -0.9816801), wk =   0.0063492
        k(  145) = (  -0.4000000  -0.5020165   0.9816801), wk =   0.0063492
        k(  146) = (  -0.4000000   0.7530247   0.0000000), wk =   0.0063492
        k(  147) = (  -0.4000000   0.7530247  -0.2454200), wk =   0.0063492
        k(  148) = (   0.4000000  -0.7530247  -0.2454200), wk =   0.0063492
        k(  149) = (  -0.4000000  -0.7530247   0.2454200), wk =   0.0063492
        k(  150) = (  -0.4000000   0.7530247  -0.4908401), wk =   0.0063492
        k(  151) = (   0.4000000  -0.7530247  -0.4908401), wk =   0.0063492
        k(  152) = (  -0.4000000  -0.7530247   0.4908401), wk =   0.0063492
        k(  153) = (  -0.4000000   0.7530247  -0.7362601), wk =   0.0063492
        k(  154) = (   0.4000000  -0.7530247  -0.7362601), wk =   0.0063492
        k(  155) = (  -0.4000000  -0.7530247   0.7362601), wk =   0.0063492
        k(  156) = (  -0.4000000   0.7530247  -0.9816801), wk =   0.0063492
        k(  157) = (   0.4000000  -0.7530247  -0.9816801), wk =   0.0063492
        k(  158) = (  -0.4000000  -0.7530247   0.9816801), wk =   0.0063492

                       cryst. coord.
        k(    1) = (   0.0000000   0.0000000   0.0000000), wk =   0.0031746
        k(    2) = (   0.0000000   0.0000000   0.1111111), wk =   0.0063492
        k(    3) = (   0.0000000   0.0000000   0.2222222), wk =   0.0063492
        k(    4) = (   0.0000000   0.0000000   0.3333333), wk =   0.0063492
        k(    5) = (   0.0000000   0.0000000   0.4444444), wk =   0.0063492
        k(    6) = (   0.0000000   0.1428571   0.0000000), wk =   0.0063492
        k(    7) = (   0.0000000   0.1428571   0.1111111), wk =   0.0063492
        k(    8) = (   0.0000000   0.1428571   0.2222222), wk =   0.0063492
        k(    9) = (   0.0000000   0.1428571   0.3333333), wk =   0.0063492
        k(   10) = (   0.0000000   0.1428571   0.4444444), wk =   0.0063492
        k(   11) = (   0.0000000   0.2857143   0.0000000), wk =   0.0063492
        k(   12) = (   0.0000000   0.2857143   0.1111111), wk =   0.0063492
        k(   13) = (   0.0000000   0.2857143   0.2222222), wk =   0.0063492
        k(   14) = (   0.0000000   0.2857143   0.3333333), wk =   0.0063492
        k(   15) = (   0.0000000   0.2857143   0.4444444), wk =   0.0063492
        k(   16) = (   0.0000000   0.4285714   0.0000000), wk =   0.0063492
        k(   17) = (   0.0000000   0.4285714   0.1111111), wk =   0.0063492
        k(   18) = (   0.0000000   0.4285714   0.2222222), wk =   0.0063492
        k(   19) = (   0.0000000   0.4285714   0.3333333), wk =   0.0063492
        k(   20) = (   0.0000000   0.4285714   0.4444444), wk =   0.0063492
        k(   21) = (   0.2000000   0.0000000   0.0000000), wk =   0.0063492
        k(   22) = (   0.2000000   0.0000000   0.1111111), wk =   0.0063492
        k(   23) = (   0.2000000   0.0000000   0.2222222), wk =   0.0063492
        k(   24) = (   0.2000000   0.0000000   0.3333333), wk =   0.0063492
        k(   25) = (   0.2000000   0.0000000   0.4444444), wk =   0.0063492
        k(   26) = (   0.2000000   0.1428571   0.0000000), wk =   0.0063492
        k(   27) = (   0.2000000   0.1428571   0.1111111), wk =   0.0063492
        k(   28) = (   0.2000000   0.1428571   0.2222222), wk =   0.0063492
        k(   29) = (   0.2000000   0.1428571   0.3333333), wk =   0.0063492
        k(   30) = (   0.2000000   0.1428571   0.4444444), wk =   0.0063492
        k(   31) = (   0.2000000   0.2857143   0.0000000), wk =   0.0063492
        k(   32) = (   0.2000000   0.2857143   0.1111111), wk =   0.0063492
        k(   33) = (   0.2000000   0.2857143   0.2222222), wk =   0.0063492
        k(   34) = (   0.2000000   0.2857143   0.3333333), wk =   0.0063492
        k(   35) = (   0.2000000   0.2857143   0.4444444), wk =   0.0063492
        k(   36) = (   0.2000000   0.4285714   0.0000000), wk =   0.0063492
        k(   37) = (   0.2000000   0.4285714   0.1111111), wk =   0.0063492
        k(   38) = (   0.2000000   0.4285714   0.2222222), wk =   0.0063492
        k(   39) = (   0.2000000   0.4285714   0.3333333), wk =   0.0063492
        k(   40) = (   0.2000000   0.4285714   0.4444444), wk =   0.0063492
        k(   41) = (   0.4000000   0.0000000   0.0000000), wk =   0.0063492
        k(   42) = (   0.4000000   0.0000000   0.1111111), wk =   0.0063492
        k(   43) = (   0.4000000   0.0000000   0.2222222), wk =   0.0063492
        k(   44) = (   0.4000000   0.0000000   0.3333333), wk =   0.0063492
        k(   45) = (   0.4000000   0.0000000   0.4444444), wk =   0.0063492
        k(   46) = (   0.4000000   0.1428571   0.0000000), wk =   0.0063492
        k(   47) = (   0.4000000   0.1428571   0.1111111), wk =   0.0063492
        k(   48) = (   0.4000000   0.1428571   0.2222222), wk =   0.0063492
        k(   49) = (   0.4000000   0.1428571   0.3333333), wk =   0.0063492
        k(   50) = (   0.4000000   0.1428571   0.4444444), wk =   0.0063492
        k(   51) = (   0.4000000   0.2857143   0.0000000), wk =   0.0063492
        k(   52) = (   0.4000000   0.2857143   0.1111111), wk =   0.0063492
        k(   53) = (   0.4000000   0.2857143   0.2222222), wk =   0.0063492
        k(   54) = (   0.4000000   0.2857143   0.3333333), wk =   0.0063492
        k(   55) = (   0.4000000   0.2857143   0.4444444), wk =   0.0063492
        k(   56) = (   0.4000000   0.4285714   0.0000000), wk =   0.0063492
        k(   57) = (   0.4000000   0.4285714   0.1111111), wk =   0.0063492
        k(   58) = (   0.4000000   0.4285714   0.2222222), wk =   0.0063492
        k(   59) = (   0.4000000   0.4285714   0.3333333), wk =   0.0063492
        k(   60) = (   0.4000000   0.4285714   0.4444444), wk =   0.0063492
        k(   61) = (   0.0000000   0.1428571  -0.1111111), wk =   0.0063492
        k(   62) = (   0.0000000   0.1428571  -0.2222222), wk =   0.0063492
        k(   63) = (   0.0000000   0.1428571  -0.3333333), wk =   0.0063492
        k(   64) = (   0.0000000   0.1428571  -0.4444444), wk =   0.0063492
        k(   65) = (   0.0000000   0.2857143  -0.1111111), wk =   0.0063492
        k(   66) = (   0.0000000   0.2857143  -0.2222222), wk =   0.0063492
        k(   67) = (   0.0000000   0.2857143  -0.3333333), wk =   0.0063492
        k(   68) = (   0.0000000   0.2857143  -0.4444444), wk =   0.0063492
        k(   69) = (   0.0000000   0.4285714  -0.1111111), wk =   0.0063492
        k(   70) = (   0.0000000   0.4285714  -0.2222222), wk =   0.0063492
        k(   71) = (   0.0000000   0.4285714  -0.3333333), wk =   0.0063492
        k(   72) = (   0.0000000   0.4285714  -0.4444444), wk =   0.0063492
        k(   73) = (   0.2000000   0.0000000  -0.1111111), wk =   0.0063492
        k(   74) = (   0.2000000   0.0000000  -0.2222222), wk =   0.0063492
        k(   75) = (   0.2000000   0.0000000  -0.3333333), wk =   0.0063492
        k(   76) = (   0.2000000   0.0000000  -0.4444444), wk =   0.0063492
        k(   77) = (  -0.2000000   0.1428571   0.0000000), wk =   0.0063492
        k(   78) = (  -0.2000000   0.1428571  -0.1111111), wk =   0.0063492
        k(   79) = (   0.2000000  -0.1428571  -0.1111111), wk =   0.0063492
        k(   80) = (  -0.2000000  -0.1428571   0.1111111), wk =   0.0063492
        k(   81) = (  -0.2000000   0.1428571  -0.2222222), wk =   0.0063492
        k(   82) = (   0.2000000  -0.1428571  -0.2222222), wk =   0.0063492
        k(   83) = (  -0.2000000  -0.1428571   0.2222222), wk =   0.0063492
        k(   84) = (  -0.2000000   0.1428571  -0.3333333), wk =   0.0063492
        k(   85) = (   0.2000000  -0.1428571  -0.3333333), wk =   0.0063492
        k(   86) = (  -0.2000000  -0.1428571   0.3333333), wk =   0.0063492
        k(   87) = (  -0.2000000   0.1428571  -0.4444444), wk =   0.0063492
        k(   88) = (   0.2000000  -0.1428571  -0.4444444), wk =   0.0063492
        k(   89) = (  -0.2000000  -0.1428571   0.4444444), wk =   0.0063492
        k(   90) = (  -0.2000000   0.2857143   0.0000000), wk =   0.0063492
        k(   91) = (  -0.2000000   0.2857143  -0.1111111), wk =   0.0063492
        k(   92) = (   0.2000000  -0.2857143  -0.1111111), wk =   0.0063492
        k(   93) = (  -0.2000000  -0.2857143   0.1111111), wk =   0.0063492
        k(   94) = (  -0.2000000   0.2857143  -0.2222222), wk =   0.0063492
        k(   95) = (   0.2000000  -0.2857143  -0.2222222), wk =   0.0063492
        k(   96) = (  -0.2000000  -0.2857143   0.2222222), wk =   0.0063492
        k(   97) = (  -0.2000000   0.2857143  -0.3333333), wk =   0.0063492
        k(   98) = (   0.2000000  -0.2857143  -0.3333333), wk =   0.0063492
        k(   99) = (  -0.2000000  -0.2857143   0.3333333), wk =   0.0063492
        k(  100) = (  -0.2000000   0.2857143  -0.4444444), wk =   0.0063492
        k(  101) = (   0.2000000  -0.2857143  -0.4444444), wk =   0.0063492
        k(  102) = (  -0.2000000  -0.2857143   0.4444444), wk =   0.0063492
        k(  103) = (  -0.2000000   0.4285714   0.0000000), wk =   0.0063492
        k(  104) = (  -0.2000000   0.4285714  -0.1111111), wk =   0.0063492
        k(  105) = (   0.2000000  -0.4285714  -0.1111111), wk =   0.0063492
        k(  106) = (  -0.2000000  -0.4285714   0.1111111), wk =   0.0063492
        k(  107) = (  -0.2000000   0.4285714  -0.2222222), wk =   0.0063492
        k(  108) = (   0.2000000  -0.4285714  -0.2222222), wk =   0.0063492
        k(  109) = (  -0.2000000  -0.4285714   0.2222222), wk =   0.0063492
        k(  110) = (  -0.2000000   0.4285714  -0.3333333), wk =   0.0063492
        k(  111) = (   0.2000000  -0.4285714  -0.3333333), wk =   0.0063492
        k(  112) = (  -0.2000000  -0.4285714   0.3333333), wk =   0.0063492
        k(  113) = (  -0.2000000   0.4285714  -0.4444444), wk =   0.0063492
        k(  114) = (   0.2000000  -0.4285714  -0.4444444), wk =   0.0063492
        k(  115) = (  -0.2000000  -0.4285714   0.4444444), wk =   0.0063492
        k(  116) = (   0.4000000   0.0000000  -0.1111111), wk =   0.0063492
        k(  117) = (   0.4000000   0.0000000  -0.2222222), wk =   0.0063492
        k(  118) = (   0.4000000   0.0000000  -0.3333333), wk =   0.0063492
        k(  119) = (   0.4000000   0.0000000  -0.4444444), wk =   0.0063492
        k(  120) = (  -0.4000000   0.1428571   0.0000000), wk =   0.0063492
        k(  121) = (  -0.4000000   0.1428571  -0.1111111), wk =   0.0063492
        k(  122) = (   0.4000000  -0.1428571  -0.1111111), wk =   0.0063492
        k(  123) = (  -0.4000000  -0.1428571   0.1111111), wk =   0.0063492
        k(  124) = (  -0.4000000   0.1428571  -0.2222222), wk =   0.0063492
        k(  125) = (   0.4000000  -0.1428571  -0.2222222), wk =   0.0063492
        k(  126) = (  -0.4000000  -0.1428571   0.2222222), wk =   0.0063492
        k(  127) = (  -0.4000000   0.1428571  -0.3333333), wk =   0.0063492
        k(  128) = (   0.4000000  -0.1428571  -0.3333333), wk =   0.0063492
        k(  129) = (  -0.4000000  -0.1428571   0.3333333), wk =   0.0063492
        k(  130) = (  -0.4000000   0.1428571  -0.4444444), wk =   0.0063492
        k(  131) = (   0.4000000  -0.1428571  -0.4444444), wk =   0.0063492
        k(  132) = (  -0.4000000  -0.1428571   0.4444444), wk =   0.0063492
        k(  133) = (  -0.4000000   0.2857143   0.0000000), wk =   0.0063492
        k(  134) = (  -0.4000000   0.2857143  -0.1111111), wk =   0.0063492
        k(  135) = (   0.4000000  -0.2857143  -0.1111111), wk =   0.0063492
        k(  136) = (  -0.4000000  -0.2857143   0.1111111), wk =   0.0063492
        k(  137) = (  -0.4000000   0.2857143  -0.2222222), wk =   0.0063492
        k(  138) = (   0.4000000  -0.2857143  -0.2222222), wk =   0.0063492
        k(  139) = (  -0.4000000  -0.2857143   0.2222222), wk =   0.0063492
        k(  140) = (  -0.4000000   0.2857143  -0.3333333), wk =   0.0063492
        k(  141) = (   0.4000000  -0.2857143  -0.3333333), wk =   0.0063492
        k(  142) = (  -0.4000000  -0.2857143   0.3333333), wk =   0.0063492
        k(  143) = (  -0.4000000   0.2857143  -0.4444444), wk =   0.0063492
        k(  144) = (   0.4000000  -0.2857143  -0.4444444), wk =   0.0063492
        k(  145) = (  -0.4000000  -0.2857143   0.4444444), wk =   0.0063492
        k(  146) = (  -0.4000000   0.4285714   0.0000000), wk =   0.0063492
        k(  147) = (  -0.4000000   0.4285714  -0.1111111), wk =   0.0063492
        k(  148) = (   0.4000000  -0.4285714  -0.1111111), wk =   0.0063492
        k(  149) = (  -0.4000000  -0.4285714   0.1111111), wk =   0.0063492
        k(  150) = (  -0.4000000   0.4285714  -0.2222222), wk =   0.0063492
        k(  151) = (   0.4000000  -0.4285714  -0.2222222), wk =   0.0063492
        k(  152) = (  -0.4000000  -0.4285714   0.2222222), wk =   0.0063492
        k(  153) = (  -0.4000000   0.4285714  -0.3333333), wk =   0.0063492
        k(  154) = (   0.4000000  -0.4285714  -0.3333333), wk =   0.0063492
        k(  155) = (  -0.4000000  -0.4285714   0.3333333), wk =   0.0063492
        k(  156) = (  -0.4000000   0.4285714  -0.4444444), wk =   0.0063492
        k(  157) = (   0.4000000  -0.4285714  -0.4444444), wk =   0.0063492
        k(  158) = (  -0.4000000  -0.4285714   0.4444444), wk =   0.0063492

     Dense  grid:  1359665 G-vectors     FFT dimensions: ( 216, 125, 100)

     Smooth grid:   306383 G-vectors     FFT dimensions: ( 135,  75,  60)

     Dynamical RAM for                 wfc:       4.16 MB

     Dynamical RAM for     wfc (w. buffer):    1320.10 MB

     Dynamical RAM for           str. fact:       5.19 MB

     Dynamical RAM for           local pot:       0.00 MB

     Dynamical RAM for          nlocal pot:      10.23 MB

     Dynamical RAM for                qrad:      10.54 MB

     Dynamical RAM for          rho,v,vnew:      16.43 MB

     Dynamical RAM for               rhoin:       5.48 MB

     Dynamical RAM for            rho*nmix:      41.49 MB

     Dynamical RAM for           G-vectors:       5.01 MB

     Dynamical RAM for          h,s,v(r/c):       2.38 MB

     Dynamical RAM for          <psi|beta>:       0.49 MB

     Dynamical RAM for                 psi:       8.33 MB

     Dynamical RAM for                hpsi:       8.33 MB

     Dynamical RAM for                spsi:       8.33 MB

     Dynamical RAM for      wfcinit/wfcrot:      10.44 MB

     Dynamical RAM for           addusdens:     263.23 MB

     Dynamical RAM for          addusforce:     302.25 MB

     Dynamical RAM for         addusstress:     262.58 MB

     Estimated static dynamical RAM per process >       1.40 GB

     Estimated max dynamical RAM per process >       1.69 GB

     Estimated total dynamical RAM >      27.06 GB

     Check: negative core charge=   -0.000003
     Generating pointlists ...
     new r_m :   0.0750 (alat units)  1.5489 (a.u.) for type    1
     new r_m :   0.0909 (alat units)  1.8776 (a.u.) for type    2
     new r_m :   0.0582 (alat units)  1.2023 (a.u.) for type    3
     new r_m :   0.0582 (alat units)  1.2023 (a.u.) for type    4

     Initial potential from superposition of free atoms

     starting charge  188.99132, renormalised to  189.00000
     Starting wfcs are  137 randomized atomic wfcs
     Checking if some PAW data can be deallocated... 
       PAW data deallocated on   13 nodes for type:  1
       PAW data deallocated on    4 nodes for type:  3

     total cpu time spent up to now is       90.5 secs

     Self-consistent Calculation

     iteration #  1     ecut=   100.00 Ry     beta= 0.40
     Davidson diagonalization with overlap
     ethr =  1.00E-02,  avg # of iterations =  2.9

     negative rho (up, down):  0.000E+00 9.793E-05

     total cpu time spent up to now is      343.2 secs

     total energy              =   -2123.90282979 Ry
     estimated scf accuracy    <       6.85001150 Ry

     total magnetization       =    19.00 Bohr mag/cell
     absolute magnetization    =    19.00 Bohr mag/cell

     iteration #  2     ecut=   100.00 Ry     beta= 0.40
     Davidson diagonalization with overlap
     ethr =  3.62E-03,  avg # of iterations =  2.0

     negative rho (up, down):  0.000E+00 3.697E-05

     total cpu time spent up to now is      581.9 secs

     total energy              =   -2121.87367488 Ry
     estimated scf accuracy    <      24.49035021 Ry

     total magnetization       =     9.03 Bohr mag/cell
     absolute magnetization    =     9.57 Bohr mag/cell

     iteration #  3     ecut=   100.00 Ry     beta= 0.40
     Davidson diagonalization with overlap
     ethr =  3.62E-03,  avg # of iterations =  2.0

     negative rho (up, down):  0.000E+00 1.820E-04

     total cpu time spent up to now is      790.0 secs

     total energy              =   -2126.11592284 Ry
     estimated scf accuracy    <       2.18396307 Ry

     total magnetization       =    19.00 Bohr mag/cell
     absolute magnetization    =    19.00 Bohr mag/cell

     iteration #  4     ecut=   100.00 Ry     beta= 0.40
     Davidson diagonalization with overlap
     ethr =  1.16E-03,  avg # of iterations =  2.0

     negative rho (up, down):  0.000E+00 2.436E-04

     total cpu time spent up to now is      993.0 secs

     total energy              =   -2126.11716082 Ry
     estimated scf accuracy    <       1.32766787 Ry

     total magnetization       =    19.00 Bohr mag/cell
     absolute magnetization    =    19.00 Bohr mag/cell

     iteration #  5     ecut=   100.00 Ry     beta= 0.40
     Davidson diagonalization with overlap
     ethr =  7.02E-04,  avg # of iterations =  1.1

     negative rho (up, down):  0.000E+00 6.203E-04

     total cpu time spent up to now is     1171.2 secs

     total energy              =   -2125.93525339 Ry
     estimated scf accuracy    <       0.86212742 Ry

     total magnetization       =    19.00 Bohr mag/cell
     absolute magnetization    =    19.00 Bohr mag/cell

     iteration #  6     ecut=   100.00 Ry     beta= 0.40
     Davidson diagonalization with overlap
     ethr =  4.56E-04,  avg # of iterations =  2.1

     negative rho (up, down):  0.000E+00 7.176E-04

     total cpu time spent up to now is     1378.7 secs

     total energy              =   -2126.03904316 Ry
     estimated scf accuracy    <       0.14559357 Ry

     total magnetization       =    19.00 Bohr mag/cell
     absolute magnetization    =    19.01 Bohr mag/cell

     iteration #  7     ecut=   100.00 Ry     beta= 0.40
     Davidson diagonalization with overlap
     c_bands:  1 eigenvalues not converged
     c_bands:  1 eigenvalues not converged
     c_bands:  3 eigenvalues not converged
     c_bands:  1 eigenvalues not converged
     c_bands:  1 eigenvalues not converged
     c_bands:  1 eigenvalues not converged
     c_bands:  1 eigenvalues not converged
     c_bands:  2 eigenvalues not converged
     ethr =  7.70E-05,  avg # of iterations = 13.1

     negative rho (up, down):  0.000E+00 8.841E-04

     total cpu time spent up to now is     1704.0 secs

     total energy              =   -2126.05264700 Ry
     estimated scf accuracy    <       0.03192937 Ry

     total magnetization       =    19.00 Bohr mag/cell
     absolute magnetization    =    19.01 Bohr mag/cell

     iteration #  8     ecut=   100.00 Ry     beta= 0.40
     Davidson diagonalization with overlap
     c_bands:  1 eigenvalues not converged
     c_bands:  1 eigenvalues not converged
     c_bands:  1 eigenvalues not converged
     ethr =  1.69E-05,  avg # of iterations =  8.4

     negative rho (up, down):  0.000E+00 9.483E-04

     total cpu time spent up to now is     2001.5 secs

     total energy              =   -2126.06085272 Ry
     estimated scf accuracy    <       0.03823509 Ry

     total magnetization       =    19.00 Bohr mag/cell
     absolute magnetization    =    19.03 Bohr mag/cell

     iteration #  9     ecut=   100.00 Ry     beta= 0.40
     Davidson diagonalization with overlap
     ethr =  1.69E-05,  avg # of iterations =  1.0

     negative rho (up, down):  0.000E+00 9.547E-04

     total cpu time spent up to now is     2178.7 secs

     total energy              =   -2126.06184078 Ry
     estimated scf accuracy    <       0.03140778 Ry

     total magnetization       =    19.00 Bohr mag/cell
     absolute magnetization    =    19.04 Bohr mag/cell

     iteration # 10     ecut=   100.00 Ry     beta= 0.40
     Davidson diagonalization with overlap
     ethr =  1.66E-05,  avg # of iterations =  1.0

     negative rho (up, down):  0.000E+00 9.529E-04

     total cpu time spent up to now is     2355.4 secs

     total energy              =   -2126.06172074 Ry
     estimated scf accuracy    <       0.01743872 Ry

     total magnetization       =    19.00 Bohr mag/cell
     absolute magnetization    =    19.05 Bohr mag/cell

     iteration # 11     ecut=   100.00 Ry     beta= 0.40
     Davidson diagonalization with overlap
     ethr =  9.23E-06,  avg # of iterations =  1.3

     negative rho (up, down):  0.000E+00 9.582E-04

     total cpu time spent up to now is     2540.2 secs

     total energy              =   -2126.06236909 Ry
     estimated scf accuracy    <       0.00136823 Ry

     total magnetization       =    19.00 Bohr mag/cell
     absolute magnetization    =    19.05 Bohr mag/cell

     iteration # 12     ecut=   100.00 Ry     beta= 0.40
     Davidson diagonalization with overlap
     c_bands:  1 eigenvalues not converged
     c_bands:  1 eigenvalues not converged
     c_bands:  1 eigenvalues not converged
     c_bands:  1 eigenvalues not converged
     c_bands:  1 eigenvalues not converged
     c_bands:  1 eigenvalues not converged
     c_bands:  1 eigenvalues not converged
     c_bands:  1 eigenvalues not converged
     c_bands:  1 eigenvalues not converged
     c_bands:  1 eigenvalues not converged
     c_bands:  1 eigenvalues not converged
     c_bands:  1 eigenvalues not converged
     c_bands:  1 eigenvalues not converged
     c_bands:  1 eigenvalues not converged
     c_bands:  1 eigenvalues not converged
     c_bands:  1 eigenvalues not converged
     c_bands:  1 eigenvalues not converged
     c_bands:  1 eigenvalues not converged
     c_bands:  1 eigenvalues not converged
     c_bands:  1 eigenvalues not converged
     c_bands:  1 eigenvalues not converged
     c_bands:  1 eigenvalues not converged
     c_bands:  1 eigenvalues not converged
     c_bands:  1 eigenvalues not converged
     c_bands:  1 eigenvalues not converged
     c_bands:  1 eigenvalues not converged
     c_bands:  1 eigenvalues not converged
     c_bands:  1 eigenvalues not converged
     c_bands:  1 eigenvalues not converged
     c_bands:  1 eigenvalues not converged
     c_bands:  1 eigenvalues not converged
     ethr =  7.24E-07,  avg # of iterations = 10.1

     negative rho (up, down):  0.000E+00 9.533E-04

     total cpu time spent up to now is     2918.0 secs

     total energy              =   -2126.06303570 Ry
     estimated scf accuracy    <       0.00113737 Ry

     total magnetization       =    19.00 Bohr mag/cell
     absolute magnetization    =    19.05 Bohr mag/cell

     iteration # 13     ecut=   100.00 Ry     beta= 0.40
     Davidson diagonalization with overlap
     c_bands:  1 eigenvalues not converged
     c_bands:  1 eigenvalues not converged
     c_bands:  1 eigenvalues not converged
     ethr =  6.02E-07,  avg # of iterations =  1.5

     negative rho (up, down):  0.000E+00 9.462E-04

     total cpu time spent up to now is     3101.5 secs

     total energy              =   -2126.06303224 Ry
     estimated scf accuracy    <       0.00136874 Ry

     total magnetization       =    19.00 Bohr mag/cell
     absolute magnetization    =    19.05 Bohr mag/cell

     iteration # 14     ecut=   100.00 Ry     beta= 0.40
     Davidson diagonalization with overlap
     ethr =  6.02E-07,  avg # of iterations =  1.1

     negative rho (up, down):  0.000E+00 9.348E-04

     total cpu time spent up to now is     3278.2 secs

     total energy              =   -2126.06308618 Ry
     estimated scf accuracy    <       0.00006417 Ry

     total magnetization       =    19.00 Bohr mag/cell
     absolute magnetization    =    19.05 Bohr mag/cell

     iteration # 15     ecut=   100.00 Ry     beta= 0.40
     Davidson diagonalization with overlap
     ethr =  3.40E-08,  avg # of iterations =  2.1

     negative rho (up, down):  0.000E+00 9.426E-04

     total cpu time spent up to now is     3516.5 secs

     total energy              =   -2126.06312914 Ry
     estimated scf accuracy    <       0.00006492 Ry

     total magnetization       =    19.00 Bohr mag/cell
     absolute magnetization    =    19.05 Bohr mag/cell

     iteration # 16     ecut=   100.00 Ry     beta= 0.40
     Davidson diagonalization with overlap
     ethr =  3.40E-08,  avg # of iterations =  2.0

     negative rho (up, down):  0.000E+00 9.410E-04

     total cpu time spent up to now is     3728.1 secs

     total energy              =   -2126.06313917 Ry
     estimated scf accuracy    <       0.00001174 Ry

     total magnetization       =    19.00 Bohr mag/cell
     absolute magnetization    =    19.05 Bohr mag/cell

     iteration # 17     ecut=   100.00 Ry     beta= 0.40
     Davidson diagonalization with overlap
     ethr =  6.21E-09,  avg # of iterations =  3.1

     negative rho (up, down):  0.000E+00 9.415E-04

     total cpu time spent up to now is     3981.9 secs

     total energy              =   -2126.06315350 Ry
     estimated scf accuracy    <       0.00001682 Ry

     total magnetization       =    19.00 Bohr mag/cell
     absolute magnetization    =    19.05 Bohr mag/cell

     iteration # 18     ecut=   100.00 Ry     beta= 0.40
     Davidson diagonalization with overlap
     ethr =  6.21E-09,  avg # of iterations =  1.1

     negative rho (up, down):  0.000E+00 9.424E-04

     total cpu time spent up to now is     4159.4 secs

     total energy              =   -2126.06315556 Ry
     estimated scf accuracy    <       0.00000084 Ry

     total magnetization       =    19.00 Bohr mag/cell
     absolute magnetization    =    19.05 Bohr mag/cell

     iteration # 19     ecut=   100.00 Ry     beta= 0.40
     Davidson diagonalization with overlap
     c_bands:  1 eigenvalues not converged
     ethr =  4.43E-10,  avg # of iterations =  5.0

     negative rho (up, down):  0.000E+00 9.425E-04

     total cpu time spent up to now is     4485.3 secs

     total energy              =   -2126.06315626 Ry
     estimated scf accuracy    <       0.00000086 Ry

     total magnetization       =    19.00 Bohr mag/cell
     absolute magnetization    =    19.05 Bohr mag/cell

     iteration # 20     ecut=   100.00 Ry     beta= 0.40
     Davidson diagonalization with overlap
     ethr =  4.43E-10,  avg # of iterations =  2.0

     negative rho (up, down):  0.000E+00 9.427E-04

     total cpu time spent up to now is     4689.0 secs

     total energy              =   -2126.06315645 Ry
     estimated scf accuracy    <       0.00000016 Ry

     total magnetization       =    19.00 Bohr mag/cell
     absolute magnetization    =    19.05 Bohr mag/cell

     iteration # 21     ecut=   100.00 Ry     beta= 0.40
     Davidson diagonalization with overlap
     ethr =  8.46E-11,  avg # of iterations =  2.6

     negative rho (up, down):  0.000E+00 9.427E-04

     total cpu time spent up to now is     4931.2 secs

     total energy              =   -2126.06315666 Ry
     estimated scf accuracy    <       0.00000009 Ry

     total magnetization       =    19.00 Bohr mag/cell
     absolute magnetization    =    19.05 Bohr mag/cell

     iteration # 22     ecut=   100.00 Ry     beta= 0.40
     Davidson diagonalization with overlap
     ethr =  4.50E-11,  avg # of iterations =  2.0

     negative rho (up, down):  0.000E+00 9.427E-04

     total cpu time spent up to now is     5138.6 secs

     total energy              =   -2126.06315670 Ry
     estimated scf accuracy    <       0.00000016 Ry

     total magnetization       =    19.00 Bohr mag/cell
     absolute magnetization    =    19.05 Bohr mag/cell

     iteration # 23     ecut=   100.00 Ry     beta= 0.40
     Davidson diagonalization with overlap
     ethr =  4.50E-11,  avg # of iterations =  1.0

     negative rho (up, down):  0.000E+00 9.426E-04

     total cpu time spent up to now is     5315.0 secs

     total energy              =   -2126.06315672 Ry
     estimated scf accuracy    <       0.00000001 Ry

     total magnetization       =    19.00 Bohr mag/cell
     absolute magnetization    =    19.05 Bohr mag/cell

     iteration # 24     ecut=   100.00 Ry     beta= 0.40
     Davidson diagonalization with overlap
     ethr =  5.52E-12,  avg # of iterations =  3.8

     negative rho (up, down):  0.000E+00 9.426E-04

     total cpu time spent up to now is     5575.3 secs

     total energy              =   -2126.06315673 Ry
     estimated scf accuracy    <       0.00000001 Ry

     total magnetization       =    19.00 Bohr mag/cell
     absolute magnetization    =    19.05 Bohr mag/cell

     iteration # 25     ecut=   100.00 Ry     beta= 0.40
     Davidson diagonalization with overlap
     ethr =  5.52E-12,  avg # of iterations =  2.0

     negative rho (up, down):  0.000E+00 9.425E-04

     total cpu time spent up to now is     5780.2 secs

     total energy              =   -2126.06315673 Ry
     estimated scf accuracy    <          3.3E-09 Ry

     total magnetization       =    19.00 Bohr mag/cell
     absolute magnetization    =    19.05 Bohr mag/cell

     iteration # 26     ecut=   100.00 Ry     beta= 0.40
     Davidson diagonalization with overlap
     ethr =  1.73E-12,  avg # of iterations =  2.7

     negative rho (up, down):  0.000E+00 9.425E-04

     total cpu time spent up to now is     6013.4 secs

     total energy              =   -2126.06315673 Ry
     estimated scf accuracy    <          1.7E-09 Ry

     total magnetization       =    19.00 Bohr mag/cell
     absolute magnetization    =    19.05 Bohr mag/cell

     iteration # 27     ecut=   100.00 Ry     beta= 0.40
     Davidson diagonalization with overlap
     ethr =  8.74E-13,  avg # of iterations =  2.3

     negative rho (up, down):  0.000E+00 9.425E-04

     total cpu time spent up to now is     6229.7 secs

     total energy              =   -2126.06315673 Ry
     estimated scf accuracy    <          7.9E-10 Ry

     total magnetization       =    19.00 Bohr mag/cell
     absolute magnetization    =    19.05 Bohr mag/cell

     iteration # 28     ecut=   100.00 Ry     beta= 0.40
     Davidson diagonalization with overlap
     ethr =  4.18E-13,  avg # of iterations =  2.3

     negative rho (up, down):  0.000E+00 9.425E-04

     total cpu time spent up to now is     6448.1 secs

     total energy              =   -2126.06315673 Ry
     estimated scf accuracy    <          2.3E-10 Ry

     total magnetization       =    19.00 Bohr mag/cell
     absolute magnetization    =    19.05 Bohr mag/cell

     iteration # 29     ecut=   100.00 Ry     beta= 0.40
     Davidson diagonalization with overlap
     ethr =  1.21E-13,  avg # of iterations =  3.3

     negative rho (up, down):  0.000E+00 9.425E-04

     total cpu time spent up to now is     6695.2 secs

     total energy              =   -2126.06315673 Ry
     estimated scf accuracy    <          4.2E-10 Ry

     total magnetization       =    19.00 Bohr mag/cell
     absolute magnetization    =    19.05 Bohr mag/cell

     iteration # 30     ecut=   100.00 Ry     beta= 0.40
     Davidson diagonalization with overlap
     ethr =  1.21E-13,  avg # of iterations =  2.0

     negative rho (up, down):  0.000E+00 9.425E-04

     Magnetic moment per site:
     atom:    1    charge:    7.9873    magn:    0.0008    constr:    0.0000
     atom:    2    charge:   13.0111    magn:    3.6814    constr:    0.0000
     atom:    3    charge:   13.0059    magn:    3.7030    constr:    0.0000
     atom:    4    charge:   13.0111    magn:    3.6814    constr:    0.0000
     atom:    5    charge:   13.0059    magn:    3.7030    constr:    0.0000
     atom:    6    charge:    0.8334    magn:    0.0075    constr:    0.0000
     atom:    7    charge:    0.8311    magn:    0.0097    constr:    0.0000
     atom:    8    charge:    0.8334    magn:    0.0075    constr:    0.0000
     atom:    9    charge:    0.8311    magn:    0.0097    constr:    0.0000
     atom:   10    charge:    4.2697    magn:    0.0805    constr:    0.0000
     atom:   11    charge:    4.2658    magn:    0.1323    constr:    0.0000
     atom:   12    charge:    4.2697    magn:    0.0805    constr:    0.0000
     atom:   13    charge:    4.2658    magn:    0.1323    constr:    0.0000
     atom:   14    charge:    4.2105    magn:    0.1479    constr:    0.0000
     atom:   15    charge:    4.2128    magn:    0.0966    constr:    0.0000
     atom:   16    charge:    4.2105    magn:    0.1479    constr:    0.0000
     atom:   17    charge:    4.2129    magn:    0.0966    constr:    0.0000
     atom:   18    charge:    4.2380    magn:    0.1194    constr:    0.0000
     atom:   19    charge:    4.2353    magn:    0.1452    constr:    0.0000
     atom:   20    charge:    4.2410    magn:    0.1330    constr:    0.0000
     atom:   21    charge:    4.2383    magn:    0.1531    constr:    0.0000
     atom:   22    charge:    4.2380    magn:    0.1194    constr:    0.0000
     atom:   23    charge:    4.2353    magn:    0.1452    constr:    0.0000
     atom:   24    charge:    4.2410    magn:    0.1330    constr:    0.0000
     atom:   25    charge:    4.2383    magn:    0.1531    constr:    0.0000

     total cpu time spent up to now is     6911.0 secs

     End of self-consistent calculation

 ------ SPIN UP ------------


          k = 0.0000 0.0000 0.0000 ( 38253 PWs)   bands (ev):

   -85.9376 -85.9359 -85.8035 -85.8031 -52.0562 -52.0545 -51.9632 -51.9628
   -51.9111 -51.9095 -51.8023 -51.8006 -51.7676 -51.7673 -51.6469 -51.6466
   -45.1551 -17.1842 -17.1336 -17.1031 -16.4237 -16.2475 -16.1970 -16.0608
   -14.1116 -14.0917 -14.0139 -13.9962 -13.9185 -13.8964 -13.7577 -13.7400
   -13.5872 -13.5285 -13.5183 -13.4965  -4.5096  -4.1130  -3.9744  -3.6779
    -2.5104  -2.3183  -2.1460  -2.1287  -1.8756  -1.6769  -1.6433  -1.6158
    -1.5289  -1.2696  -1.1459  -0.8685  -0.8146  -0.7729  -0.3260  -0.2887
    -0.0679  -0.0554   0.0574   0.2237   0.3169   0.3400   0.4339   0.6352
     0.6598   0.7486   0.7918   0.8414   1.1083   1.1715   1.2375   1.2426
     1.3793   1.3967   1.5405   1.6042   1.7199   1.8045   1.8585   1.9612
     2.1342   2.1518   2.1950   2.3052   2.3742   2.3831   2.4226   2.5419
     2.6546   2.7229   2.7751   2.8384   2.8994   3.1114   3.1841   3.3462
     3.3561   3.3999   3.4993   3.5483   3.5930   3.7503   4.0814   4.1756
     8.0284  10.0869  10.5454  10.7685  11.1847  11.7043  12.0648  12.2123
    12.5348  12.6189

     occupation numbers 
     1.0000   1.0000   1.0000   1.0000   1.0000   1.0000   1.0000   1.0000
     1.0000   1.0000   1.0000   1.0000   1.0000   1.0000   1.0000   1.0000
     1.0000   1.0000   1.0000   1.0000   1.0000   1.0000   1.0000   1.0000
     1.0000   1.0000   1.0000   1.0000   1.0000   1.0000   1.0000   1.0000
     1.0000   1.0000   1.0000   1.0000   1.0000   1.0000   1.0000   1.0000
     1.0000   1.0000   1.0000   1.0000   1.0000   1.0000   1.0000   1.0000
     1.0000   1.0000   1.0000   1.0000   1.0000   1.0000   1.0000   1.0000
     1.0000   1.0000   1.0000   1.0000   1.0000   1.0000   1.0000   1.0000
     1.0000   1.0000   1.0000   1.0000   1.0000   1.0000   1.0000   1.0000
     1.0000   1.0000   1.0000   1.0000   1.0000   1.0000   1.0000   1.0000
     1.0000   1.0000   1.0000   1.0000   1.0000   1.0000   1.0000   1.0000
     1.0000   1.0000   1.0000   1.0000   1.0000   1.0000   1.0000   1.0000
     1.0000   1.0000   1.0000   1.0000   1.0000   1.0000   1.0000   1.0000
     0.0000   0.0000   0.0000   0.0000   0.0000   0.0000   0.0000   0.0000
     0.0000   0.0000

          k = 0.0000 0.0000 0.2454 ( 38275 PWs)   bands (ev):

   -85.9376 -85.9359 -85.8035 -85.8031 -52.0562 -52.0545 -51.9632 -51.9628
   -51.9111 -51.9095 -51.8023 -51.8006 -51.7676 -51.7673 -51.6469 -51.6466
   -45.1551 -17.1834 -17.1333 -17.1055 -16.4059 -16.2380 -16.1918 -16.0613
   -14.1254 -14.1035 -14.0305 -14.0083 -13.9159 -13.8937 -13.7616 -13.7451
   -13.5847 -13.5264 -13.5167 -13.4993  -4.4894  -4.1094  -3.9727  -3.6878
    -2.4622  -2.3125  -2.1093  -2.1015  -1.8713  -1.6822  -1.6800  -1.5870
    -1.4710  -1.2405  -1.1892  -0.8864  -0.8234  -0.7525  -0.3112  -0.2673
    -0.0737  -0.0231   0.0452   0.2243   0.3015   0.3415   0.4103   0.6274
     0.6578   0.7423   0.7785   0.8385   1.0647   1.1367   1.2030   1.2377
     1.3561   1.4610   1.4778   1.5855   1.7071   1.7935   1.8520   2.0165
     2.1023   2.1666   2.1983   2.2350   2.3443   2.4205   2.4701   2.4912
     2.6414   2.7293   2.7894   2.8031   2.8940   3.1573   3.1865   3.3435
     3.3681   3.4301   3.5087   3.5474   3.5970   3.7572   4.0568   4.1532
     8.1735  10.1658  10.5642  10.7825  11.2354  11.6541  12.0726  12.1764
    12.4390  12.6128

     occupation numbers 
     1.0000   1.0000   1.0000   1.0000   1.0000   1.0000   1.0000   1.0000
     1.0000   1.0000   1.0000   1.0000   1.0000   1.0000   1.0000   1.0000
     1.0000   1.0000   1.0000   1.0000   1.0000   1.0000   1.0000   1.0000
     1.0000   1.0000   1.0000   1.0000   1.0000   1.0000   1.0000   1.0000
     1.0000   1.0000   1.0000   1.0000   1.0000   1.0000   1.0000   1.0000
     1.0000   1.0000   1.0000   1.0000   1.0000   1.0000   1.0000   1.0000
     1.0000   1.0000   1.0000   1.0000   1.0000   1.0000   1.0000   1.0000
     1.0000   1.0000   1.0000   1.0000   1.0000   1.0000   1.0000   1.0000
     1.0000   1.0000   1.0000   1.0000   1.0000   1.0000   1.0000   1.0000
     1.0000   1.0000   1.0000   1.0000   1.0000   1.0000   1.0000   1.0000
     1.0000   1.0000   1.0000   1.0000   1.0000   1.0000   1.0000   1.0000
     1.0000   1.0000   1.0000   1.0000   1.0000   1.0000   1.0000   1.0000
     1.0000   1.0000   1.0000   1.0000   1.0000   1.0000   1.0000   1.0000
     0.0000   0.0000   0.0000   0.0000   0.0000   0.0000   0.0000   0.0000
     0.0000   0.0000

          k = 0.0000 0.0000 0.4908 ( 38314 PWs)   bands (ev):

   -85.9376 -85.9359 -85.8035 -85.8031 -52.0562 -52.0545 -51.9632 -51.9628
   -51.9111 -51.9095 -51.8023 -51.8006 -51.7676 -51.7673 -51.6469 -51.6466
   -45.1550 -17.1833 -17.1319 -17.1096 -16.3580 -16.2122 -16.1803 -16.0645
   -14.1595 -14.1323 -14.0728 -14.0461 -13.9042 -13.8840 -13.7728 -13.7596
   -13.5778 -13.5241 -13.5126 -13.5046  -4.4296  -4.0941  -3.9790  -3.7273
    -2.3344  -2.2782  -2.0611  -2.0068  -1.8535  -1.7103  -1.6811  -1.5647
    -1.3317  -1.2849  -1.1573  -1.0005  -0.7628  -0.6990  -0.2649  -0.2193
    -0.0476  -0.0006   0.0248   0.2333   0.2518   0.3252   0.3614   0.6127
     0.6582   0.7120   0.7634   0.8170   0.9701   1.0549   1.1369   1.2206
     1.2414   1.3548   1.5301   1.6106   1.6516   1.7525   1.8997   1.9964
     2.1002   2.1161   2.1488   2.2300   2.2534   2.3517   2.4504   2.5239
     2.6021   2.7942   2.7997   2.8910   2.9141   3.1774   3.2116   3.3605
     3.4076   3.5004   3.5285   3.5421   3.6199   3.7712   3.9816   4.0861
     8.5586  10.3821  10.5796  10.8329  11.3757  11.5846  11.9298  12.1258
    12.2840  12.4750

     occupation numbers 
     1.0000   1.0000   1.0000   1.0000   1.0000   1.0000   1.0000   1.0000
     1.0000   1.0000   1.0000   1.0000   1.0000   1.0000   1.0000   1.0000
     1.0000   1.0000   1.0000   1.0000   1.0000   1.0000   1.0000   1.0000
     1.0000   1.0000   1.0000   1.0000   1.0000   1.0000   1.0000   1.0000
     1.0000   1.0000   1.0000   1.0000   1.0000   1.0000   1.0000   1.0000
     1.0000   1.0000   1.0000   1.0000   1.0000   1.0000   1.0000   1.0000
     1.0000   1.0000   1.0000   1.0000   1.0000   1.0000   1.0000   1.0000
     1.0000   1.0000   1.0000   1.0000   1.0000   1.0000   1.0000   1.0000
     1.0000   1.0000   1.0000   1.0000   1.0000   1.0000   1.0000   1.0000
     1.0000   1.0000   1.0000   1.0000   1.0000   1.0000   1.0000   1.0000
     1.0000   1.0000   1.0000   1.0000   1.0000   1.0000   1.0000   1.0000
     1.0000   1.0000   1.0000   1.0000   1.0000   1.0000   1.0000   1.0000
     1.0000   1.0000   1.0000   1.0000   1.0000   1.0000   1.0000   1.0000
     0.0000   0.0000   0.0000   0.0000   0.0000   0.0000   0.0000   0.0000
     0.0000   0.0000

          k = 0.0000 0.0000 0.7363 ( 38338 PWs)   bands (ev):

   -85.9376 -85.9359 -85.8035 -85.8031 -52.0562 -52.0545 -51.9632 -51.9628
   -51.9111 -51.9095 -51.8023 -51.8006 -51.7676 -51.7673 -51.6469 -51.6466
   -45.1550 -17.1862 -17.1296 -17.1107 -16.2949 -16.1838 -16.1669 -16.0746
   -14.1957 -14.1623 -14.1228 -14.0978 -13.8830 -13.8678 -13.7901 -13.7806
   -13.5676 -13.5279 -13.5152 -13.4999  -4.3348  -4.0639  -4.0107  -3.8039
    -2.2576  -2.1341  -2.0302  -1.8979  -1.8117  -1.7223  -1.6701  -1.5314
    -1.4442  -1.1587  -1.0947  -1.0340  -0.6454  -0.6134  -0.1948  -0.1595
    -0.0865  -0.0261   0.0631   0.1698   0.2085   0.2741   0.3970   0.5833
     0.6081   0.6710   0.7449   0.7948   0.8619   0.9083   1.0054   1.1059
     1.2536   1.3062   1.4856   1.5541   1.7327   1.7724   1.8727   1.9842
     1.9922   2.0512   2.1364   2.1477   2.2225   2.2358   2.3760   2.4494
     2.6739   2.8574   2.8872   3.0366   3.0964   3.1803   3.2023   3.3792
     3.4739   3.5292   3.5505   3.5772   3.6680   3.7772   3.8551   3.9776
     9.0799  10.4719  10.6890  10.9439  11.4248  11.6195  11.7646  11.9854
    12.1856  12.2771

     occupation numbers 
     1.0000   1.0000   1.0000   1.0000   1.0000   1.0000   1.0000   1.0000
     1.0000   1.0000   1.0000   1.0000   1.0000   1.0000   1.0000   1.0000
     1.0000   1.0000   1.0000   1.0000   1.0000   1.0000   1.0000   1.0000
     1.0000   1.0000   1.0000   1.0000   1.0000   1.0000   1.0000   1.0000
     1.0000   1.0000   1.0000   1.0000   1.0000   1.0000   1.0000   1.0000
     1.0000   1.0000   1.0000   1.0000   1.0000   1.0000   1.0000   1.0000
     1.0000   1.0000   1.0000   1.0000   1.0000   1.0000   1.0000   1.0000
     1.0000   1.0000   1.0000   1.0000   1.0000   1.0000   1.0000   1.0000
     1.0000   1.0000   1.0000   1.0000   1.0000   1.0000   1.0000   1.0000
     1.0000   1.0000   1.0000   1.0000   1.0000   1.0000   1.0000   1.0000
     1.0000   1.0000   1.0000   1.0000   1.0000   1.0000   1.0000   1.0000
     1.0000   1.0000   1.0000   1.0000   1.0000   1.0000   1.0000   1.0000
     1.0000   1.0000   1.0000   1.0000   1.0000   1.0000   1.0000   1.0000
     0.0000   0.0000   0.0000   0.0000   0.0000   0.0000   0.0000   0.0000
     0.0000   0.0000

          k = 0.0000 0.0000 0.9817 ( 38334 PWs)   bands (ev):

   -85.9376 -85.9359 -85.8035 -85.8031 -52.0562 -52.0545 -51.9632 -51.9628
   -51.9111 -51.9095 -51.8023 -51.8006 -51.7676 -51.7673 -51.6469 -51.6466
   -45.1550 -17.1896 -17.1283 -17.1093 -16.2366 -16.1909 -16.1367 -16.0930
   -14.2163 -14.1797 -14.1540 -14.1401 -13.8599 -13.8511 -13.8099 -13.8002
   -13.5563 -13.5385 -13.5159 -13.4949  -4.2184  -4.1065  -3.9896  -3.8962
    -2.1995  -2.1135  -1.9121  -1.8428  -1.7475  -1.7159  -1.6676  -1.6058
    -1.4265  -1.3081  -0.9442  -0.9136  -0.4769  -0.4539  -0.2480  -0.2016
    -0.1145  -0.0799   0.0599   0.1026   0.2267   0.3258   0.4189   0.4689
     0.5580   0.5985   0.6821   0.7763   0.8205   0.8585   0.8791   1.0896
     1.2815   1.3587   1.4112   1.4549   1.7699   1.8164   1.8871   1.9021
     1.9460   2.0186   2.0592   2.1506   2.1584   2.1787   2.3169   2.4396
     2.7062   2.8689   2.9580   3.1320   3.1651   3.2493   3.3617   3.3986
     3.4517   3.5505   3.5698   3.6253   3.6844   3.7383   3.7741   3.8499
     9.6365  10.1420  11.0255  11.1289  11.2922  11.4066  11.8626  11.8976
    12.1599  12.2168

     occupation numbers 
     1.0000   1.0000   1.0000   1.0000   1.0000   1.0000   1.0000   1.0000
     1.0000   1.0000   1.0000   1.0000   1.0000   1.0000   1.0000   1.0000
     1.0000   1.0000   1.0000   1.0000   1.0000   1.0000   1.0000   1.0000
     1.0000   1.0000   1.0000   1.0000   1.0000   1.0000   1.0000   1.0000
     1.0000   1.0000   1.0000   1.0000   1.0000   1.0000   1.0000   1.0000
     1.0000   1.0000   1.0000   1.0000   1.0000   1.0000   1.0000   1.0000
     1.0000   1.0000   1.0000   1.0000   1.0000   1.0000   1.0000   1.0000
     1.0000   1.0000   1.0000   1.0000   1.0000   1.0000   1.0000   1.0000
     1.0000   1.0000   1.0000   1.0000   1.0000   1.0000   1.0000   1.0000
     1.0000   1.0000   1.0000   1.0000   1.0000   1.0000   1.0000   1.0000
     1.0000   1.0000   1.0000   1.0000   1.0000   1.0000   1.0000   1.0000
     1.0000   1.0000   1.0000   1.0000   1.0000   1.0000   1.0000   1.0000
     1.0000   1.0000   1.0000   1.0000   1.0000   1.0000   1.0000   1.0000
     0.0000   0.0000   0.0000   0.0000   0.0000   0.0000   0.0000   0.0000
     0.0000   0.0000

          k = 0.0000 0.2510 0.0000 ( 38299 PWs)   bands (ev):

   -85.9376 -85.9359 -85.8035 -85.8031 -52.0562 -52.0545 -51.9632 -51.9628
   -51.9111 -51.9095 -51.8023 -51.8006 -51.7676 -51.7673 -51.6469 -51.6466
   -45.1551 -17.1846 -17.1338 -17.1031 -16.4063 -16.2435 -16.1960 -16.0781
   -14.1088 -14.0865 -14.0174 -13.9994 -13.9174 -13.9035 -13.7938 -13.7495
   -13.5618 -13.5187 -13.5153 -13.4963  -4.4809  -4.0865  -3.9970  -3.6887
    -2.4783  -2.3000  -2.1513  -2.1324  -1.8611  -1.6660  -1.6337  -1.5864
    -1.5073  -1.2769  -1.1337  -0.8763  -0.8281  -0.7507  -0.2767  -0.2345
    -0.1049  -0.0794   0.0346   0.0876   0.2433   0.4111   0.5254   0.6532
     0.6917   0.7399   0.7948   0.8296   0.9423   0.9535   1.1984   1.2632
     1.3745   1.5624   1.5805   1.7088   1.7318   1.7429   1.8371   1.9078
     2.1059   2.1226   2.1899   2.2126   2.3661   2.4069   2.5019   2.6415
     2.6531   2.6941   2.7183   2.8901   2.9087   3.1131   3.1697   3.3146
     3.3367   3.3823   3.4944   3.5389   3.5737   3.7970   4.0815   4.1490
     8.1893  10.1805  10.6239  10.6788  11.2662  11.6688  12.1292  12.2955
    12.4599  12.6114

     occupation numbers 
     1.0000   1.0000   1.0000   1.0000   1.0000   1.0000   1.0000   1.0000
     1.0000   1.0000   1.0000   1.0000   1.0000   1.0000   1.0000   1.0000
     1.0000   1.0000   1.0000   1.0000   1.0000   1.0000   1.0000   1.0000
     1.0000   1.0000   1.0000   1.0000   1.0000   1.0000   1.0000   1.0000
     1.0000   1.0000   1.0000   1.0000   1.0000   1.0000   1.0000   1.0000
     1.0000   1.0000   1.0000   1.0000   1.0000   1.0000   1.0000   1.0000
     1.0000   1.0000   1.0000   1.0000   1.0000   1.0000   1.0000   1.0000
     1.0000   1.0000   1.0000   1.0000   1.0000   1.0000   1.0000   1.0000
     1.0000   1.0000   1.0000   1.0000   1.0000   1.0000   1.0000   1.0000
     1.0000   1.0000   1.0000   1.0000   1.0000   1.0000   1.0000   1.0000
     1.0000   1.0000   1.0000   1.0000   1.0000   1.0000   1.0000   1.0000
     1.0000   1.0000   1.0000   1.0000   1.0000   1.0000   1.0000   1.0000
     1.0000   1.0000   1.0000   1.0000   1.0000   1.0000   1.0000   1.0000
     0.0000   0.0000   0.0000   0.0000   0.0000   0.0000   0.0000   0.0000
     0.0000   0.0000

          k = 0.0000 0.2510 0.2454 ( 38259 PWs)   bands (ev):

   -85.9376 -85.9359 -85.8035 -85.8031 -52.0562 -52.0545 -51.9632 -51.9628
   -51.9111 -51.9095 -51.8023 -51.8006 -51.7676 -51.7673 -51.6469 -51.6466
   -45.1551 -17.1831 -17.1335 -17.1055 -16.3913 -16.2317 -16.1933 -16.0758
   -14.1235 -14.0980 -14.0369 -14.0140 -13.9125 -13.9006 -13.7920 -13.7529
   -13.5630 -13.5181 -13.5146 -13.4974  -4.4612  -4.0833  -3.9929  -3.6986
    -2.4310  -2.2907  -2.1146  -2.1084  -1.8576  -1.6926  -1.6454  -1.5468
    -1.4583  -1.2454  -1.1767  -0.9307  -0.8027  -0.7324  -0.2626  -0.2255
    -0.1193  -0.0522   0.0149   0.1146   0.2266   0.3953   0.4846   0.6477
     0.6860   0.7357   0.7653   0.8413   0.9253   0.9562   1.1596   1.2563
     1.4654   1.4993   1.5632   1.6611   1.7135   1.7631   1.8202   1.9594
     2.1118   2.1141   2.1741   2.1923   2.3330   2.3937   2.4638   2.6043
     2.6401   2.7196   2.7446   2.8685   2.8849   3.1585   3.1808   3.3029
     3.3456   3.4198   3.4998   3.5497   3.5770   3.8059   4.0628   4.1355
     8.3274  10.2612  10.6052  10.7460  11.2971  11.6362  12.1299  12.2190
    12.4343  12.5923

     occupation numbers 
     1.0000   1.0000   1.0000   1.0000   1.0000   1.0000   1.0000   1.0000
     1.0000   1.0000   1.0000   1.0000   1.0000   1.0000   1.0000   1.0000
     1.0000   1.0000   1.0000   1.0000   1.0000   1.0000   1.0000   1.0000
     1.0000   1.0000   1.0000   1.0000   1.0000   1.0000   1.0000   1.0000
     1.0000   1.0000   1.0000   1.0000   1.0000   1.0000   1.0000   1.0000
     1.0000   1.0000   1.0000   1.0000   1.0000   1.0000   1.0000   1.0000
     1.0000   1.0000   1.0000   1.0000   1.0000   1.0000   1.0000   1.0000
     1.0000   1.0000   1.0000   1.0000   1.0000   1.0000   1.0000   1.0000
     1.0000   1.0000   1.0000   1.0000   1.0000   1.0000   1.0000   1.0000
     1.0000   1.0000   1.0000   1.0000   1.0000   1.0000   1.0000   1.0000
     1.0000   1.0000   1.0000   1.0000   1.0000   1.0000   1.0000   1.0000
     1.0000   1.0000   1.0000   1.0000   1.0000   1.0000   1.0000   1.0000
     1.0000   1.0000   1.0000   1.0000   1.0000   1.0000   1.0000   1.0000
     0.0000   0.0000   0.0000   0.0000   0.0000   0.0000   0.0000   0.0000
     0.0000   0.0000

          k = 0.0000 0.2510 0.4908 ( 38306 PWs)   bands (ev):

   -85.9376 -85.9359 -85.8035 -85.8031 -52.0562 -52.0545 -51.9632 -51.9628
   -51.9111 -51.9095 -51.8023 -51.8006 -51.7676 -51.7673 -51.6469 -51.6466
   -45.1550 -17.1823 -17.1320 -17.1096 -16.3468 -16.2047 -16.1831 -16.0749
   -14.1604 -14.1285 -14.0808 -14.0541 -13.8995 -13.8900 -13.7945 -13.7647
   -13.5617 -13.5183 -13.5122 -13.4991  -4.4028  -4.0708  -3.9922  -3.7360
    -2.3092  -2.2504  -2.0705  -2.0121  -1.8409  -1.7192  -1.6464  -1.5179
    -1.3180  -1.2777  -1.1581  -1.0345  -0.7575  -0.6879  -0.2241  -0.1930
    -0.1453  -0.0501   0.0092   0.1671   0.2259   0.3633   0.4053   0.6310
     0.6738   0.7001   0.7595   0.8224   0.8932   0.9595   1.0882   1.2495
     1.2942   1.4476   1.5799   1.6223   1.6577   1.7357   1.8980   1.9917
     2.0014   2.1107   2.1525   2.1919   2.2592   2.3237   2.4349   2.5118
     2.6301   2.7592   2.7908   2.8851   2.9411   3.1812   3.1943   3.3602
     3.3644   3.4633   3.5114   3.5622   3.6195   3.8143   4.0150   4.0858
     8.6973  10.4763  10.6189  10.8375  11.4149  11.5872  11.9943  12.1519
    12.2887  12.4929

     occupation numbers 
     1.0000   1.0000   1.0000   1.0000   1.0000   1.0000   1.0000   1.0000
     1.0000   1.0000   1.0000   1.0000   1.0000   1.0000   1.0000   1.0000
     1.0000   1.0000   1.0000   1.0000   1.0000   1.0000   1.0000   1.0000
     1.0000   1.0000   1.0000   1.0000   1.0000   1.0000   1.0000   1.0000
     1.0000   1.0000   1.0000   1.0000   1.0000   1.0000   1.0000   1.0000
     1.0000   1.0000   1.0000   1.0000   1.0000   1.0000   1.0000   1.0000
     1.0000   1.0000   1.0000   1.0000   1.0000   1.0000   1.0000   1.0000
     1.0000   1.0000   1.0000   1.0000   1.0000   1.0000   1.0000   1.0000
     1.0000   1.0000   1.0000   1.0000   1.0000   1.0000   1.0000   1.0000
     1.0000   1.0000   1.0000   1.0000   1.0000   1.0000   1.0000   1.0000
     1.0000   1.0000   1.0000   1.0000   1.0000   1.0000   1.0000   1.0000
     1.0000   1.0000   1.0000   1.0000   1.0000   1.0000   1.0000   1.0000
     1.0000   1.0000   1.0000   1.0000   1.0000   1.0000   1.0000   1.0000
     0.0000   0.0000   0.0000   0.0000   0.0000   0.0000   0.0000   0.0000
     0.0000   0.0000

          k = 0.0000 0.2510 0.7363 ( 38323 PWs)   bands (ev):

   -85.9376 -85.9359 -85.8035 -85.8031 -52.0562 -52.0545 -51.9632 -51.9628
   -51.9111 -51.9095 -51.8023 -51.8006 -51.7676 -51.7673 -51.6469 -51.6466
   -45.1550 -17.1851 -17.1296 -17.1107 -16.2869 -16.1829 -16.1628 -16.0806
   -14.1995 -14.1620 -14.1296 -14.1071 -13.8806 -13.8720 -13.8036 -13.7832
   -13.5573 -13.5231 -13.5130 -13.4946  -4.3108  -4.0520  -4.0072  -3.8077
    -2.2324  -2.1176  -2.0307  -1.9023  -1.8019  -1.7303  -1.6360  -1.4948
    -1.4165  -1.1735  -1.0953  -1.0356  -0.6702  -0.6185  -0.2331  -0.1777
    -0.1517  -0.0914   0.0852   0.1940   0.2497   0.3027   0.3929   0.5728
     0.6343   0.7040   0.7409   0.7810   0.8485   0.9270   0.9760   1.0619
     1.2371   1.3458   1.5331   1.5516   1.7303   1.7636   1.8560   1.9060
     2.0019   2.0566   2.1280   2.1722   2.1929   2.2459   2.3767   2.4319
     2.6562   2.7946   2.8584   3.0081   3.0929   3.1618   3.2021   3.3824
     3.4138   3.4844   3.5452   3.5805   3.6910   3.8136   3.9417   4.0054
     9.2031  10.5443  10.7756  10.9616  11.4591  11.6591  11.8231  12.0364
    12.1679  12.2216

     occupation numbers 
     1.0000   1.0000   1.0000   1.0000   1.0000   1.0000   1.0000   1.0000
     1.0000   1.0000   1.0000   1.0000   1.0000   1.0000   1.0000   1.0000
     1.0000   1.0000   1.0000   1.0000   1.0000   1.0000   1.0000   1.0000
     1.0000   1.0000   1.0000   1.0000   1.0000   1.0000   1.0000   1.0000
     1.0000   1.0000   1.0000   1.0000   1.0000   1.0000   1.0000   1.0000
     1.0000   1.0000   1.0000   1.0000   1.0000   1.0000   1.0000   1.0000
     1.0000   1.0000   1.0000   1.0000   1.0000   1.0000   1.0000   1.0000
     1.0000   1.0000   1.0000   1.0000   1.0000   1.0000   1.0000   1.0000
     1.0000   1.0000   1.0000   1.0000   1.0000   1.0000   1.0000   1.0000
     1.0000   1.0000   1.0000   1.0000   1.0000   1.0000   1.0000   1.0000
     1.0000   1.0000   1.0000   1.0000   1.0000   1.0000   1.0000   1.0000
     1.0000   1.0000   1.0000   1.0000   1.0000   1.0000   1.0000   1.0000
     1.0000   1.0000   1.0000   1.0000   1.0000   1.0000   1.0000   1.0000
     0.0000   0.0000   0.0000   0.0000   0.0000   0.0000   0.0000   0.0000
     0.0000   0.0000

          k = 0.0000 0.2510 0.9817 ( 38330 PWs)   bands (ev):

   -85.9376 -85.9359 -85.8035 -85.8031 -52.0562 -52.0545 -51.9632 -51.9628
   -51.9111 -51.9095 -51.8023 -51.8006 -51.7676 -51.7673 -51.6469 -51.6466
   -45.1550 -17.1888 -17.1283 -17.1093 -16.2296 -16.1899 -16.1326 -16.0967
   -14.2210 -14.1863 -14.1565 -14.1491 -13.8642 -13.8516 -13.8163 -13.8030
   -13.5505 -13.5313 -13.5129 -13.4902  -4.1996  -4.0994  -3.9773  -3.8928
    -2.1769  -2.1066  -1.9015  -1.8426  -1.7510  -1.7320  -1.6218  -1.5769
    -1.3916  -1.3127  -0.9437  -0.9192  -0.5405  -0.4957  -0.3685  -0.3182
    -0.0577  -0.0255   0.1103   0.1674   0.2447   0.3533   0.4409   0.4841
     0.5849   0.6218   0.7161   0.7599   0.7850   0.8425   0.8746   1.0151
     1.2462   1.3477   1.4462   1.4689   1.7459   1.7951   1.8252   1.8664
     1.9727   2.0140   2.0817   2.1320   2.1953   2.2248   2.3124   2.4201
     2.6676   2.7987   2.9328   3.1134   3.1832   3.1909   3.2713   3.3743
     3.4054   3.4689   3.5966   3.6213   3.7396   3.8108   3.8509   3.9324
     9.7474  10.2371  11.0737  11.1967  11.3317  11.4941  11.9180  11.9436
    12.0597  12.1512

     occupation numbers 
     1.0000   1.0000   1.0000   1.0000   1.0000   1.0000   1.0000   1.0000
     1.0000   1.0000   1.0000   1.0000   1.0000   1.0000   1.0000   1.0000
     1.0000   1.0000   1.0000   1.0000   1.0000   1.0000   1.0000   1.0000
     1.0000   1.0000   1.0000   1.0000   1.0000   1.0000   1.0000   1.0000
     1.0000   1.0000   1.0000   1.0000   1.0000   1.0000   1.0000   1.0000
     1.0000   1.0000   1.0000   1.0000   1.0000   1.0000   1.0000   1.0000
     1.0000   1.0000   1.0000   1.0000   1.0000   1.0000   1.0000   1.0000
     1.0000   1.0000   1.0000   1.0000   1.0000   1.0000   1.0000   1.0000
     1.0000   1.0000   1.0000   1.0000   1.0000   1.0000   1.0000   1.0000
     1.0000   1.0000   1.0000   1.0000   1.0000   1.0000   1.0000   1.0000
     1.0000   1.0000   1.0000   1.0000   1.0000   1.0000   1.0000   1.0000
     1.0000   1.0000   1.0000   1.0000   1.0000   1.0000   1.0000   1.0000
     1.0000   1.0000   1.0000   1.0000   1.0000   1.0000   1.0000   1.0000
     0.0000   0.0000   0.0000   0.0000   0.0000   0.0000   0.0000   0.0000
     0.0000   0.0000

          k = 0.0000 0.5020 0.0000 ( 38283 PWs)   bands (ev):

   -85.9376 -85.9359 -85.8035 -85.8031 -52.0562 -52.0545 -51.9632 -51.9628
   -51.9111 -51.9095 -51.8023 -51.8006 -51.7676 -51.7673 -51.6469 -51.6466
   -45.1551 -17.1854 -17.1341 -17.1030 -16.3579 -16.2338 -16.1948 -16.1256
   -14.0991 -14.0733 -14.0254 -14.0106 -13.9347 -13.8954 -13.8517 -13.7794
   -13.5235 -13.5104 -13.4987 -13.4934  -4.4019  -4.0748  -4.0014  -3.7276
    -2.3942  -2.2560  -2.1703  -2.1431  -1.8352  -1.7043  -1.5352  -1.5063
    -1.4449  -1.2884  -1.1279  -0.9465  -0.7760  -0.6896  -0.2493  -0.1610
    -0.1184  -0.0864  -0.0634   0.0179   0.1244   0.3866   0.5959   0.6124
     0.6486   0.6885   0.7338   0.8028   0.8354   0.8644   1.0852   1.3339
     1.3870   1.5203   1.5886   1.7017   1.7589   1.8306   1.8511   1.9447
     2.0820   2.1077   2.1579   2.2025   2.3109   2.4014   2.4728   2.5592
     2.5929   2.6624   2.8730   2.9500   3.0138   3.1049   3.1648   3.2080
     3.3396   3.3839   3.4363   3.5092   3.5443   3.8798   4.0485   4.1186
     8.6188  10.3465  10.4391  10.8400  11.3706  11.5628  12.2945  12.3515
    12.5200  12.6012

     occupation numbers 
     1.0000   1.0000   1.0000   1.0000   1.0000   1.0000   1.0000   1.0000
     1.0000   1.0000   1.0000   1.0000   1.0000   1.0000   1.0000   1.0000
     1.0000   1.0000   1.0000   1.0000   1.0000   1.0000   1.0000   1.0000
     1.0000   1.0000   1.0000   1.0000   1.0000   1.0000   1.0000   1.0000
     1.0000   1.0000   1.0000   1.0000   1.0000   1.0000   1.0000   1.0000
     1.0000   1.0000   1.0000   1.0000   1.0000   1.0000   1.0000   1.0000
     1.0000   1.0000   1.0000   1.0000   1.0000   1.0000   1.0000   1.0000
     1.0000   1.0000   1.0000   1.0000   1.0000   1.0000   1.0000   1.0000
     1.0000   1.0000   1.0000   1.0000   1.0000   1.0000   1.0000   1.0000
     1.0000   1.0000   1.0000   1.0000   1.0000   1.0000   1.0000   1.0000
     1.0000   1.0000   1.0000   1.0000   1.0000   1.0000   1.0000   1.0000
     1.0000   1.0000   1.0000   1.0000   1.0000   1.0000   1.0000   1.0000
     1.0000   1.0000   1.0000   1.0000   1.0000   1.0000   1.0000   1.0000
     0.0000   0.0000   0.0000   0.0000   0.0000   0.0000   0.0000   0.0000
     0.0000   0.0000

          k = 0.0000 0.5020 0.2454 ( 38295 PWs)   bands (ev):

   -85.9376 -85.9359 -85.8035 -85.8031 -52.0562 -52.0545 -51.9632 -51.9628
   -51.9111 -51.9095 -51.8023 -51.8006 -51.7676 -51.7673 -51.6469 -51.6466
   -45.1551 -17.1835 -17.1338 -17.1053 -16.3462 -16.2208 -16.1930 -16.1198
[...]
     atom   13 type  3   force =     0.01212095   -0.00052601   -0.00509430
     atom   14 type  3   force =     0.07175497   -0.00054288   -0.01898077
     atom   15 type  3   force =    -0.07705570    0.00091314   -0.01338520
     atom   16 type  3   force =    -0.07175497    0.00054288    0.01898077
     atom   17 type  3   force =     0.07705570   -0.00091314    0.01338520
     atom   18 type  3   force =    -0.01341213   -0.00485188    0.00297077
     atom   19 type  3   force =     0.01049008    0.00719035    0.00432197
     atom   20 type  3   force =     0.00959987   -0.00366818   -0.00483996
     atom   21 type  3   force =    -0.00906785    0.00629968   -0.00408868
     atom   22 type  3   force =     0.01341213    0.00485188   -0.00297077
     atom   23 type  3   force =    -0.01049008   -0.00719035   -0.00432197
     atom   24 type  3   force =    -0.00959987    0.00366818    0.00483996
     atom   25 type  3   force =     0.00906785   -0.00629968    0.00408868
     The non-local contrib.  to forces
     atom    1 type  2   force =     0.00000000    0.00000000    0.00000000
     atom    2 type  1   force =    -0.05051277    0.00470446    0.11082383
     atom    3 type  1   force =    -0.12609391   -0.06792432    0.11821238
     atom    4 type  1   force =     0.05051277   -0.00470446   -0.11082383
     atom    5 type  1   force =     0.12609391    0.06792432   -0.11821238
     atom    6 type  4   force =    -0.07626186    0.00104883   -0.06389125
     atom    7 type  4   force =     0.07770556    0.00371452   -0.07994768
     atom    8 type  4   force =     0.07626186   -0.00104883    0.06389125
     atom    9 type  4   force =    -0.07770556   -0.00371452    0.07994768
     atom   10 type  3   force =     0.17805267    0.02046715   -1.53034661
     atom   11 type  3   force =    -0.32584686    0.02226331   -1.54966555
     atom   12 type  3   force =    -0.17805267   -0.02046715    1.53034661
     atom   13 type  3   force =     0.32584686   -0.02226331    1.54966555
     atom   14 type  3   force =     1.22035938   -0.01472361   -0.64389964
     atom   15 type  3   force =    -1.25083862   -0.00247014   -0.51063430
     atom   16 type  3   force =    -1.22035938    0.01472361    0.64389964
     atom   17 type  3   force =     1.25083862    0.00247014    0.51063430
     atom   18 type  3   force =    -0.65984119   -1.04828683    0.67722157
     atom   19 type  3   force =     0.59875001    1.05522063    0.72620720
     atom   20 type  3   force =     0.60317427   -1.02774904   -0.80517377
     atom   21 type  3   force =    -0.55220248    1.02835427   -0.72392292
     atom   22 type  3   force =     0.65984119    1.04828683   -0.67722157
     atom   23 type  3   force =    -0.59875001   -1.05522063   -0.72620720
     atom   24 type  3   force =    -0.60317427    1.02774904    0.80517377
     atom   25 type  3   force =     0.55220248   -1.02835427    0.72392292
     The ionic contribution  to forces
     atom    1 type  2   force =     0.00080148   -0.00031103    0.00021584
     atom    2 type  1   force =    10.62823069   -1.30018577   -0.22567763
     atom    3 type  1   force =     0.97920651    0.75793927   -0.43544027
     atom    4 type  1   force =   -10.62859463    1.30037442    0.22569929
     atom    5 type  1   force =    -0.97949831   -0.75812903    0.43545104
     atom    6 type  4   force =    -2.45996327   -1.51761881    0.53190530
     atom    7 type  4   force =     5.49858996    0.00877850    0.06006166
     atom    8 type  4   force =     2.46002155    1.51771117   -0.53199917
     atom    9 type  4   force =    -5.49872574   -0.00879401   -0.06009218
     atom   10 type  3   force =    -5.66958148   -2.39503836    2.47695808
     atom   11 type  3   force =    11.15420027   -0.10249152    3.30592610
     atom   12 type  3   force =     5.66973976    2.39521062   -2.47685736
     atom   13 type  3   force =   -11.15435973    0.10246826   -3.30588700
     atom   14 type  3   force =     2.87083962    0.09151823    5.60854022
     atom   15 type  3   force =    -0.44761497    2.64057517    3.34842973
     atom   16 type  3   force =    -2.87099078   -0.09151308   -5.60855646
     atom   17 type  3   force =     0.44820422   -2.64061221   -3.34841829
     atom   18 type  3   force =     0.94131198    2.75766604   -1.01510719
     atom   19 type  3   force =     5.48607121   -3.04291442   -2.76659449
     atom   20 type  3   force =     1.69389042    2.44586863    3.15437813
     atom   21 type  3   force =    -5.18422749   -2.86030386    2.68934252
     atom   22 type  3   force =    -0.94156130   -2.75752252    1.01483916
     atom   23 type  3   force =    -5.48624601    3.04293331    2.76662024
     atom   24 type  3   force =    -1.69387622   -2.44586773   -3.15439685
     atom   25 type  3   force =     5.18413226    2.86025873   -2.68934042
     The local contribution  to forces
     atom    1 type  2   force =     0.00331556    0.00013645   -0.00001606
     atom    2 type  1   force =   -10.57375524    1.29216919    0.11035321
     atom    3 type  1   force =    -0.86581985   -0.69668035    0.30608930
     atom    4 type  1   force =    10.55014521   -1.30339610   -0.12110257
     atom    5 type  1   force =     0.84196448    0.68556709   -0.31693881
     atom    6 type  4   force =     2.47805013    1.51771404   -0.48599489
     atom    7 type  4   force =    -5.51107249   -0.01353948   -0.00314488
     atom    8 type  4   force =    -2.47816043   -1.51787584    0.48595935
     atom    9 type  4   force =     5.51127381    0.01347008    0.00328065
     atom   10 type  3   force =     5.49785153    2.37432364   -0.96023863
     atom   11 type  3   force =   -10.84696743    0.07961455   -1.76611063
     atom   12 type  3   force =    -5.50283803   -2.37707423    0.95866292
     atom   13 type  3   force =    10.84157479   -0.08231603    1.76331532
     atom   14 type  3   force =    -4.00971868   -0.07880769   -4.99141135
     atom   15 type  3   force =     1.60799977   -2.63842379   -2.85786683
     atom   16 type  3   force =     4.00592881    0.07616354    4.98903947
     atom   17 type  3   force =    -1.61160155    2.63581230    2.85512051
     atom   18 type  3   force =    -0.30372858   -1.72440149    0.34581915
     atom   19 type  3   force =    -6.07162119    2.00309412    2.05034265
     atom   20 type  3   force =    -2.28498202   -1.43202383   -2.36300144
     atom   21 type  3   force =     5.71953769    1.84618859   -1.97707583
     atom   22 type  3   force =     0.29822825    1.72244109   -0.34820851
     atom   23 type  3   force =     6.06629176   -2.00525500   -2.05251685
     atom   24 type  3   force =     2.27904568    1.42942402    2.36014458
     atom   25 type  3   force =    -5.72510146   -1.84831193    1.97533049
     The core correction contribution to forces
     atom    1 type  2   force =     0.00000000    0.00000000    0.00000000
     atom    2 type  1   force =     0.00070379   -0.00002393   -0.00005454
     atom    3 type  1   force =     0.00242718    0.00085399   -0.00079685
     atom    4 type  1   force =     0.00007782    0.00040044    0.00042512
     atom    5 type  1   force =    -0.00161512   -0.00047604    0.00116484
     atom    6 type  4   force =     0.00766955    0.00027845    0.00494586
     atom    7 type  4   force =    -0.00795729   -0.00017698    0.00660142
     atom    8 type  4   force =    -0.00765450   -0.00027210   -0.00493764
     atom    9 type  4   force =     0.00797383    0.00018375   -0.00659141
     atom   10 type  3   force =    -0.00234548   -0.00017194    0.01337702
     atom   11 type  3   force =     0.00371815   -0.00022348    0.01356229
     atom   12 type  3   force =     0.00234024    0.00017057   -0.01338236
     atom   13 type  3   force =    -0.00372223    0.00022201   -0.01356403
     atom   14 type  3   force =    -0.01170327    0.00014984    0.00659390
     atom   15 type  3   force =     0.01188345   -0.00009290    0.00531885
     atom   16 type  3   force =     0.01169325   -0.00015122   -0.00659475
     atom   17 type  3   force =    -0.01189235    0.00009208   -0.00532082
     atom   18 type  3   force =     0.00596868    0.00925442   -0.00629380
     atom   19 type  3   force =    -0.00546379   -0.00928761   -0.00670647
     atom   20 type  3   force =    -0.00544514    0.00893081    0.00752135
     atom   21 type  3   force =     0.00499066   -0.00902819    0.00669014
     atom   22 type  3   force =    -0.00597333   -0.00925953    0.00629385
     atom   23 type  3   force =     0.00545686    0.00928229    0.00670203
     atom   24 type  3   force =     0.00544240   -0.00893168   -0.00752163
     atom   25 type  3   force =    -0.00499529    0.00902730   -0.00669455
     The Hubbard contrib.    to forces
     atom    1 type  2   force =     0.00000000    0.00000000    0.00000000
     atom    2 type  1   force =     0.00000000    0.00000000    0.00000000
     atom    3 type  1   force =     0.00000000    0.00000000    0.00000000
     atom    4 type  1   force =     0.00000000    0.00000000    0.00000000
     atom    5 type  1   force =     0.00000000    0.00000000    0.00000000
     atom    6 type  4   force =     0.00000000    0.00000000    0.00000000
     atom    7 type  4   force =     0.00000000    0.00000000    0.00000000
     atom    8 type  4   force =     0.00000000    0.00000000    0.00000000
     atom    9 type  4   force =     0.00000000    0.00000000    0.00000000
     atom   10 type  3   force =     0.00000000    0.00000000    0.00000000
     atom   11 type  3   force =     0.00000000    0.00000000    0.00000000
     atom   12 type  3   force =     0.00000000    0.00000000    0.00000000
     atom   13 type  3   force =     0.00000000    0.00000000    0.00000000
     atom   14 type  3   force =     0.00000000    0.00000000    0.00000000
     atom   15 type  3   force =     0.00000000    0.00000000    0.00000000
     atom   16 type  3   force =     0.00000000    0.00000000    0.00000000
     atom   17 type  3   force =     0.00000000    0.00000000    0.00000000
     atom   18 type  3   force =     0.00000000    0.00000000    0.00000000
     atom   19 type  3   force =     0.00000000    0.00000000    0.00000000
     atom   20 type  3   force =     0.00000000    0.00000000    0.00000000
     atom   21 type  3   force =     0.00000000    0.00000000    0.00000000
     atom   22 type  3   force =     0.00000000    0.00000000    0.00000000
     atom   23 type  3   force =     0.00000000    0.00000000    0.00000000
     atom   24 type  3   force =     0.00000000    0.00000000    0.00000000
     atom   25 type  3   force =     0.00000000    0.00000000    0.00000000
     The SCF correction term to forces
     atom    1 type  2   force =    -0.00000000    0.00000000   -0.00000000
     atom    2 type  1   force =     0.00000089   -0.00000015   -0.00000111
     atom    3 type  1   force =     0.00000230    0.00000062   -0.00000112
     atom    4 type  1   force =    -0.00000087    0.00000016    0.00000112
     atom    5 type  1   force =    -0.00000230   -0.00000062    0.00000112
     atom    6 type  4   force =    -0.00000034   -0.00000025    0.00000024
     atom    7 type  4   force =    -0.00000147   -0.00000008   -0.00000071
     atom    8 type  4   force =     0.00000034    0.00000025   -0.00000024
     atom    9 type  4   force =     0.00000147    0.00000008    0.00000071
     atom   10 type  3   force =    -0.00000195   -0.00000012   -0.00000109
     atom   11 type  3   force =    -0.00000317    0.00000005    0.00000311
     atom   12 type  3   force =     0.00000196    0.00000012    0.00000109
     atom   13 type  3   force =     0.00000318   -0.00000005   -0.00000311
     atom   14 type  3   force =     0.00000239    0.00000015    0.00000161
     atom   15 type  3   force =     0.00000395    0.00000013   -0.00000107
     atom   16 type  3   force =    -0.00000239   -0.00000015   -0.00000161
     atom   17 type  3   force =    -0.00000395   -0.00000013    0.00000107
     atom   18 type  3   force =    -0.00000017    0.00000499    0.00000238
     atom   19 type  3   force =    -0.00000174    0.00000397   -0.00000337
     atom   20 type  3   force =    -0.00000010    0.00000536   -0.00000217
     atom   21 type  3   force =     0.00000195    0.00000419    0.00000359
     atom   22 type  3   force =     0.00000017   -0.00000499   -0.00000237
     atom   23 type  3   force =     0.00000174   -0.00000397    0.00000337
     atom   24 type  3   force =     0.00000010   -0.00000536    0.00000217
     atom   25 type  3   force =    -0.00000195   -0.00000419   -0.00000359

     Total force =     0.195373     Total SCF correction =     0.000019


     Computing stress (Cartesian axis) and pressure


     negative rho (up, down):  0.000E+00 9.425E-04
          total   stress  (Ry/bohr**3)                   (kbar)     P=      -96.91
  -0.00129104   0.00000121   0.00001254         -189.92        0.18        1.84
   0.00000121  -0.00040534  -0.00001366            0.18      -59.63       -2.01
   0.00001254  -0.00001366  -0.00027994            1.84       -2.01      -41.18

     kinetic stress (kbar)  24884.88     19.05     -2.44
                               19.05  25189.99     -0.33
                               -2.44     -0.33  25016.40

     local   stress (kbar)  -3157.50   2593.36   -798.39
                             2593.36 -15873.88    926.70
                             -798.39    926.70  -8024.56

     nonloc. stress (kbar)  -6316.03      2.11      2.75
                                2.11  -6288.59      2.20
                                2.75      2.20  -6258.04

     hartree stress (kbar)  11476.74  -1050.40    311.26
                            -1050.40  17882.34   -376.00
                              311.26   -376.00  14150.10

     exc-cor stress (kbar)  -2650.50     -1.38      0.64
                               -1.38  -2655.55     -0.37
                                0.64     -0.37  -2654.38

     corecor stress (kbar)  -2963.91      0.43     -0.74
                                0.43  -2964.30     -0.03
                               -0.74     -0.03  -2967.38

     ewald   stress (kbar) -21463.59  -1562.99    488.76
                            -1562.99 -15349.64   -554.17
                              488.76   -554.17 -19303.33

     hubbard stress (kbar)      0.00      0.00      0.00
                                0.00      0.00      0.00
                                0.00      0.00      0.00

     DFT-D   stress (kbar)      0.00      0.00      0.00
                                0.00      0.00      0.00
                                0.00      0.00      0.00

     XDM     stress (kbar)      0.00      0.00      0.00
                                0.00      0.00      0.00
                                0.00      0.00      0.00

     dft-nl  stress (kbar)      0.00      0.00      0.00
                                0.00      0.00      0.00
                                0.00      0.00      0.00

     TS-vdW  stress (kbar)      0.00      0.00      0.00
                                0.00      0.00      0.00
                                0.00      0.00      0.00



     init_run     :     85.71s CPU     90.21s WALL (       1 calls)
     electrons    :   6555.09s CPU   6820.56s WALL (       1 calls)
     forces       :     41.07s CPU     41.82s WALL (       1 calls)
     stress       :    469.37s CPU    473.62s WALL (       1 calls)

     Called by init_run:
     wfcinit      :     78.65s CPU     82.84s WALL (       1 calls)
     wfcinit:atom :      1.89s CPU      1.92s WALL (     316 calls)
     wfcinit:wfcr :     69.91s CPU     74.00s WALL (     316 calls)
     potinit      :      2.46s CPU      2.53s WALL (       1 calls)
     hinit0       :      2.52s CPU      2.57s WALL (       1 calls)

     Called by electrons:
     c_bands      :   5711.41s CPU   5922.25s WALL (      30 calls)
     sum_band     :    765.46s CPU    815.34s WALL (      30 calls)
     v_of_rho     :     16.92s CPU     17.50s WALL (      31 calls)
     v_h          :      0.78s CPU      0.82s WALL (      31 calls)
     v_xc         :     17.18s CPU     17.76s WALL (      33 calls)
     newd         :     43.60s CPU     47.71s WALL (      31 calls)
     PAW_pot      :     14.81s CPU     14.84s WALL (      31 calls)
     mix_rho      :      3.50s CPU      3.64s WALL (      30 calls)

     Called by c_bands:
     init_us_2    :    128.60s CPU    130.76s WALL (   19908 calls)
     cegterg      :   5462.57s CPU   5670.48s WALL (    9480 calls)

     Called by sum_band:
     sum_band:wei :      0.27s CPU      0.27s WALL (      30 calls)
     sum_band:loo :    684.51s CPU    725.44s WALL (      30 calls)
     sum_band:buf :     30.66s CPU     31.10s WALL (    9480 calls)
     sum_band:ini :     63.24s CPU     64.23s WALL (    9480 calls)
     sum_band:cal :    177.57s CPU    181.55s WALL (    9480 calls)
     sum_band:bec :      1.44s CPU      1.49s WALL (    9480 calls)
     addusdens    :     78.16s CPU     86.86s WALL (      30 calls)
     addusd:skk   :      0.52s CPU      0.54s WALL (      90 calls)
     addusd:dgemm :     19.60s CPU     27.62s WALL (     180 calls)
     addusd:qvan2 :     57.23s CPU     57.74s WALL (     180 calls)

     Called by *egterg:
     cdiaghg      :    293.29s CPU    298.16s WALL (   37544 calls)
     cegterg:over :    433.36s CPU    440.46s WALL (   28064 calls)
     cegterg:upda :    367.90s CPU    370.89s WALL (   28064 calls)
     cegterg:last :    617.20s CPU    622.20s WALL (   17326 calls)
     h_psi        :   2855.16s CPU   3038.43s WALL (   37860 calls)
     s_psi        :    623.13s CPU    627.52s WALL (   37860 calls)
     g_psi        :     25.77s CPU     26.16s WALL (   28064 calls)

     Called by h_psi:
     h_psi:calbec :    473.58s CPU    484.05s WALL (   37860 calls)
     vloc_psi     :   1681.95s CPU   1848.41s WALL (   37860 calls)
     add_vuspsi   :    633.16s CPU    638.41s WALL (   37860 calls)

     General routines
     calbec       :    680.60s CPU    695.71s WALL (   48920 calls)
     fft          :     12.90s CPU     13.79s WALL (     813 calls)
     ffts         :      0.13s CPU      0.14s WALL (     122 calls)
     fftw         :   1834.08s CPU   2014.73s WALL ( 6193586 calls)
     interpolate  :      1.25s CPU      1.32s WALL (      62 calls)

     Parallel routines
     fft_scatt_xy :    260.31s CPU    286.15s WALL ( 6194521 calls)
     fft_scatt_yz :    473.52s CPU    530.04s WALL ( 6194521 calls)

     PAW routines
     PAW_pot      :     14.81s CPU     14.84s WALL (      31 calls)
     PAW_symme    :      0.02s CPU      0.02s WALL (      61 calls)

     PWSCF        :      1h59m CPU      2h 3m WALL


   This run was terminated on:   7:39:18  19Mar2023            

=------------------------------------------------------------------------------=
   JOB DONE.
=------------------------------------------------------------------------------=
Note: The following floating-point exceptions are signalling: IEEE_UNDERFLOW_FLAG IEEE_DENORMAL
Note: The following floating-point exceptions are signalling: IEEE_DENORMAL
Note: The following floating-point exceptions are signalling: IEEE_DENORMAL
Note: The following floating-point exceptions are signalling: IEEE_DENORMAL
Note: The following floating-point exceptions are signalling: IEEE_DENORMAL
Note: The following floating-point exceptions are signalling: IEEE_DENORMAL
Note: The following floating-point exceptions are signalling: IEEE_DENORMAL
Note: The following floating-point exceptions are signalling: IEEE_DENORMAL
Note: The following floating-point exceptions are signalling: IEEE_DENORMAL
Note: The following floating-point exceptions are signalling: IEEE_DENORMAL
Note: The following floating-point exceptions are signalling: IEEE_DENORMAL
Note: The following floating-point exceptions are signalling: IEEE_DENORMAL
Note: The following floating-point exceptions are signalling: IEEE_DENORMAL
