
     Program PWSCF v.6.7MaX starts on 16Dec2022 at 21: 3:14 

     This program is part of the open-source Quantum ESPRESSO suite
     for quantum simulation of materials; please cite
         "P. Giannozzi et al., J. Phys.:Condens. Matter 21 395502 (2009);
         "P. Giannozzi et al., J. Phys.:Condens. Matter 29 465901 (2017);
          URL http://www.quantum-espresso.org", 
     in publications or presentations arising from this work. More details at
     http://www.quantum-espresso.org/quote

     Parallel version (MPI), running on    24 processors

     MPI processes distributed on     1 nodes
     R & G space division:  proc/nbgrp/npool/nimage =      24
     Reading input from scale_1da-01.in

     Current dimensions of program PWSCF are:
     Max number of different atomic species (ntypx) = 10
     Max number of k-points (npk) =  40000
     Max angular momentum in pseudopotentials (lmaxx) =  3
     Message from routine read_pp_mesh:
     mesh size missing, using the one in header
     file Fe.pbe-spn-kjpaw_psl.0.2.1.UPF: wavefunction(s)  3D renormalized
     file O.pbe-n-kjpaw_psl.0.1.UPF: wavefunction(s)  2P renormalized

     Subspace diagonalization in iterative solution of the eigenvalue problem:
     a serial algorithm will be used


     Parallelization info
     --------------------
     sticks:   dense  smooth     PW     G-vecs:    dense   smooth      PW
     Min         800     296     79                52154    11756    1651
     Max         801     297     80                52156    11759    1654
     Sum       19205    7123   1917              1251717   282189   39655



     bravais-lattice index     =            0
     lattice parameter (alat)  =      19.0096  a.u.
     unit-cell volume          =    2088.3459 (a.u.)^3
     number of atoms/cell      =           25
     number of atomic types    =            4
     number of electrons       =       189.00
     number of Kohn-Sham states=          114
     kinetic-energy cutoff     =     100.0000  Ry
     charge density cutoff     =    1080.0000  Ry
     scf convergence threshold =      2.0E-10
     mixing beta               =       0.4000
     number of iterations used =            8  plain     mixing
     Exchange-correlation= PBE
                           (   1   4   3   4   0   0   0)

     celldm(1)=  19.009555  celldm(2)=   0.000000  celldm(3)=   0.000000
     celldm(4)=   0.000000  celldm(5)=   0.000000  celldm(6)=   0.000000

     crystal axes: (cart. coord. in units of alat)
               a(1) = (   1.000000   0.000000   0.000000 )  
               a(2) = (   0.000000   0.618196   0.000000 )  
               a(3) = (   0.000000   0.000000   0.491768 )  

     reciprocal axes: (cart. coord. in units 2 pi/alat)
               b(1) = (  1.000000  0.000000  0.000000 )  
               b(2) = (  0.000000  1.617609  0.000000 )  
               b(3) = (  0.000000  0.000000  2.033480 )  


     PseudoPot. # 1 for Fe read from file:
     /opt/QEpot/SSSP_precision_pseudos/Fe.pbe-spn-kjpaw_psl.0.2.1.UPF
     MD5 check sum: e86618425769142926afa95317d90200
     Pseudo is Projector augmented-wave + core cor, Zval = 16.0
     Generated using "atomic" code by A. Dal Corso  v.5.0.99 svn rev. 10869
     Shape of augmentation charge: PSQ
     Using radial grid of 1191 points,  6 beta functions with: 
                l(1) =   0
                l(2) =   0
                l(3) =   1
                l(4) =   1
                l(5) =   2
                l(6) =   2
     Q(r) pseudized with 0 coefficients 


     PseudoPot. # 2 for Na read from file:
     /opt/QEpot/SSSP_precision_pseudos/Na_ONCV_PBE-1.0.oncvpsp.upf
     MD5 check sum: 24a298df0a6742ae313db96548fdb2a4
     Pseudo is Norm-conserving, Zval =  9.0
     Generated using ONCVPSP code by D. R. Hamann
     Using radial grid of 1992 points,  4 beta functions with: 
                l(1) =   0
                l(2) =   0
                l(3) =   1
                l(4) =   1

     PseudoPot. # 3 for O  read from file:
     /opt/QEpot/SSSP_precision_pseudos/O.pbe-n-kjpaw_psl.0.1.UPF
     MD5 check sum: 0234752ac141de4415c5fc33072bef88
     Pseudo is Projector augmented-wave + core cor, Zval =  6.0
     Generated using "atomic" code by A. Dal Corso  v.5.0.99 svn rev. 10869
     Shape of augmentation charge: BESSEL
     Using radial grid of 1095 points,  4 beta functions with: 
                l(1) =   0
                l(2) =   0
                l(3) =   1
                l(4) =   1
     Q(r) pseudized with 0 coefficients 


     PseudoPot. # 4 for P  read from file:
     /opt/QEpot/SSSP_precision_pseudos/P.pbe-n-rrkjus_psl.1.0.0.UPF
     MD5 check sum: 8b930f418f0a4573dca56cd030ffe088
     Pseudo is Ultrasoft + core correction, Zval =  5.0
     Generated using "atomic" code by A. Dal Corso  v.5.1
     Using radial grid of 1147 points,  6 beta functions with: 
                l(1) =   0
                l(2) =   0
                l(3) =   1
                l(4) =   1
                l(5) =   2
                l(6) =   2
     Q(r) pseudized with 0 coefficients 


     atomic species   valence    mass     pseudopotential
        Fe            16.00    55.84500     Fe( 1.00)
        Na             9.00    22.98977     Na( 1.00)
        O              6.00    15.99940     O ( 1.00)
        P              5.00    30.97376     P ( 1.00)

     Starting magnetic structure 
     atomic species   magnetization
        Fe           0.312
        Na           0.000
        O            0.000
        P            0.000

     No symmetry found


                                    s                        frac. trans.

      isym =  1     identity                                     

 cryst.   s( 1) = (     1          0          0      )
                  (     0          1          0      )
                  (     0          0          1      )

 cart.    s( 1) = (  1.0000000  0.0000000  0.0000000 )
                  (  0.0000000  1.0000000  0.0000000 )
                  (  0.0000000  0.0000000  1.0000000 )


   Cartesian axes

     site n.     atom                  positions (alat units)
         1           Na  tau(   1) = (   0.5528950   0.1211708   0.2223459  )
         2           Fe  tau(   2) = (   0.2772550   0.4643824   0.4876531  )
         3           Fe  tau(   3) = (   0.2104810   0.1555759   0.2412381  )
         4           Fe  tau(   4) = (   0.7295180   0.1590848   0.0008035  )
         5           Fe  tau(   5) = (   0.7815080   0.4631355   0.2525832  )
         6           P   tau(   6) = (   0.1053980   0.4645215   0.2183154  )
         7           P   tau(   7) = (   0.3872650   0.1568346   0.4633352  )
         8           P   tau(   8) = (   0.8920080   0.1548446   0.2738350  )
         9           P   tau(   9) = (   0.6044490   0.4637079   0.0314348  )
        10           O   tau(  10) = (   0.1314730   0.4651626   0.3692768  )
        11           O   tau(  11) = (   0.3628330   0.1552464   0.1229405  )
        12           O   tau(  12) = (   0.8713170   0.1551179   0.1222471  )
        13           O   tau(  13) = (   0.6316830   0.4655743   0.3724836  )
        14           O   tau(  14) = (   0.4581640   0.4652077   0.0590146  )
        15           O   tau(  15) = (   0.0360600   0.1543018   0.3083999  )
        16           O   tau(  16) = (   0.5359580   0.1562850   0.4409839  )
        17           O   tau(  17) = (   0.9586070   0.4646056   0.1922261  )
        18           O   tau(  18) = (   0.1746990   0.5848571   0.1470022  )
        19           O   tau(  19) = (   0.3222040   0.0361385   0.3899600  )
        20           O   tau(  20) = (   0.8184930   0.2749905   0.3422590  )
        21           O   tau(  21) = (   0.6734870   0.3423844   0.1027962  )
        22           O   tau(  22) = (   0.8164510   0.0364266   0.3420658  )
        23           O   tau(  23) = (   0.6734540   0.5845493   0.1038746  )
        24           O   tau(  24) = (   0.1741780   0.3434761   0.1477344  )
        25           O   tau(  25) = (   0.3202350   0.2771981   0.3923254  )

   Crystallographic axes

     site n.     atom                  positions (cryst. coord.)
         1           Na  tau(   1) = (  0.5528950  0.1960070  0.4521360  )
         2           Fe  tau(   2) = (  0.2772550  0.7511890  0.9916330  )
         3           Fe  tau(   3) = (  0.2104810  0.2516610  0.4905530  )
         4           Fe  tau(   4) = (  0.7295180  0.2573370  0.0016340  )
         5           Fe  tau(   5) = (  0.7815080  0.7491720  0.5136230  )
         6           P   tau(   6) = (  0.1053980  0.7514140  0.4439400  )
         7           P   tau(   7) = (  0.3872650  0.2536970  0.9421830  )
         8           P   tau(   8) = (  0.8920080  0.2504780  0.5568380  )
         9           P   tau(   9) = (  0.6044490  0.7500980  0.0639220  )
        10           O   tau(  10) = (  0.1314730  0.7524510  0.7509170  )
        11           O   tau(  11) = (  0.3628330  0.2511280  0.2499970  )
        12           O   tau(  12) = (  0.8713170  0.2509200  0.2485870  )
        13           O   tau(  13) = (  0.6316830  0.7531170  0.7574380  )
        14           O   tau(  14) = (  0.4581640  0.7525240  0.1200050  )
        15           O   tau(  15) = (  0.0360600  0.2496000  0.6271250  )
        16           O   tau(  16) = (  0.5359580  0.2528080  0.8967320  )
        17           O   tau(  17) = (  0.9586070  0.7515500  0.3908880  )
        18           O   tau(  18) = (  0.1746990  0.9460700  0.2989260  )
        19           O   tau(  19) = (  0.3222040  0.0584580  0.7929760  )
        20           O   tau(  20) = (  0.8184930  0.4448270  0.6959770  )
        21           O   tau(  21) = (  0.6734870  0.5538440  0.2090340  )
        22           O   tau(  22) = (  0.8164510  0.0589240  0.6955840  )
        23           O   tau(  23) = (  0.6734540  0.9455720  0.2112270  )
        24           O   tau(  24) = (  0.1741780  0.5556100  0.3004150  )
        25           O   tau(  25) = (  0.3202350  0.4483980  0.7977860  )

     number of k points=   158  Marzari-Vanderbilt smearing, width (Ry)=  0.0073
                       cart. coord. in units 2pi/alat
        k(    1) = (   0.0000000   0.0000000   0.0000000), wk =   0.0031746
        k(    2) = (   0.0000000   0.0000000   0.2259422), wk =   0.0063492
        k(    3) = (   0.0000000   0.0000000   0.4518845), wk =   0.0063492
        k(    4) = (   0.0000000   0.0000000   0.6778267), wk =   0.0063492
        k(    5) = (   0.0000000   0.0000000   0.9037690), wk =   0.0063492
        k(    6) = (   0.0000000   0.2310870   0.0000000), wk =   0.0063492
        k(    7) = (   0.0000000   0.2310870   0.2259422), wk =   0.0063492
        k(    8) = (   0.0000000   0.2310870   0.4518845), wk =   0.0063492
        k(    9) = (   0.0000000   0.2310870   0.6778267), wk =   0.0063492
        k(   10) = (   0.0000000   0.2310870   0.9037690), wk =   0.0063492
        k(   11) = (   0.0000000   0.4621739   0.0000000), wk =   0.0063492
        k(   12) = (   0.0000000   0.4621739   0.2259422), wk =   0.0063492
        k(   13) = (   0.0000000   0.4621739   0.4518845), wk =   0.0063492
        k(   14) = (   0.0000000   0.4621739   0.6778267), wk =   0.0063492
        k(   15) = (   0.0000000   0.4621739   0.9037690), wk =   0.0063492
        k(   16) = (   0.0000000   0.6932609   0.0000000), wk =   0.0063492
        k(   17) = (   0.0000000   0.6932609   0.2259422), wk =   0.0063492
        k(   18) = (   0.0000000   0.6932609   0.4518845), wk =   0.0063492
        k(   19) = (   0.0000000   0.6932609   0.6778267), wk =   0.0063492
        k(   20) = (   0.0000000   0.6932609   0.9037690), wk =   0.0063492
        k(   21) = (   0.2000000   0.0000000   0.0000000), wk =   0.0063492
        k(   22) = (   0.2000000   0.0000000   0.2259422), wk =   0.0063492
        k(   23) = (   0.2000000   0.0000000   0.4518845), wk =   0.0063492
        k(   24) = (   0.2000000   0.0000000   0.6778267), wk =   0.0063492
        k(   25) = (   0.2000000   0.0000000   0.9037690), wk =   0.0063492
        k(   26) = (   0.2000000   0.2310870   0.0000000), wk =   0.0063492
        k(   27) = (   0.2000000   0.2310870   0.2259422), wk =   0.0063492
        k(   28) = (   0.2000000   0.2310870   0.4518845), wk =   0.0063492
        k(   29) = (   0.2000000   0.2310870   0.6778267), wk =   0.0063492
        k(   30) = (   0.2000000   0.2310870   0.9037690), wk =   0.0063492
        k(   31) = (   0.2000000   0.4621739   0.0000000), wk =   0.0063492
        k(   32) = (   0.2000000   0.4621739   0.2259422), wk =   0.0063492
        k(   33) = (   0.2000000   0.4621739   0.4518845), wk =   0.0063492
        k(   34) = (   0.2000000   0.4621739   0.6778267), wk =   0.0063492
        k(   35) = (   0.2000000   0.4621739   0.9037690), wk =   0.0063492
        k(   36) = (   0.2000000   0.6932609   0.0000000), wk =   0.0063492
        k(   37) = (   0.2000000   0.6932609   0.2259422), wk =   0.0063492
        k(   38) = (   0.2000000   0.6932609   0.4518845), wk =   0.0063492
        k(   39) = (   0.2000000   0.6932609   0.6778267), wk =   0.0063492
        k(   40) = (   0.2000000   0.6932609   0.9037690), wk =   0.0063492
        k(   41) = (   0.4000000   0.0000000   0.0000000), wk =   0.0063492
        k(   42) = (   0.4000000   0.0000000   0.2259422), wk =   0.0063492
        k(   43) = (   0.4000000   0.0000000   0.4518845), wk =   0.0063492
        k(   44) = (   0.4000000   0.0000000   0.6778267), wk =   0.0063492
        k(   45) = (   0.4000000   0.0000000   0.9037690), wk =   0.0063492
        k(   46) = (   0.4000000   0.2310870   0.0000000), wk =   0.0063492
        k(   47) = (   0.4000000   0.2310870   0.2259422), wk =   0.0063492
        k(   48) = (   0.4000000   0.2310870   0.4518845), wk =   0.0063492
        k(   49) = (   0.4000000   0.2310870   0.6778267), wk =   0.0063492
        k(   50) = (   0.4000000   0.2310870   0.9037690), wk =   0.0063492
        k(   51) = (   0.4000000   0.4621739   0.0000000), wk =   0.0063492
        k(   52) = (   0.4000000   0.4621739   0.2259422), wk =   0.0063492
        k(   53) = (   0.4000000   0.4621739   0.4518845), wk =   0.0063492
        k(   54) = (   0.4000000   0.4621739   0.6778267), wk =   0.0063492
        k(   55) = (   0.4000000   0.4621739   0.9037690), wk =   0.0063492
        k(   56) = (   0.4000000   0.6932609   0.0000000), wk =   0.0063492
        k(   57) = (   0.4000000   0.6932609   0.2259422), wk =   0.0063492
        k(   58) = (   0.4000000   0.6932609   0.4518845), wk =   0.0063492
        k(   59) = (   0.4000000   0.6932609   0.6778267), wk =   0.0063492
        k(   60) = (   0.4000000   0.6932609   0.9037690), wk =   0.0063492
        k(   61) = (   0.0000000  -0.2310870   0.2259422), wk =   0.0063492
        k(   62) = (   0.0000000  -0.2310870   0.4518845), wk =   0.0063492
        k(   63) = (   0.0000000  -0.2310870   0.6778267), wk =   0.0063492
        k(   64) = (   0.0000000  -0.2310870   0.9037690), wk =   0.0063492
        k(   65) = (   0.0000000  -0.4621739   0.2259422), wk =   0.0063492
        k(   66) = (   0.0000000  -0.4621739   0.4518845), wk =   0.0063492
        k(   67) = (   0.0000000  -0.4621739   0.6778267), wk =   0.0063492
        k(   68) = (   0.0000000  -0.4621739   0.9037690), wk =   0.0063492
        k(   69) = (   0.0000000  -0.6932609   0.2259422), wk =   0.0063492
        k(   70) = (   0.0000000  -0.6932609   0.4518845), wk =   0.0063492
        k(   71) = (   0.0000000  -0.6932609   0.6778267), wk =   0.0063492
        k(   72) = (   0.0000000  -0.6932609   0.9037690), wk =   0.0063492
        k(   73) = (  -0.2000000   0.0000000   0.2259422), wk =   0.0063492
        k(   74) = (  -0.2000000   0.0000000   0.4518845), wk =   0.0063492
        k(   75) = (  -0.2000000   0.0000000   0.6778267), wk =   0.0063492
        k(   76) = (  -0.2000000   0.0000000   0.9037690), wk =   0.0063492
        k(   77) = (  -0.2000000   0.2310870   0.0000000), wk =   0.0063492
        k(   78) = (  -0.2000000  -0.2310870   0.2259422), wk =   0.0063492
        k(   79) = (  -0.2000000   0.2310870  -0.2259422), wk =   0.0063492
        k(   80) = (   0.2000000  -0.2310870  -0.2259422), wk =   0.0063492
        k(   81) = (  -0.2000000  -0.2310870   0.4518845), wk =   0.0063492
        k(   82) = (  -0.2000000   0.2310870  -0.4518845), wk =   0.0063492
        k(   83) = (   0.2000000  -0.2310870  -0.4518845), wk =   0.0063492
        k(   84) = (  -0.2000000  -0.2310870   0.6778267), wk =   0.0063492
        k(   85) = (  -0.2000000   0.2310870  -0.6778267), wk =   0.0063492
        k(   86) = (   0.2000000  -0.2310870  -0.6778267), wk =   0.0063492
        k(   87) = (  -0.2000000  -0.2310870   0.9037690), wk =   0.0063492
        k(   88) = (  -0.2000000   0.2310870  -0.9037690), wk =   0.0063492
        k(   89) = (   0.2000000  -0.2310870  -0.9037690), wk =   0.0063492
        k(   90) = (  -0.2000000   0.4621739   0.0000000), wk =   0.0063492
        k(   91) = (  -0.2000000  -0.4621739   0.2259422), wk =   0.0063492
        k(   92) = (  -0.2000000   0.4621739  -0.2259422), wk =   0.0063492
        k(   93) = (   0.2000000  -0.4621739  -0.2259422), wk =   0.0063492
        k(   94) = (  -0.2000000  -0.4621739   0.4518845), wk =   0.0063492
        k(   95) = (  -0.2000000   0.4621739  -0.4518845), wk =   0.0063492
        k(   96) = (   0.2000000  -0.4621739  -0.4518845), wk =   0.0063492
        k(   97) = (  -0.2000000  -0.4621739   0.6778267), wk =   0.0063492
        k(   98) = (  -0.2000000   0.4621739  -0.6778267), wk =   0.0063492
        k(   99) = (   0.2000000  -0.4621739  -0.6778267), wk =   0.0063492
        k(  100) = (  -0.2000000  -0.4621739   0.9037690), wk =   0.0063492
        k(  101) = (  -0.2000000   0.4621739  -0.9037690), wk =   0.0063492
        k(  102) = (   0.2000000  -0.4621739  -0.9037690), wk =   0.0063492
        k(  103) = (  -0.2000000   0.6932609   0.0000000), wk =   0.0063492
        k(  104) = (  -0.2000000  -0.6932609   0.2259422), wk =   0.0063492
        k(  105) = (  -0.2000000   0.6932609  -0.2259422), wk =   0.0063492
        k(  106) = (   0.2000000  -0.6932609  -0.2259422), wk =   0.0063492
        k(  107) = (  -0.2000000  -0.6932609   0.4518845), wk =   0.0063492
        k(  108) = (  -0.2000000   0.6932609  -0.4518845), wk =   0.0063492
        k(  109) = (   0.2000000  -0.6932609  -0.4518845), wk =   0.0063492
        k(  110) = (  -0.2000000  -0.6932609   0.6778267), wk =   0.0063492
        k(  111) = (  -0.2000000   0.6932609  -0.6778267), wk =   0.0063492
        k(  112) = (   0.2000000  -0.6932609  -0.6778267), wk =   0.0063492
        k(  113) = (  -0.2000000  -0.6932609   0.9037690), wk =   0.0063492
        k(  114) = (  -0.2000000   0.6932609  -0.9037690), wk =   0.0063492
        k(  115) = (   0.2000000  -0.6932609  -0.9037690), wk =   0.0063492
        k(  116) = (  -0.4000000   0.0000000   0.2259422), wk =   0.0063492
        k(  117) = (  -0.4000000   0.0000000   0.4518845), wk =   0.0063492
        k(  118) = (  -0.4000000   0.0000000   0.6778267), wk =   0.0063492
        k(  119) = (  -0.4000000   0.0000000   0.9037690), wk =   0.0063492
        k(  120) = (  -0.4000000   0.2310870   0.0000000), wk =   0.0063492
        k(  121) = (  -0.4000000  -0.2310870   0.2259422), wk =   0.0063492
        k(  122) = (  -0.4000000   0.2310870  -0.2259422), wk =   0.0063492
        k(  123) = (   0.4000000  -0.2310870  -0.2259422), wk =   0.0063492
        k(  124) = (  -0.4000000  -0.2310870   0.4518845), wk =   0.0063492
        k(  125) = (  -0.4000000   0.2310870  -0.4518845), wk =   0.0063492
        k(  126) = (   0.4000000  -0.2310870  -0.4518845), wk =   0.0063492
        k(  127) = (  -0.4000000  -0.2310870   0.6778267), wk =   0.0063492
        k(  128) = (  -0.4000000   0.2310870  -0.6778267), wk =   0.0063492
        k(  129) = (   0.4000000  -0.2310870  -0.6778267), wk =   0.0063492
        k(  130) = (  -0.4000000  -0.2310870   0.9037690), wk =   0.0063492
        k(  131) = (  -0.4000000   0.2310870  -0.9037690), wk =   0.0063492
        k(  132) = (   0.4000000  -0.2310870  -0.9037690), wk =   0.0063492
        k(  133) = (  -0.4000000   0.4621739   0.0000000), wk =   0.0063492
        k(  134) = (  -0.4000000  -0.4621739   0.2259422), wk =   0.0063492
        k(  135) = (  -0.4000000   0.4621739  -0.2259422), wk =   0.0063492
        k(  136) = (   0.4000000  -0.4621739  -0.2259422), wk =   0.0063492
        k(  137) = (  -0.4000000  -0.4621739   0.4518845), wk =   0.0063492
        k(  138) = (  -0.4000000   0.4621739  -0.4518845), wk =   0.0063492
        k(  139) = (   0.4000000  -0.4621739  -0.4518845), wk =   0.0063492
        k(  140) = (  -0.4000000  -0.4621739   0.6778267), wk =   0.0063492
        k(  141) = (  -0.4000000   0.4621739  -0.6778267), wk =   0.0063492
        k(  142) = (   0.4000000  -0.4621739  -0.6778267), wk =   0.0063492
        k(  143) = (  -0.4000000  -0.4621739   0.9037690), wk =   0.0063492
        k(  144) = (  -0.4000000   0.4621739  -0.9037690), wk =   0.0063492
        k(  145) = (   0.4000000  -0.4621739  -0.9037690), wk =   0.0063492
        k(  146) = (  -0.4000000   0.6932609   0.0000000), wk =   0.0063492
        k(  147) = (  -0.4000000  -0.6932609   0.2259422), wk =   0.0063492
        k(  148) = (  -0.4000000   0.6932609  -0.2259422), wk =   0.0063492
        k(  149) = (   0.4000000  -0.6932609  -0.2259422), wk =   0.0063492
        k(  150) = (  -0.4000000  -0.6932609   0.4518845), wk =   0.0063492
        k(  151) = (  -0.4000000   0.6932609  -0.4518845), wk =   0.0063492
        k(  152) = (   0.4000000  -0.6932609  -0.4518845), wk =   0.0063492
        k(  153) = (  -0.4000000  -0.6932609   0.6778267), wk =   0.0063492
        k(  154) = (  -0.4000000   0.6932609  -0.6778267), wk =   0.0063492
        k(  155) = (   0.4000000  -0.6932609  -0.6778267), wk =   0.0063492
        k(  156) = (  -0.4000000  -0.6932609   0.9037690), wk =   0.0063492
        k(  157) = (  -0.4000000   0.6932609  -0.9037690), wk =   0.0063492
        k(  158) = (   0.4000000  -0.6932609  -0.9037690), wk =   0.0063492

                       cryst. coord.
        k(    1) = (   0.0000000   0.0000000   0.0000000), wk =   0.0031746
        k(    2) = (   0.0000000   0.0000000   0.1111111), wk =   0.0063492
        k(    3) = (   0.0000000   0.0000000   0.2222222), wk =   0.0063492
        k(    4) = (   0.0000000   0.0000000   0.3333333), wk =   0.0063492
        k(    5) = (   0.0000000   0.0000000   0.4444444), wk =   0.0063492
        k(    6) = (   0.0000000   0.1428571   0.0000000), wk =   0.0063492
        k(    7) = (   0.0000000   0.1428571   0.1111111), wk =   0.0063492
        k(    8) = (   0.0000000   0.1428571   0.2222222), wk =   0.0063492
        k(    9) = (   0.0000000   0.1428571   0.3333333), wk =   0.0063492
        k(   10) = (   0.0000000   0.1428571   0.4444444), wk =   0.0063492
        k(   11) = (   0.0000000   0.2857143   0.0000000), wk =   0.0063492
        k(   12) = (   0.0000000   0.2857143   0.1111111), wk =   0.0063492
        k(   13) = (   0.0000000   0.2857143   0.2222222), wk =   0.0063492
        k(   14) = (   0.0000000   0.2857143   0.3333333), wk =   0.0063492
        k(   15) = (   0.0000000   0.2857143   0.4444444), wk =   0.0063492
        k(   16) = (   0.0000000   0.4285714   0.0000000), wk =   0.0063492
        k(   17) = (   0.0000000   0.4285714   0.1111111), wk =   0.0063492
        k(   18) = (   0.0000000   0.4285714   0.2222222), wk =   0.0063492
        k(   19) = (   0.0000000   0.4285714   0.3333333), wk =   0.0063492
        k(   20) = (   0.0000000   0.4285714   0.4444444), wk =   0.0063492
        k(   21) = (   0.2000000   0.0000000   0.0000000), wk =   0.0063492
        k(   22) = (   0.2000000   0.0000000   0.1111111), wk =   0.0063492
        k(   23) = (   0.2000000   0.0000000   0.2222222), wk =   0.0063492
        k(   24) = (   0.2000000   0.0000000   0.3333333), wk =   0.0063492
        k(   25) = (   0.2000000   0.0000000   0.4444444), wk =   0.0063492
        k(   26) = (   0.2000000   0.1428571   0.0000000), wk =   0.0063492
        k(   27) = (   0.2000000   0.1428571   0.1111111), wk =   0.0063492
        k(   28) = (   0.2000000   0.1428571   0.2222222), wk =   0.0063492
        k(   29) = (   0.2000000   0.1428571   0.3333333), wk =   0.0063492
        k(   30) = (   0.2000000   0.1428571   0.4444444), wk =   0.0063492
        k(   31) = (   0.2000000   0.2857143   0.0000000), wk =   0.0063492
        k(   32) = (   0.2000000   0.2857143   0.1111111), wk =   0.0063492
        k(   33) = (   0.2000000   0.2857143   0.2222222), wk =   0.0063492
        k(   34) = (   0.2000000   0.2857143   0.3333333), wk =   0.0063492
        k(   35) = (   0.2000000   0.2857143   0.4444444), wk =   0.0063492
        k(   36) = (   0.2000000   0.4285714   0.0000000), wk =   0.0063492
        k(   37) = (   0.2000000   0.4285714   0.1111111), wk =   0.0063492
        k(   38) = (   0.2000000   0.4285714   0.2222222), wk =   0.0063492
        k(   39) = (   0.2000000   0.4285714   0.3333333), wk =   0.0063492
        k(   40) = (   0.2000000   0.4285714   0.4444444), wk =   0.0063492
        k(   41) = (   0.4000000   0.0000000   0.0000000), wk =   0.0063492
        k(   42) = (   0.4000000   0.0000000   0.1111111), wk =   0.0063492
        k(   43) = (   0.4000000   0.0000000   0.2222222), wk =   0.0063492
        k(   44) = (   0.4000000   0.0000000   0.3333333), wk =   0.0063492
        k(   45) = (   0.4000000   0.0000000   0.4444444), wk =   0.0063492
        k(   46) = (   0.4000000   0.1428571   0.0000000), wk =   0.0063492
        k(   47) = (   0.4000000   0.1428571   0.1111111), wk =   0.0063492
        k(   48) = (   0.4000000   0.1428571   0.2222222), wk =   0.0063492
        k(   49) = (   0.4000000   0.1428571   0.3333333), wk =   0.0063492
        k(   50) = (   0.4000000   0.1428571   0.4444444), wk =   0.0063492
        k(   51) = (   0.4000000   0.2857143   0.0000000), wk =   0.0063492
        k(   52) = (   0.4000000   0.2857143   0.1111111), wk =   0.0063492
        k(   53) = (   0.4000000   0.2857143   0.2222222), wk =   0.0063492
        k(   54) = (   0.4000000   0.2857143   0.3333333), wk =   0.0063492
        k(   55) = (   0.4000000   0.2857143   0.4444444), wk =   0.0063492
        k(   56) = (   0.4000000   0.4285714   0.0000000), wk =   0.0063492
        k(   57) = (   0.4000000   0.4285714   0.1111111), wk =   0.0063492
        k(   58) = (   0.4000000   0.4285714   0.2222222), wk =   0.0063492
        k(   59) = (   0.4000000   0.4285714   0.3333333), wk =   0.0063492
        k(   60) = (   0.4000000   0.4285714   0.4444444), wk =   0.0063492
        k(   61) = (   0.0000000  -0.1428571   0.1111111), wk =   0.0063492
        k(   62) = (   0.0000000  -0.1428571   0.2222222), wk =   0.0063492
        k(   63) = (   0.0000000  -0.1428571   0.3333333), wk =   0.0063492
        k(   64) = (   0.0000000  -0.1428571   0.4444444), wk =   0.0063492
        k(   65) = (   0.0000000  -0.2857143   0.1111111), wk =   0.0063492
        k(   66) = (   0.0000000  -0.2857143   0.2222222), wk =   0.0063492
        k(   67) = (   0.0000000  -0.2857143   0.3333333), wk =   0.0063492
        k(   68) = (   0.0000000  -0.2857143   0.4444444), wk =   0.0063492
        k(   69) = (   0.0000000  -0.4285714   0.1111111), wk =   0.0063492
        k(   70) = (   0.0000000  -0.4285714   0.2222222), wk =   0.0063492
        k(   71) = (   0.0000000  -0.4285714   0.3333333), wk =   0.0063492
        k(   72) = (   0.0000000  -0.4285714   0.4444444), wk =   0.0063492
        k(   73) = (  -0.2000000   0.0000000   0.1111111), wk =   0.0063492
        k(   74) = (  -0.2000000   0.0000000   0.2222222), wk =   0.0063492
        k(   75) = (  -0.2000000   0.0000000   0.3333333), wk =   0.0063492
        k(   76) = (  -0.2000000   0.0000000   0.4444444), wk =   0.0063492
        k(   77) = (  -0.2000000   0.1428571   0.0000000), wk =   0.0063492
        k(   78) = (  -0.2000000  -0.1428571   0.1111111), wk =   0.0063492
        k(   79) = (  -0.2000000   0.1428571  -0.1111111), wk =   0.0063492
        k(   80) = (   0.2000000  -0.1428571  -0.1111111), wk =   0.0063492
        k(   81) = (  -0.2000000  -0.1428571   0.2222222), wk =   0.0063492
        k(   82) = (  -0.2000000   0.1428571  -0.2222222), wk =   0.0063492
        k(   83) = (   0.2000000  -0.1428571  -0.2222222), wk =   0.0063492
        k(   84) = (  -0.2000000  -0.1428571   0.3333333), wk =   0.0063492
        k(   85) = (  -0.2000000   0.1428571  -0.3333333), wk =   0.0063492
        k(   86) = (   0.2000000  -0.1428571  -0.3333333), wk =   0.0063492
        k(   87) = (  -0.2000000  -0.1428571   0.4444444), wk =   0.0063492
        k(   88) = (  -0.2000000   0.1428571  -0.4444444), wk =   0.0063492
        k(   89) = (   0.2000000  -0.1428571  -0.4444444), wk =   0.0063492
        k(   90) = (  -0.2000000   0.2857143   0.0000000), wk =   0.0063492
        k(   91) = (  -0.2000000  -0.2857143   0.1111111), wk =   0.0063492
        k(   92) = (  -0.2000000   0.2857143  -0.1111111), wk =   0.0063492
        k(   93) = (   0.2000000  -0.2857143  -0.1111111), wk =   0.0063492
        k(   94) = (  -0.2000000  -0.2857143   0.2222222), wk =   0.0063492
        k(   95) = (  -0.2000000   0.2857143  -0.2222222), wk =   0.0063492
        k(   96) = (   0.2000000  -0.2857143  -0.2222222), wk =   0.0063492
        k(   97) = (  -0.2000000  -0.2857143   0.3333333), wk =   0.0063492
        k(   98) = (  -0.2000000   0.2857143  -0.3333333), wk =   0.0063492
        k(   99) = (   0.2000000  -0.2857143  -0.3333333), wk =   0.0063492
        k(  100) = (  -0.2000000  -0.2857143   0.4444444), wk =   0.0063492
        k(  101) = (  -0.2000000   0.2857143  -0.4444444), wk =   0.0063492
        k(  102) = (   0.2000000  -0.2857143  -0.4444444), wk =   0.0063492
        k(  103) = (  -0.2000000   0.4285714   0.0000000), wk =   0.0063492
        k(  104) = (  -0.2000000  -0.4285714   0.1111111), wk =   0.0063492
        k(  105) = (  -0.2000000   0.4285714  -0.1111111), wk =   0.0063492
        k(  106) = (   0.2000000  -0.4285714  -0.1111111), wk =   0.0063492
        k(  107) = (  -0.2000000  -0.4285714   0.2222222), wk =   0.0063492
        k(  108) = (  -0.2000000   0.4285714  -0.2222222), wk =   0.0063492
        k(  109) = (   0.2000000  -0.4285714  -0.2222222), wk =   0.0063492
        k(  110) = (  -0.2000000  -0.4285714   0.3333333), wk =   0.0063492
        k(  111) = (  -0.2000000   0.4285714  -0.3333333), wk =   0.0063492
        k(  112) = (   0.2000000  -0.4285714  -0.3333333), wk =   0.0063492
        k(  113) = (  -0.2000000  -0.4285714   0.4444444), wk =   0.0063492
        k(  114) = (  -0.2000000   0.4285714  -0.4444444), wk =   0.0063492
        k(  115) = (   0.2000000  -0.4285714  -0.4444444), wk =   0.0063492
        k(  116) = (  -0.4000000   0.0000000   0.1111111), wk =   0.0063492
        k(  117) = (  -0.4000000   0.0000000   0.2222222), wk =   0.0063492
        k(  118) = (  -0.4000000   0.0000000   0.3333333), wk =   0.0063492
        k(  119) = (  -0.4000000   0.0000000   0.4444444), wk =   0.0063492
        k(  120) = (  -0.4000000   0.1428571   0.0000000), wk =   0.0063492
        k(  121) = (  -0.4000000  -0.1428571   0.1111111), wk =   0.0063492
        k(  122) = (  -0.4000000   0.1428571  -0.1111111), wk =   0.0063492
        k(  123) = (   0.4000000  -0.1428571  -0.1111111), wk =   0.0063492
        k(  124) = (  -0.4000000  -0.1428571   0.2222222), wk =   0.0063492
        k(  125) = (  -0.4000000   0.1428571  -0.2222222), wk =   0.0063492
        k(  126) = (   0.4000000  -0.1428571  -0.2222222), wk =   0.0063492
        k(  127) = (  -0.4000000  -0.1428571   0.3333333), wk =   0.0063492
        k(  128) = (  -0.4000000   0.1428571  -0.3333333), wk =   0.0063492
        k(  129) = (   0.4000000  -0.1428571  -0.3333333), wk =   0.0063492
        k(  130) = (  -0.4000000  -0.1428571   0.4444444), wk =   0.0063492
        k(  131) = (  -0.4000000   0.1428571  -0.4444444), wk =   0.0063492
        k(  132) = (   0.4000000  -0.1428571  -0.4444444), wk =   0.0063492
        k(  133) = (  -0.4000000   0.2857143   0.0000000), wk =   0.0063492
        k(  134) = (  -0.4000000  -0.2857143   0.1111111), wk =   0.0063492
        k(  135) = (  -0.4000000   0.2857143  -0.1111111), wk =   0.0063492
        k(  136) = (   0.4000000  -0.2857143  -0.1111111), wk =   0.0063492
        k(  137) = (  -0.4000000  -0.2857143   0.2222222), wk =   0.0063492
        k(  138) = (  -0.4000000   0.2857143  -0.2222222), wk =   0.0063492
        k(  139) = (   0.4000000  -0.2857143  -0.2222222), wk =   0.0063492
        k(  140) = (  -0.4000000  -0.2857143   0.3333333), wk =   0.0063492
        k(  141) = (  -0.4000000   0.2857143  -0.3333333), wk =   0.0063492
        k(  142) = (   0.4000000  -0.2857143  -0.3333333), wk =   0.0063492
        k(  143) = (  -0.4000000  -0.2857143   0.4444444), wk =   0.0063492
        k(  144) = (  -0.4000000   0.2857143  -0.4444444), wk =   0.0063492
        k(  145) = (   0.4000000  -0.2857143  -0.4444444), wk =   0.0063492
        k(  146) = (  -0.4000000   0.4285714   0.0000000), wk =   0.0063492
        k(  147) = (  -0.4000000  -0.4285714   0.1111111), wk =   0.0063492
        k(  148) = (  -0.4000000   0.4285714  -0.1111111), wk =   0.0063492
        k(  149) = (   0.4000000  -0.4285714  -0.1111111), wk =   0.0063492
        k(  150) = (  -0.4000000  -0.4285714   0.2222222), wk =   0.0063492
        k(  151) = (  -0.4000000   0.4285714  -0.2222222), wk =   0.0063492
        k(  152) = (   0.4000000  -0.4285714  -0.2222222), wk =   0.0063492
        k(  153) = (  -0.4000000  -0.4285714   0.3333333), wk =   0.0063492
        k(  154) = (  -0.4000000   0.4285714  -0.3333333), wk =   0.0063492
        k(  155) = (   0.4000000  -0.4285714  -0.3333333), wk =   0.0063492
        k(  156) = (  -0.4000000  -0.4285714   0.4444444), wk =   0.0063492
        k(  157) = (  -0.4000000   0.4285714  -0.4444444), wk =   0.0063492
        k(  158) = (   0.4000000  -0.4285714  -0.4444444), wk =   0.0063492

     Dense  grid:  1251717 G-vectors     FFT dimensions: ( 200, 125, 100)

     Smooth grid:   282189 G-vectors     FFT dimensions: ( 125,  75,  60)

     Dynamical RAM for                 wfc:       2.56 MB

     Dynamical RAM for     wfc (w. buffer):     810.04 MB

     Dynamical RAM for           str. fact:       3.18 MB

     Dynamical RAM for           local pot:       0.00 MB

     Dynamical RAM for          nlocal pot:       6.28 MB

     Dynamical RAM for                qrad:      10.54 MB

     Dynamical RAM for          rho,v,vnew:      10.50 MB

     Dynamical RAM for               rhoin:       3.50 MB

     Dynamical RAM for            rho*nmix:      25.47 MB

     Dynamical RAM for           G-vectors:       3.07 MB

     Dynamical RAM for          h,s,v(r/c):       2.38 MB

     Dynamical RAM for          <psi|beta>:       0.49 MB

     Dynamical RAM for                 psi:       5.11 MB

     Dynamical RAM for                hpsi:       5.11 MB

     Dynamical RAM for                spsi:       5.11 MB

     Dynamical RAM for      wfcinit/wfcrot:       6.57 MB

     Dynamical RAM for           addusdens:     161.55 MB

     Dynamical RAM for          addusforce:     185.56 MB

     Dynamical RAM for         addusstress:     161.16 MB

     Estimated static dynamical RAM per process >     882.28 MB

     Estimated max dynamical RAM per process >       1.04 GB

     Estimated total dynamical RAM >      25.03 GB

     Check: negative core charge=   -0.000003
     Generating pointlists ...
     new r_m :   0.0770 (alat units)  1.4643 (a.u.) for type    1
     new r_m :   0.0896 (alat units)  1.7030 (a.u.) for type    2
     new r_m :   0.0611 (alat units)  1.1616 (a.u.) for type    3
     new r_m :   0.0611 (alat units)  1.1616 (a.u.) for type    4

     Initial potential from superposition of free atoms

     starting charge  188.99132, renormalised to  189.00000
     Starting wfcs are  137 randomized atomic wfcs
     Checking if some PAW data can be deallocated... 
       PAW data deallocated on   20 nodes for type:  1
       PAW data deallocated on    8 nodes for type:  3

     total cpu time spent up to now is      179.0 secs

     Self-consistent Calculation

     iteration #  1     ecut=   100.00 Ry     beta= 0.40
     Davidson diagonalization with overlap
     ethr =  1.00E-02,  avg # of iterations =  3.0

     negative rho (up, down):  0.000E+00 1.112E-04

     total cpu time spent up to now is      758.1 secs

     total energy              =   -2123.90811014 Ry
     estimated scf accuracy    <       6.97311153 Ry

     total magnetization       =    19.00 Bohr mag/cell
     absolute magnetization    =    19.00 Bohr mag/cell

     iteration #  2     ecut=   100.00 Ry     beta= 0.40
     Davidson diagonalization with overlap
     ethr =  3.69E-03,  avg # of iterations =  2.0

     negative rho (up, down):  0.000E+00 4.310E-05

     total cpu time spent up to now is     1271.9 secs

     total energy              =   -2120.69349910 Ry
     estimated scf accuracy    <      46.15907165 Ry

     total magnetization       =     7.03 Bohr mag/cell
     absolute magnetization    =     8.38 Bohr mag/cell

     iteration #  3     ecut=   100.00 Ry     beta= 0.40
     Davidson diagonalization with overlap
     ethr =  3.69E-03,  avg # of iterations =  2.9

     negative rho (up, down):  0.000E+00 2.761E-05

     total cpu time spent up to now is     1727.8 secs

     total energy              =   -2123.48179486 Ry
     estimated scf accuracy    <      56.44422238 Ry

     total magnetization       =     3.83 Bohr mag/cell
     absolute magnetization    =     7.80 Bohr mag/cell

     iteration #  4     ecut=   100.00 Ry     beta= 0.40
     Davidson diagonalization with overlap
     ethr =  3.69E-03,  avg # of iterations =  1.6

     negative rho (up, down):  0.000E+00 1.977E-05

     total cpu time spent up to now is     2126.6 secs

     total energy              =   -2124.59562821 Ry
     estimated scf accuracy    <      29.30751567 Ry

     total magnetization       =     9.00 Bohr mag/cell
     absolute magnetization    =     9.35 Bohr mag/cell

     iteration #  5     ecut=   100.00 Ry     beta= 0.40
     Davidson diagonalization with overlap
     ethr =  3.69E-03,  avg # of iterations =  2.0

     negative rho (up, down):  0.000E+00 1.374E-04

     total cpu time spent up to now is     2553.0 secs

     total energy              =   -2125.98827423 Ry
     estimated scf accuracy    <       1.76664257 Ry

     total magnetization       =    19.02 Bohr mag/cell
     absolute magnetization    =    19.02 Bohr mag/cell

     iteration #  6     ecut=   100.00 Ry     beta= 0.40
     Davidson diagonalization with overlap
     ethr =  9.35E-04,  avg # of iterations =  2.0

     negative rho (up, down):  0.000E+00 2.492E-04

     total cpu time spent up to now is     2980.3 secs

     total energy              =   -2126.08141719 Ry
     estimated scf accuracy    <       0.56988190 Ry

     total magnetization       =    19.00 Bohr mag/cell
     absolute magnetization    =    19.00 Bohr mag/cell

     iteration #  7     ecut=   100.00 Ry     beta= 0.40
     Davidson diagonalization with overlap
     ethr =  3.02E-04,  avg # of iterations =  2.3

     negative rho (up, down):  0.000E+00 3.639E-04

     total cpu time spent up to now is     3395.0 secs

     total energy              =   -2126.08836217 Ry
     estimated scf accuracy    <       0.19977990 Ry

     total magnetization       =    19.00 Bohr mag/cell
     absolute magnetization    =    19.00 Bohr mag/cell

     iteration #  8     ecut=   100.00 Ry     beta= 0.40
     Davidson diagonalization with overlap
     c_bands:  1 eigenvalues not converged
     c_bands:  1 eigenvalues not converged
     c_bands:  1 eigenvalues not converged
     c_bands:  1 eigenvalues not converged
     c_bands:  1 eigenvalues not converged
     ethr =  1.06E-04,  avg # of iterations = 12.2

     negative rho (up, down):  0.000E+00 4.676E-04

     total cpu time spent up to now is     4092.9 secs

     total energy              =   -2126.08442035 Ry
     estimated scf accuracy    <       0.32348270 Ry

     total magnetization       =    19.00 Bohr mag/cell
     absolute magnetization    =    19.01 Bohr mag/cell

     iteration #  9     ecut=   100.00 Ry     beta= 0.40
     Davidson diagonalization with overlap
     ethr =  1.06E-04,  avg # of iterations =  1.3

     negative rho (up, down):  0.000E+00 7.275E-04

     total cpu time spent up to now is     4469.3 secs

     total energy              =   -2126.10562456 Ry
     estimated scf accuracy    <       0.11751285 Ry

     total magnetization       =    19.00 Bohr mag/cell
     absolute magnetization    =    19.01 Bohr mag/cell

     iteration # 10     ecut=   100.00 Ry     beta= 0.40
     Davidson diagonalization with overlap
     ethr =  6.22E-05,  avg # of iterations =  1.3

     negative rho (up, down):  0.000E+00 7.577E-04

     total cpu time spent up to now is     4849.9 secs

     total energy              =   -2126.11104348 Ry
     estimated scf accuracy    <       0.09693986 Ry

     total magnetization       =    19.00 Bohr mag/cell
     absolute magnetization    =    19.02 Bohr mag/cell

     iteration # 11     ecut=   100.00 Ry     beta= 0.40
     Davidson diagonalization with overlap
     ethr =  5.13E-05,  avg # of iterations =  1.1

     negative rho (up, down):  0.000E+00 9.241E-04

     total cpu time spent up to now is     5218.8 secs

     total energy              =   -2126.11389397 Ry
     estimated scf accuracy    <       0.04406371 Ry

     total magnetization       =    19.00 Bohr mag/cell
     absolute magnetization    =    19.02 Bohr mag/cell

     iteration # 12     ecut=   100.00 Ry     beta= 0.40
     Davidson diagonalization with overlap
     c_bands:  1 eigenvalues not converged
     c_bands:  2 eigenvalues not converged
     c_bands:  1 eigenvalues not converged
     c_bands:  1 eigenvalues not converged
     c_bands:  1 eigenvalues not converged
     c_bands:  1 eigenvalues not converged
     ethr =  2.33E-05,  avg # of iterations =  4.3

     negative rho (up, down):  0.000E+00 9.389E-04

     total cpu time spent up to now is     5674.2 secs

     total energy              =   -2126.11453707 Ry
     estimated scf accuracy    <       0.01292047 Ry

     total magnetization       =    19.00 Bohr mag/cell
     absolute magnetization    =    19.03 Bohr mag/cell

     iteration # 13     ecut=   100.00 Ry     beta= 0.40
     Davidson diagonalization with overlap
     c_bands:  1 eigenvalues not converged
     c_bands:  1 eigenvalues not converged
     c_bands:  1 eigenvalues not converged
     c_bands:  1 eigenvalues not converged
     c_bands:  1 eigenvalues not converged
     c_bands:  1 eigenvalues not converged
     c_bands:  1 eigenvalues not converged
     c_bands:  1 eigenvalues not converged
     c_bands:  1 eigenvalues not converged
     c_bands:  1 eigenvalues not converged
     c_bands:  1 eigenvalues not converged
     c_bands:  1 eigenvalues not converged
     c_bands:  1 eigenvalues not converged
     c_bands:  1 eigenvalues not converged
     c_bands:  1 eigenvalues not converged
     c_bands:  1 eigenvalues not converged
     c_bands:  1 eigenvalues not converged
     c_bands:  1 eigenvalues not converged
     c_bands:  1 eigenvalues not converged
     c_bands:  1 eigenvalues not converged
     c_bands:  1 eigenvalues not converged
     c_bands:  1 eigenvalues not converged
     c_bands:  1 eigenvalues not converged
     c_bands:  1 eigenvalues not converged
     c_bands:  1 eigenvalues not converged
     ethr =  6.84E-06,  avg # of iterations = 12.5

     negative rho (up, down):  0.000E+00 9.425E-04

     total cpu time spent up to now is     6363.1 secs

     total energy              =   -2126.11554095 Ry
     estimated scf accuracy    <       0.00931693 Ry

     total magnetization       =    19.00 Bohr mag/cell
     absolute magnetization    =    19.04 Bohr mag/cell

     iteration # 14     ecut=   100.00 Ry     beta= 0.40
     Davidson diagonalization with overlap
     c_bands:  1 eigenvalues not converged
     ethr =  4.93E-06,  avg # of iterations =  1.7

     negative rho (up, down):  0.000E+00 9.554E-04

     total cpu time spent up to now is     6750.3 secs

     total energy              =   -2126.11576630 Ry
     estimated scf accuracy    <       0.00362139 Ry

     total magnetization       =    19.00 Bohr mag/cell
     absolute magnetization    =    19.04 Bohr mag/cell

     iteration # 15     ecut=   100.00 Ry     beta= 0.40
     Davidson diagonalization with overlap
     c_bands:  1 eigenvalues not converged
     c_bands:  1 eigenvalues not converged
     c_bands:  1 eigenvalues not converged
     c_bands:  1 eigenvalues not converged
     c_bands:  1 eigenvalues not converged
     c_bands:  1 eigenvalues not converged
     ethr =  1.92E-06,  avg # of iterations =  5.0

     negative rho (up, down):  0.000E+00 9.472E-04

     total cpu time spent up to now is     7239.8 secs

     total energy              =   -2126.11602457 Ry
     estimated scf accuracy    <       0.00139793 Ry

     total magnetization       =    19.00 Bohr mag/cell
     absolute magnetization    =    19.04 Bohr mag/cell

     iteration # 16     ecut=   100.00 Ry     beta= 0.40
     Davidson diagonalization with overlap
     c_bands:  1 eigenvalues not converged
     ethr =  7.40E-07,  avg # of iterations =  3.2

     negative rho (up, down):  0.000E+00 9.412E-04

     total cpu time spent up to now is     7705.1 secs

     total energy              =   -2126.11616166 Ry
     estimated scf accuracy    <       0.00025508 Ry

     total magnetization       =    19.00 Bohr mag/cell
     absolute magnetization    =    19.04 Bohr mag/cell

     iteration # 17     ecut=   100.00 Ry     beta= 0.40
     Davidson diagonalization with overlap
     ethr =  1.35E-07,  avg # of iterations =  4.7

     negative rho (up, down):  0.000E+00 9.344E-04

     total cpu time spent up to now is     8390.0 secs

     total energy              =   -2126.11626228 Ry
     estimated scf accuracy    <       0.00005112 Ry

     total magnetization       =    19.00 Bohr mag/cell
     absolute magnetization    =    19.04 Bohr mag/cell

     iteration # 18     ecut=   100.00 Ry     beta= 0.40
     Davidson diagonalization with overlap
     ethr =  2.70E-08,  avg # of iterations =  1.0

     negative rho (up, down):  0.000E+00 9.301E-04

     total cpu time spent up to now is     8754.0 secs

     total energy              =   -2126.11626412 Ry
     estimated scf accuracy    <       0.00007131 Ry

     total magnetization       =    19.00 Bohr mag/cell
     absolute magnetization    =    19.04 Bohr mag/cell

     iteration # 19     ecut=   100.00 Ry     beta= 0.40
     Davidson diagonalization with overlap
     ethr =  2.70E-08,  avg # of iterations =  1.0

     negative rho (up, down):  0.000E+00 9.272E-04

     total cpu time spent up to now is     9116.5 secs

     total energy              =   -2126.11626752 Ry
     estimated scf accuracy    <       0.00000521 Ry

     total magnetization       =    19.00 Bohr mag/cell
     absolute magnetization    =    19.04 Bohr mag/cell

     iteration # 20     ecut=   100.00 Ry     beta= 0.40
     Davidson diagonalization with overlap
     ethr =  2.76E-09,  avg # of iterations =  4.3

     negative rho (up, down):  0.000E+00 9.250E-04

     total cpu time spent up to now is     9664.1 secs

     total energy              =   -2126.11626906 Ry
     estimated scf accuracy    <       0.00000235 Ry

     total magnetization       =    19.00 Bohr mag/cell
     absolute magnetization    =    19.04 Bohr mag/cell

     iteration # 21     ecut=   100.00 Ry     beta= 0.40
     Davidson diagonalization with overlap
     ethr =  1.24E-09,  avg # of iterations =  1.8

     negative rho (up, down):  0.000E+00 9.237E-04

     total cpu time spent up to now is    10076.2 secs

     total energy              =   -2126.11626929 Ry
     estimated scf accuracy    <       0.00000203 Ry

     total magnetization       =    19.00 Bohr mag/cell
     absolute magnetization    =    19.04 Bohr mag/cell

     iteration # 22     ecut=   100.00 Ry     beta= 0.40
     Davidson diagonalization with overlap
     ethr =  1.07E-09,  avg # of iterations =  1.6

     negative rho (up, down):  0.000E+00 9.241E-04

     total cpu time spent up to now is    10470.4 secs

     total energy              =   -2126.11626952 Ry
     estimated scf accuracy    <       0.00000108 Ry

     total magnetization       =    19.00 Bohr mag/cell
     absolute magnetization    =    19.04 Bohr mag/cell

     iteration # 23     ecut=   100.00 Ry     beta= 0.40
     Davidson diagonalization with overlap
     ethr =  5.73E-10,  avg # of iterations =  1.1

     negative rho (up, down):  0.000E+00 9.254E-04

     total cpu time spent up to now is    10837.8 secs

     total energy              =   -2126.11626954 Ry
     estimated scf accuracy    <       0.00000010 Ry

     total magnetization       =    19.00 Bohr mag/cell
     absolute magnetization    =    19.04 Bohr mag/cell

     iteration # 24     ecut=   100.00 Ry     beta= 0.40
     Davidson diagonalization with overlap
     ethr =  5.44E-11,  avg # of iterations =  3.4

     negative rho (up, down):  0.000E+00 9.251E-04

     total cpu time spent up to now is    11394.4 secs

     total energy              =   -2126.11626957 Ry
     estimated scf accuracy    <       0.00000008 Ry

     total magnetization       =    19.00 Bohr mag/cell
     absolute magnetization    =    19.04 Bohr mag/cell

     iteration # 25     ecut=   100.00 Ry     beta= 0.40
     Davidson diagonalization with overlap
     ethr =  4.45E-11,  avg # of iterations =  1.9

     negative rho (up, down):  0.000E+00 9.254E-04

     total cpu time spent up to now is    11807.7 secs

     total energy              =   -2126.11626958 Ry
     estimated scf accuracy    <       0.00000004 Ry

     total magnetization       =    19.00 Bohr mag/cell
     absolute magnetization    =    19.04 Bohr mag/cell

     iteration # 26     ecut=   100.00 Ry     beta= 0.40
     Davidson diagonalization with overlap
     ethr =  1.94E-11,  avg # of iterations =  1.2

     negative rho (up, down):  0.000E+00 9.255E-04

     total cpu time spent up to now is    12179.3 secs

     total energy              =   -2126.11626959 Ry
     estimated scf accuracy    <       0.00000003 Ry

     total magnetization       =    19.00 Bohr mag/cell
     absolute magnetization    =    19.04 Bohr mag/cell

     iteration # 27     ecut=   100.00 Ry     beta= 0.40
     Davidson diagonalization with overlap
     ethr =  1.77E-11,  avg # of iterations =  1.0

     negative rho (up, down):  0.000E+00 9.255E-04

     total cpu time spent up to now is    12541.3 secs

     total energy              =   -2126.11626959 Ry
     estimated scf accuracy    <          1.9E-09 Ry

     total magnetization       =    19.00 Bohr mag/cell
     absolute magnetization    =    19.04 Bohr mag/cell

     iteration # 28     ecut=   100.00 Ry     beta= 0.40
     Davidson diagonalization with overlap
     ethr =  1.01E-12,  avg # of iterations =  4.8

     negative rho (up, down):  0.000E+00 9.255E-04

     total cpu time spent up to now is    13224.8 secs

     total energy              =   -2126.11626959 Ry
     estimated scf accuracy    <          1.2E-09 Ry

     total magnetization       =    19.00 Bohr mag/cell
     absolute magnetization    =    19.04 Bohr mag/cell

     iteration # 29     ecut=   100.00 Ry     beta= 0.40
     Davidson diagonalization with overlap
     ethr =  6.51E-13,  avg # of iterations =  1.6

     negative rho (up, down):  0.000E+00 9.255E-04

     Magnetic moment per site:
     atom:    1    charge:    7.8757    magn:    0.0006    constr:    0.0000
     atom:    2    charge:   12.7522    magn:    3.6315    constr:    0.0000
     atom:    3    charge:   12.7591    magn:    3.6162    constr:    0.0000
     atom:    4    charge:   12.7962    magn:    3.5156    constr:    0.0000
     atom:    5    charge:   12.7589    magn:    3.6203    constr:    0.0000
     atom:    6    charge:    0.7679    magn:    0.0102    constr:    0.0000
     atom:    7    charge:    0.7703    magn:    0.0080    constr:    0.0000
     atom:    8    charge:    0.7712    magn:    0.0110    constr:    0.0000
     atom:    9    charge:    0.7661    magn:    0.0087    constr:    0.0000
     atom:   10    charge:    4.1033    magn:    0.1344    constr:    0.0000
     atom:   11    charge:    4.1201    magn:    0.0885    constr:    0.0000
     atom:   12    charge:    4.1055    magn:    0.1239    constr:    0.0000
     atom:   13    charge:    4.1014    magn:    0.1083    constr:    0.0000
     atom:   14    charge:    4.1303    magn:    0.1072    constr:    0.0000
     atom:   15    charge:    4.1385    magn:    0.1213    constr:    0.0000
     atom:   16    charge:    4.1320    magn:    0.0755    constr:    0.0000
     atom:   17    charge:    4.1332    magn:    0.1310    constr:    0.0000
     atom:   18    charge:    4.0764    magn:    0.1484    constr:    0.0000
     atom:   19    charge:    4.0775    magn:    0.1288    constr:    0.0000
     atom:   20    charge:    4.0834    magn:    0.1462    constr:    0.0000
     atom:   21    charge:    4.0744    magn:    0.1293    constr:    0.0000
     atom:   22    charge:    4.0823    magn:    0.1387    constr:    0.0000
     atom:   23    charge:    4.0811    magn:    0.1199    constr:    0.0000
     atom:   24    charge:    4.0762    magn:    0.1497    constr:    0.0000
     atom:   25    charge:    4.0812    magn:    0.1307    constr:    0.0000

     total cpu time spent up to now is    13622.6 secs

     End of self-consistent calculation

 ------ SPIN UP ------------


          k = 0.0000 0.0000 0.0000 ( 35285 PWs)   bands (ev):

   -84.7621 -84.7495 -84.7389 -84.3392 -50.9107 -50.8479 -50.8347 -50.7206
   -50.7169 -50.7035 -50.6875 -50.6574 -50.6307 -50.6272 -50.2849 -50.1087
   -44.7279 -16.7834 -16.7197 -16.6835 -16.1139 -15.9266 -15.7191 -15.6436
   -13.8038 -13.6202 -13.4521 -13.4317 -13.4133 -13.3613 -13.1896 -13.1445
   -13.0954 -13.0697 -12.9618 -12.8507  -3.9161  -3.4487  -3.2306  -2.8273
    -2.1406  -1.8248  -1.5467  -1.3879  -1.2883  -1.1950  -1.0492  -0.9641
    -0.8043  -0.7539  -0.4667  -0.1959  -0.0128   0.0168   0.5390   0.5654
     0.6521   0.7130   0.9141   0.9754   1.0509   1.1117   1.2112   1.2692
     1.3891   1.6871   1.7119   1.8273   1.8528   1.8964   1.9974   2.0736
     2.1410   2.2856   2.5463   2.5719   2.6176   2.6369   2.7584   2.8265
     2.8956   3.0176   3.0917   3.1928   3.2298   3.4429   3.5624   3.5835
     3.6100   3.7592   3.7996   3.8754   3.9653   4.0870   4.1274   4.2532
     4.3502   4.5562   4.5699   4.6843   4.8988   5.0694   5.2169   5.3337
     9.7301  11.7657  12.2032  12.6367  12.9065  13.3416  13.9328  14.0265
    14.0942  14.3237

     occupation numbers 
     1.0000   1.0000   1.0000   1.0000   1.0000   1.0000   1.0000   1.0000
     1.0000   1.0000   1.0000   1.0000   1.0000   1.0000   1.0000   1.0000
     1.0000   1.0000   1.0000   1.0000   1.0000   1.0000   1.0000   1.0000
     1.0000   1.0000   1.0000   1.0000   1.0000   1.0000   1.0000   1.0000
     1.0000   1.0000   1.0000   1.0000   1.0000   1.0000   1.0000   1.0000
     1.0000   1.0000   1.0000   1.0000   1.0000   1.0000   1.0000   1.0000
     1.0000   1.0000   1.0000   1.0000   1.0000   1.0000   1.0000   1.0000
     1.0000   1.0000   1.0000   1.0000   1.0000   1.0000   1.0000   1.0000
     1.0000   1.0000   1.0000   1.0000   1.0000   1.0000   1.0000   1.0000
     1.0000   1.0000   1.0000   1.0000   1.0000   1.0000   1.0000   1.0000
     1.0000   1.0000   1.0000   1.0000   1.0000   1.0000   1.0000   1.0000
     1.0000   1.0000   1.0000   1.0000   1.0000   1.0000   1.0000   1.0000
     1.0000   1.0000   1.0000   1.0000   1.0000   1.0000   1.0000   1.0000
     0.0000   0.0000   0.0000   0.0000   0.0000   0.0000   0.0000   0.0000
     0.0000   0.0000

          k = 0.0000 0.0000 0.2259 ( 35287 PWs)   bands (ev):

   -84.7621 -84.7495 -84.7389 -84.3392 -50.9107 -50.8479 -50.8347 -50.7206
   -50.7169 -50.7035 -50.6875 -50.6574 -50.6307 -50.6272 -50.2849 -50.1087
   -44.7279 -16.7856 -16.7272 -16.6824 -16.0971 -15.9186 -15.7136 -15.6400
   -13.8021 -13.6211 -13.4692 -13.4308 -13.4181 -13.3634 -13.1853 -13.1581
   -13.0911 -13.0816 -12.9661 -12.8548  -3.8908  -3.4407  -3.2300  -2.8406
    -2.0958  -1.8028  -1.5478  -1.3785  -1.2819  -1.2102  -1.0421  -0.9261
    -0.7981  -0.7185  -0.5121  -0.1674  -0.0203   0.0076   0.5378   0.5763
     0.6604   0.7509   0.9113   0.9834   1.0491   1.0788   1.1947   1.3130
     1.3721   1.6774   1.6895   1.7805   1.8448   1.8668   1.9524   1.9900
     2.2759   2.2966   2.4538   2.5225   2.6111   2.6567   2.7002   2.8729
     2.9011   2.9742   3.1034   3.2444   3.3251   3.4387   3.4855   3.5630
     3.5919   3.7642   3.8069   3.8252   3.9699   4.0891   4.1911   4.2536
     4.3786   4.5595   4.5863   4.6866   4.8984   5.0496   5.1912   5.3121
     9.8808  11.8360  12.2716  12.6353  12.9582  13.3019  13.8234  13.9849
    14.0176  14.2458

     occupation numbers 
     1.0000   1.0000   1.0000   1.0000   1.0000   1.0000   1.0000   1.0000
     1.0000   1.0000   1.0000   1.0000   1.0000   1.0000   1.0000   1.0000
     1.0000   1.0000   1.0000   1.0000   1.0000   1.0000   1.0000   1.0000
     1.0000   1.0000   1.0000   1.0000   1.0000   1.0000   1.0000   1.0000
     1.0000   1.0000   1.0000   1.0000   1.0000   1.0000   1.0000   1.0000
     1.0000   1.0000   1.0000   1.0000   1.0000   1.0000   1.0000   1.0000
     1.0000   1.0000   1.0000   1.0000   1.0000   1.0000   1.0000   1.0000
     1.0000   1.0000   1.0000   1.0000   1.0000   1.0000   1.0000   1.0000
     1.0000   1.0000   1.0000   1.0000   1.0000   1.0000   1.0000   1.0000
     1.0000   1.0000   1.0000   1.0000   1.0000   1.0000   1.0000   1.0000
     1.0000   1.0000   1.0000   1.0000   1.0000   1.0000   1.0000   1.0000
     1.0000   1.0000   1.0000   1.0000   1.0000   1.0000   1.0000   1.0000
     1.0000   1.0000   1.0000   1.0000   1.0000   1.0000   1.0000   1.0000
     0.0000   0.0000   0.0000   0.0000   0.0000   0.0000   0.0000   0.0000
     0.0000   0.0000

          k = 0.0000 0.0000 0.4519 ( 35272 PWs)   bands (ev):

   -84.7621 -84.7495 -84.7389 -84.3392 -50.9107 -50.8479 -50.8347 -50.7206
   -50.7169 -50.7035 -50.6875 -50.6574 -50.6307 -50.6272 -50.2849 -50.1087
   -44.7279 -16.7945 -16.7403 -16.6807 -16.0549 -15.8981 -15.6990 -15.6318
   -13.7976 -13.6255 -13.5086 -13.4433 -13.4202 -13.3660 -13.1975 -13.1696
   -13.1116 -13.0795 -12.9778 -12.8658  -3.8192  -3.4277  -3.2246  -2.8863
    -1.9748  -1.7479  -1.5489  -1.3737  -1.2581  -1.2242  -1.0284  -0.8138
    -0.7788  -0.6397  -0.6205  -0.1312  -0.0776   0.0740   0.5434   0.6125
     0.6852   0.8264   0.9314   0.9894   1.0346   1.0552   1.1395   1.3482
     1.3754   1.6138   1.6836   1.7079   1.7772   1.8214   1.8431   1.9216
     2.1782   2.2622   2.4165   2.4886   2.5741   2.5807   2.7714   2.8165
     2.9419   2.9658   3.2047   3.2533   3.2890   3.4292   3.4460   3.5069
     3.6213   3.6839   3.8005   3.9228   4.0060   4.1023   4.2505   4.2970
     4.4569   4.5296   4.6276   4.7194   4.8951   5.0047   5.1127   5.2457
    10.2866  12.0224  12.4409  12.6736  13.0631  13.2382  13.5557  13.7870
    13.8843  13.9731

     occupation numbers 
     1.0000   1.0000   1.0000   1.0000   1.0000   1.0000   1.0000   1.0000
     1.0000   1.0000   1.0000   1.0000   1.0000   1.0000   1.0000   1.0000
     1.0000   1.0000   1.0000   1.0000   1.0000   1.0000   1.0000   1.0000
     1.0000   1.0000   1.0000   1.0000   1.0000   1.0000   1.0000   1.0000
     1.0000   1.0000   1.0000   1.0000   1.0000   1.0000   1.0000   1.0000
     1.0000   1.0000   1.0000   1.0000   1.0000   1.0000   1.0000   1.0000
     1.0000   1.0000   1.0000   1.0000   1.0000   1.0000   1.0000   1.0000
     1.0000   1.0000   1.0000   1.0000   1.0000   1.0000   1.0000   1.0000
     1.0000   1.0000   1.0000   1.0000   1.0000   1.0000   1.0000   1.0000
     1.0000   1.0000   1.0000   1.0000   1.0000   1.0000   1.0000   1.0000
     1.0000   1.0000   1.0000   1.0000   1.0000   1.0000   1.0000   1.0000
     1.0000   1.0000   1.0000   1.0000   1.0000   1.0000   1.0000   1.0000
     1.0000   1.0000   1.0000   1.0000   1.0000   1.0000   1.0000   1.0000
     0.0000   0.0000   0.0000   0.0000   0.0000   0.0000   0.0000   0.0000
     0.0000   0.0000

          k = 0.0000 0.0000 0.6778 ( 35290 PWs)   bands (ev):

   -84.7621 -84.7495 -84.7389 -84.3392 -50.9107 -50.8479 -50.8347 -50.7206
   -50.7169 -50.7035 -50.6875 -50.6574 -50.6307 -50.6272 -50.2849 -50.1087
   -44.7278 -16.8099 -16.7472 -16.6793 -16.0070 -15.8742 -15.6807 -15.6252
   -13.7924 -13.6354 -13.5518 -13.4615 -13.4171 -13.3670 -13.2398 -13.1542
   -13.1448 -13.0652 -12.9929 -12.8802  -3.7150  -3.4338  -3.2086  -2.9606
    -1.8344  -1.6935  -1.5335  -1.3877  -1.2190  -1.2010  -1.0076  -0.8370
    -0.6842  -0.6669  -0.5363  -0.2862   0.0699   0.2098   0.5602   0.6755
     0.7366   0.8372   0.9383   0.9864   1.0278   1.0496   1.1005   1.3625
     1.3814   1.4994   1.5712   1.6289   1.7589   1.7797   1.8230   1.8726
     1.9066   2.1166   2.3516   2.4299   2.4884   2.7056   2.7469   2.9129
     2.9776   3.0082   3.0543   3.1666   3.3201   3.3332   3.4559   3.4827
     3.6347   3.6436   3.9093   4.0532   4.0863   4.1940   4.2545   4.3574
     4.4816   4.5759   4.6694   4.7574   4.8874   4.9662   4.9838   5.1341
    10.8486  12.2557  12.5144  12.8221  13.0133  13.2800  13.3979  13.6332
    13.6491  13.6942

     occupation numbers 
     1.0000   1.0000   1.0000   1.0000   1.0000   1.0000   1.0000   1.0000
     1.0000   1.0000   1.0000   1.0000   1.0000   1.0000   1.0000   1.0000
     1.0000   1.0000   1.0000   1.0000   1.0000   1.0000   1.0000   1.0000
     1.0000   1.0000   1.0000   1.0000   1.0000   1.0000   1.0000   1.0000
     1.0000   1.0000   1.0000   1.0000   1.0000   1.0000   1.0000   1.0000
     1.0000   1.0000   1.0000   1.0000   1.0000   1.0000   1.0000   1.0000
     1.0000   1.0000   1.0000   1.0000   1.0000   1.0000   1.0000   1.0000
     1.0000   1.0000   1.0000   1.0000   1.0000   1.0000   1.0000   1.0000
     1.0000   1.0000   1.0000   1.0000   1.0000   1.0000   1.0000   1.0000
     1.0000   1.0000   1.0000   1.0000   1.0000   1.0000   1.0000   1.0000
     1.0000   1.0000   1.0000   1.0000   1.0000   1.0000   1.0000   1.0000
     1.0000   1.0000   1.0000   1.0000   1.0000   1.0000   1.0000   1.0000
     1.0000   1.0000   1.0000   1.0000   1.0000   1.0000   1.0000   1.0000
     0.0000   0.0000   0.0000   0.0000   0.0000   0.0000   0.0000   0.0000
     0.0000   0.0000

          k = 0.0000 0.0000 0.9038 ( 35316 PWs)   bands (ev):

   -84.7621 -84.7495 -84.7389 -84.3392 -50.9107 -50.8479 -50.8347 -50.7206
   -50.7169 -50.7035 -50.6875 -50.6574 -50.6307 -50.6272 -50.2849 -50.1087
   -44.7278 -16.8215 -16.7490 -16.6784 -15.9751 -15.8584 -15.6665 -15.6239
   -13.7886 -13.6458 -13.5793 -13.4701 -13.4149 -13.3684 -13.2679 -13.1695
   -13.1389 -13.0555 -13.0040 -12.8910  -3.6084  -3.4740  -3.1854  -3.0292
    -1.7509  -1.6701  -1.5063  -1.3961  -1.1827  -1.1163  -1.0138  -0.9768
    -0.6024  -0.5822  -0.4676  -0.4501   0.2553   0.4214   0.5781   0.7021
     0.7609   0.8117   0.8979   0.9092   0.9403   1.0442   1.1677   1.3280
     1.4063   1.4216   1.5037   1.5230   1.6224   1.7531   1.7933   1.8533
     1.9572   2.1177   2.1846   2.3287   2.4789   2.6324   2.8854   2.9318
     2.9774   3.0209   3.0735   3.0910   3.2184   3.2772   3.4652   3.4891
     3.6290   3.6485   4.0324   4.0902   4.1111   4.2224   4.3805   4.4321
     4.4770   4.6890   4.7093   4.7699   4.8020   4.8911   4.9560   5.0038
    11.4687  12.0699  12.5693  12.8791  13.1249  13.2110  13.4303  13.4904
    13.6199  13.6727

     occupation numbers 
     1.0000   1.0000   1.0000   1.0000   1.0000   1.0000   1.0000   1.0000
     1.0000   1.0000   1.0000   1.0000   1.0000   1.0000   1.0000   1.0000
     1.0000   1.0000   1.0000   1.0000   1.0000   1.0000   1.0000   1.0000
     1.0000   1.0000   1.0000   1.0000   1.0000   1.0000   1.0000   1.0000
     1.0000   1.0000   1.0000   1.0000   1.0000   1.0000   1.0000   1.0000
     1.0000   1.0000   1.0000   1.0000   1.0000   1.0000   1.0000   1.0000
     1.0000   1.0000   1.0000   1.0000   1.0000   1.0000   1.0000   1.0000
     1.0000   1.0000   1.0000   1.0000   1.0000   1.0000   1.0000   1.0000
     1.0000   1.0000   1.0000   1.0000   1.0000   1.0000   1.0000   1.0000
     1.0000   1.0000   1.0000   1.0000   1.0000   1.0000   1.0000   1.0000
     1.0000   1.0000   1.0000   1.0000   1.0000   1.0000   1.0000   1.0000
     1.0000   1.0000   1.0000   1.0000   1.0000   1.0000   1.0000   1.0000
     1.0000   1.0000   1.0000   1.0000   1.0000   1.0000   1.0000   1.0000
     0.0000   0.0000   0.0000   0.0000   0.0000   0.0000   0.0000   0.0000
     0.0000   0.0000

          k = 0.0000 0.2311 0.0000 ( 35259 PWs)   bands (ev):

   -84.7621 -84.7495 -84.7389 -84.3392 -50.9107 -50.8479 -50.8347 -50.7206
   -50.7169 -50.7035 -50.6875 -50.6574 -50.6307 -50.6272 -50.2849 -50.1087
   -44.7279 -16.7832 -16.7196 -16.6846 -16.0978 -15.9235 -15.7191 -15.6597
   -13.8024 -13.6180 -13.4659 -13.4477 -13.4152 -13.3606 -13.1834 -13.1407
   -13.0962 -13.0535 -12.9631 -12.8554  -3.8928  -3.4687  -3.2065  -2.8333
    -2.1208  -1.8310  -1.5499  -1.3940  -1.2505  -1.1833  -1.0519  -0.9531
    -0.7832  -0.7229  -0.4327  -0.1684  -0.0831   0.0718   0.5379   0.5914
     0.6365   0.6998   0.8008   0.8994   0.9525   1.1639   1.2458   1.3292
     1.4787   1.6795   1.7195   1.7885   1.8376   1.8892   1.9287   1.9705
     2.1712   2.3075   2.4874   2.5722   2.6211   2.6787   2.7793   2.8094
     2.9640   2.9814   3.0496   3.1000   3.2455   3.4470   3.5452   3.5630
     3.6340   3.7069   3.7547   3.9507   4.0121   4.0821   4.1584   4.2668
     4.3513   4.5233   4.6069   4.6632   4.8903   4.9797   5.3022   5.3595
     9.8819  11.8528  12.2785  12.6102  12.9187  13.4232  13.8802  13.9810
    14.0517  14.2754

     occupation numbers 
     1.0000   1.0000   1.0000   1.0000   1.0000   1.0000   1.0000   1.0000
     1.0000   1.0000   1.0000   1.0000   1.0000   1.0000   1.0000   1.0000
     1.0000   1.0000   1.0000   1.0000   1.0000   1.0000   1.0000   1.0000
     1.0000   1.0000   1.0000   1.0000   1.0000   1.0000   1.0000   1.0000
     1.0000   1.0000   1.0000   1.0000   1.0000   1.0000   1.0000   1.0000
     1.0000   1.0000   1.0000   1.0000   1.0000   1.0000   1.0000   1.0000
     1.0000   1.0000   1.0000   1.0000   1.0000   1.0000   1.0000   1.0000
     1.0000   1.0000   1.0000   1.0000   1.0000   1.0000   1.0000   1.0000
     1.0000   1.0000   1.0000   1.0000   1.0000   1.0000   1.0000   1.0000
     1.0000   1.0000   1.0000   1.0000   1.0000   1.0000   1.0000   1.0000
     1.0000   1.0000   1.0000   1.0000   1.0000   1.0000   1.0000   1.0000
     1.0000   1.0000   1.0000   1.0000   1.0000   1.0000   1.0000   1.0000
     1.0000   1.0000   1.0000   1.0000   1.0000   1.0000   1.0000   1.0000
     0.0000   0.0000   0.0000   0.0000   0.0000   0.0000   0.0000   0.0000
     0.0000   0.0000

          k = 0.0000 0.2311 0.2259 ( 35237 PWs)   bands (ev):

   -84.7621 -84.7495 -84.7389 -84.3392 -50.9107 -50.8479 -50.8347 -50.7206
   -50.7169 -50.7035 -50.6875 -50.6574 -50.6307 -50.6272 -50.2849 -50.1087
   -44.7279 -16.7856 -16.7272 -16.6834 -16.0805 -15.9145 -15.7148 -15.6558
   -13.8006 -13.6184 -13.4717 -13.4556 -13.4222 -13.3640 -13.1924 -13.1428
   -13.1041 -13.0544 -12.9653 -12.8584  -3.8680  -3.4591  -3.2076  -2.8456
    -2.0782  -1.8081  -1.5482  -1.3837  -1.2458  -1.1962  -1.0357  -0.9246
    -0.7501  -0.7178  -0.4804  -0.1642  -0.0836   0.0756   0.5190   0.5969
     0.6709   0.7206   0.8109   0.9095   0.9505   1.1543   1.2714   1.3184
     1.4425   1.6740   1.7037   1.7445   1.8258   1.8502   1.8994   1.9343
     2.2668   2.3258   2.4369   2.5390   2.6087   2.6647   2.7172   2.8237
     2.9310   2.9989   3.0442   3.1794   3.2704   3.4496   3.4795   3.5480
     3.5885   3.7309   3.7802   3.9035   4.0206   4.0933   4.1954   4.2725
     4.3771   4.5206   4.6261   4.6810   4.8688   4.9724   5.2833   5.3432
    10.0264  11.9214  12.3485  12.6390  12.9469  13.3761  13.7821  13.9325
    14.0293  14.1804

     occupation numbers 
     1.0000   1.0000   1.0000   1.0000   1.0000   1.0000   1.0000   1.0000
     1.0000   1.0000   1.0000   1.0000   1.0000   1.0000   1.0000   1.0000
     1.0000   1.0000   1.0000   1.0000   1.0000   1.0000   1.0000   1.0000
     1.0000   1.0000   1.0000   1.0000   1.0000   1.0000   1.0000   1.0000
     1.0000   1.0000   1.0000   1.0000   1.0000   1.0000   1.0000   1.0000
     1.0000   1.0000   1.0000   1.0000   1.0000   1.0000   1.0000   1.0000
     1.0000   1.0000   1.0000   1.0000   1.0000   1.0000   1.0000   1.0000
     1.0000   1.0000   1.0000   1.0000   1.0000   1.0000   1.0000   1.0000
     1.0000   1.0000   1.0000   1.0000   1.0000   1.0000   1.0000   1.0000
     1.0000   1.0000   1.0000   1.0000   1.0000   1.0000   1.0000   1.0000
     1.0000   1.0000   1.0000   1.0000   1.0000   1.0000   1.0000   1.0000
     1.0000   1.0000   1.0000   1.0000   1.0000   1.0000   1.0000   1.0000
     1.0000   1.0000   1.0000   1.0000   1.0000   1.0000   1.0000   1.0000
     0.0000   0.0000   0.0000   0.0000   0.0000   0.0000   0.0000   0.0000
     0.0000   0.0000

          k = 0.0000 0.2311 0.4519 ( 35268 PWs)   bands (ev):

   -84.7621 -84.7495 -84.7389 -84.3392 -50.9107 -50.8479 -50.8347 -50.7206
   -50.7169 -50.7035 -50.6875 -50.6574 -50.6307 -50.6272 -50.2849 -50.1087
   -44.7279 -16.7946 -16.7402 -16.6815 -16.0402 -15.8918 -15.7025 -15.6454
   -13.7956 -13.6219 -13.5065 -13.4549 -13.4394 -13.3699 -13.2231 -13.1430
   -13.1263 -13.0502 -12.9740 -12.8670  -3.7981  -3.4409  -3.2061  -2.8895
    -1.9622  -1.7502  -1.5433  -1.3736  -1.2319  -1.1978  -1.0156  -0.8219
    -0.7354  -0.6402  -0.5947  -0.2083  -0.0364   0.0986   0.5025   0.6227
     0.7041   0.7340   0.8944   0.9414   0.9606   1.1126   1.2591   1.3469
     1.3875   1.6154   1.6678   1.7085   1.7497   1.7927   1.8301   1.9193
     2.2008   2.2592   2.4561   2.4856   2.5511   2.6157   2.7069   2.8349
     2.8681   3.0278   3.1406   3.2242   3.2770   3.3249   3.4482   3.5215
     3.5560   3.7295   3.8364   3.8902   4.0395   4.1356   4.2465   4.3076
     4.4433   4.5105   4.6115   4.7565   4.8199   4.9657   5.2304   5.2969
    10.4191  12.1069  12.5249  12.7220  13.0237  13.2979  13.5630  13.7619
    13.8923  14.0398

     occupation numbers 
     1.0000   1.0000   1.0000   1.0000   1.0000   1.0000   1.0000   1.0000
     1.0000   1.0000   1.0000   1.0000   1.0000   1.0000   1.0000   1.0000
     1.0000   1.0000   1.0000   1.0000   1.0000   1.0000   1.0000   1.0000
     1.0000   1.0000   1.0000   1.0000   1.0000   1.0000   1.0000   1.0000
     1.0000   1.0000   1.0000   1.0000   1.0000   1.0000   1.0000   1.0000
     1.0000   1.0000   1.0000   1.0000   1.0000   1.0000   1.0000   1.0000
     1.0000   1.0000   1.0000   1.0000   1.0000   1.0000   1.0000   1.0000
     1.0000   1.0000   1.0000   1.0000   1.0000   1.0000   1.0000   1.0000
     1.0000   1.0000   1.0000   1.0000   1.0000   1.0000   1.0000   1.0000
     1.0000   1.0000   1.0000   1.0000   1.0000   1.0000   1.0000   1.0000
     1.0000   1.0000   1.0000   1.0000   1.0000   1.0000   1.0000   1.0000
     1.0000   1.0000   1.0000   1.0000   1.0000   1.0000   1.0000   1.0000
     1.0000   1.0000   1.0000   1.0000   1.0000   1.0000   1.0000   1.0000
     0.0000   0.0000   0.0000   0.0000   0.0000   0.0000   0.0000   0.0000
     0.0000   0.0000

          k = 0.0000 0.2311 0.6778 ( 35293 PWs)   bands (ev):

   -84.7621 -84.7495 -84.7389 -84.3392 -50.9107 -50.8479 -50.8347 -50.7206
   -50.7169 -50.7035 -50.6875 -50.6574 -50.6307 -50.6272 -50.2849 -50.1087
   -44.7278 -16.8096 -16.7471 -16.6799 -15.9959 -15.8652 -15.6869 -15.6348
   -13.7895 -13.6312 -13.5500 -13.4605 -13.4442 -13.3755 -13.2647 -13.1663
   -13.1240 -13.0410 -12.9864 -12.8785  -3.6972  -3.4376  -3.1969  -2.9611
    -1.8259  -1.6886  -1.5265  -1.3803  -1.2072  -1.1585  -0.9927  -0.8059
    -0.6951  -0.6511  -0.5312  -0.3149   0.0709   0.1805   0.4984   0.6498
     0.6754   0.7954   0.9382   0.9962   1.0493   1.0878   1.2051   1.3182
     1.4054   1.4944   1.5748   1.6510   1.7337   1.7592   1.8089   1.8848
     1.9410   2.1025   2.3351   2.4677   2.5002   2.6859   2.7341   2.8618
     2.8882   3.0176   3.1089   3.2038   3.2462   3.3181   3.3453   3.5254
     3.5697   3.6720   3.9385   4.0302   4.0740   4.1794   4.2623   4.3535
     4.4692   4.5414   4.6067   4.7437   4.8621   4.9627   5.1499   5.2254
    10.9679  12.3487  12.6154  12.8671  13.0566  13.3105  13.4209  13.5749
    13.6638  13.7308

     occupation numbers 
     1.0000   1.0000   1.0000   1.0000   1.0000   1.0000   1.0000   1.0000
     1.0000   1.0000   1.0000   1.0000   1.0000   1.0000   1.0000   1.0000
     1.0000   1.0000   1.0000   1.0000   1.0000   1.0000   1.0000   1.0000
     1.0000   1.0000   1.0000   1.0000   1.0000   1.0000   1.0000   1.0000
     1.0000   1.0000   1.0000   1.0000   1.0000   1.0000   1.0000   1.0000
     1.0000   1.0000   1.0000   1.0000   1.0000   1.0000   1.0000   1.0000
     1.0000   1.0000   1.0000   1.0000   1.0000   1.0000   1.0000   1.0000
     1.0000   1.0000   1.0000   1.0000   1.0000   1.0000   1.0000   1.0000
     1.0000   1.0000   1.0000   1.0000   1.0000   1.0000   1.0000   1.0000
     1.0000   1.0000   1.0000   1.0000   1.0000   1.0000   1.0000   1.0000
     1.0000   1.0000   1.0000   1.0000   1.0000   1.0000   1.0000   1.0000
     1.0000   1.0000   1.0000   1.0000   1.0000   1.0000   1.0000   1.0000
     1.0000   1.0000   1.0000   1.0000   1.0000   1.0000   1.0000   1.0000
     0.0000   0.0000   0.0000   0.0000   0.0000   0.0000   0.0000   0.0000
     0.0000   0.0000

          k = 0.0000 0.2311 0.9038 ( 35298 PWs)   bands (ev):

   -84.7621 -84.7495 -84.7389 -84.3392 -50.9107 -50.8479 -50.8347 -50.7206
   -50.7169 -50.7035 -50.6875 -50.6574 -50.6307 -50.6272 -50.2849 -50.1087
   -44.7278 -16.8208 -16.7489 -16.6790 -15.9671 -15.8492 -15.6737 -15.6294
   -13.7852 -13.6416 -13.5780 -13.4674 -13.4378 -13.3822 -13.2919 -13.1882
   -13.1134 -13.0347 -12.9962 -12.8874  -3.5968  -3.4660  -3.1818  -3.0256
    -1.7431  -1.6578  -1.5016  -1.3867  -1.1689  -1.0794  -0.9964  -0.9390
    -0.6323  -0.5765  -0.4797  -0.4207   0.2076   0.3375   0.4815   0.5302
     0.7319   0.8911   0.9212   1.0109   1.0819   1.1036   1.1794   1.2661
     1.3888   1.4228   1.5136   1.5914   1.6402   1.7439   1.7609   1.8246
     1.9487   2.0828   2.1870   2.3491   2.5033   2.6309   2.8370   2.8643
     2.9468   3.0276   3.0521   3.1267   3.2327   3.2805   3.3536   3.5299
     3.5793   3.6488   4.0376   4.0717   4.1411   4.2181   4.3180   4.3612
     4.4336   4.5427   4.6538   4.7294   4.9202   4.9623   5.0745   5.1564
    11.5798  12.1805  12.6543  12.9725  13.1636  13.2586  13.4539  13.5175
    13.5480  13.6994

     occupation numbers 
     1.0000   1.0000   1.0000   1.0000   1.0000   1.0000   1.0000   1.0000
     1.0000   1.0000   1.0000   1.0000   1.0000   1.0000   1.0000   1.0000
     1.0000   1.0000   1.0000   1.0000   1.0000   1.0000   1.0000   1.0000
     1.0000   1.0000   1.0000   1.0000   1.0000   1.0000   1.0000   1.0000
     1.0000   1.0000   1.0000   1.0000   1.0000   1.0000   1.0000   1.0000
     1.0000   1.0000   1.0000   1.0000   1.0000   1.0000   1.0000   1.0000
     1.0000   1.0000   1.0000   1.0000   1.0000   1.0000   1.0000   1.0000
     1.0000   1.0000   1.0000   1.0000   1.0000   1.0000   1.0000   1.0000
     1.0000   1.0000   1.0000   1.0000   1.0000   1.0000   1.0000   1.0000
     1.0000   1.0000   1.0000   1.0000   1.0000   1.0000   1.0000   1.0000
     1.0000   1.0000   1.0000   1.0000   1.0000   1.0000   1.0000   1.0000
     1.0000   1.0000   1.0000   1.0000   1.0000   1.0000   1.0000   1.0000
     1.0000   1.0000   1.0000   1.0000   1.0000   1.0000   1.0000   1.0000
     0.0000   0.0000   0.0000   0.0000   0.0000   0.0000   0.0000   0.0000
     0.0000   0.0000

          k = 0.0000 0.4622 0.0000 ( 35247 PWs)   bands (ev):

   -84.7621 -84.7495 -84.7389 -84.3392 -50.9107 -50.8479 -50.8347 -50.7206
   -50.7169 -50.7035 -50.6875 -50.6574 -50.6307 -50.6272 -50.2849 -50.1087
   -44.7279 -16.7828 -16.7194 -16.6869 -16.0561 -15.9158 -15.7333 -15.6880
   -13.7967 -13.6130 -13.5364 -13.4386 -13.4129 -13.3584 -13.1919 -13.1295
   -13.0917 -13.0149 -12.9707 -12.8659  -3.8297  -3.5246  -3.1432  -2.8586
    -2.0700  -1.8482  -1.5550  -1.4052  -1.2096  -1.1167  -1.0462  -0.8909
    -0.7973  -0.5937  -0.3937  -0.2110  -0.0714   0.1726   0.4928   0.5629
     0.6047   0.6730   0.7231   0.7847   0.8757   1.1494   1.2720   1.4425
     1.5140   1.5635   1.6137   1.7076   1.7709   1.8535   1.9785   2.0196
     2.2212   2.3022   2.4703   2.5225   2.5885   2.6620   2.7071   2.7818
     2.9576   2.9970   3.0454   3.1337   3.2540   3.3935   3.4515   3.5089
     3.5678   3.6593   3.9189   3.9906   4.0526   4.1128   4.1897   4.3130
     4.3465   4.4533   4.5292   4.6590   4.7891   5.1104   5.3543   5.3875
    10.2971  12.0604  12.2486  12.4864  13.0917  13.6186  13.7017  13.8135
    14.1986  14.2819

     occupation numbers 
     1.0000   1.0000   1.0000   1.0000   1.0000   1.0000   1.0000   1.0000
     1.0000   1.0000   1.0000   1.0000   1.0000   1.0000   1.0000   1.0000
     1.0000   1.0000   1.0000   1.0000   1.0000   1.0000   1.0000   1.0000
     1.0000   1.0000   1.0000   1.0000   1.0000   1.0000   1.0000   1.0000
     1.0000   1.0000   1.0000   1.0000   1.0000   1.0000   1.0000   1.0000
     1.0000   1.0000   1.0000   1.0000   1.0000   1.0000   1.0000   1.0000
     1.0000   1.0000   1.0000   1.0000   1.0000   1.0000   1.0000   1.0000
     1.0000   1.0000   1.0000   1.0000   1.0000   1.0000   1.0000   1.0000
     1.0000   1.0000   1.0000   1.0000   1.0000   1.0000   1.0000   1.0000
     1.0000   1.0000   1.0000   1.0000   1.0000   1.0000   1.0000   1.0000
     1.0000   1.0000   1.0000   1.0000   1.0000   1.0000   1.0000   1.0000
     1.0000   1.0000   1.0000   1.0000   1.0000   1.0000   1.0000   1.0000
     1.0000   1.0000   1.0000   1.0000   1.0000   1.0000   1.0000   1.0000
     0.0000   0.0000   0.0000   0.0000   0.0000   0.0000   0.0000   0.0000
     0.0000   0.0000

          k = 0.0000 0.4622 0.2259 ( 35249 PWs)   bands (ev):

   -84.7621 -84.7495 -84.7389 -84.3392 -50.9107 -50.8479 -50.8347 -50.7206
   -50.7169 -50.7035 -50.6875 -50.6574 -50.6307 -50.6272 -50.2849 -50.1087
   -44.7279 -16.7851 -16.7269 -16.6855 -16.0403 -15.9053 -15.7308 -15.6821
   -13.7944 -13.6123 -13.5344 -13.4516 -13.4208 -13.3657 -13.2108 -13.1345
   -13.0941 -13.0133 -12.9700 -12.8669  -3.8063  -3.5114  -3.1472  -2.8686
    -2.0328  -1.8230  -1.5467  -1.3938  -1.2084  -1.1214  -1.0098  -0.8880
    -0.7526  -0.6062  -0.4354  -0.2504  -0.0438   0.1696   0.4573   0.5490
     0.6217   0.6878   0.7516   0.8282   0.8933   1.1810   1.2486   1.4126
     1.4539   1.5591   1.6097   1.6927   1.7550   1.8553   1.9514   2.0372
     2.2385   2.3404   2.4261   2.5479   2.5953   2.6549   2.7041   2.7436
     2.9049   2.9766   3.0503   3.1197   3.2618   3.3832   3.4361   3.4847
     3.5177   3.6931   3.9242   3.9896   4.0494   4.1328   4.2045   4.3195
     4.3629   4.4511   4.5159   4.6417   4.8327   5.1072   5.3416   5.3846
    10.4260  12.1221  12.3163  12.5653  13.1106  13.5396  13.6694  13.8059
    14.0839  14.1960

     occupation numbers 
     1.0000   1.0000   1.0000   1.0000   1.0000   1.0000   1.0000   1.0000
     1.0000   1.0000   1.0000   1.0000   1.0000   1.0000   1.0000   1.0000
     1.0000   1.0000   1.0000   1.0000   1.0000   1.0000   1.0000   1.0000
[...]
     atom   24 type  3   force =     0.00771269   -0.00289666   -0.00263808
     atom   25 type  3   force =    -0.00747362    0.00498231   -0.00279783
     The non-local contrib.  to forces
     atom    1 type  2   force =     0.11734828    0.04406922   -0.00316604
     atom    2 type  1   force =     0.05485748    0.01494670    0.11953923
     atom    3 type  1   force =     0.04971396    0.00001600    0.09105216
     atom    4 type  1   force =    -0.18540989   -0.04521242   -0.07711793
     atom    5 type  1   force =    -0.02970315    0.00892470   -0.09872960
     atom    6 type  4   force =     0.03300912    0.00022571   -0.01169965
     atom    7 type  4   force =    -0.01032045   -0.00185999    0.01575933
     atom    8 type  4   force =    -0.05412261    0.00579379    0.00727626
     atom    9 type  4   force =     0.05960586   -0.00109780    0.01864452
     atom   10 type  3   force =     0.31361737   -0.01092891   -1.45431553
     atom   11 type  3   force =    -0.11981624   -0.01015119   -1.37529396
     atom   12 type  3   force =    -0.39602573    0.01493301    1.45814593
     atom   13 type  3   force =     0.24662834   -0.01500779    1.45943161
     atom   14 type  3   force =     1.20004056   -0.01045659   -0.63397226
     atom   15 type  3   force =    -1.17534003    0.01119275   -0.79416893
     atom   16 type  3   force =    -1.18446614   -0.01853888    0.33106138
     atom   17 type  3   force =     1.15236723   -0.00547058    0.63725190
     atom   18 type  3   force =    -0.51057739   -1.13913773    0.76901092
     atom   19 type  3   force =     0.51003255    1.20941898    0.79043518
     atom   20 type  3   force =     0.51537027   -1.14034006   -0.67514455
     atom   21 type  3   force =    -0.51240832    1.10460162   -0.73351674
     atom   22 type  3   force =     0.55634617    1.15492152   -0.70359565
     atom   23 type  3   force =    -0.57980012   -1.09766255   -0.64591077
     atom   24 type  3   force =    -0.50827622    1.13311898    0.77354716
     atom   25 type  3   force =     0.53491496   -1.18777648    0.81549232
     The ionic contribution  to forces
     atom    1 type  2   force =    -2.95236166    0.21187082    2.22903984
     atom    2 type  1   force =    -0.71244896   -0.13338733   -0.60939728
     atom    3 type  1   force =    -7.63368089    0.39991814   -0.80831979
     atom    4 type  1   force =     4.26477676    0.54321350   -0.24377120
     atom    5 type  1   force =     7.51070130   -0.62003034    0.91896385
     atom    6 type  4   force =    -2.59163465   -0.02413323    0.50915742
     atom    7 type  4   force =    -0.13022291    0.40849243    0.63909108
     atom    8 type  4   force =     4.32696292   -0.00267185   -0.77783817
     atom    9 type  4   force =    -1.84883415   -0.47215218   -0.92467912
     atom   10 type  3   force =   -10.24246465    0.03804621    2.30377257
     atom   11 type  3   force =     3.77629605    0.77757063    0.72572331
     atom   12 type  3   force =    12.24238941   -0.15439938   -2.47051996
     atom   13 type  3   force =    -8.40141371   -0.49475563   -1.83394378
     atom   14 type  3   force =     0.66762350   -0.53844356    5.78245897
     atom   15 type  3   force =    -1.93376363   -0.08333370    7.36954443
     atom   16 type  3   force =    -1.86947480    0.91824587   -2.79068400
     atom   17 type  3   force =     3.58517303    0.07493994   -6.48551270
     atom   18 type  3   force =    -3.92815432    2.86714180   -2.94612612
     atom   19 type  3   force =     0.47997277   -4.37963051   -2.24928953
     atom   20 type  3   force =     5.09700699    4.38483033    2.26719358
     atom   21 type  3   force =    -1.71437414   -1.63811834    1.99646845
     atom   22 type  3   force =     5.13690070   -4.46121374    2.62184056
     atom   23 type  3   force =    -0.19113930    1.12309361    0.48748747
     atom   24 type  3   force =    -3.78834948   -2.78854820   -2.98348439
     atom   25 type  3   force =     0.85051382    4.04345471   -2.72717547
     The local contribution  to forces
     atom    1 type  2   force =     2.84297491   -0.26064591   -2.22021698
     atom    2 type  1   force =     0.64639490    0.11874844    0.49159335
     atom    3 type  1   force =     7.59958219   -0.39931113    0.71470385
     atom    4 type  1   force =    -4.07988063   -0.49733982    0.31893417
     atom    5 type  1   force =    -7.49697711    0.61100696   -0.81876978
     atom    6 type  4   force =     2.62929739    0.02396789   -0.48584589
     atom    7 type  4   force =     0.08142738   -0.40606993   -0.64308804
     atom    8 type  4   force =    -4.34834747   -0.00111066    0.75064285
     atom    9 type  4   force =     1.86208070    0.47176425    0.89481061
     atom   10 type  3   force =     9.92227732   -0.02673622   -0.86674468
     atom   11 type  3   force =    -3.65782891   -0.76634299    0.63420615
     atom   12 type  3   force =   -11.83879618    0.13963402    1.03191244
     atom   13 type  3   force =     8.14925918    0.50944084    0.38992499
     atom   14 type  3   force =    -1.93461431    0.54989944   -5.13581680
     atom   15 type  3   force =     3.17480080    0.07155919   -6.55852843
     atom   16 type  3   force =     3.11764340   -0.89980908    2.44987499
     atom   17 type  3   force =    -4.79789567   -0.06910506    5.83451089
     atom   18 type  3   force =     4.44238036   -1.73469804    2.18118543
     atom   19 type  3   force =    -0.99259185    3.17626602    1.46291396
     atom   20 type  3   force =    -5.61533730   -3.24732697   -1.59844051
     atom   21 type  3   force =     2.22774233    0.53920781   -1.26635106
     atom   22 type  3   force =    -5.69779182    3.30990976   -1.92435386
     atom   23 type  3   force =     0.77423852   -0.03308259    0.15509257
     atom   24 type  3   force =     4.30008292    1.66225166    2.21424905
     atom   25 type  3   force =    -1.38844610   -2.86085716    1.91621463
     The core correction contribution to forces
     atom    1 type  2   force =     0.00000000    0.00000000    0.00000000
     atom    2 type  1   force =    -0.00044531   -0.00014648   -0.00021940
     atom    3 type  1   force =     0.00001961    0.00003131    0.00068856
     atom    4 type  1   force =     0.00346772    0.00042327   -0.00104942
     atom    5 type  1   force =     0.00028786   -0.00007887   -0.00001397
     atom    6 type  4   force =    -0.00374990   -0.00001648    0.00018125
     atom    7 type  4   force =     0.00252074    0.00001853   -0.00178116
     atom    8 type  4   force =     0.00477248   -0.00039030    0.00045233
     atom    9 type  4   force =    -0.00574822    0.00037907   -0.00049829
     atom   10 type  3   force =    -0.00327642    0.00009757    0.01268131
     atom   11 type  3   force =     0.00172606    0.00007155    0.01186757
     atom   12 type  3   force =     0.00401576   -0.00014722   -0.01268726
     atom   13 type  3   force =    -0.00272789    0.00013773   -0.01267546
     atom   14 type  3   force =    -0.00899271    0.00009367    0.00572606
     atom   15 type  3   force =     0.00882666   -0.00009216    0.00701454
     atom   16 type  3   force =     0.00881509    0.00014100   -0.00307696
     atom   17 type  3   force =    -0.00873848    0.00004430   -0.00569907
     atom   18 type  3   force =     0.00427609    0.00978261   -0.00689182
     atom   19 type  3   force =    -0.00423602   -0.01041890   -0.00708986
     atom   20 type  3   force =    -0.00435224    0.00976221    0.00602211
     atom   21 type  3   force =     0.00431162   -0.00950516    0.00663117
     atom   22 type  3   force =    -0.00470909   -0.00989111    0.00627955
     atom   23 type  3   force =     0.00487017    0.00951506    0.00581621
     atom   24 type  3   force =     0.00425461   -0.00971861   -0.00694856
     atom   25 type  3   force =    -0.00445909    0.01016156   -0.00732761
     The Hubbard contrib.    to forces
     atom    1 type  2   force =     0.00000000    0.00000000    0.00000000
     atom    2 type  1   force =     0.00000000    0.00000000    0.00000000
     atom    3 type  1   force =     0.00000000    0.00000000    0.00000000
     atom    4 type  1   force =     0.00000000    0.00000000    0.00000000
     atom    5 type  1   force =     0.00000000    0.00000000    0.00000000
     atom    6 type  4   force =     0.00000000    0.00000000    0.00000000
     atom    7 type  4   force =     0.00000000    0.00000000    0.00000000
     atom    8 type  4   force =     0.00000000    0.00000000    0.00000000
     atom    9 type  4   force =     0.00000000    0.00000000    0.00000000
     atom   10 type  3   force =     0.00000000    0.00000000    0.00000000
     atom   11 type  3   force =     0.00000000    0.00000000    0.00000000
     atom   12 type  3   force =     0.00000000    0.00000000    0.00000000
     atom   13 type  3   force =     0.00000000    0.00000000    0.00000000
     atom   14 type  3   force =     0.00000000    0.00000000    0.00000000
     atom   15 type  3   force =     0.00000000    0.00000000    0.00000000
     atom   16 type  3   force =     0.00000000    0.00000000    0.00000000
     atom   17 type  3   force =     0.00000000    0.00000000    0.00000000
     atom   18 type  3   force =     0.00000000    0.00000000    0.00000000
     atom   19 type  3   force =     0.00000000    0.00000000    0.00000000
     atom   20 type  3   force =     0.00000000    0.00000000    0.00000000
     atom   21 type  3   force =     0.00000000    0.00000000    0.00000000
     atom   22 type  3   force =     0.00000000    0.00000000    0.00000000
     atom   23 type  3   force =     0.00000000    0.00000000    0.00000000
     atom   24 type  3   force =     0.00000000    0.00000000    0.00000000
     atom   25 type  3   force =     0.00000000    0.00000000    0.00000000
     The SCF correction term to forces
     atom    1 type  2   force =     0.00000104   -0.00000027   -0.00000039
     atom    2 type  1   force =     0.00000560   -0.00000041   -0.00000077
     atom    3 type  1   force =     0.00000352    0.00000010   -0.00000093
     atom    4 type  1   force =     0.00000053    0.00000084    0.00000017
     atom    5 type  1   force =    -0.00000739   -0.00000037    0.00000239
     atom    6 type  4   force =    -0.00000086   -0.00000006   -0.00000010
     atom    7 type  4   force =     0.00000169    0.00000003    0.00000055
     atom    8 type  4   force =    -0.00000226    0.00000006    0.00000036
     atom    9 type  4   force =     0.00000087   -0.00000003   -0.00000007
     atom   10 type  3   force =    -0.00000145   -0.00000004    0.00000010
     atom   11 type  3   force =     0.00000202    0.00000002   -0.00000045
     atom   12 type  3   force =    -0.00000142    0.00000005    0.00000048
     atom   13 type  3   force =     0.00000158   -0.00000005   -0.00000083
     atom   14 type  3   force =     0.00000343   -0.00000003    0.00000002
     atom   15 type  3   force =    -0.00000135    0.00000003    0.00000131
     atom   16 type  3   force =     0.00000037    0.00000003    0.00000022
     atom   17 type  3   force =    -0.00000498   -0.00000005    0.00000062
     atom   18 type  3   force =     0.00000061    0.00000055    0.00000006
     atom   19 type  3   force =     0.00000252    0.00000042   -0.00000026
     atom   20 type  3   force =    -0.00000223    0.00000276   -0.00000067
     atom   21 type  3   force =     0.00000035    0.00000184    0.00000120
     atom   22 type  3   force =    -0.00000223   -0.00000267   -0.00000063
     atom   23 type  3   force =     0.00000041   -0.00000178    0.00000112
     atom   24 type  3   force =     0.00000059   -0.00000061    0.00000006
     atom   25 type  3   force =     0.00000253   -0.00000045   -0.00000030

     Total force =     0.206369     Total SCF correction =     0.000015


     Computing stress (Cartesian axis) and pressure


     negative rho (up, down):  0.000E+00 9.255E-04
          total   stress  (Ry/bohr**3)                   (kbar)     P=       39.21
   0.00062432  -0.00001018  -0.00001905           91.84       -1.50       -2.80
  -0.00001018  -0.00002072   0.00001271           -1.50       -3.05        1.87
  -0.00001905   0.00001271   0.00019607           -2.80        1.87       28.84

     kinetic stress (kbar)  27500.44      2.84     -9.30
                                2.84  27654.34      3.28
                               -9.30      3.28  27456.84

     local   stress (kbar)  -5434.10    987.85   1147.43
                              987.85 -12736.57   -346.00
                             1147.43   -346.00  -8493.76

     nonloc. stress (kbar)  -7024.65      1.15      3.29
                                1.15  -6949.18      0.00
                                3.29      0.00  -6979.81

     hartree stress (kbar)  13238.00   -397.33   -467.89
                             -397.33  17720.40    135.66
                             -467.89    135.66  15311.20

     exc-cor stress (kbar)  -2905.11     -0.62     -0.70
                               -0.62  -2914.14      0.27
                               -0.70      0.27  -2910.56

     corecor stress (kbar)  -3225.23      0.17      0.70
                                0.17  -3223.03     -0.03
                                0.70     -0.03  -3223.93

     ewald   stress (kbar) -22057.51   -595.55   -676.33
                             -595.55 -19554.88    208.69
                             -676.33    208.69 -21131.14

     hubbard stress (kbar)      0.00      0.00      0.00
                                0.00      0.00      0.00
                                0.00      0.00      0.00

     DFT-D   stress (kbar)      0.00      0.00      0.00
                                0.00      0.00      0.00
                                0.00      0.00      0.00

     XDM     stress (kbar)      0.00      0.00      0.00
                                0.00      0.00      0.00
                                0.00      0.00      0.00

     dft-nl  stress (kbar)      0.00      0.00      0.00
                                0.00      0.00      0.00
                                0.00      0.00      0.00

     TS-vdW  stress (kbar)      0.00      0.00      0.00
                                0.00      0.00      0.00
                                0.00      0.00      0.00



     init_run     :    172.41s CPU    176.84s WALL (       1 calls)
     electrons    :  13276.11s CPU  13443.66s WALL (       1 calls)
     forces       :    107.94s CPU    109.84s WALL (       1 calls)
     stress       :    786.95s CPU    816.85s WALL (       1 calls)

     Called by init_run:
     wfcinit      :    164.06s CPU    167.15s WALL (       1 calls)
     wfcinit:atom :      2.32s CPU      2.36s WALL (     316 calls)
     wfcinit:wfcr :    153.18s CPU    156.09s WALL (     316 calls)
     potinit      :      2.86s CPU      3.24s WALL (       1 calls)
     hinit0       :      3.08s CPU      3.57s WALL (       1 calls)

     Called by electrons:
     c_bands      :  11832.60s CPU  11952.15s WALL (      29 calls)
     sum_band     :   1369.32s CPU   1401.28s WALL (      29 calls)
     v_of_rho     :     19.28s CPU     20.33s WALL (      30 calls)
     v_h          :      0.75s CPU      0.82s WALL (      30 calls)
     v_xc         :     19.76s CPU     20.79s WALL (      32 calls)
     newd         :     38.58s CPU     53.63s WALL (      30 calls)
     PAW_pot      :     12.56s CPU     12.84s WALL (      30 calls)
     mix_rho      :      4.09s CPU      4.31s WALL (      29 calls)

     Called by c_bands:
     init_us_2    :    208.43s CPU    212.59s WALL (   19276 calls)
     cegterg      :  11486.21s CPU  11599.60s WALL (    9164 calls)

     Called by sum_band:
     sum_band:wei :      0.46s CPU      0.46s WALL (      29 calls)
     sum_band:loo :   1262.64s CPU   1277.27s WALL (      29 calls)
     sum_band:buf :     51.99s CPU     52.96s WALL (    9164 calls)
     sum_band:ini :    101.03s CPU    102.78s WALL (    9164 calls)
     sum_band:cal :    584.01s CPU    590.29s WALL (    9164 calls)
     sum_band:bec :      4.52s CPU      4.59s WALL (    9164 calls)
     addusdens    :     98.97s CPU    116.13s WALL (      29 calls)
     addusd:skk   :      0.55s CPU      0.58s WALL (      87 calls)
     addusd:dgemm :     44.60s CPU     59.00s WALL (     174 calls)
     addusd:qvan2 :     52.67s CPU     53.08s WALL (     174 calls)

     Called by *egterg:
     cdiaghg      :    767.21s CPU    787.63s WALL (   36861 calls)
     cegterg:over :   1118.05s CPU   1136.29s WALL (   27697 calls)
     cegterg:upda :    649.07s CPU    652.36s WALL (   27697 calls)
     cegterg:last :   1330.46s CPU   1337.09s WALL (   15742 calls)
     h_psi        :   5554.97s CPU   5605.94s WALL (   37177 calls)
     s_psi        :   1441.77s CPU   1448.63s WALL (   37177 calls)
     g_psi        :     13.61s CPU     13.77s WALL (   27697 calls)

     Called by h_psi:
     h_psi:calbec :   1521.73s CPU   1538.22s WALL (   37177 calls)
     vloc_psi     :   2371.06s CPU   2395.08s WALL (   37177 calls)
     add_vuspsi   :   1546.41s CPU   1554.01s WALL (   37177 calls)

     General routines
     calbec       :   2226.06s CPU   2251.98s WALL (   47921 calls)
     fft          :     19.06s CPU     20.60s WALL (     788 calls)
     ffts         :      0.25s CPU      0.31s WALL (     118 calls)
     fftw         :   2686.95s CPU   2714.11s WALL ( 5740608 calls)
     interpolate  :      1.16s CPU      1.31s WALL (      60 calls)

     Parallel routines
     fft_scatt_xy :    247.83s CPU    250.19s WALL ( 5741514 calls)
     fft_scatt_yz :    808.48s CPU    819.11s WALL ( 5741514 calls)

     PAW routines
     PAW_pot      :     12.56s CPU     12.84s WALL (      30 calls)

     PWSCF        :      3h59m CPU      4h 2m WALL


   This run was terminated on:   1: 5:43  17Dec2022            

=------------------------------------------------------------------------------=
   JOB DONE.
=------------------------------------------------------------------------------=
Note: The following floating-point exceptions are signalling: IEEE_DENORMAL
Note: The following floating-point exceptions are signalling: IEEE_DENORMAL
Note: The following floating-point exceptions are signalling: IEEE_DENORMAL
Note: The following floating-point exceptions are signalling: IEEE_UNDERFLOW_FLAG IEEE_DENORMAL
Note: The following floating-point exceptions are signalling: IEEE_DENORMAL
Note: The following floating-point exceptions are signalling: IEEE_DENORMAL
Note: The following floating-point exceptions are signalling: IEEE_DENORMAL
Note: The following floating-point exceptions are signalling: IEEE_DENORMAL
Note: The following floating-point exceptions are signalling: IEEE_DENORMAL
Note: The following floating-point exceptions are signalling: IEEE_DENORMAL
Note: The following floating-point exceptions are signalling: IEEE_DENORMAL
Note: The following floating-point exceptions are signalling: IEEE_DENORMAL
Note: The following floating-point exceptions are signalling: IEEE_INVALID_FLAG IEEE_DENORMAL
Note: The following floating-point exceptions are signalling: IEEE_DENORMAL
Note: The following floating-point exceptions are signalling: IEEE_DENORMAL
Note: The following floating-point exceptions are signalling: IEEE_DENORMAL
Note: The following floating-point exceptions are signalling: IEEE_DENORMAL
Note: The following floating-point exceptions are signalling: IEEE_DENORMAL
Note: The following floating-point exceptions are signalling: IEEE_DENORMAL
Note: The following floating-point exceptions are signalling: IEEE_DENORMAL
Note: The following floating-point exceptions are signalling: IEEE_DENORMAL
Note: The following floating-point exceptions are signalling: IEEE_DENORMAL
Note: The following floating-point exceptions are signalling: IEEE_DENORMAL
Note: The following floating-point exceptions are signalling: IEEE_DENORMAL
