
     Program PWSCF v.6.7MaX starts on 17Dec2022 at 20:24:20 

     This program is part of the open-source Quantum ESPRESSO suite
     for quantum simulation of materials; please cite
         "P. Giannozzi et al., J. Phys.:Condens. Matter 21 395502 (2009);
         "P. Giannozzi et al., J. Phys.:Condens. Matter 29 465901 (2017);
          URL http://www.quantum-espresso.org", 
     in publications or presentations arising from this work. More details at
     http://www.quantum-espresso.org/quote

     Parallel version (MPI), running on    24 processors

     MPI processes distributed on     1 nodes
     R & G space division:  proc/nbgrp/npool/nimage =      24
     Reading input from scale_3d-02.in

     Current dimensions of program PWSCF are:
     Max number of different atomic species (ntypx) = 10
     Max number of k-points (npk) =  40000
     Max angular momentum in pseudopotentials (lmaxx) =  3
     Message from routine read_pp_mesh:
     mesh size missing, using the one in header
     file Fe.pbe-spn-kjpaw_psl.0.2.1.UPF: wavefunction(s)  3D renormalized
     file O.pbe-n-kjpaw_psl.0.1.UPF: wavefunction(s)  2P renormalized

     Subspace diagonalization in iterative solution of the eigenvalue problem:
     a serial algorithm will be used


     Parallelization info
     --------------------
     sticks:   dense  smooth     PW     G-vecs:    dense   smooth      PW
     Min         800     296     79                51300    11558    1627
     Max         802     297     80                51301    11560    1630
     Sum       19211    7107   1919              1231207   277409   39077



     bravais-lattice index     =            0
     lattice parameter (alat)  =      19.3373  a.u.
     unit-cell volume          =    2054.1302 (a.u.)^3
     number of atoms/cell      =           25
     number of atomic types    =            4
     number of electrons       =       189.00
     number of Kohn-Sham states=          114
     kinetic-energy cutoff     =     100.0000  Ry
     charge density cutoff     =    1080.0000  Ry
     scf convergence threshold =      2.0E-10
     mixing beta               =       0.4000
     number of iterations used =            8  plain     mixing
     Exchange-correlation= PBE
                           (   1   4   3   4   0   0   0)

     celldm(1)=  19.337306  celldm(2)=   0.000000  celldm(3)=   0.000000
     celldm(4)=   0.000000  celldm(5)=   0.000000  celldm(6)=   0.000000

     crystal axes: (cart. coord. in units of alat)
               a(1) = (   1.000000   0.000000   0.000000 )  
               a(2) = (   0.000000   0.597590   0.000000 )  
               a(3) = (   0.000000   0.000000   0.475375 )  

     reciprocal axes: (cart. coord. in units 2 pi/alat)
               b(1) = (  1.000000  0.000000  0.000000 )  
               b(2) = (  0.000000  1.673388  0.000000 )  
               b(3) = (  0.000000  0.000000  2.103600 )  


     PseudoPot. # 1 for Fe read from file:
     /opt/QEpot/SSSP_precision_pseudos/Fe.pbe-spn-kjpaw_psl.0.2.1.UPF
     MD5 check sum: e86618425769142926afa95317d90200
     Pseudo is Projector augmented-wave + core cor, Zval = 16.0
     Generated using "atomic" code by A. Dal Corso  v.5.0.99 svn rev. 10869
     Shape of augmentation charge: PSQ
     Using radial grid of 1191 points,  6 beta functions with: 
                l(1) =   0
                l(2) =   0
                l(3) =   1
                l(4) =   1
                l(5) =   2
                l(6) =   2
     Q(r) pseudized with 0 coefficients 


     PseudoPot. # 2 for Na read from file:
     /opt/QEpot/SSSP_precision_pseudos/Na_ONCV_PBE-1.0.oncvpsp.upf
     MD5 check sum: 24a298df0a6742ae313db96548fdb2a4
     Pseudo is Norm-conserving, Zval =  9.0
     Generated using ONCVPSP code by D. R. Hamann
     Using radial grid of 1992 points,  4 beta functions with: 
                l(1) =   0
                l(2) =   0
                l(3) =   1
                l(4) =   1

     PseudoPot. # 3 for O  read from file:
     /opt/QEpot/SSSP_precision_pseudos/O.pbe-n-kjpaw_psl.0.1.UPF
     MD5 check sum: 0234752ac141de4415c5fc33072bef88
     Pseudo is Projector augmented-wave + core cor, Zval =  6.0
     Generated using "atomic" code by A. Dal Corso  v.5.0.99 svn rev. 10869
     Shape of augmentation charge: BESSEL
     Using radial grid of 1095 points,  4 beta functions with: 
                l(1) =   0
                l(2) =   0
                l(3) =   1
                l(4) =   1
     Q(r) pseudized with 0 coefficients 


     PseudoPot. # 4 for P  read from file:
     /opt/QEpot/SSSP_precision_pseudos/P.pbe-n-rrkjus_psl.1.0.0.UPF
     MD5 check sum: 8b930f418f0a4573dca56cd030ffe088
     Pseudo is Ultrasoft + core correction, Zval =  5.0
     Generated using "atomic" code by A. Dal Corso  v.5.1
     Using radial grid of 1147 points,  6 beta functions with: 
                l(1) =   0
                l(2) =   0
                l(3) =   1
                l(4) =   1
                l(5) =   2
                l(6) =   2
     Q(r) pseudized with 0 coefficients 


     atomic species   valence    mass     pseudopotential
        Fe            16.00    55.84500     Fe( 1.00)
        Na             9.00    22.98977     Na( 1.00)
        O              6.00    15.99940     O ( 1.00)
        P              5.00    30.97376     P ( 1.00)

     Starting magnetic structure 
     atomic species   magnetization
        Fe           0.312
        Na           0.000
        O            0.000
        P            0.000

     No symmetry found


                                    s                        frac. trans.

      isym =  1     identity                                     

 cryst.   s( 1) = (     1          0          0      )
                  (     0          1          0      )
                  (     0          0          1      )

 cart.    s( 1) = (  1.0000000  0.0000000  0.0000000 )
                  (  0.0000000  1.0000000  0.0000000 )
                  (  0.0000000  0.0000000  1.0000000 )


   Cartesian axes

     site n.     atom                  positions (alat units)
         1           Na  tau(   1) = (   0.5528950   0.1171318   0.2149344  )
         2           Fe  tau(   2) = (   0.2772550   0.4489030   0.4713980  )
         3           Fe  tau(   3) = (   0.2104810   0.1503901   0.2331969  )
         4           Fe  tau(   4) = (   0.7295180   0.1537820   0.0007768  )
         5           Fe  tau(   5) = (   0.7815080   0.4476976   0.2441638  )
         6           P   tau(   6) = (   0.1053980   0.4490374   0.2110382  )
         7           P   tau(   7) = (   0.3872650   0.1516068   0.4478907  )
         8           P   tau(   8) = (   0.8920080   0.1496831   0.2647071  )
         9           P   tau(   9) = (   0.6044490   0.4482510   0.0303870  )
        10           O   tau(  10) = (   0.1314730   0.4496571   0.3569675  )
        11           O   tau(  11) = (   0.3628330   0.1500716   0.1188424  )
        12           O   tau(  12) = (   0.8713170   0.1499473   0.1181722  )
        13           O   tau(  13) = (   0.6316830   0.4500551   0.3600675  )
        14           O   tau(  14) = (   0.4581640   0.4497008   0.0570474  )
        15           O   tau(  15) = (   0.0360600   0.1491584   0.2981199  )
        16           O   tau(  16) = (   0.5359580   0.1510755   0.4262844  )
        17           O   tau(  17) = (   0.9586070   0.4491187   0.1858186  )
        18           O   tau(  18) = (   0.1746990   0.5653619   0.1421021  )
        19           O   tau(  19) = (   0.3222040   0.0349339   0.3769614  )
        20           O   tau(  20) = (   0.8184930   0.2658241   0.3308504  )
        21           O   tau(  21) = (   0.6734870   0.3309716   0.0993696  )
        22           O   tau(  22) = (   0.8164510   0.0352124   0.3306636  )
        23           O   tau(  23) = (   0.6734540   0.5650643   0.1004121  )
        24           O   tau(  24) = (   0.1741780   0.3320269   0.1428099  )
        25           O   tau(  25) = (   0.3202350   0.2679581   0.3792479  )

   Crystallographic axes

     site n.     atom                  positions (cryst. coord.)
         1           Na  tau(   1) = (  0.5528950  0.1960070  0.4521360  )
         2           Fe  tau(   2) = (  0.2772550  0.7511890  0.9916330  )
         3           Fe  tau(   3) = (  0.2104810  0.2516610  0.4905530  )
         4           Fe  tau(   4) = (  0.7295180  0.2573370  0.0016340  )
         5           Fe  tau(   5) = (  0.7815080  0.7491720  0.5136230  )
         6           P   tau(   6) = (  0.1053980  0.7514140  0.4439400  )
         7           P   tau(   7) = (  0.3872650  0.2536970  0.9421830  )
         8           P   tau(   8) = (  0.8920080  0.2504780  0.5568380  )
         9           P   tau(   9) = (  0.6044490  0.7500980  0.0639220  )
        10           O   tau(  10) = (  0.1314730  0.7524510  0.7509170  )
        11           O   tau(  11) = (  0.3628330  0.2511280  0.2499970  )
        12           O   tau(  12) = (  0.8713170  0.2509200  0.2485870  )
        13           O   tau(  13) = (  0.6316830  0.7531170  0.7574380  )
        14           O   tau(  14) = (  0.4581640  0.7525240  0.1200050  )
        15           O   tau(  15) = (  0.0360600  0.2496000  0.6271250  )
        16           O   tau(  16) = (  0.5359580  0.2528080  0.8967320  )
        17           O   tau(  17) = (  0.9586070  0.7515500  0.3908880  )
        18           O   tau(  18) = (  0.1746990  0.9460700  0.2989260  )
        19           O   tau(  19) = (  0.3222040  0.0584580  0.7929760  )
        20           O   tau(  20) = (  0.8184930  0.4448270  0.6959770  )
        21           O   tau(  21) = (  0.6734870  0.5538440  0.2090340  )
        22           O   tau(  22) = (  0.8164510  0.0589240  0.6955840  )
        23           O   tau(  23) = (  0.6734540  0.9455720  0.2112270  )
        24           O   tau(  24) = (  0.1741780  0.5556100  0.3004150  )
        25           O   tau(  25) = (  0.3202350  0.4483980  0.7977860  )

     number of k points=   158  Marzari-Vanderbilt smearing, width (Ry)=  0.0073
                       cart. coord. in units 2pi/alat
        k(    1) = (   0.0000000   0.0000000   0.0000000), wk =   0.0031746
        k(    2) = (   0.0000000   0.0000000   0.2337334), wk =   0.0063492
        k(    3) = (   0.0000000   0.0000000   0.4674667), wk =   0.0063492
        k(    4) = (   0.0000000   0.0000000   0.7012001), wk =   0.0063492
        k(    5) = (   0.0000000   0.0000000   0.9349334), wk =   0.0063492
        k(    6) = (   0.0000000   0.2390555   0.0000000), wk =   0.0063492
        k(    7) = (   0.0000000   0.2390555   0.2337334), wk =   0.0063492
        k(    8) = (   0.0000000   0.2390555   0.4674667), wk =   0.0063492
        k(    9) = (   0.0000000   0.2390555   0.7012001), wk =   0.0063492
        k(   10) = (   0.0000000   0.2390555   0.9349334), wk =   0.0063492
        k(   11) = (   0.0000000   0.4781110   0.0000000), wk =   0.0063492
        k(   12) = (   0.0000000   0.4781110   0.2337334), wk =   0.0063492
        k(   13) = (   0.0000000   0.4781110   0.4674667), wk =   0.0063492
        k(   14) = (   0.0000000   0.4781110   0.7012001), wk =   0.0063492
        k(   15) = (   0.0000000   0.4781110   0.9349334), wk =   0.0063492
        k(   16) = (   0.0000000   0.7171664   0.0000000), wk =   0.0063492
        k(   17) = (   0.0000000   0.7171664   0.2337334), wk =   0.0063492
        k(   18) = (   0.0000000   0.7171664   0.4674667), wk =   0.0063492
        k(   19) = (   0.0000000   0.7171664   0.7012001), wk =   0.0063492
        k(   20) = (   0.0000000   0.7171664   0.9349334), wk =   0.0063492
        k(   21) = (   0.2000000   0.0000000   0.0000000), wk =   0.0063492
        k(   22) = (   0.2000000   0.0000000   0.2337334), wk =   0.0063492
        k(   23) = (   0.2000000   0.0000000   0.4674667), wk =   0.0063492
        k(   24) = (   0.2000000   0.0000000   0.7012001), wk =   0.0063492
        k(   25) = (   0.2000000   0.0000000   0.9349334), wk =   0.0063492
        k(   26) = (   0.2000000   0.2390555   0.0000000), wk =   0.0063492
        k(   27) = (   0.2000000   0.2390555   0.2337334), wk =   0.0063492
        k(   28) = (   0.2000000   0.2390555   0.4674667), wk =   0.0063492
        k(   29) = (   0.2000000   0.2390555   0.7012001), wk =   0.0063492
        k(   30) = (   0.2000000   0.2390555   0.9349334), wk =   0.0063492
        k(   31) = (   0.2000000   0.4781110   0.0000000), wk =   0.0063492
        k(   32) = (   0.2000000   0.4781110   0.2337334), wk =   0.0063492
        k(   33) = (   0.2000000   0.4781110   0.4674667), wk =   0.0063492
        k(   34) = (   0.2000000   0.4781110   0.7012001), wk =   0.0063492
        k(   35) = (   0.2000000   0.4781110   0.9349334), wk =   0.0063492
        k(   36) = (   0.2000000   0.7171664   0.0000000), wk =   0.0063492
        k(   37) = (   0.2000000   0.7171664   0.2337334), wk =   0.0063492
        k(   38) = (   0.2000000   0.7171664   0.4674667), wk =   0.0063492
        k(   39) = (   0.2000000   0.7171664   0.7012001), wk =   0.0063492
        k(   40) = (   0.2000000   0.7171664   0.9349334), wk =   0.0063492
        k(   41) = (   0.4000000   0.0000000   0.0000000), wk =   0.0063492
        k(   42) = (   0.4000000   0.0000000   0.2337334), wk =   0.0063492
        k(   43) = (   0.4000000   0.0000000   0.4674667), wk =   0.0063492
        k(   44) = (   0.4000000   0.0000000   0.7012001), wk =   0.0063492
        k(   45) = (   0.4000000   0.0000000   0.9349334), wk =   0.0063492
        k(   46) = (   0.4000000   0.2390555   0.0000000), wk =   0.0063492
        k(   47) = (   0.4000000   0.2390555   0.2337334), wk =   0.0063492
        k(   48) = (   0.4000000   0.2390555   0.4674667), wk =   0.0063492
        k(   49) = (   0.4000000   0.2390555   0.7012001), wk =   0.0063492
        k(   50) = (   0.4000000   0.2390555   0.9349334), wk =   0.0063492
        k(   51) = (   0.4000000   0.4781110   0.0000000), wk =   0.0063492
        k(   52) = (   0.4000000   0.4781110   0.2337334), wk =   0.0063492
        k(   53) = (   0.4000000   0.4781110   0.4674667), wk =   0.0063492
        k(   54) = (   0.4000000   0.4781110   0.7012001), wk =   0.0063492
        k(   55) = (   0.4000000   0.4781110   0.9349334), wk =   0.0063492
        k(   56) = (   0.4000000   0.7171664   0.0000000), wk =   0.0063492
        k(   57) = (   0.4000000   0.7171664   0.2337334), wk =   0.0063492
        k(   58) = (   0.4000000   0.7171664   0.4674667), wk =   0.0063492
        k(   59) = (   0.4000000   0.7171664   0.7012001), wk =   0.0063492
        k(   60) = (   0.4000000   0.7171664   0.9349334), wk =   0.0063492
        k(   61) = (   0.0000000  -0.2390555   0.2337334), wk =   0.0063492
        k(   62) = (   0.0000000  -0.2390555   0.4674667), wk =   0.0063492
        k(   63) = (   0.0000000  -0.2390555   0.7012001), wk =   0.0063492
        k(   64) = (   0.0000000  -0.2390555   0.9349334), wk =   0.0063492
        k(   65) = (   0.0000000  -0.4781110   0.2337334), wk =   0.0063492
        k(   66) = (   0.0000000  -0.4781110   0.4674667), wk =   0.0063492
        k(   67) = (   0.0000000  -0.4781110   0.7012001), wk =   0.0063492
        k(   68) = (   0.0000000  -0.4781110   0.9349334), wk =   0.0063492
        k(   69) = (   0.0000000  -0.7171664   0.2337334), wk =   0.0063492
        k(   70) = (   0.0000000  -0.7171664   0.4674667), wk =   0.0063492
        k(   71) = (   0.0000000  -0.7171664   0.7012001), wk =   0.0063492
        k(   72) = (   0.0000000  -0.7171664   0.9349334), wk =   0.0063492
        k(   73) = (  -0.2000000   0.0000000   0.2337334), wk =   0.0063492
        k(   74) = (  -0.2000000   0.0000000   0.4674667), wk =   0.0063492
        k(   75) = (  -0.2000000   0.0000000   0.7012001), wk =   0.0063492
        k(   76) = (  -0.2000000   0.0000000   0.9349334), wk =   0.0063492
        k(   77) = (  -0.2000000   0.2390555   0.0000000), wk =   0.0063492
        k(   78) = (  -0.2000000  -0.2390555   0.2337334), wk =   0.0063492
        k(   79) = (  -0.2000000   0.2390555  -0.2337334), wk =   0.0063492
        k(   80) = (   0.2000000  -0.2390555  -0.2337334), wk =   0.0063492
        k(   81) = (  -0.2000000  -0.2390555   0.4674667), wk =   0.0063492
        k(   82) = (  -0.2000000   0.2390555  -0.4674667), wk =   0.0063492
        k(   83) = (   0.2000000  -0.2390555  -0.4674667), wk =   0.0063492
        k(   84) = (  -0.2000000  -0.2390555   0.7012001), wk =   0.0063492
        k(   85) = (  -0.2000000   0.2390555  -0.7012001), wk =   0.0063492
        k(   86) = (   0.2000000  -0.2390555  -0.7012001), wk =   0.0063492
        k(   87) = (  -0.2000000  -0.2390555   0.9349334), wk =   0.0063492
        k(   88) = (  -0.2000000   0.2390555  -0.9349334), wk =   0.0063492
        k(   89) = (   0.2000000  -0.2390555  -0.9349334), wk =   0.0063492
        k(   90) = (  -0.2000000   0.4781110   0.0000000), wk =   0.0063492
        k(   91) = (  -0.2000000  -0.4781110   0.2337334), wk =   0.0063492
        k(   92) = (  -0.2000000   0.4781110  -0.2337334), wk =   0.0063492
        k(   93) = (   0.2000000  -0.4781110  -0.2337334), wk =   0.0063492
        k(   94) = (  -0.2000000  -0.4781110   0.4674667), wk =   0.0063492
        k(   95) = (  -0.2000000   0.4781110  -0.4674667), wk =   0.0063492
        k(   96) = (   0.2000000  -0.4781110  -0.4674667), wk =   0.0063492
        k(   97) = (  -0.2000000  -0.4781110   0.7012001), wk =   0.0063492
        k(   98) = (  -0.2000000   0.4781110  -0.7012001), wk =   0.0063492
        k(   99) = (   0.2000000  -0.4781110  -0.7012001), wk =   0.0063492
        k(  100) = (  -0.2000000  -0.4781110   0.9349334), wk =   0.0063492
        k(  101) = (  -0.2000000   0.4781110  -0.9349334), wk =   0.0063492
        k(  102) = (   0.2000000  -0.4781110  -0.9349334), wk =   0.0063492
        k(  103) = (  -0.2000000   0.7171664   0.0000000), wk =   0.0063492
        k(  104) = (  -0.2000000  -0.7171664   0.2337334), wk =   0.0063492
        k(  105) = (  -0.2000000   0.7171664  -0.2337334), wk =   0.0063492
        k(  106) = (   0.2000000  -0.7171664  -0.2337334), wk =   0.0063492
        k(  107) = (  -0.2000000  -0.7171664   0.4674667), wk =   0.0063492
        k(  108) = (  -0.2000000   0.7171664  -0.4674667), wk =   0.0063492
        k(  109) = (   0.2000000  -0.7171664  -0.4674667), wk =   0.0063492
        k(  110) = (  -0.2000000  -0.7171664   0.7012001), wk =   0.0063492
        k(  111) = (  -0.2000000   0.7171664  -0.7012001), wk =   0.0063492
        k(  112) = (   0.2000000  -0.7171664  -0.7012001), wk =   0.0063492
        k(  113) = (  -0.2000000  -0.7171664   0.9349334), wk =   0.0063492
        k(  114) = (  -0.2000000   0.7171664  -0.9349334), wk =   0.0063492
        k(  115) = (   0.2000000  -0.7171664  -0.9349334), wk =   0.0063492
        k(  116) = (  -0.4000000   0.0000000   0.2337334), wk =   0.0063492
        k(  117) = (  -0.4000000   0.0000000   0.4674667), wk =   0.0063492
        k(  118) = (  -0.4000000   0.0000000   0.7012001), wk =   0.0063492
        k(  119) = (  -0.4000000   0.0000000   0.9349334), wk =   0.0063492
        k(  120) = (  -0.4000000   0.2390555   0.0000000), wk =   0.0063492
        k(  121) = (  -0.4000000  -0.2390555   0.2337334), wk =   0.0063492
        k(  122) = (  -0.4000000   0.2390555  -0.2337334), wk =   0.0063492
        k(  123) = (   0.4000000  -0.2390555  -0.2337334), wk =   0.0063492
        k(  124) = (  -0.4000000  -0.2390555   0.4674667), wk =   0.0063492
        k(  125) = (  -0.4000000   0.2390555  -0.4674667), wk =   0.0063492
        k(  126) = (   0.4000000  -0.2390555  -0.4674667), wk =   0.0063492
        k(  127) = (  -0.4000000  -0.2390555   0.7012001), wk =   0.0063492
        k(  128) = (  -0.4000000   0.2390555  -0.7012001), wk =   0.0063492
        k(  129) = (   0.4000000  -0.2390555  -0.7012001), wk =   0.0063492
        k(  130) = (  -0.4000000  -0.2390555   0.9349334), wk =   0.0063492
        k(  131) = (  -0.4000000   0.2390555  -0.9349334), wk =   0.0063492
        k(  132) = (   0.4000000  -0.2390555  -0.9349334), wk =   0.0063492
        k(  133) = (  -0.4000000   0.4781110   0.0000000), wk =   0.0063492
        k(  134) = (  -0.4000000  -0.4781110   0.2337334), wk =   0.0063492
        k(  135) = (  -0.4000000   0.4781110  -0.2337334), wk =   0.0063492
        k(  136) = (   0.4000000  -0.4781110  -0.2337334), wk =   0.0063492
        k(  137) = (  -0.4000000  -0.4781110   0.4674667), wk =   0.0063492
        k(  138) = (  -0.4000000   0.4781110  -0.4674667), wk =   0.0063492
        k(  139) = (   0.4000000  -0.4781110  -0.4674667), wk =   0.0063492
        k(  140) = (  -0.4000000  -0.4781110   0.7012001), wk =   0.0063492
        k(  141) = (  -0.4000000   0.4781110  -0.7012001), wk =   0.0063492
        k(  142) = (   0.4000000  -0.4781110  -0.7012001), wk =   0.0063492
        k(  143) = (  -0.4000000  -0.4781110   0.9349334), wk =   0.0063492
        k(  144) = (  -0.4000000   0.4781110  -0.9349334), wk =   0.0063492
        k(  145) = (   0.4000000  -0.4781110  -0.9349334), wk =   0.0063492
        k(  146) = (  -0.4000000   0.7171664   0.0000000), wk =   0.0063492
        k(  147) = (  -0.4000000  -0.7171664   0.2337334), wk =   0.0063492
        k(  148) = (  -0.4000000   0.7171664  -0.2337334), wk =   0.0063492
        k(  149) = (   0.4000000  -0.7171664  -0.2337334), wk =   0.0063492
        k(  150) = (  -0.4000000  -0.7171664   0.4674667), wk =   0.0063492
        k(  151) = (  -0.4000000   0.7171664  -0.4674667), wk =   0.0063492
        k(  152) = (   0.4000000  -0.7171664  -0.4674667), wk =   0.0063492
        k(  153) = (  -0.4000000  -0.7171664   0.7012001), wk =   0.0063492
        k(  154) = (  -0.4000000   0.7171664  -0.7012001), wk =   0.0063492
        k(  155) = (   0.4000000  -0.7171664  -0.7012001), wk =   0.0063492
        k(  156) = (  -0.4000000  -0.7171664   0.9349334), wk =   0.0063492
        k(  157) = (  -0.4000000   0.7171664  -0.9349334), wk =   0.0063492
        k(  158) = (   0.4000000  -0.7171664  -0.9349334), wk =   0.0063492

                       cryst. coord.
        k(    1) = (   0.0000000   0.0000000   0.0000000), wk =   0.0031746
        k(    2) = (   0.0000000   0.0000000   0.1111111), wk =   0.0063492
        k(    3) = (   0.0000000   0.0000000   0.2222222), wk =   0.0063492
        k(    4) = (   0.0000000   0.0000000   0.3333333), wk =   0.0063492
        k(    5) = (   0.0000000   0.0000000   0.4444444), wk =   0.0063492
        k(    6) = (   0.0000000   0.1428571   0.0000000), wk =   0.0063492
        k(    7) = (   0.0000000   0.1428571   0.1111111), wk =   0.0063492
        k(    8) = (   0.0000000   0.1428571   0.2222222), wk =   0.0063492
        k(    9) = (   0.0000000   0.1428571   0.3333333), wk =   0.0063492
        k(   10) = (   0.0000000   0.1428571   0.4444444), wk =   0.0063492
        k(   11) = (   0.0000000   0.2857143   0.0000000), wk =   0.0063492
        k(   12) = (   0.0000000   0.2857143   0.1111111), wk =   0.0063492
        k(   13) = (   0.0000000   0.2857143   0.2222222), wk =   0.0063492
        k(   14) = (   0.0000000   0.2857143   0.3333333), wk =   0.0063492
        k(   15) = (   0.0000000   0.2857143   0.4444444), wk =   0.0063492
        k(   16) = (   0.0000000   0.4285714   0.0000000), wk =   0.0063492
        k(   17) = (   0.0000000   0.4285714   0.1111111), wk =   0.0063492
        k(   18) = (   0.0000000   0.4285714   0.2222222), wk =   0.0063492
        k(   19) = (   0.0000000   0.4285714   0.3333333), wk =   0.0063492
        k(   20) = (   0.0000000   0.4285714   0.4444444), wk =   0.0063492
        k(   21) = (   0.2000000   0.0000000   0.0000000), wk =   0.0063492
        k(   22) = (   0.2000000   0.0000000   0.1111111), wk =   0.0063492
        k(   23) = (   0.2000000   0.0000000   0.2222222), wk =   0.0063492
        k(   24) = (   0.2000000   0.0000000   0.3333333), wk =   0.0063492
        k(   25) = (   0.2000000   0.0000000   0.4444444), wk =   0.0063492
        k(   26) = (   0.2000000   0.1428571   0.0000000), wk =   0.0063492
        k(   27) = (   0.2000000   0.1428571   0.1111111), wk =   0.0063492
        k(   28) = (   0.2000000   0.1428571   0.2222222), wk =   0.0063492
        k(   29) = (   0.2000000   0.1428571   0.3333333), wk =   0.0063492
        k(   30) = (   0.2000000   0.1428571   0.4444444), wk =   0.0063492
        k(   31) = (   0.2000000   0.2857143   0.0000000), wk =   0.0063492
        k(   32) = (   0.2000000   0.2857143   0.1111111), wk =   0.0063492
        k(   33) = (   0.2000000   0.2857143   0.2222222), wk =   0.0063492
        k(   34) = (   0.2000000   0.2857143   0.3333333), wk =   0.0063492
        k(   35) = (   0.2000000   0.2857143   0.4444444), wk =   0.0063492
        k(   36) = (   0.2000000   0.4285714   0.0000000), wk =   0.0063492
        k(   37) = (   0.2000000   0.4285714   0.1111111), wk =   0.0063492
        k(   38) = (   0.2000000   0.4285714   0.2222222), wk =   0.0063492
        k(   39) = (   0.2000000   0.4285714   0.3333333), wk =   0.0063492
        k(   40) = (   0.2000000   0.4285714   0.4444444), wk =   0.0063492
        k(   41) = (   0.4000000   0.0000000   0.0000000), wk =   0.0063492
        k(   42) = (   0.4000000   0.0000000   0.1111111), wk =   0.0063492
        k(   43) = (   0.4000000   0.0000000   0.2222222), wk =   0.0063492
        k(   44) = (   0.4000000   0.0000000   0.3333333), wk =   0.0063492
        k(   45) = (   0.4000000   0.0000000   0.4444444), wk =   0.0063492
        k(   46) = (   0.4000000   0.1428571   0.0000000), wk =   0.0063492
        k(   47) = (   0.4000000   0.1428571   0.1111111), wk =   0.0063492
        k(   48) = (   0.4000000   0.1428571   0.2222222), wk =   0.0063492
        k(   49) = (   0.4000000   0.1428571   0.3333333), wk =   0.0063492
        k(   50) = (   0.4000000   0.1428571   0.4444444), wk =   0.0063492
        k(   51) = (   0.4000000   0.2857143   0.0000000), wk =   0.0063492
        k(   52) = (   0.4000000   0.2857143   0.1111111), wk =   0.0063492
        k(   53) = (   0.4000000   0.2857143   0.2222222), wk =   0.0063492
        k(   54) = (   0.4000000   0.2857143   0.3333333), wk =   0.0063492
        k(   55) = (   0.4000000   0.2857143   0.4444444), wk =   0.0063492
        k(   56) = (   0.4000000   0.4285714   0.0000000), wk =   0.0063492
        k(   57) = (   0.4000000   0.4285714   0.1111111), wk =   0.0063492
        k(   58) = (   0.4000000   0.4285714   0.2222222), wk =   0.0063492
        k(   59) = (   0.4000000   0.4285714   0.3333333), wk =   0.0063492
        k(   60) = (   0.4000000   0.4285714   0.4444444), wk =   0.0063492
        k(   61) = (   0.0000000  -0.1428571   0.1111111), wk =   0.0063492
        k(   62) = (   0.0000000  -0.1428571   0.2222222), wk =   0.0063492
        k(   63) = (   0.0000000  -0.1428571   0.3333333), wk =   0.0063492
        k(   64) = (   0.0000000  -0.1428571   0.4444444), wk =   0.0063492
        k(   65) = (   0.0000000  -0.2857143   0.1111111), wk =   0.0063492
        k(   66) = (   0.0000000  -0.2857143   0.2222222), wk =   0.0063492
        k(   67) = (   0.0000000  -0.2857143   0.3333333), wk =   0.0063492
        k(   68) = (   0.0000000  -0.2857143   0.4444444), wk =   0.0063492
        k(   69) = (   0.0000000  -0.4285714   0.1111111), wk =   0.0063492
        k(   70) = (   0.0000000  -0.4285714   0.2222222), wk =   0.0063492
        k(   71) = (   0.0000000  -0.4285714   0.3333333), wk =   0.0063492
        k(   72) = (   0.0000000  -0.4285714   0.4444444), wk =   0.0063492
        k(   73) = (  -0.2000000   0.0000000   0.1111111), wk =   0.0063492
        k(   74) = (  -0.2000000   0.0000000   0.2222222), wk =   0.0063492
        k(   75) = (  -0.2000000   0.0000000   0.3333333), wk =   0.0063492
        k(   76) = (  -0.2000000   0.0000000   0.4444444), wk =   0.0063492
        k(   77) = (  -0.2000000   0.1428571   0.0000000), wk =   0.0063492
        k(   78) = (  -0.2000000  -0.1428571   0.1111111), wk =   0.0063492
        k(   79) = (  -0.2000000   0.1428571  -0.1111111), wk =   0.0063492
        k(   80) = (   0.2000000  -0.1428571  -0.1111111), wk =   0.0063492
        k(   81) = (  -0.2000000  -0.1428571   0.2222222), wk =   0.0063492
        k(   82) = (  -0.2000000   0.1428571  -0.2222222), wk =   0.0063492
        k(   83) = (   0.2000000  -0.1428571  -0.2222222), wk =   0.0063492
        k(   84) = (  -0.2000000  -0.1428571   0.3333333), wk =   0.0063492
        k(   85) = (  -0.2000000   0.1428571  -0.3333333), wk =   0.0063492
        k(   86) = (   0.2000000  -0.1428571  -0.3333333), wk =   0.0063492
        k(   87) = (  -0.2000000  -0.1428571   0.4444444), wk =   0.0063492
        k(   88) = (  -0.2000000   0.1428571  -0.4444444), wk =   0.0063492
        k(   89) = (   0.2000000  -0.1428571  -0.4444444), wk =   0.0063492
        k(   90) = (  -0.2000000   0.2857143   0.0000000), wk =   0.0063492
        k(   91) = (  -0.2000000  -0.2857143   0.1111111), wk =   0.0063492
        k(   92) = (  -0.2000000   0.2857143  -0.1111111), wk =   0.0063492
        k(   93) = (   0.2000000  -0.2857143  -0.1111111), wk =   0.0063492
        k(   94) = (  -0.2000000  -0.2857143   0.2222222), wk =   0.0063492
        k(   95) = (  -0.2000000   0.2857143  -0.2222222), wk =   0.0063492
        k(   96) = (   0.2000000  -0.2857143  -0.2222222), wk =   0.0063492
        k(   97) = (  -0.2000000  -0.2857143   0.3333333), wk =   0.0063492
        k(   98) = (  -0.2000000   0.2857143  -0.3333333), wk =   0.0063492
        k(   99) = (   0.2000000  -0.2857143  -0.3333333), wk =   0.0063492
        k(  100) = (  -0.2000000  -0.2857143   0.4444444), wk =   0.0063492
        k(  101) = (  -0.2000000   0.2857143  -0.4444444), wk =   0.0063492
        k(  102) = (   0.2000000  -0.2857143  -0.4444444), wk =   0.0063492
        k(  103) = (  -0.2000000   0.4285714   0.0000000), wk =   0.0063492
        k(  104) = (  -0.2000000  -0.4285714   0.1111111), wk =   0.0063492
        k(  105) = (  -0.2000000   0.4285714  -0.1111111), wk =   0.0063492
        k(  106) = (   0.2000000  -0.4285714  -0.1111111), wk =   0.0063492
        k(  107) = (  -0.2000000  -0.4285714   0.2222222), wk =   0.0063492
        k(  108) = (  -0.2000000   0.4285714  -0.2222222), wk =   0.0063492
        k(  109) = (   0.2000000  -0.4285714  -0.2222222), wk =   0.0063492
        k(  110) = (  -0.2000000  -0.4285714   0.3333333), wk =   0.0063492
        k(  111) = (  -0.2000000   0.4285714  -0.3333333), wk =   0.0063492
        k(  112) = (   0.2000000  -0.4285714  -0.3333333), wk =   0.0063492
        k(  113) = (  -0.2000000  -0.4285714   0.4444444), wk =   0.0063492
        k(  114) = (  -0.2000000   0.4285714  -0.4444444), wk =   0.0063492
        k(  115) = (   0.2000000  -0.4285714  -0.4444444), wk =   0.0063492
        k(  116) = (  -0.4000000   0.0000000   0.1111111), wk =   0.0063492
        k(  117) = (  -0.4000000   0.0000000   0.2222222), wk =   0.0063492
        k(  118) = (  -0.4000000   0.0000000   0.3333333), wk =   0.0063492
        k(  119) = (  -0.4000000   0.0000000   0.4444444), wk =   0.0063492
        k(  120) = (  -0.4000000   0.1428571   0.0000000), wk =   0.0063492
        k(  121) = (  -0.4000000  -0.1428571   0.1111111), wk =   0.0063492
        k(  122) = (  -0.4000000   0.1428571  -0.1111111), wk =   0.0063492
        k(  123) = (   0.4000000  -0.1428571  -0.1111111), wk =   0.0063492
        k(  124) = (  -0.4000000  -0.1428571   0.2222222), wk =   0.0063492
        k(  125) = (  -0.4000000   0.1428571  -0.2222222), wk =   0.0063492
        k(  126) = (   0.4000000  -0.1428571  -0.2222222), wk =   0.0063492
        k(  127) = (  -0.4000000  -0.1428571   0.3333333), wk =   0.0063492
        k(  128) = (  -0.4000000   0.1428571  -0.3333333), wk =   0.0063492
        k(  129) = (   0.4000000  -0.1428571  -0.3333333), wk =   0.0063492
        k(  130) = (  -0.4000000  -0.1428571   0.4444444), wk =   0.0063492
        k(  131) = (  -0.4000000   0.1428571  -0.4444444), wk =   0.0063492
        k(  132) = (   0.4000000  -0.1428571  -0.4444444), wk =   0.0063492
        k(  133) = (  -0.4000000   0.2857143   0.0000000), wk =   0.0063492
        k(  134) = (  -0.4000000  -0.2857143   0.1111111), wk =   0.0063492
        k(  135) = (  -0.4000000   0.2857143  -0.1111111), wk =   0.0063492
        k(  136) = (   0.4000000  -0.2857143  -0.1111111), wk =   0.0063492
        k(  137) = (  -0.4000000  -0.2857143   0.2222222), wk =   0.0063492
        k(  138) = (  -0.4000000   0.2857143  -0.2222222), wk =   0.0063492
        k(  139) = (   0.4000000  -0.2857143  -0.2222222), wk =   0.0063492
        k(  140) = (  -0.4000000  -0.2857143   0.3333333), wk =   0.0063492
        k(  141) = (  -0.4000000   0.2857143  -0.3333333), wk =   0.0063492
        k(  142) = (   0.4000000  -0.2857143  -0.3333333), wk =   0.0063492
        k(  143) = (  -0.4000000  -0.2857143   0.4444444), wk =   0.0063492
        k(  144) = (  -0.4000000   0.2857143  -0.4444444), wk =   0.0063492
        k(  145) = (   0.4000000  -0.2857143  -0.4444444), wk =   0.0063492
        k(  146) = (  -0.4000000   0.4285714   0.0000000), wk =   0.0063492
        k(  147) = (  -0.4000000  -0.4285714   0.1111111), wk =   0.0063492
        k(  148) = (  -0.4000000   0.4285714  -0.1111111), wk =   0.0063492
        k(  149) = (   0.4000000  -0.4285714  -0.1111111), wk =   0.0063492
        k(  150) = (  -0.4000000  -0.4285714   0.2222222), wk =   0.0063492
        k(  151) = (  -0.4000000   0.4285714  -0.2222222), wk =   0.0063492
        k(  152) = (   0.4000000  -0.4285714  -0.2222222), wk =   0.0063492
        k(  153) = (  -0.4000000  -0.4285714   0.3333333), wk =   0.0063492
        k(  154) = (  -0.4000000   0.4285714  -0.3333333), wk =   0.0063492
        k(  155) = (   0.4000000  -0.4285714  -0.3333333), wk =   0.0063492
        k(  156) = (  -0.4000000  -0.4285714   0.4444444), wk =   0.0063492
        k(  157) = (  -0.4000000   0.4285714  -0.4444444), wk =   0.0063492
        k(  158) = (   0.4000000  -0.4285714  -0.4444444), wk =   0.0063492

     Dense  grid:  1231207 G-vectors     FFT dimensions: ( 216, 125, 100)

     Smooth grid:   277409 G-vectors     FFT dimensions: ( 125,  75,  60)

     Dynamical RAM for                 wfc:       2.51 MB

     Dynamical RAM for     wfc (w. buffer):     796.80 MB

     Dynamical RAM for           str. fact:       3.13 MB

     Dynamical RAM for           local pot:       0.00 MB

     Dynamical RAM for          nlocal pot:       6.17 MB

     Dynamical RAM for                qrad:      10.54 MB

     Dynamical RAM for          rho,v,vnew:      10.88 MB

     Dynamical RAM for               rhoin:       3.63 MB

     Dynamical RAM for            rho*nmix:      25.05 MB

     Dynamical RAM for           G-vectors:       3.02 MB

     Dynamical RAM for          h,s,v(r/c):       2.38 MB

     Dynamical RAM for          <psi|beta>:       0.49 MB

     Dynamical RAM for                 psi:       5.03 MB

     Dynamical RAM for                hpsi:       5.03 MB

     Dynamical RAM for                spsi:       5.03 MB

     Dynamical RAM for      wfcinit/wfcrot:       6.47 MB

     Dynamical RAM for           addusdens:     158.91 MB

     Dynamical RAM for          addusforce:     182.52 MB

     Dynamical RAM for         addusstress:     158.52 MB

     Estimated static dynamical RAM per process >     869.32 MB

     Estimated max dynamical RAM per process >       1.03 GB

     Estimated total dynamical RAM >      24.65 GB

     Check: negative core charge=   -0.000003
     Generating pointlists ...
     new r_m :   0.0760 (alat units)  1.4687 (a.u.) for type    1
     new r_m :   0.0886 (alat units)  1.7128 (a.u.) for type    2
     new r_m :   0.0610 (alat units)  1.1796 (a.u.) for type    3
     new r_m :   0.0610 (alat units)  1.1796 (a.u.) for type    4

     Initial potential from superposition of free atoms

     starting charge  188.99132, renormalised to  189.00000
     Starting wfcs are  137 randomized atomic wfcs
     Checking if some PAW data can be deallocated... 
       PAW data deallocated on   20 nodes for type:  1
       PAW data deallocated on    8 nodes for type:  3

     total cpu time spent up to now is      177.1 secs

     Self-consistent Calculation

     iteration #  1     ecut=   100.00 Ry     beta= 0.40
     Davidson diagonalization with overlap
     ethr =  1.00E-02,  avg # of iterations =  3.1

     negative rho (up, down):  0.000E+00 6.723E-05

     total cpu time spent up to now is      761.0 secs

     total energy              =   -2123.92788612 Ry
     estimated scf accuracy    <       6.94918800 Ry

     total magnetization       =    19.00 Bohr mag/cell
     absolute magnetization    =    19.00 Bohr mag/cell

     iteration #  2     ecut=   100.00 Ry     beta= 0.40
     Davidson diagonalization with overlap
     ethr =  3.68E-03,  avg # of iterations =  2.0

     negative rho (up, down):  0.000E+00 4.613E-05

     total cpu time spent up to now is     1402.8 secs

     total energy              =   -2120.69699891 Ry
     estimated scf accuracy    <      46.31422872 Ry

     total magnetization       =     7.14 Bohr mag/cell
     absolute magnetization    =     8.46 Bohr mag/cell

     iteration #  3     ecut=   100.00 Ry     beta= 0.40
     Davidson diagonalization with overlap
     ethr =  3.68E-03,  avg # of iterations =  2.8

     negative rho (up, down):  0.000E+00 2.377E-05

     total cpu time spent up to now is     1856.4 secs

     total energy              =   -2123.49605038 Ry
     estimated scf accuracy    <      59.49682973 Ry

     total magnetization       =     3.49 Bohr mag/cell
     absolute magnetization    =     7.61 Bohr mag/cell

     iteration #  4     ecut=   100.00 Ry     beta= 0.40
     Davidson diagonalization with overlap
     ethr =  3.68E-03,  avg # of iterations =  1.6

     negative rho (up, down):  0.000E+00 2.174E-05

     total cpu time spent up to now is     2251.5 secs

     total energy              =   -2124.57732792 Ry
     estimated scf accuracy    <      29.45233773 Ry

     total magnetization       =     9.00 Bohr mag/cell
     absolute magnetization    =     9.36 Bohr mag/cell

     iteration #  5     ecut=   100.00 Ry     beta= 0.40
     Davidson diagonalization with overlap
     ethr =  3.68E-03,  avg # of iterations =  1.9

     negative rho (up, down):  0.000E+00 1.015E-04

     total cpu time spent up to now is     2674.5 secs

     total energy              =   -2125.98746730 Ry
     estimated scf accuracy    <       1.71138901 Ry

     total magnetization       =    19.02 Bohr mag/cell
     absolute magnetization    =    19.02 Bohr mag/cell

     iteration #  6     ecut=   100.00 Ry     beta= 0.40
     Davidson diagonalization with overlap
     ethr =  9.05E-04,  avg # of iterations =  2.0

     negative rho (up, down):  0.000E+00 2.342E-04

     total cpu time spent up to now is     3100.5 secs

     total energy              =   -2126.07885075 Ry
     estimated scf accuracy    <       0.52424510 Ry

     total magnetization       =    19.00 Bohr mag/cell
     absolute magnetization    =    19.00 Bohr mag/cell

     iteration #  7     ecut=   100.00 Ry     beta= 0.40
     Davidson diagonalization with overlap
     ethr =  2.77E-04,  avg # of iterations =  2.9

     negative rho (up, down):  0.000E+00 3.924E-04

     total cpu time spent up to now is     3528.5 secs

     total energy              =   -2126.08615604 Ry
     estimated scf accuracy    <       0.21467944 Ry

     total magnetization       =    19.00 Bohr mag/cell
     absolute magnetization    =    19.00 Bohr mag/cell

     iteration #  8     ecut=   100.00 Ry     beta= 0.40
     Davidson diagonalization with overlap
     c_bands:  1 eigenvalues not converged
     c_bands:  1 eigenvalues not converged
     ethr =  1.14E-04,  avg # of iterations = 10.3

     negative rho (up, down):  0.000E+00 5.268E-04

     total cpu time spent up to now is     4145.1 secs

     total energy              =   -2126.08440199 Ry
     estimated scf accuracy    <       0.25858374 Ry

     total magnetization       =    19.00 Bohr mag/cell
     absolute magnetization    =    19.01 Bohr mag/cell

     iteration #  9     ecut=   100.00 Ry     beta= 0.40
     Davidson diagonalization with overlap
     ethr =  1.14E-04,  avg # of iterations =  1.7

     negative rho (up, down):  0.000E+00 7.517E-04

     total cpu time spent up to now is     4534.5 secs

     total energy              =   -2126.10570089 Ry
     estimated scf accuracy    <       0.09995455 Ry

     total magnetization       =    19.00 Bohr mag/cell
     absolute magnetization    =    19.01 Bohr mag/cell

     iteration # 10     ecut=   100.00 Ry     beta= 0.40
     Davidson diagonalization with overlap
     c_bands:  1 eigenvalues not converged
     c_bands:  3 eigenvalues not converged
     c_bands:  1 eigenvalues not converged
     ethr =  5.29E-05,  avg # of iterations =  3.7

     negative rho (up, down):  0.000E+00 8.634E-04

     total cpu time spent up to now is     4980.7 secs

     total energy              =   -2126.11042353 Ry
     estimated scf accuracy    <       0.03275489 Ry

     total magnetization       =    19.00 Bohr mag/cell
     absolute magnetization    =    19.02 Bohr mag/cell

     iteration # 11     ecut=   100.00 Ry     beta= 0.40
     Davidson diagonalization with overlap
     c_bands:  1 eigenvalues not converged
     c_bands:  1 eigenvalues not converged
     c_bands:  1 eigenvalues not converged
     c_bands:  1 eigenvalues not converged
     c_bands:  1 eigenvalues not converged
     c_bands:  1 eigenvalues not converged
     c_bands:  1 eigenvalues not converged
     c_bands:  1 eigenvalues not converged
     c_bands:  1 eigenvalues not converged
     c_bands:  1 eigenvalues not converged
     ethr =  1.73E-05,  avg # of iterations =  9.5

     negative rho (up, down):  0.000E+00 9.526E-04

     total cpu time spent up to now is     5591.5 secs

     total energy              =   -2126.11250521 Ry
     estimated scf accuracy    <       0.03498892 Ry

     total magnetization       =    19.00 Bohr mag/cell
     absolute magnetization    =    19.03 Bohr mag/cell

     iteration # 12     ecut=   100.00 Ry     beta= 0.40
     Davidson diagonalization with overlap
     ethr =  1.73E-05,  avg # of iterations =  1.1

     negative rho (up, down):  0.000E+00 9.571E-04

     total cpu time spent up to now is     5958.7 secs

     total energy              =   -2126.11379957 Ry
     estimated scf accuracy    <       0.00659714 Ry

     total magnetization       =    19.00 Bohr mag/cell
     absolute magnetization    =    19.04 Bohr mag/cell

     iteration # 13     ecut=   100.00 Ry     beta= 0.40
     Davidson diagonalization with overlap
     c_bands:  1 eigenvalues not converged
     c_bands:  1 eigenvalues not converged
     c_bands:  1 eigenvalues not converged
     c_bands:  1 eigenvalues not converged
     c_bands:  1 eigenvalues not converged
     c_bands:  1 eigenvalues not converged
     c_bands:  1 eigenvalues not converged
     c_bands:  1 eigenvalues not converged
     c_bands:  1 eigenvalues not converged
     c_bands:  1 eigenvalues not converged
     c_bands:  1 eigenvalues not converged
     c_bands:  1 eigenvalues not converged
     c_bands:  1 eigenvalues not converged
     c_bands:  1 eigenvalues not converged
     c_bands:  1 eigenvalues not converged
     c_bands:  1 eigenvalues not converged
     c_bands:  1 eigenvalues not converged
     c_bands:  1 eigenvalues not converged
     c_bands:  1 eigenvalues not converged
     c_bands:  1 eigenvalues not converged
     c_bands:  1 eigenvalues not converged
     c_bands:  1 eigenvalues not converged
     c_bands:  1 eigenvalues not converged
     c_bands:  1 eigenvalues not converged
     c_bands:  1 eigenvalues not converged
     c_bands:  1 eigenvalues not converged
     c_bands:  1 eigenvalues not converged
     c_bands:  1 eigenvalues not converged
     ethr =  3.49E-06,  avg # of iterations = 10.7

     negative rho (up, down):  0.000E+00 9.588E-04

     total cpu time spent up to now is     6631.6 secs

     total energy              =   -2126.11474397 Ry
     estimated scf accuracy    <       0.01168706 Ry

     total magnetization       =    19.00 Bohr mag/cell
     absolute magnetization    =    19.04 Bohr mag/cell

     iteration # 14     ecut=   100.00 Ry     beta= 0.40
     Davidson diagonalization with overlap
     ethr =  3.49E-06,  avg # of iterations =  1.1

     negative rho (up, down):  0.000E+00 9.600E-04

     total cpu time spent up to now is     6996.3 secs

     total energy              =   -2126.11491616 Ry
     estimated scf accuracy    <       0.00190586 Ry

     total magnetization       =    19.00 Bohr mag/cell
     absolute magnetization    =    19.04 Bohr mag/cell

     iteration # 15     ecut=   100.00 Ry     beta= 0.40
     Davidson diagonalization with overlap
     ethr =  1.01E-06,  avg # of iterations =  2.4

     negative rho (up, down):  0.000E+00 9.503E-04

     total cpu time spent up to now is     7430.0 secs

     total energy              =   -2126.11506844 Ry
     estimated scf accuracy    <       0.00045135 Ry

     total magnetization       =    19.00 Bohr mag/cell
     absolute magnetization    =    19.04 Bohr mag/cell

     iteration # 16     ecut=   100.00 Ry     beta= 0.40
     Davidson diagonalization with overlap
     ethr =  2.39E-07,  avg # of iterations =  4.6

     negative rho (up, down):  0.000E+00 9.430E-04

     total cpu time spent up to now is     8040.4 secs

     total energy              =   -2126.11519872 Ry
     estimated scf accuracy    <       0.00004106 Ry

     total magnetization       =    19.00 Bohr mag/cell
     absolute magnetization    =    19.04 Bohr mag/cell

     iteration # 17     ecut=   100.00 Ry     beta= 0.40
     Davidson diagonalization with overlap
     ethr =  2.17E-08,  avg # of iterations =  1.9

     negative rho (up, down):  0.000E+00 9.388E-04

     total cpu time spent up to now is     8455.3 secs

     total energy              =   -2126.11520407 Ry
     estimated scf accuracy    <       0.00001422 Ry

     total magnetization       =    19.00 Bohr mag/cell
     absolute magnetization    =    19.04 Bohr mag/cell

     iteration # 18     ecut=   100.00 Ry     beta= 0.40
     Davidson diagonalization with overlap
     ethr =  7.53E-09,  avg # of iterations =  2.5

     negative rho (up, down):  0.000E+00 9.373E-04

     total cpu time spent up to now is     8906.1 secs

     total energy              =   -2126.11520702 Ry
     estimated scf accuracy    <       0.00001214 Ry

     total magnetization       =    19.00 Bohr mag/cell
     absolute magnetization    =    19.04 Bohr mag/cell

     iteration # 19     ecut=   100.00 Ry     beta= 0.40
     Davidson diagonalization with overlap
     ethr =  6.43E-09,  avg # of iterations =  1.0

     negative rho (up, down):  0.000E+00 9.374E-04

     total cpu time spent up to now is     9276.8 secs

     total energy              =   -2126.11520780 Ry
     estimated scf accuracy    <       0.00000215 Ry

     total magnetization       =    19.00 Bohr mag/cell
     absolute magnetization    =    19.04 Bohr mag/cell

     iteration # 20     ecut=   100.00 Ry     beta= 0.40
     Davidson diagonalization with overlap
     ethr =  1.14E-09,  avg # of iterations =  2.5

     negative rho (up, down):  0.000E+00 9.371E-04

     total cpu time spent up to now is     9759.5 secs

     total energy              =   -2126.11520834 Ry
     estimated scf accuracy    <       0.00000208 Ry

     total magnetization       =    19.00 Bohr mag/cell
     absolute magnetization    =    19.04 Bohr mag/cell

     iteration # 21     ecut=   100.00 Ry     beta= 0.40
     Davidson diagonalization with overlap
     ethr =  1.10E-09,  avg # of iterations =  1.5

     negative rho (up, down):  0.000E+00 9.374E-04

     total cpu time spent up to now is    10149.9 secs

     total energy              =   -2126.11520851 Ry
     estimated scf accuracy    <       0.00000058 Ry

     total magnetization       =    19.00 Bohr mag/cell
     absolute magnetization    =    19.04 Bohr mag/cell

     iteration # 22     ecut=   100.00 Ry     beta= 0.40
     Davidson diagonalization with overlap
     ethr =  3.04E-10,  avg # of iterations =  1.7

     negative rho (up, down):  0.000E+00 9.379E-04

     total cpu time spent up to now is    10727.4 secs

     total energy              =   -2126.11520854 Ry
     estimated scf accuracy    <       0.00000014 Ry

     total magnetization       =    19.00 Bohr mag/cell
     absolute magnetization    =    19.04 Bohr mag/cell

     iteration # 23     ecut=   100.00 Ry     beta= 0.40
     Davidson diagonalization with overlap
     ethr =  7.62E-11,  avg # of iterations =  3.6

     negative rho (up, down):  0.000E+00 9.380E-04

     total cpu time spent up to now is    11557.6 secs

     total energy              =   -2126.11520857 Ry
     estimated scf accuracy    <       0.00000009 Ry

     total magnetization       =    19.00 Bohr mag/cell
     absolute magnetization    =    19.04 Bohr mag/cell

     iteration # 24     ecut=   100.00 Ry     beta= 0.40
     Davidson diagonalization with overlap
     ethr =  4.68E-11,  avg # of iterations =  1.4

     negative rho (up, down):  0.000E+00 9.381E-04

     total cpu time spent up to now is    12037.2 secs

     total energy              =   -2126.11520858 Ry
     estimated scf accuracy    <       0.00000004 Ry

     total magnetization       =    19.00 Bohr mag/cell
     absolute magnetization    =    19.04 Bohr mag/cell

     iteration # 25     ecut=   100.00 Ry     beta= 0.40
     Davidson diagonalization with overlap
     ethr =  2.31E-11,  avg # of iterations =  1.8

     negative rho (up, down):  0.000E+00 9.381E-04

     total cpu time spent up to now is    12454.7 secs

     total energy              =   -2126.11520858 Ry
     estimated scf accuracy    <          3.7E-09 Ry

     total magnetization       =    19.00 Bohr mag/cell
     absolute magnetization    =    19.04 Bohr mag/cell

     iteration # 26     ecut=   100.00 Ry     beta= 0.40
     Davidson diagonalization with overlap
     ethr =  1.97E-12,  avg # of iterations =  5.5

     negative rho (up, down):  0.000E+00 9.381E-04

     total cpu time spent up to now is    13340.7 secs

     total energy              =   -2126.11520858 Ry
     estimated scf accuracy    <          6.1E-09 Ry

     total magnetization       =    19.00 Bohr mag/cell
     absolute magnetization    =    19.04 Bohr mag/cell

     iteration # 27     ecut=   100.00 Ry     beta= 0.40
     Davidson diagonalization with overlap
     ethr =  1.97E-12,  avg # of iterations =  1.0

     negative rho (up, down):  0.000E+00 9.381E-04

     total cpu time spent up to now is    13704.5 secs

     total energy              =   -2126.11520859 Ry
     estimated scf accuracy    <          1.0E-09 Ry

     total magnetization       =    19.00 Bohr mag/cell
     absolute magnetization    =    19.04 Bohr mag/cell

     iteration # 28     ecut=   100.00 Ry     beta= 0.40
     Davidson diagonalization with overlap
     ethr =  5.55E-13,  avg # of iterations =  2.1

     negative rho (up, down):  0.000E+00 9.381E-04

     Magnetic moment per site:
     atom:    1    charge:    7.8866    magn:    0.0006    constr:    0.0000
     atom:    2    charge:   12.7672    magn:    3.6427    constr:    0.0000
     atom:    3    charge:   12.7735    magn:    3.6279    constr:    0.0000
     atom:    4    charge:   12.8130    magn:    3.5251    constr:    0.0000
     atom:    5    charge:   12.7749    magn:    3.6292    constr:    0.0000
     atom:    6    charge:    0.8206    magn:    0.0111    constr:    0.0000
     atom:    7    charge:    0.8247    magn:    0.0088    constr:    0.0000
     atom:    8    charge:    0.8237    magn:    0.0118    constr:    0.0000
     atom:    9    charge:    0.8185    magn:    0.0094    constr:    0.0000
     atom:   10    charge:    4.2029    magn:    0.1334    constr:    0.0000
     atom:   11    charge:    4.2194    magn:    0.0874    constr:    0.0000
     atom:   12    charge:    4.2063    magn:    0.1242    constr:    0.0000
     atom:   13    charge:    4.2018    magn:    0.1062    constr:    0.0000
     atom:   14    charge:    4.1942    magn:    0.1107    constr:    0.0000
     atom:   15    charge:    4.2020    magn:    0.1266    constr:    0.0000
     atom:   16    charge:    4.1992    magn:    0.0763    constr:    0.0000
     atom:   17    charge:    4.1960    magn:    0.1365    constr:    0.0000
     atom:   18    charge:    4.1738    magn:    0.1507    constr:    0.0000
     atom:   19    charge:    4.1761    magn:    0.1310    constr:    0.0000
     atom:   20    charge:    4.1819    magn:    0.1495    constr:    0.0000
     atom:   21    charge:    4.1717    magn:    0.1304    constr:    0.0000
     atom:   22    charge:    4.1800    magn:    0.1423    constr:    0.0000
     atom:   23    charge:    4.1782    magn:    0.1209    constr:    0.0000
     atom:   24    charge:    4.1743    magn:    0.1518    constr:    0.0000
     atom:   25    charge:    4.1791    magn:    0.1331    constr:    0.0000

     total cpu time spent up to now is    14195.4 secs

     End of self-consistent calculation

 ------ SPIN UP ------------


          k = 0.0000 0.0000 0.0000 ( 34745 PWs)   bands (ev):

   -84.5762 -84.5520 -84.5328 -84.1512 -50.6949 -50.6583 -50.6416 -50.5308
   -50.5086 -50.5043 -50.4810 -50.4773 -50.4601 -50.4331 -50.1000 -49.9124
   -44.4821 -16.5524 -16.4782 -16.4463 -16.0238 -15.8308 -15.6355 -15.5326
   -13.5056 -13.4423 -13.3182 -13.2205 -13.1721 -13.1434 -13.1362 -13.0575
   -13.0416 -12.9509 -12.9182 -12.8155  -3.7124  -3.1788  -3.0845  -2.6135
    -1.9537  -1.5679  -1.4925  -1.3168  -1.1815  -1.0297  -0.9037  -0.8565
    -0.7472  -0.5358  -0.3447  -0.1148   0.0532   0.1168   0.6511   0.7210
     0.7366   0.8440   1.0034   1.1040   1.2313   1.2564   1.4636   1.5193
     1.6429   1.8414   1.8738   2.0333   2.0719   2.0904   2.1252   2.2060
     2.2827   2.5813   2.6909   2.7266   2.7575   2.8069   2.9365   3.0246
     3.1619   3.2243   3.2784   3.3943   3.4086   3.6151   3.7760   3.7924
     3.8152   3.9603   4.0007   4.0496   4.1302   4.2304   4.3082   4.4274
     4.5144   4.7388   4.7761   4.8569   5.1078   5.2588   5.4724   5.6087
     9.9935  12.0729  12.4654  12.8771  13.1147  13.6262  14.1974  14.3999
    14.4549  14.5883

     occupation numbers 
     1.0000   1.0000   1.0000   1.0000   1.0000   1.0000   1.0000   1.0000
     1.0000   1.0000   1.0000   1.0000   1.0000   1.0000   1.0000   1.0000
     1.0000   1.0000   1.0000   1.0000   1.0000   1.0000   1.0000   1.0000
     1.0000   1.0000   1.0000   1.0000   1.0000   1.0000   1.0000   1.0000
     1.0000   1.0000   1.0000   1.0000   1.0000   1.0000   1.0000   1.0000
     1.0000   1.0000   1.0000   1.0000   1.0000   1.0000   1.0000   1.0000
     1.0000   1.0000   1.0000   1.0000   1.0000   1.0000   1.0000   1.0000
     1.0000   1.0000   1.0000   1.0000   1.0000   1.0000   1.0000   1.0000
     1.0000   1.0000   1.0000   1.0000   1.0000   1.0000   1.0000   1.0000
     1.0000   1.0000   1.0000   1.0000   1.0000   1.0000   1.0000   1.0000
     1.0000   1.0000   1.0000   1.0000   1.0000   1.0000   1.0000   1.0000
     1.0000   1.0000   1.0000   1.0000   1.0000   1.0000   1.0000   1.0000
     1.0000   1.0000   1.0000   1.0000   1.0000   1.0000   1.0000   1.0000
     0.0000   0.0000   0.0000   0.0000   0.0000   0.0000   0.0000   0.0000
     0.0000   0.0000

          k = 0.0000 0.0000 0.2337 ( 34669 PWs)   bands (ev):

   -84.5762 -84.5520 -84.5328 -84.1512 -50.6949 -50.6583 -50.6416 -50.5308
   -50.5086 -50.5043 -50.4810 -50.4773 -50.4601 -50.4331 -50.1000 -49.9124
   -44.4821 -16.5543 -16.4874 -16.4452 -16.0044 -15.8206 -15.6287 -15.5292
   -13.5148 -13.4477 -13.3330 -13.2261 -13.1760 -13.1420 -13.1363 -13.0533
   -13.0482 -12.9573 -12.9225 -12.8197  -3.6871  -3.1713  -3.0817  -2.6258
    -1.9040  -1.5412  -1.4925  -1.3033  -1.1767  -1.0472  -0.9274  -0.7774
    -0.7406  -0.5009  -0.3936  -0.0868   0.0688   0.0756   0.6624   0.7186
     0.7476   0.8817   0.9948   1.1125   1.2274   1.2349   1.4287   1.5483
     1.6309   1.8209   1.8560   1.9927   2.0435   2.0670   2.1015   2.1596
     2.4111   2.5584   2.6252   2.6704   2.7886   2.7970   2.9156   3.0289
     3.1269   3.2185   3.2770   3.4209   3.5151   3.6020   3.6844   3.7748
     3.8219   3.9669   3.9856   4.0225   4.1361   4.2340   4.3728   4.4279
     4.5512   4.7296   4.7983   4.8677   5.1048   5.2424   5.4455   5.5854
    10.1435  12.1395  12.5327  12.8735  13.1795  13.5845  14.2016  14.2776
    14.3008  14.4825

     occupation numbers 
     1.0000   1.0000   1.0000   1.0000   1.0000   1.0000   1.0000   1.0000
     1.0000   1.0000   1.0000   1.0000   1.0000   1.0000   1.0000   1.0000
     1.0000   1.0000   1.0000   1.0000   1.0000   1.0000   1.0000   1.0000
     1.0000   1.0000   1.0000   1.0000   1.0000   1.0000   1.0000   1.0000
     1.0000   1.0000   1.0000   1.0000   1.0000   1.0000   1.0000   1.0000
     1.0000   1.0000   1.0000   1.0000   1.0000   1.0000   1.0000   1.0000
     1.0000   1.0000   1.0000   1.0000   1.0000   1.0000   1.0000   1.0000
     1.0000   1.0000   1.0000   1.0000   1.0000   1.0000   1.0000   1.0000
     1.0000   1.0000   1.0000   1.0000   1.0000   1.0000   1.0000   1.0000
     1.0000   1.0000   1.0000   1.0000   1.0000   1.0000   1.0000   1.0000
     1.0000   1.0000   1.0000   1.0000   1.0000   1.0000   1.0000   1.0000
     1.0000   1.0000   1.0000   1.0000   1.0000   1.0000   1.0000   1.0000
     1.0000   1.0000   1.0000   1.0000   1.0000   1.0000   1.0000   1.0000
     0.0000   0.0000   0.0000   0.0000   0.0000   0.0000   0.0000   0.0000
     0.0000   0.0000

          k = 0.0000 0.0000 0.4675 ( 34709 PWs)   bands (ev):

   -84.5762 -84.5520 -84.5328 -84.1512 -50.6949 -50.6583 -50.6416 -50.5308
   -50.5086 -50.5043 -50.4810 -50.4773 -50.4601 -50.4331 -50.1000 -49.9124
   -44.4821 -16.5634 -16.5029 -16.4434 -15.9565 -15.7938 -15.6112 -15.5221
   -13.5401 -13.4656 -13.3660 -13.2416 -13.1905 -13.1492 -13.1247 -13.0609
   -13.0401 -12.9719 -12.9344 -12.8312  -3.6145  -3.1632  -3.0684  -2.6733
    -1.7654  -1.5097  -1.4525  -1.2894  -1.1566  -1.0714  -0.9232  -0.7297
    -0.6164  -0.5183  -0.4070  -0.0584   0.0009   0.1347   0.6961   0.7270
     0.7780   0.9402   1.0140   1.1188   1.2048   1.2238   1.3293   1.5860
     1.6209   1.8003   1.8349   1.8838   1.9467   2.0066   2.0659   2.1296
     2.3229   2.4616   2.6374   2.6528   2.7573   2.7658   2.9199   3.0095
     3.0836   3.2203   3.3901   3.4175   3.4665   3.6056   3.6312   3.7142
     3.8393   3.8600   3.9962   4.1335   4.1766   4.2601   4.4275   4.4784
     4.6467   4.7026   4.8289   4.9179   5.0960   5.2059   5.3636   5.5143
    10.5463  12.3178  12.6965  12.9142  13.3100  13.5151  13.8922  14.0943
    14.1462  14.1913

     occupation numbers 
     1.0000   1.0000   1.0000   1.0000   1.0000   1.0000   1.0000   1.0000
     1.0000   1.0000   1.0000   1.0000   1.0000   1.0000   1.0000   1.0000
     1.0000   1.0000   1.0000   1.0000   1.0000   1.0000   1.0000   1.0000
     1.0000   1.0000   1.0000   1.0000   1.0000   1.0000   1.0000   1.0000
     1.0000   1.0000   1.0000   1.0000   1.0000   1.0000   1.0000   1.0000
     1.0000   1.0000   1.0000   1.0000   1.0000   1.0000   1.0000   1.0000
     1.0000   1.0000   1.0000   1.0000   1.0000   1.0000   1.0000   1.0000
     1.0000   1.0000   1.0000   1.0000   1.0000   1.0000   1.0000   1.0000
     1.0000   1.0000   1.0000   1.0000   1.0000   1.0000   1.0000   1.0000
     1.0000   1.0000   1.0000   1.0000   1.0000   1.0000   1.0000   1.0000
     1.0000   1.0000   1.0000   1.0000   1.0000   1.0000   1.0000   1.0000
     1.0000   1.0000   1.0000   1.0000   1.0000   1.0000   1.0000   1.0000
     1.0000   1.0000   1.0000   1.0000   1.0000   1.0000   1.0000   1.0000
     0.0000   0.0000   0.0000   0.0000   0.0000   0.0000   0.0000   0.0000
     0.0000   0.0000

          k = 0.0000 0.0000 0.7012 ( 34655 PWs)   bands (ev):

   -84.5762 -84.5520 -84.5328 -84.1512 -50.6949 -50.6583 -50.6416 -50.5308
   -50.5086 -50.5043 -50.4810 -50.4773 -50.4601 -50.4331 -50.1000 -49.9124
   -44.4821 -16.5800 -16.5103 -16.4418 -15.9028 -15.7611 -15.5891 -15.5186
   -13.5720 -13.4939 -13.3967 -13.2653 -13.2127 -13.1552 -13.1073 -13.0664
   -13.0245 -12.9862 -12.9499 -12.8464  -3.5057  -3.1811  -3.0396  -2.7568
    -1.6119  -1.4854  -1.3746  -1.2853  -1.1099  -1.0794  -0.9020  -0.7484
    -0.6139  -0.4407  -0.2831  -0.2303   0.1451   0.2577   0.7168   0.7768
     0.8353   0.9146   1.0890   1.1153   1.1434   1.1917   1.2903   1.5562
     1.6341   1.6979   1.7377   1.8299   1.9259   1.9345   2.0084   2.0567
     2.1289   2.3060   2.5526   2.6435   2.6865   2.8797   2.9094   3.0638
     3.1425   3.2089   3.2816   3.3474   3.4578   3.5458   3.6257   3.6699
     3.7856   3.8555   4.1004   4.2277   4.2556   4.3979   4.4530   4.5434
     4.6571   4.7856   4.8698   4.9621   5.0915   5.1748   5.2253   5.3953
    11.1024  12.5529  12.7543  13.0433  13.2760  13.5987  13.6778  13.8730
    13.9501  13.9652

     occupation numbers 
     1.0000   1.0000   1.0000   1.0000   1.0000   1.0000   1.0000   1.0000
     1.0000   1.0000   1.0000   1.0000   1.0000   1.0000   1.0000   1.0000
     1.0000   1.0000   1.0000   1.0000   1.0000   1.0000   1.0000   1.0000
     1.0000   1.0000   1.0000   1.0000   1.0000   1.0000   1.0000   1.0000
     1.0000   1.0000   1.0000   1.0000   1.0000   1.0000   1.0000   1.0000
     1.0000   1.0000   1.0000   1.0000   1.0000   1.0000   1.0000   1.0000
     1.0000   1.0000   1.0000   1.0000   1.0000   1.0000   1.0000   1.0000
     1.0000   1.0000   1.0000   1.0000   1.0000   1.0000   1.0000   1.0000
     1.0000   1.0000   1.0000   1.0000   1.0000   1.0000   1.0000   1.0000
     1.0000   1.0000   1.0000   1.0000   1.0000   1.0000   1.0000   1.0000
     1.0000   1.0000   1.0000   1.0000   1.0000   1.0000   1.0000   1.0000
     1.0000   1.0000   1.0000   1.0000   1.0000   1.0000   1.0000   1.0000
     1.0000   1.0000   1.0000   1.0000   1.0000   1.0000   1.0000   1.0000
     0.0000   0.0000   0.0000   0.0000   0.0000   0.0000   0.0000   0.0000
     0.0000   0.0000

          k = 0.0000 0.0000 0.9349 ( 34716 PWs)   bands (ev):

   -84.5762 -84.5520 -84.5328 -84.1512 -50.6949 -50.6583 -50.6416 -50.5308
   -50.5086 -50.5043 -50.4810 -50.4773 -50.4601 -50.4331 -50.1000 -49.9124
   -44.4821 -16.5927 -16.5117 -16.4408 -15.8673 -15.7383 -15.5708 -15.5219
   -13.5942 -13.5161 -13.4136 -13.2873 -13.2261 -13.1566 -13.0935 -13.0670
   -13.0139 -12.9944 -12.9613 -12.8581  -3.3882  -3.2388  -3.0001  -2.8405
    -1.5473  -1.4589  -1.3175  -1.2530  -1.0728  -1.0231  -0.9046  -0.8802
    -0.5446  -0.4055  -0.3246  -0.1939   0.3409   0.4682   0.6957   0.7514
     0.8623   0.9166   1.0437   1.0590   1.0706   1.1928   1.3370   1.4759
     1.5946   1.6545   1.6833   1.7507   1.7704   1.9131   2.0105   2.0738
     2.1631   2.2774   2.3677   2.4907   2.7175   2.8624   3.0327   3.1175
     3.1400   3.2213   3.2397   3.3022   3.3935   3.4361   3.6199   3.6893
     3.7707   3.8501   4.2115   4.2715   4.2879   4.4065   4.5713   4.6070
     4.7134   4.8860   4.9367   4.9792   5.0365   5.1094   5.1584   5.2517
    11.7161  12.3177  12.8356  13.1674  13.3519  13.4660  13.6694  13.7436
    13.9206  14.0158

     occupation numbers 
     1.0000   1.0000   1.0000   1.0000   1.0000   1.0000   1.0000   1.0000
     1.0000   1.0000   1.0000   1.0000   1.0000   1.0000   1.0000   1.0000
     1.0000   1.0000   1.0000   1.0000   1.0000   1.0000   1.0000   1.0000
     1.0000   1.0000   1.0000   1.0000   1.0000   1.0000   1.0000   1.0000
     1.0000   1.0000   1.0000   1.0000   1.0000   1.0000   1.0000   1.0000
     1.0000   1.0000   1.0000   1.0000   1.0000   1.0000   1.0000   1.0000
     1.0000   1.0000   1.0000   1.0000   1.0000   1.0000   1.0000   1.0000
     1.0000   1.0000   1.0000   1.0000   1.0000   1.0000   1.0000   1.0000
     1.0000   1.0000   1.0000   1.0000   1.0000   1.0000   1.0000   1.0000
     1.0000   1.0000   1.0000   1.0000   1.0000   1.0000   1.0000   1.0000
     1.0000   1.0000   1.0000   1.0000   1.0000   1.0000   1.0000   1.0000
     1.0000   1.0000   1.0000   1.0000   1.0000   1.0000   1.0000   1.0000
     1.0000   1.0000   1.0000   1.0000   1.0000   1.0000   1.0000   1.0000
     0.0000   0.0000   0.0000   0.0000   0.0000   0.0000   0.0000   0.0000
     0.0000   0.0000

          k = 0.0000 0.2391 0.0000 ( 34769 PWs)   bands (ev):

   -84.5762 -84.5520 -84.5328 -84.1512 -50.6949 -50.6583 -50.6416 -50.5308
   -50.5086 -50.5043 -50.4810 -50.4773 -50.4601 -50.4331 -50.1000 -49.9124
   -44.4821 -16.5521 -16.4781 -16.4480 -16.0062 -15.8277 -15.6332 -15.5504
   -13.5077 -13.4404 -13.3188 -13.2306 -13.2113 -13.1694 -13.1062 -13.0747
   -12.9950 -12.9474 -12.9140 -12.8180  -3.6849  -3.2012  -3.0559  -2.6213
    -1.9266  -1.5748  -1.4911  -1.3225  -1.1463  -1.0255  -0.8965  -0.8503
    -0.6918  -0.5401  -0.3178  -0.0907   0.0109   0.1462   0.6813   0.7110
     0.7660   0.8157   0.9008   1.0057   1.1041   1.3781   1.4780   1.5705
     1.7355   1.8551   1.8648   1.9510   2.0109   2.0241   2.1125   2.1306
     2.3290   2.5915   2.6717   2.7649   2.8165   2.8286   2.9629   2.9807
     3.1516   3.1984   3.2644   3.2920   3.4241   3.6187   3.7275   3.7800
     3.8266   3.8957   3.9607   4.1361   4.1793   4.2396   4.3355   4.4339
     4.5199   4.6951   4.8232   4.8476   5.0975   5.1930   5.5335   5.6123
    10.1509  12.1638  12.5493  12.8506  13.1622  13.7081  14.1256  14.2909
    14.4875  14.5420

     occupation numbers 
     1.0000   1.0000   1.0000   1.0000   1.0000   1.0000   1.0000   1.0000
     1.0000   1.0000   1.0000   1.0000   1.0000   1.0000   1.0000   1.0000
     1.0000   1.0000   1.0000   1.0000   1.0000   1.0000   1.0000   1.0000
     1.0000   1.0000   1.0000   1.0000   1.0000   1.0000   1.0000   1.0000
     1.0000   1.0000   1.0000   1.0000   1.0000   1.0000   1.0000   1.0000
     1.0000   1.0000   1.0000   1.0000   1.0000   1.0000   1.0000   1.0000
     1.0000   1.0000   1.0000   1.0000   1.0000   1.0000   1.0000   1.0000
     1.0000   1.0000   1.0000   1.0000   1.0000   1.0000   1.0000   1.0000
     1.0000   1.0000   1.0000   1.0000   1.0000   1.0000   1.0000   1.0000
     1.0000   1.0000   1.0000   1.0000   1.0000   1.0000   1.0000   1.0000
     1.0000   1.0000   1.0000   1.0000   1.0000   1.0000   1.0000   1.0000
     1.0000   1.0000   1.0000   1.0000   1.0000   1.0000   1.0000   1.0000
     1.0000   1.0000   1.0000   1.0000   1.0000   1.0000   1.0000   1.0000
     0.0000   0.0000   0.0000   0.0000   0.0000   0.0000   0.0000   0.0000
     0.0000   0.0000

          k = 0.0000 0.2391 0.2337 ( 34721 PWs)   bands (ev):

   -84.5762 -84.5520 -84.5328 -84.1512 -50.6949 -50.6583 -50.6416 -50.5308
   -50.5086 -50.5043 -50.4810 -50.4773 -50.4601 -50.4331 -50.1000 -49.9124
   -44.4821 -16.5544 -16.4875 -16.4467 -15.9862 -15.8167 -15.6271 -15.5469
   -13.5172 -13.4454 -13.3350 -13.2375 -13.2107 -13.1701 -13.1127 -13.0746
   -12.9971 -12.9525 -12.9150 -12.8209  -3.6601  -3.1917  -3.0552  -2.6323
    -1.8794  -1.5471  -1.4884  -1.3087  -1.1419  -1.0433  -0.9099  -0.7822
    -0.6821  -0.5097  -0.3675  -0.0827   0.0033   0.1436   0.6886   0.6998
     0.7769   0.8373   0.9115   1.0205   1.1049   1.3701   1.5031   1.5337
     1.6916   1.8222   1.8806   1.9049   1.9926   2.0131   2.0846   2.1365
     2.4231   2.5757   2.6161   2.7283   2.7844   2.8424   2.8946   3.0090
     3.1334   3.1849   3.2640   3.3592   3.4461   3.6198   3.6574   3.7736
     3.7880   3.9137   3.9813   4.1016   4.1848   4.2480   4.3751   4.4412
     4.5537   4.6936   4.8221   4.8844   5.0799   5.1843   5.5137   5.5944
    10.2943  12.2278  12.6165  12.8780  13.2014  13.6580  14.1305  14.1891
    14.3669  14.4438

     occupation numbers 
     1.0000   1.0000   1.0000   1.0000   1.0000   1.0000   1.0000   1.0000
     1.0000   1.0000   1.0000   1.0000   1.0000   1.0000   1.0000   1.0000
     1.0000   1.0000   1.0000   1.0000   1.0000   1.0000   1.0000   1.0000
     1.0000   1.0000   1.0000   1.0000   1.0000   1.0000   1.0000   1.0000
     1.0000   1.0000   1.0000   1.0000   1.0000   1.0000   1.0000   1.0000
     1.0000   1.0000   1.0000   1.0000   1.0000   1.0000   1.0000   1.0000
     1.0000   1.0000   1.0000   1.0000   1.0000   1.0000   1.0000   1.0000
     1.0000   1.0000   1.0000   1.0000   1.0000   1.0000   1.0000   1.0000
     1.0000   1.0000   1.0000   1.0000   1.0000   1.0000   1.0000   1.0000
     1.0000   1.0000   1.0000   1.0000   1.0000   1.0000   1.0000   1.0000
     1.0000   1.0000   1.0000   1.0000   1.0000   1.0000   1.0000   1.0000
     1.0000   1.0000   1.0000   1.0000   1.0000   1.0000   1.0000   1.0000
     1.0000   1.0000   1.0000   1.0000   1.0000   1.0000   1.0000   1.0000
     0.0000   0.0000   0.0000   0.0000   0.0000   0.0000   0.0000   0.0000
     0.0000   0.0000

          k = 0.0000 0.2391 0.4675 ( 34695 PWs)   bands (ev):

   -84.5762 -84.5520 -84.5328 -84.1512 -50.6949 -50.6583 -50.6416 -50.5308
   -50.5086 -50.5043 -50.4810 -50.4773 -50.4601 -50.4331 -50.1000 -49.9124
   -44.4821 -16.5635 -16.5026 -16.4446 -15.9407 -15.7878 -15.6113 -15.5372
   -13.5429 -13.4627 -13.3711 -13.2494 -13.2194 -13.1700 -13.1304 -13.0681
   -12.9998 -12.9625 -12.9226 -12.8299  -3.5890  -3.1767  -3.0468  -2.6772
    -1.7464  -1.5030  -1.4522  -1.2906  -1.1248  -1.0620  -0.9049  -0.6926
    -0.6146  -0.4926  -0.4136  -0.1268   0.0342   0.1575   0.6682   0.7331
     0.8058   0.8201   0.9936   1.0657   1.1204   1.3265   1.4376   1.5638
     1.6280   1.7950   1.8197   1.8676   1.9392   1.9843   2.0342   2.1298
     2.3565   2.4663   2.6330   2.6990   2.7249   2.7786   2.8852   3.0168
     3.0576   3.2550   3.3220   3.3963   3.4576   3.4931   3.6266   3.7244
     3.7648   3.9076   4.0326   4.0923   4.2009   4.3054   4.4231   4.4872
     4.6344   4.6852   4.8059   4.9664   5.0391   5.1737   5.4582   5.5430
    10.6829  12.4031  12.7814  12.9615  13.3033  13.5769  13.8942  14.0579
    14.1699  14.2712

     occupation numbers 
     1.0000   1.0000   1.0000   1.0000   1.0000   1.0000   1.0000   1.0000
     1.0000   1.0000   1.0000   1.0000   1.0000   1.0000   1.0000   1.0000
     1.0000   1.0000   1.0000   1.0000   1.0000   1.0000   1.0000   1.0000
     1.0000   1.0000   1.0000   1.0000   1.0000   1.0000   1.0000   1.0000
     1.0000   1.0000   1.0000   1.0000   1.0000   1.0000   1.0000   1.0000
     1.0000   1.0000   1.0000   1.0000   1.0000   1.0000   1.0000   1.0000
     1.0000   1.0000   1.0000   1.0000   1.0000   1.0000   1.0000   1.0000
     1.0000   1.0000   1.0000   1.0000   1.0000   1.0000   1.0000   1.0000
     1.0000   1.0000   1.0000   1.0000   1.0000   1.0000   1.0000   1.0000
     1.0000   1.0000   1.0000   1.0000   1.0000   1.0000   1.0000   1.0000
     1.0000   1.0000   1.0000   1.0000   1.0000   1.0000   1.0000   1.0000
     1.0000   1.0000   1.0000   1.0000   1.0000   1.0000   1.0000   1.0000
     1.0000   1.0000   1.0000   1.0000   1.0000   1.0000   1.0000   1.0000
     0.0000   0.0000   0.0000   0.0000   0.0000   0.0000   0.0000   0.0000
     0.0000   0.0000

          k = 0.0000 0.2391 0.7012 ( 34688 PWs)   bands (ev):

   -84.5762 -84.5520 -84.5328 -84.1512 -50.6949 -50.6583 -50.6416 -50.5308
   -50.5086 -50.5043 -50.4810 -50.4773 -50.4601 -50.4331 -50.1000 -49.9124
   -44.4821 -16.5796 -16.5099 -16.4427 -15.8914 -15.7522 -15.5923 -15.5283
   -13.5754 -13.4920 -13.4036 -13.2664 -13.2412 -13.1684 -13.1384 -13.0558
   -13.0045 -12.9686 -12.9339 -12.8422  -3.4837  -3.1837  -3.0248  -2.7572
    -1.5937  -1.4764  -1.3692  -1.2842  -1.0924  -1.0527  -0.8854  -0.7148
    -0.5971  -0.4489  -0.2902  -0.2427   0.1344   0.2311   0.6330   0.7377
     0.8013   0.8919   1.0568   1.1289   1.1988   1.2789   1.3426   1.5569
     1.5922   1.6839   1.7645   1.8393   1.9156   1.9578   1.9751   2.0570
     2.1240   2.3073   2.5153   2.6575   2.7147   2.8601   2.8849   3.0470
     3.0738   3.2588   3.2954   3.3878   3.3966   3.5037   3.5183   3.7155
     3.7515   3.8539   4.1301   4.2081   4.2546   4.3662   4.4455   4.5433
     4.6447   4.7461   4.8095   4.9705   5.0727   5.1682   5.3724   5.4637
    11.2241  12.6452  12.8429  13.0995  13.3287  13.6351  13.7144  13.8653
    13.9244  14.0034

     occupation numbers 
     1.0000   1.0000   1.0000   1.0000   1.0000   1.0000   1.0000   1.0000
     1.0000   1.0000   1.0000   1.0000   1.0000   1.0000   1.0000   1.0000
     1.0000   1.0000   1.0000   1.0000   1.0000   1.0000   1.0000   1.0000
     1.0000   1.0000   1.0000   1.0000   1.0000   1.0000   1.0000   1.0000
     1.0000   1.0000   1.0000   1.0000   1.0000   1.0000   1.0000   1.0000
     1.0000   1.0000   1.0000   1.0000   1.0000   1.0000   1.0000   1.0000
     1.0000   1.0000   1.0000   1.0000   1.0000   1.0000   1.0000   1.0000
     1.0000   1.0000   1.0000   1.0000   1.0000   1.0000   1.0000   1.0000
     1.0000   1.0000   1.0000   1.0000   1.0000   1.0000   1.0000   1.0000
     1.0000   1.0000   1.0000   1.0000   1.0000   1.0000   1.0000   1.0000
     1.0000   1.0000   1.0000   1.0000   1.0000   1.0000   1.0000   1.0000
     1.0000   1.0000   1.0000   1.0000   1.0000   1.0000   1.0000   1.0000
     1.0000   1.0000   1.0000   1.0000   1.0000   1.0000   1.0000   1.0000
     0.0000   0.0000   0.0000   0.0000   0.0000   0.0000   0.0000   0.0000
     0.0000   0.0000

          k = 0.0000 0.2391 0.9349 ( 34658 PWs)   bands (ev):

   -84.5762 -84.5520 -84.5328 -84.1512 -50.6949 -50.6583 -50.6416 -50.5308
   -50.5086 -50.5043 -50.4810 -50.4773 -50.4601 -50.4331 -50.1000 -49.9124
   -44.4821 -16.5915 -16.5115 -16.4417 -15.8593 -15.7296 -15.5760 -15.5258
   -13.5982 -13.5154 -13.4220 -13.2875 -13.2509 -13.1679 -13.1349 -13.0455
   -13.0085 -12.9719 -12.9421 -12.8520  -3.3729  -3.2279  -2.9942  -2.8350
    -1.5256  -1.4471  -1.3112  -1.2566  -1.0655  -0.9874  -0.8898  -0.8398
    -0.5441  -0.4142  -0.3228  -0.1825   0.2738   0.3925   0.5593   0.6070
     0.8924   1.0159   1.0672   1.1445   1.1924   1.2299   1.3549   1.4584
     1.5601   1.6288   1.7285   1.7785   1.7946   1.8970   1.9708   2.0267
     2.1424   2.2670   2.3523   2.5061   2.7361   2.8488   2.9892   3.0616
     3.1265   3.2211   3.2628   3.3281   3.3979   3.4397   3.5241   3.7069
     3.7521   3.8318   4.2283   4.2422   4.3223   4.4051   4.5200   4.5613
     4.6100   4.7559   4.8733   4.9531   5.1303   5.1715   5.2879   5.3863
    11.8268  12.4243  12.9193  13.2627  13.3947  13.5298  13.6960  13.7822
    13.8540  14.0145

     occupation numbers 
     1.0000   1.0000   1.0000   1.0000   1.0000   1.0000   1.0000   1.0000
     1.0000   1.0000   1.0000   1.0000   1.0000   1.0000   1.0000   1.0000
     1.0000   1.0000   1.0000   1.0000   1.0000   1.0000   1.0000   1.0000
     1.0000   1.0000   1.0000   1.0000   1.0000   1.0000   1.0000   1.0000
     1.0000   1.0000   1.0000   1.0000   1.0000   1.0000   1.0000   1.0000
     1.0000   1.0000   1.0000   1.0000   1.0000   1.0000   1.0000   1.0000
     1.0000   1.0000   1.0000   1.0000   1.0000   1.0000   1.0000   1.0000
     1.0000   1.0000   1.0000   1.0000   1.0000   1.0000   1.0000   1.0000
     1.0000   1.0000   1.0000   1.0000   1.0000   1.0000   1.0000   1.0000
     1.0000   1.0000   1.0000   1.0000   1.0000   1.0000   1.0000   1.0000
     1.0000   1.0000   1.0000   1.0000   1.0000   1.0000   1.0000   1.0000
     1.0000   1.0000   1.0000   1.0000   1.0000   1.0000   1.0000   1.0000
     1.0000   1.0000   1.0000   1.0000   1.0000   1.0000   1.0000   1.0000
     0.0000   0.0000   0.0000   0.0000   0.0000   0.0000   0.0000   0.0000
     0.0000   0.0000

          k = 0.0000 0.4781 0.0000 ( 34707 PWs)   bands (ev):

   -84.5762 -84.5520 -84.5328 -84.1512 -50.6949 -50.6583 -50.6416 -50.5308
   -50.5086 -50.5043 -50.4810 -50.4773 -50.4601 -50.4331 -50.1000 -49.9124
   -44.4821 -16.5513 -16.4778 -16.4516 -15.9607 -15.8196 -15.6364 -15.5889
   -13.5130 -13.4336 -13.3202 -13.3006 -13.2234 -13.1788 -13.1019 -13.0691
   -12.9715 -12.9194 -12.9081 -12.8196  -3.6101  -3.2649  -2.9798  -2.6540
    -1.8562  -1.5951  -1.4862  -1.3321  -1.0986  -1.0017  -0.8770  -0.7739
    -0.6181  -0.5036  -0.2915  -0.0958  -0.0017   0.2285   0.6106   0.6800
     0.7833   0.8025   0.8379   0.9026   0.9859   1.3384   1.5274   1.6574
     1.6865   1.7254   1.8230   1.8679   1.9761   1.9995   2.1379   2.1834
     2.4269   2.5429   2.6819   2.7312   2.7961   2.8773   2.8817   2.9575
     3.1654   3.1865   3.2038   3.3275   3.4390   3.5561   3.6411   3.6698
     3.7387   3.8391   4.1180   4.1858   4.2427   4.2799   4.3579   4.4832
     4.5234   4.6390   4.7197   4.8771   4.9976   5.3100   5.5646   5.6154
    10.5783  12.3461  12.5709  12.7884  13.3568  13.8849  13.9515  14.1188
    14.4581  14.6527

     occupation numbers 
     1.0000   1.0000   1.0000   1.0000   1.0000   1.0000   1.0000   1.0000
     1.0000   1.0000   1.0000   1.0000   1.0000   1.0000   1.0000   1.0000
     1.0000   1.0000   1.0000   1.0000   1.0000   1.0000   1.0000   1.0000
     1.0000   1.0000   1.0000   1.0000   1.0000   1.0000   1.0000   1.0000
     1.0000   1.0000   1.0000   1.0000   1.0000   1.0000   1.0000   1.0000
     1.0000   1.0000   1.0000   1.0000   1.0000   1.0000   1.0000   1.0000
     1.0000   1.0000   1.0000   1.0000   1.0000   1.0000   1.0000   1.0000
     1.0000   1.0000   1.0000   1.0000   1.0000   1.0000   1.0000   1.0000
     1.0000   1.0000   1.0000   1.0000   1.0000   1.0000   1.0000   1.0000
     1.0000   1.0000   1.0000   1.0000   1.0000   1.0000   1.0000   1.0000
     1.0000   1.0000   1.0000   1.0000   1.0000   1.0000   1.0000   1.0000
     1.0000   1.0000   1.0000   1.0000   1.0000   1.0000   1.0000   1.0000
     1.0000   1.0000   1.0000   1.0000   1.0000   1.0000   1.0000   1.0000
     0.0000   0.0000   0.0000   0.0000   0.0000   0.0000   0.0000   0.0000
     0.0000   0.0000

          k = 0.0000 0.4781 0.2337 ( 34704 PWs)   bands (ev):

   -84.5762 -84.5520 -84.5328 -84.1512 -50.6949 -50.6583 -50.6416 -50.5308
   -50.5086 -50.5043 -50.4810 -50.4773 -50.4601 -50.4331 -50.1000 -49.9124
   -44.4821 -16.5536 -16.4869 -16.4499 -15.9429 -15.8072 -15.6326 -15.5822
   -13.5226 -13.4374 -13.3393 -13.3027 -13.2230 -13.1817 -13.1282 -13.0540
   -12.9772 -12.9233 -12.9048 -12.8208  -3.5867  -3.2514  -2.9822  -2.6621
    -1.8146  -1.5651  -1.4768  -1.3183  -1.0961  -1.0128  -0.8461  -0.7557
    -0.5747  -0.5115  -0.3342  -0.1429   0.0268   0.2252   0.5920   0.6601
     0.7578   0.8244   0.8731   0.9294   1.0215   1.3749   1.5044   1.5834
     1.6481   1.7215   1.8145   1.8803   1.9452   2.0157   2.1302   2.2243
     2.4471   2.5535   2.6171   2.7358   2.8258   2.8448   2.8648   2.9441
     3.1028   3.1671   3.2148   3.3192   3.4351   3.5622   3.6272   3.6485
     3.6899   3.8662   4.1297   4.1837   4.2331   4.2972   4.3772   4.4902
     4.5462   4.6418   4.6990   4.8647   5.0394   5.3073   5.5526   5.6111
    10.7050  12.4001  12.6346  12.8657  13.3811  13.8079  13.9826  14.0577
    14.3549  14.4935

     occupation numbers 
     1.0000   1.0000   1.0000   1.0000   1.0000   1.0000   1.0000   1.0000
     1.0000   1.0000   1.0000   1.0000   1.0000   1.0000   1.0000   1.0000
     1.0000   1.0000   1.0000   1.0000   1.0000   1.0000   1.0000   1.0000
     1.0000   1.0000   1.0000   1.0000   1.0000   1.0000   1.0000   1.0000
     1.0000   1.0000   1.0000   1.0000   1.0000   1.0000   1.0000   1.0000
     1.0000   1.0000   1.0000   1.0000   1.0000   1.0000   1.0000   1.0000
     1.0000   1.0000   1.0000   1.0000   1.0000   1.0000   1.0000   1.0000
     1.0000   1.0000   1.0000   1.0000   1.0000   1.0000   1.0000   1.0000
     1.0000   1.0000   1.0000   1.0000   1.0000   1.0000   1.0000   1.0000
     1.0000   1.0000   1.0000   1.0000   1.0000   1.0000   1.0000   1.0000
[...]
     atom   24 type  3   force =     0.01389794   -0.02748943   -0.01638101
     atom   25 type  3   force =    -0.01406122    0.03132477   -0.01781059
     The non-local contrib.  to forces
     atom    1 type  2   force =     0.11132228    0.04073032   -0.02205839
     atom    2 type  1   force =     0.06166762    0.01547542    0.13002428
     atom    3 type  1   force =     0.04390619   -0.00007061    0.10509135
     atom    4 type  1   force =    -0.20114549   -0.04536658   -0.07975976
     atom    5 type  1   force =    -0.02440522    0.00818200   -0.11004414
     atom    6 type  4   force =    -0.02545192    0.00032602   -0.04180078
     atom    7 type  4   force =     0.04811911   -0.00085401   -0.01216482
     atom    8 type  4   force =     0.00078803    0.00495988    0.04343490
     atom    9 type  4   force =     0.00054717   -0.00177242    0.04871703
     atom   10 type  3   force =     0.29034237   -0.01119163   -1.47360852
     atom   11 type  3   force =    -0.09396592   -0.00769078   -1.40039817
     atom   12 type  3   force =    -0.37654550    0.01478196    1.47547869
     atom   13 type  3   force =     0.21659059   -0.01404518    1.47474780
     atom   14 type  3   force =     1.22250224   -0.00763802   -0.58798814
     atom   15 type  3   force =    -1.19919563    0.01078555   -0.75064775
     atom   16 type  3   force =    -1.20429402   -0.02024813    0.29322391
     atom   17 type  3   force =     1.17207300   -0.00517912    0.59785486
     atom   18 type  3   force =    -0.53039021   -1.09381917    0.75823266
     atom   19 type  3   force =     0.52633186    1.16588550    0.78620491
     atom   20 type  3   force =     0.53598253   -1.09358149   -0.65870361
     atom   21 type  3   force =    -0.53160570    1.06123521   -0.72281378
     atom   22 type  3   force =     0.57989931    1.10597090   -0.68394095
     atom   23 type  3   force =    -0.59759925   -1.05734223   -0.63916980
     atom   24 type  3   force =    -0.52754360    1.08838378    0.76286617
     atom   25 type  3   force =     0.55261230   -1.14218446    0.80614726
     The ionic contribution  to forces
     atom    1 type  2   force =    -3.47862580    0.27192166    2.12268844
     atom    2 type  1   force =     0.03799773   -0.09564289   -0.41455520
     atom    3 type  1   force =    -8.65152513    0.34296838   -0.55084540
     atom    4 type  1   force =     3.68324619    0.47710896   -0.21491711
     atom    5 type  1   force =     8.89011447   -0.54550489    0.65142692
     atom    6 type  4   force =    -3.62469726   -0.01903363    0.29376735
     atom    7 type  4   force =     0.72606372    0.41320947    0.43346460
     atom    8 type  4   force =     5.33658771   -0.02466726   -0.52186293
     atom    9 type  4   force =    -2.80929184   -0.48681805   -0.71609796
     atom   10 type  3   force =   -10.56961777    0.04072090    2.79606045
     atom   11 type  3   force =     4.03117068    0.73292139    1.35669639
     atom   12 type  3   force =    12.61113691   -0.16247747   -2.92735291
     atom   13 type  3   force =    -8.60951258   -0.51401595   -2.30458866
     atom   14 type  3   force =     0.62070716   -0.56452169    5.49353452
     atom   15 type  3   force =    -1.99566179   -0.07774914    7.04112021
     atom   16 type  3   force =    -1.97879769    0.97031484   -2.52113982
     atom   17 type  3   force =     3.68482951    0.07506407   -6.19276769
     atom   18 type  3   force =    -4.35758182    2.85924081   -3.07607830
     atom   19 type  3   force =     0.79018165   -4.32411219   -2.46136440
     atom   20 type  3   force =     5.61805929    4.30748274    2.33317114
     atom   21 type  3   force =    -2.01475749   -1.62815457    2.13098356
     atom   22 type  3   force =     5.60080088   -4.39108406    2.65220007
     atom   23 type  3   force =    -0.44445221    1.13894369    0.62695864
     atom   24 type  3   force =    -4.23986837   -2.77235841   -3.12065381
     atom   25 type  3   force =     1.14349385    3.97624329   -2.90984809
     The local contribution  to forces
     atom    1 type  2   force =     3.37134565   -0.31625752   -2.10099676
     atom    2 type  1   force =    -0.09813042    0.08142531    0.28700429
     atom    3 type  1   force =     8.60840317   -0.34274948    0.44737020
     atom    4 type  1   force =    -3.49162277   -0.43300901    0.29609660
     atom    5 type  1   force =    -8.86545006    0.53829603   -0.54401812
     atom    6 type  4   force =     3.64631684    0.01899808   -0.25928785
     atom    7 type  4   force =    -0.76493329   -0.41178878   -0.42401243
     atom    8 type  4   force =    -5.34027781    0.02061000    0.48426830
     atom    9 type  4   force =     2.80966483    0.48706782    0.67556747
     atom   10 type  3   force =    10.27719168   -0.02907245   -1.29951275
     atom   11 type  3   force =    -3.93916134   -0.72478501    0.06868879
     atom   12 type  3   force =   -12.23067655    0.14801532    1.42903089
     atom   13 type  3   force =     8.39089029    0.52821361    0.80534295
     atom   14 type  3   force =    -1.86807347    0.57313283   -4.89666472
     atom   15 type  3   force =     3.22059877    0.06665023   -6.28154841
     atom   16 type  3   force =     3.20377229   -0.94947857    2.22398966
     atom   17 type  3   force =    -4.87839698   -0.06962556    5.58650275
     atom   18 type  3   force =     4.89771311   -1.74669965    2.30793654
     atom   19 type  3   force =    -1.32538458    3.13666275    1.66444995
     atom   20 type  3   force =    -6.16119491   -3.19253223   -1.66854742
     atom   21 type  3   force =     2.55276869    0.54712794   -1.39759765
     atom   22 type  3   force =    -6.18962182    3.26459757   -1.96179008
     atom   23 type  3   force =     1.05153942   -0.06415053    0.02133333
     atom   24 type  3   force =     4.77696683    1.66544901    2.34805066
     atom   25 type  3   force =    -1.70564434   -2.81211886    2.09291455
     The core correction contribution to forces
     atom    1 type  2   force =     0.00000000    0.00000000    0.00000000
     atom    2 type  1   force =    -0.00102247   -0.00017451   -0.00048129
     atom    3 type  1   force =     0.00000452    0.00001140    0.00028845
     atom    4 type  1   force =     0.00413802    0.00049724   -0.00080436
     atom    5 type  1   force =    -0.00004658   -0.00008849    0.00030120
     atom    6 type  4   force =     0.00210224   -0.00002803    0.00285201
     atom    7 type  4   force =    -0.00334609   -0.00007332    0.00067112
     atom    8 type  4   force =    -0.00069570   -0.00029920   -0.00279793
     atom    9 type  4   force =     0.00010822    0.00042069   -0.00315522
     atom   10 type  3   force =    -0.00310177    0.00009849    0.01226484
     atom   11 type  3   force =     0.00150662    0.00005563    0.01150220
     atom   12 type  3   force =     0.00385319   -0.00014622   -0.01222954
     atom   13 type  3   force =    -0.00248502    0.00012351   -0.01222114
     atom   14 type  3   force =    -0.00977293    0.00007083    0.00540933
     atom   15 type  3   force =     0.00959597   -0.00009217    0.00677655
     atom   16 type  3   force =     0.00957715    0.00014751   -0.00281289
     atom   17 type  3   force =    -0.00947143    0.00004319   -0.00546092
     atom   18 type  3   force =     0.00436885    0.00902428   -0.00658729
     atom   19 type  3   force =    -0.00428462   -0.00964910   -0.00684047
     atom   20 type  3   force =    -0.00446890    0.00901207    0.00568738
     atom   21 type  3   force =     0.00439911   -0.00876476    0.00633764
     atom   22 type  3   force =    -0.00484978   -0.00912372    0.00591602
     atom   23 type  3   force =     0.00492414    0.00880752    0.00558399
     atom   24 type  3   force =     0.00434163   -0.00896559   -0.00664223
     atom   25 type  3   force =    -0.00451927    0.00938252   -0.00702346
     The Hubbard contrib.    to forces
     atom    1 type  2   force =     0.00000000    0.00000000    0.00000000
     atom    2 type  1   force =     0.00000000    0.00000000    0.00000000
     atom    3 type  1   force =     0.00000000    0.00000000    0.00000000
     atom    4 type  1   force =     0.00000000    0.00000000    0.00000000
     atom    5 type  1   force =     0.00000000    0.00000000    0.00000000
     atom    6 type  4   force =     0.00000000    0.00000000    0.00000000
     atom    7 type  4   force =     0.00000000    0.00000000    0.00000000
     atom    8 type  4   force =     0.00000000    0.00000000    0.00000000
     atom    9 type  4   force =     0.00000000    0.00000000    0.00000000
     atom   10 type  3   force =     0.00000000    0.00000000    0.00000000
     atom   11 type  3   force =     0.00000000    0.00000000    0.00000000
     atom   12 type  3   force =     0.00000000    0.00000000    0.00000000
     atom   13 type  3   force =     0.00000000    0.00000000    0.00000000
     atom   14 type  3   force =     0.00000000    0.00000000    0.00000000
     atom   15 type  3   force =     0.00000000    0.00000000    0.00000000
     atom   16 type  3   force =     0.00000000    0.00000000    0.00000000
     atom   17 type  3   force =     0.00000000    0.00000000    0.00000000
     atom   18 type  3   force =     0.00000000    0.00000000    0.00000000
     atom   19 type  3   force =     0.00000000    0.00000000    0.00000000
     atom   20 type  3   force =     0.00000000    0.00000000    0.00000000
     atom   21 type  3   force =     0.00000000    0.00000000    0.00000000
     atom   22 type  3   force =     0.00000000    0.00000000    0.00000000
     atom   23 type  3   force =     0.00000000    0.00000000    0.00000000
     atom   24 type  3   force =     0.00000000    0.00000000    0.00000000
     atom   25 type  3   force =     0.00000000    0.00000000    0.00000000
     The SCF correction term to forces
     atom    1 type  2   force =    -0.00000762   -0.00000083    0.00000010
     atom    2 type  1   force =    -0.00000369   -0.00000007    0.00000116
     atom    3 type  1   force =    -0.00000372   -0.00000008    0.00000061
     atom    4 type  1   force =     0.00000694    0.00000017    0.00000124
     atom    5 type  1   force =     0.00000797    0.00000032    0.00000179
     atom    6 type  4   force =     0.00000168   -0.00000001   -0.00000058
     atom    7 type  4   force =    -0.00000383   -0.00000004    0.00000012
     atom    8 type  4   force =     0.00000502   -0.00000005   -0.00000114
     atom    9 type  4   force =    -0.00000352    0.00000015   -0.00000043
     atom   10 type  3   force =     0.00000412    0.00000003    0.00000168
     atom   11 type  3   force =    -0.00000403   -0.00000014   -0.00000005
     atom   12 type  3   force =     0.00000793   -0.00000016    0.00000330
     atom   13 type  3   force =    -0.00000292   -0.00000001    0.00000025
     atom   14 type  3   force =    -0.00000879   -0.00000003   -0.00000159
     atom   15 type  3   force =     0.00000583    0.00000007   -0.00000061
     atom   16 type  3   force =    -0.00000939   -0.00000006   -0.00000076
     atom   17 type  3   force =     0.00000606    0.00000006   -0.00000087
     atom   18 type  3   force =     0.00000157   -0.00000185   -0.00000073
     atom   19 type  3   force =    -0.00000379   -0.00000222    0.00000026
     atom   20 type  3   force =     0.00000526    0.00000195   -0.00000282
     atom   21 type  3   force =    -0.00000179    0.00000261    0.00000109
     atom   22 type  3   force =     0.00000511   -0.00000199   -0.00000272
     atom   23 type  3   force =    -0.00000179   -0.00000216    0.00000098
     atom   24 type  3   force =     0.00000148    0.00000183   -0.00000060
     atom   25 type  3   force =    -0.00000372    0.00000233    0.00000035

     Total force =     0.143576     Total SCF correction =     0.000028


     Computing stress (Cartesian axis) and pressure


     negative rho (up, down):  0.000E+00 9.381E-04
          total   stress  (Ry/bohr**3)                   (kbar)     P=       59.45
   0.00034022  -0.00001332  -0.00002681           50.05       -1.96       -3.94
  -0.00001332   0.00028556   0.00001647           -1.96       42.01        2.42
  -0.00002681   0.00001647   0.00058667           -3.94        2.42       86.30

     kinetic stress (kbar)  27937.30      2.24    -11.78
                                2.24  28167.36      3.85
                              -11.78      3.85  27974.99

     local   stress (kbar)  -3842.63   1003.56   1223.81
                             1003.56 -14077.20   -369.15
                             1223.81   -369.15  -8774.02

     nonloc. stress (kbar)  -7146.12      1.49      0.67
                                1.49  -7078.66     -0.28
                                0.67     -0.28  -7088.03

     hartree stress (kbar)  12776.05   -401.78   -497.21
                             -401.78  18481.70    143.25
                             -497.21    143.25  15656.62

     exc-cor stress (kbar)  -2958.26     -0.65     -0.89
                               -0.65  -2966.51      0.31
                               -0.89      0.31  -2963.46

     corecor stress (kbar)  -3278.44      0.18      1.03
                                0.18  -3277.26     -0.04
                                1.03     -0.04  -3279.13

     ewald   stress (kbar) -23437.85   -607.00   -719.57
                             -607.00 -19207.42    224.49
                             -719.57    224.49 -21440.67

     hubbard stress (kbar)      0.00      0.00      0.00
                                0.00      0.00      0.00
                                0.00      0.00      0.00

     DFT-D   stress (kbar)      0.00      0.00      0.00
                                0.00      0.00      0.00
                                0.00      0.00      0.00

     XDM     stress (kbar)      0.00      0.00      0.00
                                0.00      0.00      0.00
                                0.00      0.00      0.00

     dft-nl  stress (kbar)      0.00      0.00      0.00
                                0.00      0.00      0.00
                                0.00      0.00      0.00

     TS-vdW  stress (kbar)      0.00      0.00      0.00
                                0.00      0.00      0.00
                                0.00      0.00      0.00



     init_run     :    171.52s CPU    175.85s WALL (       1 calls)
     electrons    :  13833.12s CPU  14018.25s WALL (       1 calls)
     forces       :    141.49s CPU    148.47s WALL (       1 calls)
     stress       :    791.12s CPU    796.04s WALL (       1 calls)

     Called by init_run:
     wfcinit      :    163.26s CPU    166.49s WALL (       1 calls)
     wfcinit:atom :      2.39s CPU      2.43s WALL (     316 calls)
     wfcinit:wfcr :    152.44s CPU    155.49s WALL (     316 calls)
     potinit      :      2.97s CPU      3.16s WALL (       1 calls)
     hinit0       :      3.01s CPU      3.38s WALL (       1 calls)

     Called by electrons:
     c_bands      :  12189.26s CPU  12325.78s WALL (      28 calls)
     sum_band     :   1567.38s CPU   1601.02s WALL (      28 calls)
     v_of_rho     :     21.28s CPU     22.29s WALL (      29 calls)
     v_h          :      0.93s CPU      1.00s WALL (      29 calls)
     v_xc         :     21.68s CPU     22.67s WALL (      31 calls)
     newd         :     36.99s CPU     51.01s WALL (      29 calls)
     PAW_pot      :     12.37s CPU     12.47s WALL (      29 calls)
     mix_rho      :      5.77s CPU      6.00s WALL (      28 calls)

     Called by c_bands:
     init_us_2    :    200.43s CPU    204.68s WALL (   18644 calls)
     cegterg      :  11861.45s CPU  11992.02s WALL (    8848 calls)

     Called by sum_band:
     sum_band:wei :      0.44s CPU      0.44s WALL (      28 calls)
     sum_band:loo :   1468.27s CPU   1484.07s WALL (      28 calls)
     sum_band:buf :     49.30s CPU     50.34s WALL (    8848 calls)
     sum_band:ini :     96.05s CPU     97.82s WALL (    8848 calls)
     sum_band:cal :    569.59s CPU    576.36s WALL (    8848 calls)
     sum_band:bec :      6.16s CPU      6.29s WALL (    8848 calls)
     addusdens    :     94.47s CPU    112.17s WALL (      28 calls)
     addusd:skk   :      0.73s CPU      0.76s WALL (      84 calls)
     addusd:dgemm :     42.66s CPU     57.19s WALL (     168 calls)
     addusd:qvan2 :     49.44s CPU     49.87s WALL (     168 calls)

     Called by *egterg:
     cdiaghg      :    784.30s CPU    802.74s WALL (   36580 calls)
     cegterg:over :   1139.36s CPU   1158.56s WALL (   27732 calls)
     cegterg:upda :    623.12s CPU    626.89s WALL (   27732 calls)
     cegterg:last :   1363.39s CPU   1371.45s WALL (   15939 calls)
     h_psi        :   5938.20s CPU   6004.13s WALL (   36896 calls)
     s_psi        :   1381.01s CPU   1388.70s WALL (   36896 calls)
     g_psi        :     13.14s CPU     13.33s WALL (   27732 calls)

     Called by h_psi:
     h_psi:calbec :   1490.31s CPU   1508.86s WALL (   36896 calls)
     vloc_psi     :   2882.03s CPU   2917.80s WALL (   36896 calls)
     add_vuspsi   :   1459.81s CPU   1468.48s WALL (   36896 calls)

     General routines
     calbec       :   2195.91s CPU   2227.36s WALL (   47324 calls)
     fft          :     18.71s CPU     20.18s WALL (     763 calls)
     ffts         :      0.36s CPU      0.41s WALL (     114 calls)
     fftw         :   3435.86s CPU   3475.22s WALL ( 5567740 calls)
     interpolate  :      1.52s CPU      1.66s WALL (      58 calls)

     Parallel routines
     fft_scatt_xy :    239.50s CPU    241.87s WALL ( 5568617 calls)
     fft_scatt_yz :   1625.65s CPU   1648.32s WALL ( 5568617 calls)

     PAW routines
     PAW_pot      :     12.37s CPU     12.47s WALL (      29 calls)

     PWSCF        :      4h 8m CPU      4h12m WALL


   This run was terminated on:   0:36:41  18Dec2022            

=------------------------------------------------------------------------------=
   JOB DONE.
=------------------------------------------------------------------------------=
Note: The following floating-point exceptions are signalling: IEEE_UNDERFLOW_FLAG IEEE_DENORMAL
Note: The following floating-point exceptions are signalling: IEEE_INVALID_FLAG IEEE_DENORMAL
Note: The following floating-point exceptions are signalling: IEEE_DENORMAL
Note: The following floating-point exceptions are signalling: IEEE_DENORMAL
Note: The following floating-point exceptions are signalling: IEEE_DENORMAL
Note: The following floating-point exceptions are signalling: IEEE_DENORMAL
Note: The following floating-point exceptions are signalling: IEEE_DENORMAL
Note: The following floating-point exceptions are signalling: IEEE_DENORMAL
Note: The following floating-point exceptions are signalling: IEEE_DENORMAL
Note: The following floating-point exceptions are signalling: IEEE_DENORMAL
Note: The following floating-point exceptions are signalling: IEEE_DENORMAL
Note: The following floating-point exceptions are signalling: IEEE_DENORMAL
Note: The following floating-point exceptions are signalling: IEEE_DENORMAL
Note: The following floating-point exceptions are signalling: IEEE_DENORMAL
Note: The following floating-point exceptions are signalling: IEEE_DENORMAL
Note: The following floating-point exceptions are signalling: IEEE_DENORMAL
Note: The following floating-point exceptions are signalling: IEEE_DENORMAL
Note: The following floating-point exceptions are signalling: IEEE_DENORMAL
Note: The following floating-point exceptions are signalling: IEEE_DENORMAL
Note: The following floating-point exceptions are signalling: IEEE_DENORMAL
Note: The following floating-point exceptions are signalling: IEEE_DENORMAL
Note: The following floating-point exceptions are signalling: IEEE_DENORMAL
Note: The following floating-point exceptions are signalling: IEEE_DENORMAL
Note: The following floating-point exceptions are signalling: IEEE_DENORMAL
