
     Program PWSCF v.6.7MaX starts on 17Dec2022 at  5:57:48 

     This program is part of the open-source Quantum ESPRESSO suite
     for quantum simulation of materials; please cite
         "P. Giannozzi et al., J. Phys.:Condens. Matter 21 395502 (2009);
         "P. Giannozzi et al., J. Phys.:Condens. Matter 29 465901 (2017);
          URL http://www.quantum-espresso.org", 
     in publications or presentations arising from this work. More details at
     http://www.quantum-espresso.org/quote

     Parallel version (MPI), running on    24 processors

     MPI processes distributed on     1 nodes
     R & G space division:  proc/nbgrp/npool/nimage =      24
     Reading input from scale_2dab-00.in

     Current dimensions of program PWSCF are:
     Max number of different atomic species (ntypx) = 10
     Max number of k-points (npk) =  40000
     Max angular momentum in pseudopotentials (lmaxx) =  3
     Message from routine read_pp_mesh:
     mesh size missing, using the one in header
     file Fe.pbe-spn-kjpaw_psl.0.2.1.UPF: wavefunction(s)  3D renormalized
     file O.pbe-n-kjpaw_psl.0.1.UPF: wavefunction(s)  2P renormalized

     Subspace diagonalization in iterative solution of the eigenvalue problem:
     a serial algorithm will be used


     Parallelization info
     --------------------
     sticks:   dense  smooth     PW     G-vecs:    dense   smooth      PW
     Min         746     276     74                48686    10978    1547
     Max         748     277     76                48687    10981    1549
     Sum       17927    6645   1805              1168479   263495   37159



     bravais-lattice index     =            0
     lattice parameter (alat)  =      18.6818  a.u.
     unit-cell volume          =    1949.7229 (a.u.)^3
     number of atoms/cell      =           25
     number of atomic types    =            4
     number of electrons       =       189.00
     number of Kohn-Sham states=          114
     kinetic-energy cutoff     =     100.0000  Ry
     charge density cutoff     =    1080.0000  Ry
     scf convergence threshold =      2.0E-10
     mixing beta               =       0.4000
     number of iterations used =            8  plain     mixing
     Exchange-correlation= PBE
                           (   1   4   3   4   0   0   0)

     celldm(1)=  18.681804  celldm(2)=   0.000000  celldm(3)=   0.000000
     celldm(4)=   0.000000  celldm(5)=   0.000000  celldm(6)=   0.000000

     crystal axes: (cart. coord. in units of alat)
               a(1) = (   1.000000   0.000000   0.000000 )  
               a(2) = (   0.000000   0.597590   0.000000 )  
               a(3) = (   0.000000   0.000000   0.500395 )  

     reciprocal axes: (cart. coord. in units 2 pi/alat)
               b(1) = (  1.000000  0.000000  0.000000 )  
               b(2) = (  0.000000  1.673388  0.000000 )  
               b(3) = (  0.000000  0.000000  1.998420 )  


     PseudoPot. # 1 for Fe read from file:
     /opt/QEpot/SSSP_precision_pseudos/Fe.pbe-spn-kjpaw_psl.0.2.1.UPF
     MD5 check sum: e86618425769142926afa95317d90200
     Pseudo is Projector augmented-wave + core cor, Zval = 16.0
     Generated using "atomic" code by A. Dal Corso  v.5.0.99 svn rev. 10869
     Shape of augmentation charge: PSQ
     Using radial grid of 1191 points,  6 beta functions with: 
                l(1) =   0
                l(2) =   0
                l(3) =   1
                l(4) =   1
                l(5) =   2
                l(6) =   2
     Q(r) pseudized with 0 coefficients 


     PseudoPot. # 2 for Na read from file:
     /opt/QEpot/SSSP_precision_pseudos/Na_ONCV_PBE-1.0.oncvpsp.upf
     MD5 check sum: 24a298df0a6742ae313db96548fdb2a4
     Pseudo is Norm-conserving, Zval =  9.0
     Generated using ONCVPSP code by D. R. Hamann
     Using radial grid of 1992 points,  4 beta functions with: 
                l(1) =   0
                l(2) =   0
                l(3) =   1
                l(4) =   1

     PseudoPot. # 3 for O  read from file:
     /opt/QEpot/SSSP_precision_pseudos/O.pbe-n-kjpaw_psl.0.1.UPF
     MD5 check sum: 0234752ac141de4415c5fc33072bef88
     Pseudo is Projector augmented-wave + core cor, Zval =  6.0
     Generated using "atomic" code by A. Dal Corso  v.5.0.99 svn rev. 10869
     Shape of augmentation charge: BESSEL
     Using radial grid of 1095 points,  4 beta functions with: 
                l(1) =   0
                l(2) =   0
                l(3) =   1
                l(4) =   1
     Q(r) pseudized with 0 coefficients 


     PseudoPot. # 4 for P  read from file:
     /opt/QEpot/SSSP_precision_pseudos/P.pbe-n-rrkjus_psl.1.0.0.UPF
     MD5 check sum: 8b930f418f0a4573dca56cd030ffe088
     Pseudo is Ultrasoft + core correction, Zval =  5.0
     Generated using "atomic" code by A. Dal Corso  v.5.1
     Using radial grid of 1147 points,  6 beta functions with: 
                l(1) =   0
                l(2) =   0
                l(3) =   1
                l(4) =   1
                l(5) =   2
                l(6) =   2
     Q(r) pseudized with 0 coefficients 


     atomic species   valence    mass     pseudopotential
        Fe            16.00    55.84500     Fe( 1.00)
        Na             9.00    22.98977     Na( 1.00)
        O              6.00    15.99940     O ( 1.00)
        P              5.00    30.97376     P ( 1.00)

     Starting magnetic structure 
     atomic species   magnetization
        Fe           0.312
        Na           0.000
        O            0.000
        P            0.000

     No symmetry found


                                    s                        frac. trans.

      isym =  1     identity                                     

 cryst.   s( 1) = (     1          0          0      )
                  (     0          1          0      )
                  (     0          0          1      )

 cart.    s( 1) = (  1.0000000  0.0000000  0.0000000 )
                  (  0.0000000  1.0000000  0.0000000 )
                  (  0.0000000  0.0000000  1.0000000 )


   Cartesian axes

     site n.     atom                  positions (alat units)
         1           Na  tau(   1) = (   0.5528950   0.1171318   0.2262467  )
         2           Fe  tau(   2) = (   0.2772550   0.4489030   0.4962084  )
         3           Fe  tau(   3) = (   0.2104810   0.1503901   0.2454704  )
         4           Fe  tau(   4) = (   0.7295180   0.1537820   0.0008176  )
         5           Fe  tau(   5) = (   0.7815080   0.4476976   0.2570145  )
         6           P   tau(   6) = (   0.1053980   0.4490374   0.2221455  )
         7           P   tau(   7) = (   0.3872650   0.1516068   0.4714639  )
         8           P   tau(   8) = (   0.8920080   0.1496831   0.2786391  )
         9           P   tau(   9) = (   0.6044490   0.4482510   0.0319863  )
        10           O   tau(  10) = (   0.1314730   0.4496571   0.3757553  )
        11           O   tau(  11) = (   0.3628330   0.1500716   0.1250973  )
        12           O   tau(  12) = (   0.8713170   0.1499473   0.1243918  )
        13           O   tau(  13) = (   0.6316830   0.4500551   0.3790184  )
        14           O   tau(  14) = (   0.4581640   0.4497008   0.0600499  )
        15           O   tau(  15) = (   0.0360600   0.1491584   0.3138104  )
        16           O   tau(  16) = (   0.5359580   0.1510755   0.4487204  )
        17           O   tau(  17) = (   0.9586070   0.4491187   0.1955985  )
        18           O   tau(  18) = (   0.1746990   0.5653619   0.1495812  )
        19           O   tau(  19) = (   0.3222040   0.0349339   0.3968014  )
        20           O   tau(  20) = (   0.8184930   0.2658241   0.3482636  )
        21           O   tau(  21) = (   0.6734870   0.3309716   0.1045996  )
        22           O   tau(  22) = (   0.8164510   0.0352124   0.3480669  )
        23           O   tau(  23) = (   0.6734540   0.5650643   0.1056970  )
        24           O   tau(  24) = (   0.1741780   0.3320269   0.1503262  )
        25           O   tau(  25) = (   0.3202350   0.2679581   0.3992083  )

   Crystallographic axes

     site n.     atom                  positions (cryst. coord.)
         1           Na  tau(   1) = (  0.5528950  0.1960070  0.4521360  )
         2           Fe  tau(   2) = (  0.2772550  0.7511890  0.9916330  )
         3           Fe  tau(   3) = (  0.2104810  0.2516610  0.4905530  )
         4           Fe  tau(   4) = (  0.7295180  0.2573370  0.0016340  )
         5           Fe  tau(   5) = (  0.7815080  0.7491720  0.5136230  )
         6           P   tau(   6) = (  0.1053980  0.7514140  0.4439400  )
         7           P   tau(   7) = (  0.3872650  0.2536970  0.9421830  )
         8           P   tau(   8) = (  0.8920080  0.2504780  0.5568380  )
         9           P   tau(   9) = (  0.6044490  0.7500980  0.0639220  )
        10           O   tau(  10) = (  0.1314730  0.7524510  0.7509170  )
        11           O   tau(  11) = (  0.3628330  0.2511280  0.2499970  )
        12           O   tau(  12) = (  0.8713170  0.2509200  0.2485870  )
        13           O   tau(  13) = (  0.6316830  0.7531170  0.7574380  )
        14           O   tau(  14) = (  0.4581640  0.7525240  0.1200050  )
        15           O   tau(  15) = (  0.0360600  0.2496000  0.6271250  )
        16           O   tau(  16) = (  0.5359580  0.2528080  0.8967320  )
        17           O   tau(  17) = (  0.9586070  0.7515500  0.3908880  )
        18           O   tau(  18) = (  0.1746990  0.9460700  0.2989260  )
        19           O   tau(  19) = (  0.3222040  0.0584580  0.7929760  )
        20           O   tau(  20) = (  0.8184930  0.4448270  0.6959770  )
        21           O   tau(  21) = (  0.6734870  0.5538440  0.2090340  )
        22           O   tau(  22) = (  0.8164510  0.0589240  0.6955840  )
        23           O   tau(  23) = (  0.6734540  0.9455720  0.2112270  )
        24           O   tau(  24) = (  0.1741780  0.5556100  0.3004150  )
        25           O   tau(  25) = (  0.3202350  0.4483980  0.7977860  )

     number of k points=   158  Marzari-Vanderbilt smearing, width (Ry)=  0.0073
                       cart. coord. in units 2pi/alat
        k(    1) = (   0.0000000   0.0000000   0.0000000), wk =   0.0031746
        k(    2) = (   0.0000000   0.0000000   0.2220467), wk =   0.0063492
        k(    3) = (   0.0000000   0.0000000   0.4440934), wk =   0.0063492
        k(    4) = (   0.0000000   0.0000000   0.6661401), wk =   0.0063492
        k(    5) = (   0.0000000   0.0000000   0.8881868), wk =   0.0063492
        k(    6) = (   0.0000000   0.2390555   0.0000000), wk =   0.0063492
        k(    7) = (   0.0000000   0.2390555   0.2220467), wk =   0.0063492
        k(    8) = (   0.0000000   0.2390555   0.4440934), wk =   0.0063492
        k(    9) = (   0.0000000   0.2390555   0.6661401), wk =   0.0063492
        k(   10) = (   0.0000000   0.2390555   0.8881868), wk =   0.0063492
        k(   11) = (   0.0000000   0.4781110   0.0000000), wk =   0.0063492
        k(   12) = (   0.0000000   0.4781110   0.2220467), wk =   0.0063492
        k(   13) = (   0.0000000   0.4781110   0.4440934), wk =   0.0063492
        k(   14) = (   0.0000000   0.4781110   0.6661401), wk =   0.0063492
        k(   15) = (   0.0000000   0.4781110   0.8881868), wk =   0.0063492
        k(   16) = (   0.0000000   0.7171664   0.0000000), wk =   0.0063492
        k(   17) = (   0.0000000   0.7171664   0.2220467), wk =   0.0063492
        k(   18) = (   0.0000000   0.7171664   0.4440934), wk =   0.0063492
        k(   19) = (   0.0000000   0.7171664   0.6661401), wk =   0.0063492
        k(   20) = (   0.0000000   0.7171664   0.8881868), wk =   0.0063492
        k(   21) = (   0.2000000   0.0000000   0.0000000), wk =   0.0063492
        k(   22) = (   0.2000000   0.0000000   0.2220467), wk =   0.0063492
        k(   23) = (   0.2000000   0.0000000   0.4440934), wk =   0.0063492
        k(   24) = (   0.2000000   0.0000000   0.6661401), wk =   0.0063492
        k(   25) = (   0.2000000   0.0000000   0.8881868), wk =   0.0063492
        k(   26) = (   0.2000000   0.2390555   0.0000000), wk =   0.0063492
        k(   27) = (   0.2000000   0.2390555   0.2220467), wk =   0.0063492
        k(   28) = (   0.2000000   0.2390555   0.4440934), wk =   0.0063492
        k(   29) = (   0.2000000   0.2390555   0.6661401), wk =   0.0063492
        k(   30) = (   0.2000000   0.2390555   0.8881868), wk =   0.0063492
        k(   31) = (   0.2000000   0.4781110   0.0000000), wk =   0.0063492
        k(   32) = (   0.2000000   0.4781110   0.2220467), wk =   0.0063492
        k(   33) = (   0.2000000   0.4781110   0.4440934), wk =   0.0063492
        k(   34) = (   0.2000000   0.4781110   0.6661401), wk =   0.0063492
        k(   35) = (   0.2000000   0.4781110   0.8881868), wk =   0.0063492
        k(   36) = (   0.2000000   0.7171664   0.0000000), wk =   0.0063492
        k(   37) = (   0.2000000   0.7171664   0.2220467), wk =   0.0063492
        k(   38) = (   0.2000000   0.7171664   0.4440934), wk =   0.0063492
        k(   39) = (   0.2000000   0.7171664   0.6661401), wk =   0.0063492
        k(   40) = (   0.2000000   0.7171664   0.8881868), wk =   0.0063492
        k(   41) = (   0.4000000   0.0000000   0.0000000), wk =   0.0063492
        k(   42) = (   0.4000000   0.0000000   0.2220467), wk =   0.0063492
        k(   43) = (   0.4000000   0.0000000   0.4440934), wk =   0.0063492
        k(   44) = (   0.4000000   0.0000000   0.6661401), wk =   0.0063492
        k(   45) = (   0.4000000   0.0000000   0.8881868), wk =   0.0063492
        k(   46) = (   0.4000000   0.2390555   0.0000000), wk =   0.0063492
        k(   47) = (   0.4000000   0.2390555   0.2220467), wk =   0.0063492
        k(   48) = (   0.4000000   0.2390555   0.4440934), wk =   0.0063492
        k(   49) = (   0.4000000   0.2390555   0.6661401), wk =   0.0063492
        k(   50) = (   0.4000000   0.2390555   0.8881868), wk =   0.0063492
        k(   51) = (   0.4000000   0.4781110   0.0000000), wk =   0.0063492
        k(   52) = (   0.4000000   0.4781110   0.2220467), wk =   0.0063492
        k(   53) = (   0.4000000   0.4781110   0.4440934), wk =   0.0063492
        k(   54) = (   0.4000000   0.4781110   0.6661401), wk =   0.0063492
        k(   55) = (   0.4000000   0.4781110   0.8881868), wk =   0.0063492
        k(   56) = (   0.4000000   0.7171664   0.0000000), wk =   0.0063492
        k(   57) = (   0.4000000   0.7171664   0.2220467), wk =   0.0063492
        k(   58) = (   0.4000000   0.7171664   0.4440934), wk =   0.0063492
        k(   59) = (   0.4000000   0.7171664   0.6661401), wk =   0.0063492
        k(   60) = (   0.4000000   0.7171664   0.8881868), wk =   0.0063492
        k(   61) = (   0.0000000  -0.2390555   0.2220467), wk =   0.0063492
        k(   62) = (   0.0000000  -0.2390555   0.4440934), wk =   0.0063492
        k(   63) = (   0.0000000  -0.2390555   0.6661401), wk =   0.0063492
        k(   64) = (   0.0000000  -0.2390555   0.8881868), wk =   0.0063492
        k(   65) = (   0.0000000  -0.4781110   0.2220467), wk =   0.0063492
        k(   66) = (   0.0000000  -0.4781110   0.4440934), wk =   0.0063492
        k(   67) = (   0.0000000  -0.4781110   0.6661401), wk =   0.0063492
        k(   68) = (   0.0000000  -0.4781110   0.8881868), wk =   0.0063492
        k(   69) = (   0.0000000  -0.7171664   0.2220467), wk =   0.0063492
        k(   70) = (   0.0000000  -0.7171664   0.4440934), wk =   0.0063492
        k(   71) = (   0.0000000  -0.7171664   0.6661401), wk =   0.0063492
        k(   72) = (   0.0000000  -0.7171664   0.8881868), wk =   0.0063492
        k(   73) = (  -0.2000000   0.0000000   0.2220467), wk =   0.0063492
        k(   74) = (  -0.2000000   0.0000000   0.4440934), wk =   0.0063492
        k(   75) = (  -0.2000000   0.0000000   0.6661401), wk =   0.0063492
        k(   76) = (  -0.2000000   0.0000000   0.8881868), wk =   0.0063492
        k(   77) = (  -0.2000000   0.2390555   0.0000000), wk =   0.0063492
        k(   78) = (  -0.2000000  -0.2390555   0.2220467), wk =   0.0063492
        k(   79) = (  -0.2000000   0.2390555  -0.2220467), wk =   0.0063492
        k(   80) = (   0.2000000  -0.2390555  -0.2220467), wk =   0.0063492
        k(   81) = (  -0.2000000  -0.2390555   0.4440934), wk =   0.0063492
        k(   82) = (  -0.2000000   0.2390555  -0.4440934), wk =   0.0063492
        k(   83) = (   0.2000000  -0.2390555  -0.4440934), wk =   0.0063492
        k(   84) = (  -0.2000000  -0.2390555   0.6661401), wk =   0.0063492
        k(   85) = (  -0.2000000   0.2390555  -0.6661401), wk =   0.0063492
        k(   86) = (   0.2000000  -0.2390555  -0.6661401), wk =   0.0063492
        k(   87) = (  -0.2000000  -0.2390555   0.8881868), wk =   0.0063492
        k(   88) = (  -0.2000000   0.2390555  -0.8881868), wk =   0.0063492
        k(   89) = (   0.2000000  -0.2390555  -0.8881868), wk =   0.0063492
        k(   90) = (  -0.2000000   0.4781110   0.0000000), wk =   0.0063492
        k(   91) = (  -0.2000000  -0.4781110   0.2220467), wk =   0.0063492
        k(   92) = (  -0.2000000   0.4781110  -0.2220467), wk =   0.0063492
        k(   93) = (   0.2000000  -0.4781110  -0.2220467), wk =   0.0063492
        k(   94) = (  -0.2000000  -0.4781110   0.4440934), wk =   0.0063492
        k(   95) = (  -0.2000000   0.4781110  -0.4440934), wk =   0.0063492
        k(   96) = (   0.2000000  -0.4781110  -0.4440934), wk =   0.0063492
        k(   97) = (  -0.2000000  -0.4781110   0.6661401), wk =   0.0063492
        k(   98) = (  -0.2000000   0.4781110  -0.6661401), wk =   0.0063492
        k(   99) = (   0.2000000  -0.4781110  -0.6661401), wk =   0.0063492
        k(  100) = (  -0.2000000  -0.4781110   0.8881868), wk =   0.0063492
        k(  101) = (  -0.2000000   0.4781110  -0.8881868), wk =   0.0063492
        k(  102) = (   0.2000000  -0.4781110  -0.8881868), wk =   0.0063492
        k(  103) = (  -0.2000000   0.7171664   0.0000000), wk =   0.0063492
        k(  104) = (  -0.2000000  -0.7171664   0.2220467), wk =   0.0063492
        k(  105) = (  -0.2000000   0.7171664  -0.2220467), wk =   0.0063492
        k(  106) = (   0.2000000  -0.7171664  -0.2220467), wk =   0.0063492
        k(  107) = (  -0.2000000  -0.7171664   0.4440934), wk =   0.0063492
        k(  108) = (  -0.2000000   0.7171664  -0.4440934), wk =   0.0063492
        k(  109) = (   0.2000000  -0.7171664  -0.4440934), wk =   0.0063492
        k(  110) = (  -0.2000000  -0.7171664   0.6661401), wk =   0.0063492
        k(  111) = (  -0.2000000   0.7171664  -0.6661401), wk =   0.0063492
        k(  112) = (   0.2000000  -0.7171664  -0.6661401), wk =   0.0063492
        k(  113) = (  -0.2000000  -0.7171664   0.8881868), wk =   0.0063492
        k(  114) = (  -0.2000000   0.7171664  -0.8881868), wk =   0.0063492
        k(  115) = (   0.2000000  -0.7171664  -0.8881868), wk =   0.0063492
        k(  116) = (  -0.4000000   0.0000000   0.2220467), wk =   0.0063492
        k(  117) = (  -0.4000000   0.0000000   0.4440934), wk =   0.0063492
        k(  118) = (  -0.4000000   0.0000000   0.6661401), wk =   0.0063492
        k(  119) = (  -0.4000000   0.0000000   0.8881868), wk =   0.0063492
        k(  120) = (  -0.4000000   0.2390555   0.0000000), wk =   0.0063492
        k(  121) = (  -0.4000000  -0.2390555   0.2220467), wk =   0.0063492
        k(  122) = (  -0.4000000   0.2390555  -0.2220467), wk =   0.0063492
        k(  123) = (   0.4000000  -0.2390555  -0.2220467), wk =   0.0063492
        k(  124) = (  -0.4000000  -0.2390555   0.4440934), wk =   0.0063492
        k(  125) = (  -0.4000000   0.2390555  -0.4440934), wk =   0.0063492
        k(  126) = (   0.4000000  -0.2390555  -0.4440934), wk =   0.0063492
        k(  127) = (  -0.4000000  -0.2390555   0.6661401), wk =   0.0063492
        k(  128) = (  -0.4000000   0.2390555  -0.6661401), wk =   0.0063492
        k(  129) = (   0.4000000  -0.2390555  -0.6661401), wk =   0.0063492
        k(  130) = (  -0.4000000  -0.2390555   0.8881868), wk =   0.0063492
        k(  131) = (  -0.4000000   0.2390555  -0.8881868), wk =   0.0063492
        k(  132) = (   0.4000000  -0.2390555  -0.8881868), wk =   0.0063492
        k(  133) = (  -0.4000000   0.4781110   0.0000000), wk =   0.0063492
        k(  134) = (  -0.4000000  -0.4781110   0.2220467), wk =   0.0063492
        k(  135) = (  -0.4000000   0.4781110  -0.2220467), wk =   0.0063492
        k(  136) = (   0.4000000  -0.4781110  -0.2220467), wk =   0.0063492
        k(  137) = (  -0.4000000  -0.4781110   0.4440934), wk =   0.0063492
        k(  138) = (  -0.4000000   0.4781110  -0.4440934), wk =   0.0063492
        k(  139) = (   0.4000000  -0.4781110  -0.4440934), wk =   0.0063492
        k(  140) = (  -0.4000000  -0.4781110   0.6661401), wk =   0.0063492
        k(  141) = (  -0.4000000   0.4781110  -0.6661401), wk =   0.0063492
        k(  142) = (   0.4000000  -0.4781110  -0.6661401), wk =   0.0063492
        k(  143) = (  -0.4000000  -0.4781110   0.8881868), wk =   0.0063492
        k(  144) = (  -0.4000000   0.4781110  -0.8881868), wk =   0.0063492
        k(  145) = (   0.4000000  -0.4781110  -0.8881868), wk =   0.0063492
        k(  146) = (  -0.4000000   0.7171664   0.0000000), wk =   0.0063492
        k(  147) = (  -0.4000000  -0.7171664   0.2220467), wk =   0.0063492
        k(  148) = (  -0.4000000   0.7171664  -0.2220467), wk =   0.0063492
        k(  149) = (   0.4000000  -0.7171664  -0.2220467), wk =   0.0063492
        k(  150) = (  -0.4000000  -0.7171664   0.4440934), wk =   0.0063492
        k(  151) = (  -0.4000000   0.7171664  -0.4440934), wk =   0.0063492
        k(  152) = (   0.4000000  -0.7171664  -0.4440934), wk =   0.0063492
        k(  153) = (  -0.4000000  -0.7171664   0.6661401), wk =   0.0063492
        k(  154) = (  -0.4000000   0.7171664  -0.6661401), wk =   0.0063492
        k(  155) = (   0.4000000  -0.7171664  -0.6661401), wk =   0.0063492
        k(  156) = (  -0.4000000  -0.7171664   0.8881868), wk =   0.0063492
        k(  157) = (  -0.4000000   0.7171664  -0.8881868), wk =   0.0063492
        k(  158) = (   0.4000000  -0.7171664  -0.8881868), wk =   0.0063492

                       cryst. coord.
        k(    1) = (   0.0000000   0.0000000   0.0000000), wk =   0.0031746
        k(    2) = (   0.0000000   0.0000000   0.1111111), wk =   0.0063492
        k(    3) = (   0.0000000   0.0000000   0.2222222), wk =   0.0063492
        k(    4) = (   0.0000000   0.0000000   0.3333333), wk =   0.0063492
        k(    5) = (   0.0000000   0.0000000   0.4444444), wk =   0.0063492
        k(    6) = (   0.0000000   0.1428571   0.0000000), wk =   0.0063492
        k(    7) = (   0.0000000   0.1428571   0.1111111), wk =   0.0063492
        k(    8) = (   0.0000000   0.1428571   0.2222222), wk =   0.0063492
        k(    9) = (   0.0000000   0.1428571   0.3333333), wk =   0.0063492
        k(   10) = (   0.0000000   0.1428571   0.4444444), wk =   0.0063492
        k(   11) = (   0.0000000   0.2857143   0.0000000), wk =   0.0063492
        k(   12) = (   0.0000000   0.2857143   0.1111111), wk =   0.0063492
        k(   13) = (   0.0000000   0.2857143   0.2222222), wk =   0.0063492
        k(   14) = (   0.0000000   0.2857143   0.3333333), wk =   0.0063492
        k(   15) = (   0.0000000   0.2857143   0.4444444), wk =   0.0063492
        k(   16) = (   0.0000000   0.4285714   0.0000000), wk =   0.0063492
        k(   17) = (   0.0000000   0.4285714   0.1111111), wk =   0.0063492
        k(   18) = (   0.0000000   0.4285714   0.2222222), wk =   0.0063492
        k(   19) = (   0.0000000   0.4285714   0.3333333), wk =   0.0063492
        k(   20) = (   0.0000000   0.4285714   0.4444444), wk =   0.0063492
        k(   21) = (   0.2000000   0.0000000   0.0000000), wk =   0.0063492
        k(   22) = (   0.2000000   0.0000000   0.1111111), wk =   0.0063492
        k(   23) = (   0.2000000   0.0000000   0.2222222), wk =   0.0063492
        k(   24) = (   0.2000000   0.0000000   0.3333333), wk =   0.0063492
        k(   25) = (   0.2000000   0.0000000   0.4444444), wk =   0.0063492
        k(   26) = (   0.2000000   0.1428571   0.0000000), wk =   0.0063492
        k(   27) = (   0.2000000   0.1428571   0.1111111), wk =   0.0063492
        k(   28) = (   0.2000000   0.1428571   0.2222222), wk =   0.0063492
        k(   29) = (   0.2000000   0.1428571   0.3333333), wk =   0.0063492
        k(   30) = (   0.2000000   0.1428571   0.4444444), wk =   0.0063492
        k(   31) = (   0.2000000   0.2857143   0.0000000), wk =   0.0063492
        k(   32) = (   0.2000000   0.2857143   0.1111111), wk =   0.0063492
        k(   33) = (   0.2000000   0.2857143   0.2222222), wk =   0.0063492
        k(   34) = (   0.2000000   0.2857143   0.3333333), wk =   0.0063492
        k(   35) = (   0.2000000   0.2857143   0.4444444), wk =   0.0063492
        k(   36) = (   0.2000000   0.4285714   0.0000000), wk =   0.0063492
        k(   37) = (   0.2000000   0.4285714   0.1111111), wk =   0.0063492
        k(   38) = (   0.2000000   0.4285714   0.2222222), wk =   0.0063492
        k(   39) = (   0.2000000   0.4285714   0.3333333), wk =   0.0063492
        k(   40) = (   0.2000000   0.4285714   0.4444444), wk =   0.0063492
        k(   41) = (   0.4000000   0.0000000   0.0000000), wk =   0.0063492
        k(   42) = (   0.4000000   0.0000000   0.1111111), wk =   0.0063492
        k(   43) = (   0.4000000   0.0000000   0.2222222), wk =   0.0063492
        k(   44) = (   0.4000000   0.0000000   0.3333333), wk =   0.0063492
        k(   45) = (   0.4000000   0.0000000   0.4444444), wk =   0.0063492
        k(   46) = (   0.4000000   0.1428571   0.0000000), wk =   0.0063492
        k(   47) = (   0.4000000   0.1428571   0.1111111), wk =   0.0063492
        k(   48) = (   0.4000000   0.1428571   0.2222222), wk =   0.0063492
        k(   49) = (   0.4000000   0.1428571   0.3333333), wk =   0.0063492
        k(   50) = (   0.4000000   0.1428571   0.4444444), wk =   0.0063492
        k(   51) = (   0.4000000   0.2857143   0.0000000), wk =   0.0063492
        k(   52) = (   0.4000000   0.2857143   0.1111111), wk =   0.0063492
        k(   53) = (   0.4000000   0.2857143   0.2222222), wk =   0.0063492
        k(   54) = (   0.4000000   0.2857143   0.3333333), wk =   0.0063492
        k(   55) = (   0.4000000   0.2857143   0.4444444), wk =   0.0063492
        k(   56) = (   0.4000000   0.4285714   0.0000000), wk =   0.0063492
        k(   57) = (   0.4000000   0.4285714   0.1111111), wk =   0.0063492
        k(   58) = (   0.4000000   0.4285714   0.2222222), wk =   0.0063492
        k(   59) = (   0.4000000   0.4285714   0.3333333), wk =   0.0063492
        k(   60) = (   0.4000000   0.4285714   0.4444444), wk =   0.0063492
        k(   61) = (   0.0000000  -0.1428571   0.1111111), wk =   0.0063492
        k(   62) = (   0.0000000  -0.1428571   0.2222222), wk =   0.0063492
        k(   63) = (   0.0000000  -0.1428571   0.3333333), wk =   0.0063492
        k(   64) = (   0.0000000  -0.1428571   0.4444444), wk =   0.0063492
        k(   65) = (   0.0000000  -0.2857143   0.1111111), wk =   0.0063492
        k(   66) = (   0.0000000  -0.2857143   0.2222222), wk =   0.0063492
        k(   67) = (   0.0000000  -0.2857143   0.3333333), wk =   0.0063492
        k(   68) = (   0.0000000  -0.2857143   0.4444444), wk =   0.0063492
        k(   69) = (   0.0000000  -0.4285714   0.1111111), wk =   0.0063492
        k(   70) = (   0.0000000  -0.4285714   0.2222222), wk =   0.0063492
        k(   71) = (   0.0000000  -0.4285714   0.3333333), wk =   0.0063492
        k(   72) = (   0.0000000  -0.4285714   0.4444444), wk =   0.0063492
        k(   73) = (  -0.2000000   0.0000000   0.1111111), wk =   0.0063492
        k(   74) = (  -0.2000000   0.0000000   0.2222222), wk =   0.0063492
        k(   75) = (  -0.2000000   0.0000000   0.3333333), wk =   0.0063492
        k(   76) = (  -0.2000000   0.0000000   0.4444444), wk =   0.0063492
        k(   77) = (  -0.2000000   0.1428571   0.0000000), wk =   0.0063492
        k(   78) = (  -0.2000000  -0.1428571   0.1111111), wk =   0.0063492
        k(   79) = (  -0.2000000   0.1428571  -0.1111111), wk =   0.0063492
        k(   80) = (   0.2000000  -0.1428571  -0.1111111), wk =   0.0063492
        k(   81) = (  -0.2000000  -0.1428571   0.2222222), wk =   0.0063492
        k(   82) = (  -0.2000000   0.1428571  -0.2222222), wk =   0.0063492
        k(   83) = (   0.2000000  -0.1428571  -0.2222222), wk =   0.0063492
        k(   84) = (  -0.2000000  -0.1428571   0.3333333), wk =   0.0063492
        k(   85) = (  -0.2000000   0.1428571  -0.3333333), wk =   0.0063492
        k(   86) = (   0.2000000  -0.1428571  -0.3333333), wk =   0.0063492
        k(   87) = (  -0.2000000  -0.1428571   0.4444444), wk =   0.0063492
        k(   88) = (  -0.2000000   0.1428571  -0.4444444), wk =   0.0063492
        k(   89) = (   0.2000000  -0.1428571  -0.4444444), wk =   0.0063492
        k(   90) = (  -0.2000000   0.2857143   0.0000000), wk =   0.0063492
        k(   91) = (  -0.2000000  -0.2857143   0.1111111), wk =   0.0063492
        k(   92) = (  -0.2000000   0.2857143  -0.1111111), wk =   0.0063492
        k(   93) = (   0.2000000  -0.2857143  -0.1111111), wk =   0.0063492
        k(   94) = (  -0.2000000  -0.2857143   0.2222222), wk =   0.0063492
        k(   95) = (  -0.2000000   0.2857143  -0.2222222), wk =   0.0063492
        k(   96) = (   0.2000000  -0.2857143  -0.2222222), wk =   0.0063492
        k(   97) = (  -0.2000000  -0.2857143   0.3333333), wk =   0.0063492
        k(   98) = (  -0.2000000   0.2857143  -0.3333333), wk =   0.0063492
        k(   99) = (   0.2000000  -0.2857143  -0.3333333), wk =   0.0063492
        k(  100) = (  -0.2000000  -0.2857143   0.4444444), wk =   0.0063492
        k(  101) = (  -0.2000000   0.2857143  -0.4444444), wk =   0.0063492
        k(  102) = (   0.2000000  -0.2857143  -0.4444444), wk =   0.0063492
        k(  103) = (  -0.2000000   0.4285714   0.0000000), wk =   0.0063492
        k(  104) = (  -0.2000000  -0.4285714   0.1111111), wk =   0.0063492
        k(  105) = (  -0.2000000   0.4285714  -0.1111111), wk =   0.0063492
        k(  106) = (   0.2000000  -0.4285714  -0.1111111), wk =   0.0063492
        k(  107) = (  -0.2000000  -0.4285714   0.2222222), wk =   0.0063492
        k(  108) = (  -0.2000000   0.4285714  -0.2222222), wk =   0.0063492
        k(  109) = (   0.2000000  -0.4285714  -0.2222222), wk =   0.0063492
        k(  110) = (  -0.2000000  -0.4285714   0.3333333), wk =   0.0063492
        k(  111) = (  -0.2000000   0.4285714  -0.3333333), wk =   0.0063492
        k(  112) = (   0.2000000  -0.4285714  -0.3333333), wk =   0.0063492
        k(  113) = (  -0.2000000  -0.4285714   0.4444444), wk =   0.0063492
        k(  114) = (  -0.2000000   0.4285714  -0.4444444), wk =   0.0063492
        k(  115) = (   0.2000000  -0.4285714  -0.4444444), wk =   0.0063492
        k(  116) = (  -0.4000000   0.0000000   0.1111111), wk =   0.0063492
        k(  117) = (  -0.4000000   0.0000000   0.2222222), wk =   0.0063492
        k(  118) = (  -0.4000000   0.0000000   0.3333333), wk =   0.0063492
        k(  119) = (  -0.4000000   0.0000000   0.4444444), wk =   0.0063492
        k(  120) = (  -0.4000000   0.1428571   0.0000000), wk =   0.0063492
        k(  121) = (  -0.4000000  -0.1428571   0.1111111), wk =   0.0063492
        k(  122) = (  -0.4000000   0.1428571  -0.1111111), wk =   0.0063492
        k(  123) = (   0.4000000  -0.1428571  -0.1111111), wk =   0.0063492
        k(  124) = (  -0.4000000  -0.1428571   0.2222222), wk =   0.0063492
        k(  125) = (  -0.4000000   0.1428571  -0.2222222), wk =   0.0063492
        k(  126) = (   0.4000000  -0.1428571  -0.2222222), wk =   0.0063492
        k(  127) = (  -0.4000000  -0.1428571   0.3333333), wk =   0.0063492
        k(  128) = (  -0.4000000   0.1428571  -0.3333333), wk =   0.0063492
        k(  129) = (   0.4000000  -0.1428571  -0.3333333), wk =   0.0063492
        k(  130) = (  -0.4000000  -0.1428571   0.4444444), wk =   0.0063492
        k(  131) = (  -0.4000000   0.1428571  -0.4444444), wk =   0.0063492
        k(  132) = (   0.4000000  -0.1428571  -0.4444444), wk =   0.0063492
        k(  133) = (  -0.4000000   0.2857143   0.0000000), wk =   0.0063492
        k(  134) = (  -0.4000000  -0.2857143   0.1111111), wk =   0.0063492
        k(  135) = (  -0.4000000   0.2857143  -0.1111111), wk =   0.0063492
        k(  136) = (   0.4000000  -0.2857143  -0.1111111), wk =   0.0063492
        k(  137) = (  -0.4000000  -0.2857143   0.2222222), wk =   0.0063492
        k(  138) = (  -0.4000000   0.2857143  -0.2222222), wk =   0.0063492
        k(  139) = (   0.4000000  -0.2857143  -0.2222222), wk =   0.0063492
        k(  140) = (  -0.4000000  -0.2857143   0.3333333), wk =   0.0063492
        k(  141) = (  -0.4000000   0.2857143  -0.3333333), wk =   0.0063492
        k(  142) = (   0.4000000  -0.2857143  -0.3333333), wk =   0.0063492
        k(  143) = (  -0.4000000  -0.2857143   0.4444444), wk =   0.0063492
        k(  144) = (  -0.4000000   0.2857143  -0.4444444), wk =   0.0063492
        k(  145) = (   0.4000000  -0.2857143  -0.4444444), wk =   0.0063492
        k(  146) = (  -0.4000000   0.4285714   0.0000000), wk =   0.0063492
        k(  147) = (  -0.4000000  -0.4285714   0.1111111), wk =   0.0063492
        k(  148) = (  -0.4000000   0.4285714  -0.1111111), wk =   0.0063492
        k(  149) = (   0.4000000  -0.4285714  -0.1111111), wk =   0.0063492
        k(  150) = (  -0.4000000  -0.4285714   0.2222222), wk =   0.0063492
        k(  151) = (  -0.4000000   0.4285714  -0.2222222), wk =   0.0063492
        k(  152) = (   0.4000000  -0.4285714  -0.2222222), wk =   0.0063492
        k(  153) = (  -0.4000000  -0.4285714   0.3333333), wk =   0.0063492
        k(  154) = (  -0.4000000   0.4285714  -0.3333333), wk =   0.0063492
        k(  155) = (   0.4000000  -0.4285714  -0.3333333), wk =   0.0063492
        k(  156) = (  -0.4000000  -0.4285714   0.4444444), wk =   0.0063492
        k(  157) = (  -0.4000000   0.4285714  -0.4444444), wk =   0.0063492
        k(  158) = (   0.4000000  -0.4285714  -0.4444444), wk =   0.0063492

     Dense  grid:  1168479 G-vectors     FFT dimensions: ( 200, 120, 100)

     Smooth grid:   263495 G-vectors     FFT dimensions: ( 120,  72,  60)

     Dynamical RAM for                 wfc:       2.38 MB

     Dynamical RAM for     wfc (w. buffer):     756.00 MB

     Dynamical RAM for           str. fact:       2.97 MB

     Dynamical RAM for           local pot:       0.00 MB

     Dynamical RAM for          nlocal pot:       5.86 MB

     Dynamical RAM for                qrad:      10.54 MB

     Dynamical RAM for          rho,v,vnew:       9.95 MB

     Dynamical RAM for               rhoin:       3.32 MB

     Dynamical RAM for            rho*nmix:      23.77 MB

     Dynamical RAM for           G-vectors:       2.87 MB

     Dynamical RAM for          h,s,v(r/c):       2.38 MB

     Dynamical RAM for          <psi|beta>:       0.49 MB

     Dynamical RAM for                 psi:       4.77 MB

     Dynamical RAM for                hpsi:       4.77 MB

     Dynamical RAM for                spsi:       4.77 MB

     Dynamical RAM for      wfcinit/wfcrot:       6.16 MB

     Dynamical RAM for           addusdens:     150.81 MB

     Dynamical RAM for          addusforce:     173.22 MB

     Dynamical RAM for         addusstress:     150.44 MB

     Estimated static dynamical RAM per process >     824.49 MB

     Estimated max dynamical RAM per process >     997.71 MB

     Estimated total dynamical RAM >      23.38 GB

     Check: negative core charge=   -0.000003
     Generating pointlists ...
     new r_m :   0.0773 (alat units)  1.4437 (a.u.) for type    1
     new r_m :   0.0898 (alat units)  1.6785 (a.u.) for type    2
     new r_m :   0.0612 (alat units)  1.1427 (a.u.) for type    3
     new r_m :   0.0612 (alat units)  1.1427 (a.u.) for type    4

     Initial potential from superposition of free atoms

     starting charge  188.99132, renormalised to  189.00000
     Starting wfcs are  137 randomized atomic wfcs
     Checking if some PAW data can be deallocated... 
       PAW data deallocated on   20 nodes for type:  1
       PAW data deallocated on    8 nodes for type:  3

     total cpu time spent up to now is      157.3 secs

     Self-consistent Calculation

     iteration #  1     ecut=   100.00 Ry     beta= 0.40
     Davidson diagonalization with overlap
     ethr =  1.00E-02,  avg # of iterations =  3.5

     negative rho (up, down):  0.000E+00 1.163E-04

     total cpu time spent up to now is      688.6 secs

     total energy              =   -2123.90337949 Ry
     estimated scf accuracy    <       6.86987468 Ry

     total magnetization       =    19.00 Bohr mag/cell
     absolute magnetization    =    19.00 Bohr mag/cell

     iteration #  2     ecut=   100.00 Ry     beta= 0.40
     Davidson diagonalization with overlap
     ethr =  3.63E-03,  avg # of iterations =  2.0

     negative rho (up, down):  0.000E+00 7.735E-05

     total cpu time spent up to now is     1144.3 secs

     total energy              =   -2120.99456068 Ry
     estimated scf accuracy    <      41.07247702 Ry

     total magnetization       =     7.64 Bohr mag/cell
     absolute magnetization    =     9.05 Bohr mag/cell

     iteration #  3     ecut=   100.00 Ry     beta= 0.40
     Davidson diagonalization with overlap
     ethr =  3.63E-03,  avg # of iterations =  2.8

     negative rho (up, down):  0.000E+00 4.620E-05

     total cpu time spent up to now is     1544.3 secs

     total energy              =   -2123.55226575 Ry
     estimated scf accuracy    <      60.35681217 Ry

     total magnetization       =     2.98 Bohr mag/cell
     absolute magnetization    =     7.21 Bohr mag/cell

     iteration #  4     ecut=   100.00 Ry     beta= 0.40
     Davidson diagonalization with overlap
     ethr =  3.63E-03,  avg # of iterations =  1.3

     negative rho (up, down):  0.000E+00 4.222E-05

     total cpu time spent up to now is     1876.1 secs

     total energy              =   -2124.45154684 Ry
     estimated scf accuracy    <      29.90427340 Ry

     total magnetization       =     9.00 Bohr mag/cell
     absolute magnetization    =     9.47 Bohr mag/cell

     iteration #  5     ecut=   100.00 Ry     beta= 0.40
     Davidson diagonalization with overlap
     ethr =  3.63E-03,  avg # of iterations =  1.9

     negative rho (up, down):  0.000E+00 1.531E-04

     total cpu time spent up to now is     2391.5 secs

     total energy              =   -2125.89112904 Ry
     estimated scf accuracy    <       1.40919327 Ry

     total magnetization       =    19.07 Bohr mag/cell
     absolute magnetization    =    19.07 Bohr mag/cell

     iteration #  6     ecut=   100.00 Ry     beta= 0.40
     Davidson diagonalization with overlap
     ethr =  7.46E-04,  avg # of iterations =  2.0

     negative rho (up, down):  0.000E+00 2.659E-04

     total cpu time spent up to now is     2769.4 secs

     total energy              =   -2125.98259385 Ry
     estimated scf accuracy    <       0.38465623 Ry

     total magnetization       =    19.06 Bohr mag/cell
     absolute magnetization    =    19.07 Bohr mag/cell

     iteration #  7     ecut=   100.00 Ry     beta= 0.40
     Davidson diagonalization with overlap
     ethr =  2.04E-04,  avg # of iterations =  5.7

     negative rho (up, down):  0.000E+00 3.974E-04

     total cpu time spent up to now is     3209.1 secs

     total energy              =   -2125.99136335 Ry
     estimated scf accuracy    <       0.21031291 Ry

     total magnetization       =    19.00 Bohr mag/cell
     absolute magnetization    =    19.00 Bohr mag/cell

     iteration #  8     ecut=   100.00 Ry     beta= 0.40
     Davidson diagonalization with overlap
     c_bands:  1 eigenvalues not converged
     ethr =  1.11E-04,  avg # of iterations =  7.4

     negative rho (up, down):  0.000E+00 5.084E-04

     total cpu time spent up to now is     3685.3 secs

     total energy              =   -2125.98732492 Ry
     estimated scf accuracy    <       0.26675399 Ry

     total magnetization       =    19.00 Bohr mag/cell
     absolute magnetization    =    19.01 Bohr mag/cell

     iteration #  9     ecut=   100.00 Ry     beta= 0.40
     Davidson diagonalization with overlap
     ethr =  1.11E-04,  avg # of iterations =  1.7

     negative rho (up, down):  0.000E+00 5.651E-04

     total cpu time spent up to now is     4031.8 secs

     total energy              =   -2126.00568481 Ry
     estimated scf accuracy    <       0.10737004 Ry

     total magnetization       =    19.00 Bohr mag/cell
     absolute magnetization    =    19.01 Bohr mag/cell

     iteration # 10     ecut=   100.00 Ry     beta= 0.40
     Davidson diagonalization with overlap
     c_bands:  1 eigenvalues not converged
     c_bands:  1 eigenvalues not converged
     c_bands:  2 eigenvalues not converged
     ethr =  5.68E-05,  avg # of iterations =  4.2

     negative rho (up, down):  0.000E+00 8.144E-04

     total cpu time spent up to now is     4435.7 secs

     total energy              =   -2126.01195996 Ry
     estimated scf accuracy    <       0.03561288 Ry

     total magnetization       =    19.00 Bohr mag/cell
     absolute magnetization    =    19.01 Bohr mag/cell

     iteration # 11     ecut=   100.00 Ry     beta= 0.40
     Davidson diagonalization with overlap
     c_bands:  1 eigenvalues not converged
     c_bands:  1 eigenvalues not converged
     c_bands:  1 eigenvalues not converged
     c_bands:  1 eigenvalues not converged
     c_bands:  1 eigenvalues not converged
     c_bands:  1 eigenvalues not converged
     c_bands:  1 eigenvalues not converged
     c_bands:  1 eigenvalues not converged
     c_bands:  1 eigenvalues not converged
     c_bands:  1 eigenvalues not converged
     c_bands:  1 eigenvalues not converged
     c_bands:  1 eigenvalues not converged
     c_bands:  1 eigenvalues not converged
     c_bands:  1 eigenvalues not converged
     c_bands:  1 eigenvalues not converged
     c_bands:  1 eigenvalues not converged
     c_bands:  1 eigenvalues not converged
     c_bands:  1 eigenvalues not converged
     c_bands:  1 eigenvalues not converged
     c_bands:  1 eigenvalues not converged
     ethr =  1.88E-05,  avg # of iterations = 10.2

     negative rho (up, down):  0.000E+00 9.064E-04

     total cpu time spent up to now is     4980.5 secs

     total energy              =   -2126.01604038 Ry
     estimated scf accuracy    <       0.13487197 Ry

     total magnetization       =    19.00 Bohr mag/cell
     absolute magnetization    =    19.03 Bohr mag/cell

     iteration # 12     ecut=   100.00 Ry     beta= 0.40
     Davidson diagonalization with overlap
     ethr =  1.88E-05,  avg # of iterations =  1.3

     negative rho (up, down):  0.000E+00 9.039E-04

     total cpu time spent up to now is     5310.7 secs

     total energy              =   -2126.01638033 Ry
     estimated scf accuracy    <       0.06332522 Ry

     total magnetization       =    19.00 Bohr mag/cell
     absolute magnetization    =    19.03 Bohr mag/cell

     iteration # 13     ecut=   100.00 Ry     beta= 0.40
     Davidson diagonalization with overlap
     ethr =  1.88E-05,  avg # of iterations =  1.0

     negative rho (up, down):  0.000E+00 9.067E-04

     total cpu time spent up to now is     5809.2 secs

     total energy              =   -2126.01667996 Ry
     estimated scf accuracy    <       0.01262917 Ry

     total magnetization       =    19.00 Bohr mag/cell
     absolute magnetization    =    19.03 Bohr mag/cell

     iteration # 14     ecut=   100.00 Ry     beta= 0.40
     Davidson diagonalization with overlap
     c_bands:  1 eigenvalues not converged
     c_bands:  1 eigenvalues not converged
     c_bands:  1 eigenvalues not converged
     c_bands:  1 eigenvalues not converged
     c_bands:  1 eigenvalues not converged
     c_bands:  1 eigenvalues not converged
     c_bands:  1 eigenvalues not converged
     c_bands:  1 eigenvalues not converged
     ethr =  6.68E-06,  avg # of iterations =  4.4

     negative rho (up, down):  0.000E+00 9.119E-04

     total cpu time spent up to now is     6393.6 secs

     total energy              =   -2126.01721267 Ry
     estimated scf accuracy    <       0.00112373 Ry

     total magnetization       =    19.00 Bohr mag/cell
     absolute magnetization    =    19.04 Bohr mag/cell

     iteration # 15     ecut=   100.00 Ry     beta= 0.40
     Davidson diagonalization with overlap
     c_bands:  1 eigenvalues not converged
     c_bands:  1 eigenvalues not converged
     c_bands:  1 eigenvalues not converged
     c_bands:  1 eigenvalues not converged
     c_bands:  1 eigenvalues not converged
     c_bands:  1 eigenvalues not converged
     c_bands:  1 eigenvalues not converged
     c_bands:  2 eigenvalues not converged
     c_bands:  1 eigenvalues not converged
     ethr =  5.95E-07,  avg # of iterations =  8.5

     negative rho (up, down):  0.000E+00 8.993E-04

     total cpu time spent up to now is     7098.6 secs

     total energy              =   -2126.01763272 Ry
     estimated scf accuracy    <       0.00118467 Ry

     total magnetization       =    19.00 Bohr mag/cell
     absolute magnetization    =    19.04 Bohr mag/cell

     iteration # 16     ecut=   100.00 Ry     beta= 0.40
     Davidson diagonalization with overlap
     ethr =  5.95E-07,  avg # of iterations =  1.1

     negative rho (up, down):  0.000E+00 8.963E-04

     total cpu time spent up to now is     7422.6 secs

     total energy              =   -2126.01766046 Ry
     estimated scf accuracy    <       0.00005139 Ry

     total magnetization       =    19.00 Bohr mag/cell
     absolute magnetization    =    19.04 Bohr mag/cell

     iteration # 17     ecut=   100.00 Ry     beta= 0.40
     Davidson diagonalization with overlap
     ethr =  2.72E-08,  avg # of iterations =  1.9

     negative rho (up, down):  0.000E+00 8.907E-04

     total cpu time spent up to now is     7788.7 secs

     total energy              =   -2126.01766355 Ry
     estimated scf accuracy    <       0.00002672 Ry

     total magnetization       =    19.00 Bohr mag/cell
     absolute magnetization    =    19.04 Bohr mag/cell

     iteration # 18     ecut=   100.00 Ry     beta= 0.40
     Davidson diagonalization with overlap
     ethr =  1.41E-08,  avg # of iterations =  1.8

     negative rho (up, down):  0.000E+00 8.860E-04

     total cpu time spent up to now is     8158.2 secs

     total energy              =   -2126.01766832 Ry
     estimated scf accuracy    <       0.00006790 Ry

     total magnetization       =    19.00 Bohr mag/cell
     absolute magnetization    =    19.04 Bohr mag/cell

     iteration # 19     ecut=   100.00 Ry     beta= 0.40
     Davidson diagonalization with overlap
     ethr =  1.41E-08,  avg # of iterations =  1.0

     negative rho (up, down):  0.000E+00 8.846E-04

     total cpu time spent up to now is     8477.9 secs

     total energy              =   -2126.01766932 Ry
     estimated scf accuracy    <       0.00001912 Ry

     total magnetization       =    19.00 Bohr mag/cell
     absolute magnetization    =    19.04 Bohr mag/cell

     iteration # 20     ecut=   100.00 Ry     beta= 0.40
     Davidson diagonalization with overlap
     ethr =  1.01E-08,  avg # of iterations =  1.0

     negative rho (up, down):  0.000E+00 8.847E-04

     total cpu time spent up to now is     8797.8 secs

     total energy              =   -2126.01766988 Ry
     estimated scf accuracy    <       0.00000491 Ry

     total magnetization       =    19.00 Bohr mag/cell
     absolute magnetization    =    19.04 Bohr mag/cell

     iteration # 21     ecut=   100.00 Ry     beta= 0.40
     Davidson diagonalization with overlap
     ethr =  2.60E-09,  avg # of iterations =  3.6

     negative rho (up, down):  0.000E+00 8.849E-04

     total cpu time spent up to now is     9229.9 secs

     total energy              =   -2126.01767062 Ry
     estimated scf accuracy    <       0.00000101 Ry

     total magnetization       =    19.00 Bohr mag/cell
     absolute magnetization    =    19.04 Bohr mag/cell

     iteration # 22     ecut=   100.00 Ry     beta= 0.40
     Davidson diagonalization with overlap
     ethr =  5.35E-10,  avg # of iterations =  3.0

     negative rho (up, down):  0.000E+00 8.851E-04

     total cpu time spent up to now is     9687.5 secs

     total energy              =   -2126.01767084 Ry
     estimated scf accuracy    <       0.00000015 Ry

     total magnetization       =    19.00 Bohr mag/cell
     absolute magnetization    =    19.04 Bohr mag/cell

     iteration # 23     ecut=   100.00 Ry     beta= 0.40
     Davidson diagonalization with overlap
     ethr =  8.09E-11,  avg # of iterations =  2.6

     negative rho (up, down):  0.000E+00 8.851E-04

     total cpu time spent up to now is    10094.5 secs

     total energy              =   -2126.01767087 Ry
     estimated scf accuracy    <       0.00000002 Ry

     total magnetization       =    19.00 Bohr mag/cell
     absolute magnetization    =    19.04 Bohr mag/cell

     iteration # 24     ecut=   100.00 Ry     beta= 0.40
     Davidson diagonalization with overlap
     ethr =  1.15E-11,  avg # of iterations =  3.7

     negative rho (up, down):  0.000E+00 8.851E-04

     total cpu time spent up to now is    10570.3 secs

     total energy              =   -2126.01767088 Ry
     estimated scf accuracy    <       0.00000001 Ry

     total magnetization       =    19.00 Bohr mag/cell
     absolute magnetization    =    19.04 Bohr mag/cell

     iteration # 25     ecut=   100.00 Ry     beta= 0.40
     Davidson diagonalization with overlap
     ethr =  7.39E-12,  avg # of iterations =  1.1

     negative rho (up, down):  0.000E+00 8.851E-04

     total cpu time spent up to now is    10896.7 secs

     total energy              =   -2126.01767088 Ry
     estimated scf accuracy    <       0.00000001 Ry

     total magnetization       =    19.00 Bohr mag/cell
     absolute magnetization    =    19.04 Bohr mag/cell

     iteration # 26     ecut=   100.00 Ry     beta= 0.40
     Davidson diagonalization with overlap
     ethr =  6.43E-12,  avg # of iterations =  1.0

     negative rho (up, down):  0.000E+00 8.851E-04

     total cpu time spent up to now is    11218.2 secs

     total energy              =   -2126.01767088 Ry
     estimated scf accuracy    <          5.3E-09 Ry

     total magnetization       =    19.00 Bohr mag/cell
     absolute magnetization    =    19.04 Bohr mag/cell

     iteration # 27     ecut=   100.00 Ry     beta= 0.40
     Davidson diagonalization with overlap
     ethr =  2.80E-12,  avg # of iterations =  1.2

     negative rho (up, down):  0.000E+00 8.851E-04

     total cpu time spent up to now is    11547.6 secs

     total energy              =   -2126.01767088 Ry
     estimated scf accuracy    <          6.4E-09 Ry

     total magnetization       =    19.00 Bohr mag/cell
     absolute magnetization    =    19.04 Bohr mag/cell

     iteration # 28     ecut=   100.00 Ry     beta= 0.40
     Davidson diagonalization with overlap
     ethr =  2.80E-12,  avg # of iterations =  1.7

     negative rho (up, down):  0.000E+00 8.851E-04

     total cpu time spent up to now is    11899.9 secs

     total energy              =   -2126.01767088 Ry
     estimated scf accuracy    <          3.3E-10 Ry

     total magnetization       =    19.00 Bohr mag/cell
     absolute magnetization    =    19.04 Bohr mag/cell

     iteration # 29     ecut=   100.00 Ry     beta= 0.40
     Davidson diagonalization with overlap
     ethr =  1.77E-13,  avg # of iterations =  4.6

     negative rho (up, down):  0.000E+00 8.851E-04

     Magnetic moment per site:
     atom:    1    charge:    7.8618    magn:    0.0006    constr:    0.0000
     atom:    2    charge:   12.6945    magn:    3.6079    constr:    0.0000
     atom:    3    charge:   12.6992    magn:    3.5989    constr:    0.0000
     atom:    4    charge:   12.7356    magn:    3.4959    constr:    0.0000
     atom:    5    charge:   12.7015    magn:    3.5984    constr:    0.0000
     atom:    6    charge:    0.7511    magn:    0.0109    constr:    0.0000
     atom:    7    charge:    0.7537    magn:    0.0087    constr:    0.0000
     atom:    8    charge:    0.7539    magn:    0.0115    constr:    0.0000
     atom:    9    charge:    0.7486    magn:    0.0093    constr:    0.0000
     atom:   10    charge:    4.0232    magn:    0.1337    constr:    0.0000
     atom:   11    charge:    4.0401    magn:    0.0902    constr:    0.0000
     atom:   12    charge:    4.0249    magn:    0.1247    constr:    0.0000
     atom:   13    charge:    4.0215    magn:    0.1073    constr:    0.0000
     atom:   14    charge:    4.0685    magn:    0.1053    constr:    0.0000
     atom:   15    charge:    4.0761    magn:    0.1208    constr:    0.0000
     atom:   16    charge:    4.0681    magn:    0.0774    constr:    0.0000
     atom:   17    charge:    4.0716    magn:    0.1297    constr:    0.0000
     atom:   18    charge:    4.0355    magn:    0.1463    constr:    0.0000
     atom:   19    charge:    4.0366    magn:    0.1285    constr:    0.0000
     atom:   20    charge:    4.0435    magn:    0.1454    constr:    0.0000
     atom:   21    charge:    4.0330    magn:    0.1264    constr:    0.0000
     atom:   22    charge:    4.0420    magn:    0.1388    constr:    0.0000
     atom:   23    charge:    4.0391    magn:    0.1179    constr:    0.0000
     atom:   24    charge:    4.0363    magn:    0.1474    constr:    0.0000
     atom:   25    charge:    4.0411    magn:    0.1303    constr:    0.0000

     total cpu time spent up to now is    12477.7 secs

     End of self-consistent calculation

 ------ SPIN UP ------------


          k = 0.0000 0.0000 0.0000 ( 32925 PWs)   bands (ev):

   -83.7741 -83.7449 -83.7426 -83.3392 -49.9206 -49.8599 -49.8271 -49.7326
   -49.7300 -49.7028 -49.6907 -49.6734 -49.6609 -49.6466 -49.2907 -49.1214
   -43.8495 -15.9753 -15.8685 -15.8359 -15.8206 -15.5787 -15.3863 -15.2668
   -13.2988 -13.1502 -12.9876 -12.9671 -12.7572 -12.6591 -12.6438 -12.6088
   -12.5354 -12.4221 -12.4167 -12.3031  -3.2315  -2.7282  -2.5483  -2.0608
    -1.5778  -1.1538  -1.0500  -0.8838  -0.8684  -0.6532  -0.4939  -0.4543
    -0.3187  -0.1307   0.0022   0.2908   0.5275   0.5895   1.1849   1.1976
     1.2776   1.3562   1.5057   1.5412   1.6650   1.6675   1.9747   2.0529
     2.2752   2.4334   2.4409   2.5561   2.5777   2.5846   2.6797   2.7137
     2.8001   3.0282   3.2759   3.3260   3.3611   3.4856   3.5236   3.6228
     3.7676   3.8927   4.0351   4.1313   4.2602   4.3103   4.4572   4.4790
     4.5512   4.7006   4.7252   4.7545   4.8547   4.9077   5.0246   5.1141
     5.1497   5.4335   5.5919   5.8084   6.0155   6.1989   6.3090   6.4343
    10.9972  13.1149  13.2417  14.0194  14.2431  14.3865  15.1174  15.2540
    15.2620  15.4571

     occupation numbers 
     1.0000   1.0000   1.0000   1.0000   1.0000   1.0000   1.0000   1.0000
     1.0000   1.0000   1.0000   1.0000   1.0000   1.0000   1.0000   1.0000
     1.0000   1.0000   1.0000   1.0000   1.0000   1.0000   1.0000   1.0000
     1.0000   1.0000   1.0000   1.0000   1.0000   1.0000   1.0000   1.0000
     1.0000   1.0000   1.0000   1.0000   1.0000   1.0000   1.0000   1.0000
     1.0000   1.0000   1.0000   1.0000   1.0000   1.0000   1.0000   1.0000
     1.0000   1.0000   1.0000   1.0000   1.0000   1.0000   1.0000   1.0000
     1.0000   1.0000   1.0000   1.0000   1.0000   1.0000   1.0000   1.0000
     1.0000   1.0000   1.0000   1.0000   1.0000   1.0000   1.0000   1.0000
     1.0000   1.0000   1.0000   1.0000   1.0000   1.0000   1.0000   1.0000
     1.0000   1.0000   1.0000   1.0000   1.0000   1.0000   1.0000   1.0000
     1.0000   1.0000   1.0000   1.0000   1.0000   1.0000   1.0000   1.0000
     1.0000   1.0000   1.0000   1.0000   1.0000   1.0000   1.0000   1.0000
     0.0000   0.0000   0.0000   0.0000   0.0000   0.0000   0.0000   0.0000
     0.0000   0.0000

          k = 0.0000 0.0000 0.2220 ( 32901 PWs)   bands (ev):

   -83.7741 -83.7449 -83.7426 -83.3392 -49.9206 -49.8599 -49.8271 -49.7326
   -49.7300 -49.7028 -49.6907 -49.6734 -49.6609 -49.6466 -49.2907 -49.1214
   -43.8495 -15.9848 -15.8920 -15.8287 -15.7908 -15.5674 -15.3805 -15.2671
   -13.2999 -13.1500 -13.0008 -12.9613 -12.7530 -12.6593 -12.6511 -12.6117
   -12.5391 -12.4301 -12.4247 -12.3132  -3.2020  -2.7146  -2.5453  -2.0820
    -1.5206  -1.1321  -1.0564  -0.8755  -0.8610  -0.6730  -0.5114  -0.3773
    -0.3096  -0.0993  -0.0451   0.3202   0.5423   0.5506   1.1771   1.1991
     1.2873   1.3675   1.5186   1.5649   1.6410   1.6691   1.9397   2.0974
     2.2447   2.3962   2.4127   2.5018   2.5454   2.5700   2.6651   2.6964
     2.9454   3.0014   3.1953   3.3060   3.3722   3.4659   3.5254   3.5972
     3.7642   3.8514   4.0754   4.1623   4.2748   4.3222   4.3962   4.4854
     4.5123   4.6836   4.6956   4.7446   4.8779   4.9158   5.0923   5.1272
     5.2038   5.4205   5.6290   5.7952   6.0096   6.1765   6.2794   6.4085
    11.1530  13.1916  13.3232  14.0302  14.2775  14.3704  15.0659  15.1348
    15.2515  15.4012

     occupation numbers 
     1.0000   1.0000   1.0000   1.0000   1.0000   1.0000   1.0000   1.0000
     1.0000   1.0000   1.0000   1.0000   1.0000   1.0000   1.0000   1.0000
     1.0000   1.0000   1.0000   1.0000   1.0000   1.0000   1.0000   1.0000
     1.0000   1.0000   1.0000   1.0000   1.0000   1.0000   1.0000   1.0000
     1.0000   1.0000   1.0000   1.0000   1.0000   1.0000   1.0000   1.0000
     1.0000   1.0000   1.0000   1.0000   1.0000   1.0000   1.0000   1.0000
     1.0000   1.0000   1.0000   1.0000   1.0000   1.0000   1.0000   1.0000
     1.0000   1.0000   1.0000   1.0000   1.0000   1.0000   1.0000   1.0000
     1.0000   1.0000   1.0000   1.0000   1.0000   1.0000   1.0000   1.0000
     1.0000   1.0000   1.0000   1.0000   1.0000   1.0000   1.0000   1.0000
     1.0000   1.0000   1.0000   1.0000   1.0000   1.0000   1.0000   1.0000
     1.0000   1.0000   1.0000   1.0000   1.0000   1.0000   1.0000   1.0000
     1.0000   1.0000   1.0000   1.0000   1.0000   1.0000   1.0000   1.0000
     0.0000   0.0000   0.0000   0.0000   0.0000   0.0000   0.0000   0.0000
     0.0000   0.0000

          k = 0.0000 0.0000 0.4441 ( 32914 PWs)   bands (ev):

   -83.7741 -83.7449 -83.7426 -83.3392 -49.9206 -49.8599 -49.8271 -49.7326
   -49.7300 -49.7028 -49.6907 -49.6734 -49.6609 -49.6466 -49.2907 -49.1214
   -43.8495 -16.0127 -15.9035 -15.8266 -15.7435 -15.5359 -15.3656 -15.2699
   -13.3033 -13.1499 -13.0252 -12.9567 -12.7416 -12.6819 -12.6436 -12.6215
   -12.5490 -12.4598 -12.4357 -12.3387  -3.1187  -2.6891  -2.5328  -2.1478
    -1.3649  -1.1002  -1.0478  -0.8622  -0.8424  -0.6968  -0.5109  -0.2974
    -0.2166  -0.1583  -0.0166   0.4037   0.4352   0.5972   1.1439   1.2319
     1.3161   1.3882   1.5415   1.5833   1.6584   1.6712   1.8411   2.1643
     2.2211   2.3358   2.3549   2.3982   2.4794   2.5150   2.6064   2.6990
     2.8181   3.0139   3.2102   3.2617   3.3914   3.3958   3.4832   3.6534
     3.6922   3.8527   4.1052   4.1639   4.2121   4.3321   4.3612   4.4191
     4.5367   4.5856   4.6763   4.8021   4.9531   4.9804   5.1277   5.2200
     5.3437   5.3865   5.7023   5.7797   5.9937   6.1219   6.1902   6.3307
    11.5735  13.3918  13.5469  14.0777  14.3210  14.4075  14.8494  14.9187
    15.1502  15.2422

     occupation numbers 
     1.0000   1.0000   1.0000   1.0000   1.0000   1.0000   1.0000   1.0000
     1.0000   1.0000   1.0000   1.0000   1.0000   1.0000   1.0000   1.0000
     1.0000   1.0000   1.0000   1.0000   1.0000   1.0000   1.0000   1.0000
     1.0000   1.0000   1.0000   1.0000   1.0000   1.0000   1.0000   1.0000
     1.0000   1.0000   1.0000   1.0000   1.0000   1.0000   1.0000   1.0000
     1.0000   1.0000   1.0000   1.0000   1.0000   1.0000   1.0000   1.0000
     1.0000   1.0000   1.0000   1.0000   1.0000   1.0000   1.0000   1.0000
     1.0000   1.0000   1.0000   1.0000   1.0000   1.0000   1.0000   1.0000
     1.0000   1.0000   1.0000   1.0000   1.0000   1.0000   1.0000   1.0000
     1.0000   1.0000   1.0000   1.0000   1.0000   1.0000   1.0000   1.0000
     1.0000   1.0000   1.0000   1.0000   1.0000   1.0000   1.0000   1.0000
     1.0000   1.0000   1.0000   1.0000   1.0000   1.0000   1.0000   1.0000
     1.0000   1.0000   1.0000   1.0000   1.0000   1.0000   1.0000   1.0000
     0.0000   0.0000   0.0000   0.0000   0.0000   0.0000   0.0000   0.0000
     0.0000   0.0000

          k = 0.0000 0.0000 0.6661 ( 32938 PWs)   bands (ev):

   -83.7741 -83.7449 -83.7426 -83.3392 -49.9206 -49.8599 -49.8271 -49.7326
   -49.7300 -49.7028 -49.6907 -49.6734 -49.6609 -49.6466 -49.2907 -49.1214
   -43.8495 -16.0431 -15.9014 -15.8247 -15.7061 -15.4935 -15.3478 -15.2791
   -13.3085 -13.1501 -13.0493 -12.9567 -12.7270 -12.7059 -12.6381 -12.6293
   -12.5611 -12.4920 -12.4492 -12.3677  -2.9965  -2.6850  -2.5069  -2.2458
    -1.1946  -1.0916  -0.9876  -0.8677  -0.7827  -0.7015  -0.5025  -0.3794
    -0.1742  -0.0464   0.0880   0.2592   0.5561   0.7107   1.1077   1.2938
     1.3681   1.3843   1.5171   1.6061   1.6374   1.7038   1.7461   2.1018
     2.2251   2.2426   2.3143   2.3545   2.4480   2.4720   2.5138   2.5709
     2.7207   2.8527   3.1961   3.2246   3.2899   3.4729   3.5928   3.6290
     3.7453   3.8831   3.9441   4.0933   4.2068   4.2520   4.3596   4.3981
     4.5427   4.5540   4.7282   4.8537   5.0308   5.0709   5.2414   5.3136
     5.3253   5.5332   5.7502   5.8010   5.9715   6.0443   6.0650   6.2026
    12.1579  13.6452  13.8148  14.1189  14.2441  14.5250  14.6644  14.7660
    14.9077  15.0004

     occupation numbers 
     1.0000   1.0000   1.0000   1.0000   1.0000   1.0000   1.0000   1.0000
     1.0000   1.0000   1.0000   1.0000   1.0000   1.0000   1.0000   1.0000
     1.0000   1.0000   1.0000   1.0000   1.0000   1.0000   1.0000   1.0000
     1.0000   1.0000   1.0000   1.0000   1.0000   1.0000   1.0000   1.0000
     1.0000   1.0000   1.0000   1.0000   1.0000   1.0000   1.0000   1.0000
     1.0000   1.0000   1.0000   1.0000   1.0000   1.0000   1.0000   1.0000
     1.0000   1.0000   1.0000   1.0000   1.0000   1.0000   1.0000   1.0000
     1.0000   1.0000   1.0000   1.0000   1.0000   1.0000   1.0000   1.0000
     1.0000   1.0000   1.0000   1.0000   1.0000   1.0000   1.0000   1.0000
     1.0000   1.0000   1.0000   1.0000   1.0000   1.0000   1.0000   1.0000
     1.0000   1.0000   1.0000   1.0000   1.0000   1.0000   1.0000   1.0000
     1.0000   1.0000   1.0000   1.0000   1.0000   1.0000   1.0000   1.0000
     1.0000   1.0000   1.0000   1.0000   1.0000   1.0000   1.0000   1.0000
     0.0000   0.0000   0.0000   0.0000   0.0000   0.0000   0.0000   0.0000
     0.0000   0.0000

          k = 0.0000 0.0000 0.8882 ( 32928 PWs)   bands (ev):

   -83.7741 -83.7449 -83.7426 -83.3392 -49.9206 -49.8599 -49.8271 -49.7326
   -49.7300 -49.7028 -49.6907 -49.6734 -49.6609 -49.6466 -49.2907 -49.1214
   -43.8495 -16.0612 -15.8980 -15.8234 -15.6857 -15.4598 -15.3338 -15.2926
   -13.3127 -13.1504 -13.0645 -12.9584 -12.7222 -12.7134 -12.6484 -12.6229
   -12.5691 -12.5111 -12.4594 -12.3866  -2.8676  -2.7278  -2.4733  -2.3349
    -1.1506  -1.0488  -0.9272  -0.8529  -0.6898  -0.6801  -0.5320  -0.5184
    -0.0722   0.0598   0.0821   0.1625   0.7359   0.9165   1.0695   1.2068
     1.3798   1.4463   1.4915   1.5603   1.5748   1.6484   1.7961   1.9718
     2.1543   2.2569   2.2651   2.3238   2.3333   2.4597   2.5089   2.5638
     2.7720   2.8120   3.0196   3.0434   3.3429   3.5013   3.6213   3.7126
     3.8486   3.8715   3.9226   4.0027   4.0962   4.1650   4.3757   4.4047
     4.5409   4.5488   4.8125   4.9070   5.0537   5.0719   5.2560   5.3573
     5.5176   5.7171   5.7667   5.8234   5.8415   5.9746   6.0217   6.0566
    12.8090  13.4471  13.9296  14.2083  14.3322  14.5570  14.6391  14.7311
    14.7828  14.8961

     occupation numbers 
     1.0000   1.0000   1.0000   1.0000   1.0000   1.0000   1.0000   1.0000
     1.0000   1.0000   1.0000   1.0000   1.0000   1.0000   1.0000   1.0000
     1.0000   1.0000   1.0000   1.0000   1.0000   1.0000   1.0000   1.0000
     1.0000   1.0000   1.0000   1.0000   1.0000   1.0000   1.0000   1.0000
     1.0000   1.0000   1.0000   1.0000   1.0000   1.0000   1.0000   1.0000
     1.0000   1.0000   1.0000   1.0000   1.0000   1.0000   1.0000   1.0000
     1.0000   1.0000   1.0000   1.0000   1.0000   1.0000   1.0000   1.0000
     1.0000   1.0000   1.0000   1.0000   1.0000   1.0000   1.0000   1.0000
     1.0000   1.0000   1.0000   1.0000   1.0000   1.0000   1.0000   1.0000
     1.0000   1.0000   1.0000   1.0000   1.0000   1.0000   1.0000   1.0000
     1.0000   1.0000   1.0000   1.0000   1.0000   1.0000   1.0000   1.0000
     1.0000   1.0000   1.0000   1.0000   1.0000   1.0000   1.0000   1.0000
     1.0000   1.0000   1.0000   1.0000   1.0000   1.0000   1.0000   1.0000
     0.0000   0.0000   0.0000   0.0000   0.0000   0.0000   0.0000   0.0000
     0.0000   0.0000

          k = 0.0000 0.2391 0.0000 ( 32913 PWs)   bands (ev):

   -83.7741 -83.7449 -83.7426 -83.3392 -49.9206 -49.8599 -49.8271 -49.7326
   -49.7300 -49.7028 -49.6907 -49.6734 -49.6609 -49.6466 -49.2907 -49.1214
   -43.8495 -15.9753 -15.8677 -15.8403 -15.7992 -15.5726 -15.3823 -15.2888
   -13.3019 -13.1506 -13.0118 -12.9686 -12.7615 -12.6922 -12.6178 -12.6053
   -12.5263 -12.4239 -12.4071 -12.2985  -3.2064  -2.7500  -2.5165  -2.0638
    -1.5512  -1.1648  -1.0573  -0.8843  -0.8236  -0.6528  -0.4896  -0.4508
    -0.2485  -0.1349   0.0495   0.3207   0.4653   0.6300   1.1536   1.2245
     1.2537   1.3355   1.4049   1.5140   1.5411   1.7776   2.0225   2.0965
     2.2860   2.4163   2.4348   2.4997   2.5542   2.5846   2.6409   2.6745
     2.8477   3.0252   3.2619   3.3437   3.3715   3.5023   3.5424   3.5818
     3.8220   3.8954   3.9610   4.1153   4.1777   4.2965   4.4280   4.4666
     4.5179   4.6063   4.7054   4.8114   4.8901   4.9525   5.0481   5.1313
     5.1555   5.4040   5.6806   5.7426   5.9723   6.0960   6.4240   6.4818
    11.1553  13.1984  13.3306  13.9493  14.2841  14.4829  15.0619  15.1619
    15.3235  15.4030

     occupation numbers 
     1.0000   1.0000   1.0000   1.0000   1.0000   1.0000   1.0000   1.0000
     1.0000   1.0000   1.0000   1.0000   1.0000   1.0000   1.0000   1.0000
     1.0000   1.0000   1.0000   1.0000   1.0000   1.0000   1.0000   1.0000
     1.0000   1.0000   1.0000   1.0000   1.0000   1.0000   1.0000   1.0000
     1.0000   1.0000   1.0000   1.0000   1.0000   1.0000   1.0000   1.0000
     1.0000   1.0000   1.0000   1.0000   1.0000   1.0000   1.0000   1.0000
     1.0000   1.0000   1.0000   1.0000   1.0000   1.0000   1.0000   1.0000
     1.0000   1.0000   1.0000   1.0000   1.0000   1.0000   1.0000   1.0000
     1.0000   1.0000   1.0000   1.0000   1.0000   1.0000   1.0000   1.0000
     1.0000   1.0000   1.0000   1.0000   1.0000   1.0000   1.0000   1.0000
     1.0000   1.0000   1.0000   1.0000   1.0000   1.0000   1.0000   1.0000
     1.0000   1.0000   1.0000   1.0000   1.0000   1.0000   1.0000   1.0000
     1.0000   1.0000   1.0000   1.0000   1.0000   1.0000   1.0000   1.0000
     0.0000   0.0000   0.0000   0.0000   0.0000   0.0000   0.0000   0.0000
     0.0000   0.0000

          k = 0.0000 0.2391 0.2220 ( 32922 PWs)   bands (ev):

   -83.7741 -83.7449 -83.7426 -83.3392 -49.9206 -49.8599 -49.8271 -49.7326
   -49.7300 -49.7028 -49.6907 -49.6734 -49.6609 -49.6466 -49.2907 -49.1214
   -43.8495 -15.9872 -15.8894 -15.8324 -15.7693 -15.5580 -15.3778 -15.2907
   -13.3029 -13.1505 -13.0210 -12.9657 -12.7626 -12.6919 -12.6249 -12.6134
   -12.5284 -12.4280 -12.4139 -12.3069  -3.1774  -2.7352  -2.5156  -2.0830
    -1.4973  -1.1420  -1.0596  -0.8755  -0.8153  -0.6711  -0.5005  -0.3830
    -0.2365  -0.1084  -0.0010   0.3324   0.4534   0.6308   1.1301   1.2219
     1.2658   1.3390   1.4493   1.5290   1.5449   1.7701   2.0430   2.0777
     2.2299   2.3720   2.4080   2.4950   2.5373   2.5673   2.6230   2.6655
     2.9594   3.0106   3.1948   3.3222   3.3786   3.4713   3.5080   3.5836
     3.7810   3.8945   3.9904   4.1514   4.1973   4.2775   4.4053   4.4335
     4.4787   4.6156   4.7208   4.8018   4.8792   4.9670   5.0916   5.1477
     5.2024   5.3951   5.7079   5.7429   5.9467   6.0847   6.4016   6.4628
    11.3044  13.2735  13.4121  13.9912  14.3034  14.4580  14.9822  15.1213
    15.2565  15.3252

     occupation numbers 
     1.0000   1.0000   1.0000   1.0000   1.0000   1.0000   1.0000   1.0000
     1.0000   1.0000   1.0000   1.0000   1.0000   1.0000   1.0000   1.0000
     1.0000   1.0000   1.0000   1.0000   1.0000   1.0000   1.0000   1.0000
     1.0000   1.0000   1.0000   1.0000   1.0000   1.0000   1.0000   1.0000
     1.0000   1.0000   1.0000   1.0000   1.0000   1.0000   1.0000   1.0000
     1.0000   1.0000   1.0000   1.0000   1.0000   1.0000   1.0000   1.0000
     1.0000   1.0000   1.0000   1.0000   1.0000   1.0000   1.0000   1.0000
     1.0000   1.0000   1.0000   1.0000   1.0000   1.0000   1.0000   1.0000
     1.0000   1.0000   1.0000   1.0000   1.0000   1.0000   1.0000   1.0000
     1.0000   1.0000   1.0000   1.0000   1.0000   1.0000   1.0000   1.0000
     1.0000   1.0000   1.0000   1.0000   1.0000   1.0000   1.0000   1.0000
     1.0000   1.0000   1.0000   1.0000   1.0000   1.0000   1.0000   1.0000
     1.0000   1.0000   1.0000   1.0000   1.0000   1.0000   1.0000   1.0000
     0.0000   0.0000   0.0000   0.0000   0.0000   0.0000   0.0000   0.0000
     0.0000   0.0000

          k = 0.0000 0.2391 0.4441 ( 32913 PWs)   bands (ev):

   -83.7741 -83.7449 -83.7426 -83.3392 -49.9206 -49.8599 -49.8271 -49.7326
   -49.7300 -49.7028 -49.6907 -49.6734 -49.6609 -49.6466 -49.2907 -49.1214
   -43.8495 -16.0138 -15.9003 -15.8296 -15.7271 -15.5213 -15.3666 -15.2915
   -13.3058 -13.1509 -13.0395 -12.9619 -12.7668 -12.6973 -12.6375 -12.6296
   -12.5347 -12.4417 -12.4287 -12.3290  -3.0953  -2.7042  -2.5083  -2.1462
    -1.3486  -1.1003  -1.0465  -0.8675  -0.7867  -0.6898  -0.4993  -0.2656
    -0.2006  -0.1182  -0.0230   0.3216   0.4612   0.6378   1.0837   1.2384
     1.2626   1.3635   1.5167   1.5564   1.6169   1.7346   1.9700   2.1271
     2.1647   2.3013   2.3560   2.4306   2.4839   2.5310   2.5864   2.6600
     2.8394   3.0143   3.2108   3.2967   3.3532   3.4144   3.4626   3.6005
     3.7071   3.8983   4.0864   4.1319   4.1759   4.2283   4.3534   4.4158
     4.4489   4.6210   4.7250   4.8177   4.8729   5.0474   5.1302   5.2188
     5.3274   5.3673   5.6823   5.8110   5.8847   6.0674   6.3405   6.4091
    11.7108  13.4716  13.6334  14.1017  14.3582  14.4354  14.7986  14.9203
    15.1058  15.2779

     occupation numbers 
     1.0000   1.0000   1.0000   1.0000   1.0000   1.0000   1.0000   1.0000
     1.0000   1.0000   1.0000   1.0000   1.0000   1.0000   1.0000   1.0000
     1.0000   1.0000   1.0000   1.0000   1.0000   1.0000   1.0000   1.0000
     1.0000   1.0000   1.0000   1.0000   1.0000   1.0000   1.0000   1.0000
     1.0000   1.0000   1.0000   1.0000   1.0000   1.0000   1.0000   1.0000
     1.0000   1.0000   1.0000   1.0000   1.0000   1.0000   1.0000   1.0000
     1.0000   1.0000   1.0000   1.0000   1.0000   1.0000   1.0000   1.0000
     1.0000   1.0000   1.0000   1.0000   1.0000   1.0000   1.0000   1.0000
     1.0000   1.0000   1.0000   1.0000   1.0000   1.0000   1.0000   1.0000
     1.0000   1.0000   1.0000   1.0000   1.0000   1.0000   1.0000   1.0000
     1.0000   1.0000   1.0000   1.0000   1.0000   1.0000   1.0000   1.0000
     1.0000   1.0000   1.0000   1.0000   1.0000   1.0000   1.0000   1.0000
     1.0000   1.0000   1.0000   1.0000   1.0000   1.0000   1.0000   1.0000
     0.0000   0.0000   0.0000   0.0000   0.0000   0.0000   0.0000   0.0000
     0.0000   0.0000

          k = 0.0000 0.2391 0.6661 ( 32939 PWs)   bands (ev):

   -83.7741 -83.7449 -83.7426 -83.3392 -49.9206 -49.8599 -49.8271 -49.7326
   -49.7300 -49.7028 -49.6907 -49.6734 -49.6609 -49.6466 -49.2907 -49.1214
   -43.8495 -16.0415 -15.8994 -15.8274 -15.6940 -15.4755 -15.3549 -15.2940
   -13.3105 -13.1519 -13.0588 -12.9602 -12.7728 -12.7060 -12.6621 -12.6332
   -12.5408 -12.4633 -12.4384 -12.3546  -2.9758  -2.6890  -2.4911  -2.2432
    -1.1812  -1.0817  -0.9803  -0.8708  -0.7310  -0.6863  -0.4900  -0.3357
    -0.1588  -0.0533   0.0895   0.2259   0.5543   0.6902   1.0266   1.2026
     1.3051   1.4337   1.5361   1.6122   1.6699   1.7581   1.8675   2.0796
     2.1328   2.2374   2.3047   2.3835   2.4321   2.5031   2.5249   2.5705
     2.6775   2.8468   3.1583   3.2523   3.3173   3.4728   3.5372   3.6426
     3.6691   3.8908   4.0098   4.1131   4.1502   4.2213   4.2598   4.4342
     4.4682   4.5829   4.7630   4.8701   4.9859   5.0752   5.1852   5.3018
     5.3236   5.4764   5.6506   5.7797   5.9192   6.0513   6.2516   6.3312
    12.2795  13.7223  13.8963  14.2043  14.2993  14.5499  14.6539  14.7198
    14.9047  14.9581

     occupation numbers 
     1.0000   1.0000   1.0000   1.0000   1.0000   1.0000   1.0000   1.0000
     1.0000   1.0000   1.0000   1.0000   1.0000   1.0000   1.0000   1.0000
     1.0000   1.0000   1.0000   1.0000   1.0000   1.0000   1.0000   1.0000
     1.0000   1.0000   1.0000   1.0000   1.0000   1.0000   1.0000   1.0000
     1.0000   1.0000   1.0000   1.0000   1.0000   1.0000   1.0000   1.0000
     1.0000   1.0000   1.0000   1.0000   1.0000   1.0000   1.0000   1.0000
     1.0000   1.0000   1.0000   1.0000   1.0000   1.0000   1.0000   1.0000
     1.0000   1.0000   1.0000   1.0000   1.0000   1.0000   1.0000   1.0000
     1.0000   1.0000   1.0000   1.0000   1.0000   1.0000   1.0000   1.0000
     1.0000   1.0000   1.0000   1.0000   1.0000   1.0000   1.0000   1.0000
     1.0000   1.0000   1.0000   1.0000   1.0000   1.0000   1.0000   1.0000
     1.0000   1.0000   1.0000   1.0000   1.0000   1.0000   1.0000   1.0000
     1.0000   1.0000   1.0000   1.0000   1.0000   1.0000   1.0000   1.0000
     0.0000   0.0000   0.0000   0.0000   0.0000   0.0000   0.0000   0.0000
     0.0000   0.0000

          k = 0.0000 0.2391 0.8882 ( 32940 PWs)   bands (ev):

   -83.7741 -83.7449 -83.7426 -83.3392 -49.9206 -49.8599 -49.8271 -49.7326
   -49.7300 -49.7028 -49.6907 -49.6734 -49.6609 -49.6466 -49.2907 -49.1214
   -43.8495 -16.0571 -15.8971 -15.8262 -15.6753 -15.4480 -15.3422 -15.2990
   -13.3146 -13.1531 -13.0711 -12.9597 -12.7770 -12.7144 -12.6763 -12.6337
   -12.5426 -12.4796 -12.4429 -12.3724  -2.8524  -2.7174  -2.4680  -2.3298
    -1.1294  -1.0362  -0.9201  -0.8572  -0.6716  -0.6339  -0.5062  -0.4799
    -0.0835   0.0229   0.0990   0.1900   0.6831   0.8385   0.9564   1.0706
     1.3790   1.5342   1.5486   1.6193   1.6792   1.7215   1.8362   1.9625
     2.0909   2.2209   2.2810   2.3075   2.3771   2.4280   2.5000   2.5406
     2.7050   2.8229   2.9679   3.1092   3.3580   3.4922   3.6032   3.6582
     3.7761   3.9117   3.9336   4.0084   4.1238   4.1810   4.2579   4.4473
     4.4927   4.5563   4.8324   4.9067   5.0366   5.0871   5.2485   5.3185
     5.3611   5.5478   5.6468   5.7188   5.9801   6.0480   6.1706   6.2610
    12.9151  13.5503  14.0082  14.2791  14.3984  14.5829  14.6314  14.7189
    14.7646  14.9192

     occupation numbers 
     1.0000   1.0000   1.0000   1.0000   1.0000   1.0000   1.0000   1.0000
     1.0000   1.0000   1.0000   1.0000   1.0000   1.0000   1.0000   1.0000
     1.0000   1.0000   1.0000   1.0000   1.0000   1.0000   1.0000   1.0000
     1.0000   1.0000   1.0000   1.0000   1.0000   1.0000   1.0000   1.0000
     1.0000   1.0000   1.0000   1.0000   1.0000   1.0000   1.0000   1.0000
     1.0000   1.0000   1.0000   1.0000   1.0000   1.0000   1.0000   1.0000
     1.0000   1.0000   1.0000   1.0000   1.0000   1.0000   1.0000   1.0000
     1.0000   1.0000   1.0000   1.0000   1.0000   1.0000   1.0000   1.0000
     1.0000   1.0000   1.0000   1.0000   1.0000   1.0000   1.0000   1.0000
     1.0000   1.0000   1.0000   1.0000   1.0000   1.0000   1.0000   1.0000
     1.0000   1.0000   1.0000   1.0000   1.0000   1.0000   1.0000   1.0000
     1.0000   1.0000   1.0000   1.0000   1.0000   1.0000   1.0000   1.0000
     1.0000   1.0000   1.0000   1.0000   1.0000   1.0000   1.0000   1.0000
     0.0000   0.0000   0.0000   0.0000   0.0000   0.0000   0.0000   0.0000
     0.0000   0.0000

          k = 0.0000 0.4781 0.0000 ( 32886 PWs)   bands (ev):

   -83.7741 -83.7449 -83.7426 -83.3392 -49.9206 -49.8599 -49.8271 -49.7326
   -49.7300 -49.7028 -49.6907 -49.6734 -49.6609 -49.6466 -49.2907 -49.1214
   -43.8495 -15.9749 -15.8667 -15.8453 -15.7485 -15.5567 -15.3756 -15.3447
   -13.3066 -13.1487 -13.0719 -12.9720 -12.7608 -12.7054 -12.6291 -12.6097
   -12.5046 -12.4087 -12.3917 -12.2914  -3.1376  -2.8118  -2.4312  -2.0914
    -1.4766  -1.1925  -1.0678  -0.9106  -0.7205  -0.6308  -0.4613  -0.3974
    -0.1897  -0.0606   0.1210   0.3385   0.4152   0.7115   1.0320   1.0983
     1.2945   1.3119   1.3563   1.4197   1.5215   1.8787   1.9400   2.1718
     2.2110   2.2444   2.3318   2.4013   2.5974   2.6211   2.7127   2.7578
     2.9587   3.0135   3.2473   3.2960   3.3457   3.4201   3.5305   3.6295
     3.8235   3.8527   3.9257   4.0271   4.1569   4.2481   4.3306   4.3729
     4.4597   4.5256   4.8272   4.8721   4.9399   4.9789   5.0604   5.1674
     5.2035   5.3572   5.5268   5.6912   5.9104   6.2366   6.4938   6.5306
    11.5851  13.4002  13.5490  13.5717  14.4927  14.6977  14.9124  14.9717
    15.2836  15.4463

     occupation numbers 
     1.0000   1.0000   1.0000   1.0000   1.0000   1.0000   1.0000   1.0000
     1.0000   1.0000   1.0000   1.0000   1.0000   1.0000   1.0000   1.0000
     1.0000   1.0000   1.0000   1.0000   1.0000   1.0000   1.0000   1.0000
     1.0000   1.0000   1.0000   1.0000   1.0000   1.0000   1.0000   1.0000
     1.0000   1.0000   1.0000   1.0000   1.0000   1.0000   1.0000   1.0000
     1.0000   1.0000   1.0000   1.0000   1.0000   1.0000   1.0000   1.0000
     1.0000   1.0000   1.0000   1.0000   1.0000   1.0000   1.0000   1.0000
     1.0000   1.0000   1.0000   1.0000   1.0000   1.0000   1.0000   1.0000
     1.0000   1.0000   1.0000   1.0000   1.0000   1.0000   1.0000   1.0000
     1.0000   1.0000   1.0000   1.0000   1.0000   1.0000   1.0000   1.0000
     1.0000   1.0000   1.0000   1.0000   1.0000   1.0000   1.0000   1.0000
     1.0000   1.0000   1.0000   1.0000   1.0000   1.0000   1.0000   1.0000
     1.0000   1.0000   1.0000   1.0000   1.0000   1.0000   1.0000   1.0000
     0.0000   0.0000   0.0000   0.0000   0.0000   0.0000   0.0000   0.0000
     0.0000   0.0000

          k = 0.0000 0.4781 0.2220 ( 32900 PWs)   bands (ev):

   -83.7741 -83.7449 -83.7426 -83.3392 -49.9206 -49.8599 -49.8271 -49.7326
   -49.7300 -49.7028 -49.6907 -49.6734 -49.6609 -49.6466 -49.2907 -49.1214
   -43.8495 -15.9852 -15.8832 -15.8399 -15.7249 -15.5380 -15.3760 -15.3429
   -13.3071 -13.1488 -13.0745 -12.9722 -12.7723 -12.7077 -12.6349 -12.6209
   -12.5046 -12.4092 -12.3962 -12.2974  -3.1098  -2.7938  -2.4342  -2.1056
    -1.4313  -1.1663  -1.0610  -0.8991  -0.7149  -0.6393  -0.4443  -0.3662
    -0.1441  -0.0749   0.0754   0.2880   0.4445   0.7091   1.0092   1.0770
     1.2483   1.3666   1.4048   1.4531   1.5500   1.8684   1.9635   2.1175
     2.1628   2.2152   2.3371   2.3896   2.5882   2.6234   2.6960   2.7657
     2.9720   3.0569   3.1851   3.2937   3.3666   3.4268   3.5019   3.5853
     3.7735   3.8440   3.9429   4.0184   4.1585   4.2305   4.3163   4.3581
     4.4232   4.5518   4.8190   4.8977   4.9315   5.0019   5.0863   5.1961
     5.2119   5.3534   5.5051   5.6677   5.9433   6.2309   6.4796   6.5234
    11.7179  13.4668  13.5968  13.6855  14.5070  14.6759  14.8271  15.0000
    15.1895  15.3062

     occupation numbers 
     1.0000   1.0000   1.0000   1.0000   1.0000   1.0000   1.0000   1.0000
     1.0000   1.0000   1.0000   1.0000   1.0000   1.0000   1.0000   1.0000
     1.0000   1.0000   1.0000   1.0000   1.0000   1.0000   1.0000   1.0000
     1.0000   1.0000   1.0000   1.0000   1.0000   1.0000   1.0000   1.0000
[...]
     atom   24 type  3   force =     0.03715537   -0.08255828   -0.03417665
     atom   25 type  3   force =    -0.03863293    0.08866624   -0.03765747
     The non-local contrib.  to forces
     atom    1 type  2   force =     0.11601013    0.04374248    0.01955438
     atom    2 type  1   force =     0.03012968    0.01467953    0.16693820
     atom    3 type  1   force =     0.07317234    0.00014896    0.14208213
     atom    4 type  1   force =    -0.14808377   -0.04118431   -0.12101802
     atom    5 type  1   force =    -0.05816643    0.00878835   -0.14464506
     atom    6 type  4   force =     0.01854795    0.00100931    0.05730533
     atom    7 type  4   force =     0.00579736   -0.00369695    0.08690685
     atom    8 type  4   force =    -0.03697775    0.00545854   -0.06086742
     atom    9 type  4   force =     0.04792958   -0.00065567   -0.05020114
     atom   10 type  3   force =     0.27933295   -0.00989168   -1.44895960
     atom   11 type  3   force =    -0.09363903   -0.00881479   -1.36819445
     atom   12 type  3   force =    -0.36501904    0.01417720    1.45382614
     atom   13 type  3   force =     0.20587849   -0.01060971    1.44522350
     atom   14 type  3   force =     1.18471371   -0.00830671   -0.62940119
     atom   15 type  3   force =    -1.15963502    0.00996164   -0.79692928
     atom   16 type  3   force =    -1.17137381   -0.01319814    0.33445838
     atom   17 type  3   force =     1.13734158   -0.00451624    0.63892331
     atom   18 type  3   force =    -0.52993723   -1.02615034    0.82690720
     atom   19 type  3   force =     0.52427126    1.09868112    0.84517243
     atom   20 type  3   force =     0.53415911   -1.02812530   -0.73296734
     atom   21 type  3   force =    -0.53139657    0.99844203   -0.78075757
     atom   22 type  3   force =     0.57509412    1.03901691   -0.75993737
     atom   23 type  3   force =    -0.58830338   -0.99917279   -0.70098335
     atom   24 type  3   force =    -0.52685013    1.02156150    0.83085336
     atom   25 type  3   force =     0.55101219   -1.07756616    0.86771440
     The ionic contribution  to forces
     atom    1 type  2   force =    -3.40830962    0.47016361    2.62723528
     atom    2 type  1   force =    -1.89249277   -0.06051370   -0.29172195
     atom    3 type  1   force =    -7.01383001    0.37074276   -0.41057837
     atom    4 type  1   force =     5.29121873    0.39711596   -0.49304348
     atom    5 type  1   force =     7.16569669   -0.62878110    0.56728383
     atom    6 type  4   force =    -2.87958725   -0.01499482    1.02896161
     atom    7 type  4   force =     0.13720994    0.35668971    1.17864435
     atom    8 type  4   force =     4.70379238   -0.01180288   -1.28805286
     atom    9 type  4   force =    -2.06926007   -0.44133825   -1.52407838
     atom   10 type  3   force =   -10.65707578    0.03770170    2.47593031
     atom   11 type  3   force =     4.01956137    0.75679075    0.76222546
     atom   12 type  3   force =    12.67177984   -0.15619013   -2.67230945
     atom   13 type  3   force =    -8.70395336   -0.51551991   -1.82733469
     atom   14 type  3   force =     0.62326301   -0.54078717    6.11728345
     atom   15 type  3   force =    -2.00356066   -0.08067550    7.88853713
     atom   16 type  3   force =    -1.93831378    0.83165948   -3.16754082
     atom   17 type  3   force =     3.75960386    0.07494939   -6.95756084
     atom   18 type  3   force =    -4.06261739    2.70058304   -3.63204635
     atom   19 type  3   force =     0.52879045   -4.21033339   -2.86821840
     atom   20 type  3   force =     5.28735936    4.11352991    2.93931472
     atom   21 type  3   force =    -1.66081411   -1.53765054    2.47688921
     atom   22 type  3   force =     5.29016682   -4.20054546    3.26378169
     atom   23 type  3   force =    -0.10027844    1.05901351    0.84649446
     atom   24 type  3   force =    -3.93117781   -2.61541912   -3.67917626
     atom   25 type  3   force =     0.84282860    3.84561216   -3.36091961
     The local contribution  to forces
     atom    1 type  2   force =     3.30071947   -0.51409725   -2.63487548
     atom    2 type  1   force =     1.84363900    0.04889114    0.12368458
     atom    3 type  1   force =     6.96680633   -0.37088649    0.26408433
     atom    4 type  1   force =    -5.14502211   -0.36065916    0.61761714
     atom    5 type  1   force =    -7.13271434    0.62125817   -0.42103102
     atom    6 type  4   force =     2.91227786    0.01526288   -0.99897568
     atom    7 type  4   force =    -0.17540267   -0.35582623   -1.17479781
     atom    8 type  4   force =    -4.71843966    0.00833996    1.25343755
     atom    9 type  4   force =     2.07928698    0.44177043    1.48972316
     atom   10 type  3   force =    10.35236588   -0.02720144   -1.05310826
     atom   11 type  3   force =    -3.91464778   -0.74615861    0.58105397
     atom   12 type  3   force =   -12.28208480    0.14189533    1.24716081
     atom   13 type  3   force =     8.47372955    0.52598256    0.40410235
     atom   14 type  3   force =    -1.91717177    0.55065238   -5.45862954
     atom   15 type  3   force =     3.26824312    0.06975806   -7.05459058
     atom   16 type  3   force =     3.21642511   -0.81814130    2.81176355
     atom   17 type  3   force =    -4.99589744   -0.06981442    6.28846107
     atom   18 type  3   force =     4.62566314   -1.59956488    2.77820280
     atom   19 type  3   force =    -1.08525423    3.03142779    1.99360153
     atom   20 type  3   force =    -5.85399902   -3.00742758   -2.18532027
     atom   21 type  3   force =     2.22155416    0.46396747   -1.66830843
     atom   22 type  3   force =    -5.90138050    3.08312756   -2.48239425
     atom   23 type  3   force =     0.72413463    0.01185587   -0.12305060
     atom   24 type  3   force =     4.49119727    1.51891276    2.82104066
     atom   25 type  3   force =    -1.42832580   -2.68739768    2.46273963
     The core correction contribution to forces
     atom    1 type  2   force =     0.00000000    0.00000000    0.00000000
     atom    2 type  1   force =    -0.00034283   -0.00019295   -0.00016288
     atom    3 type  1   force =    -0.00036886    0.00001976    0.00062532
     atom    4 type  1   force =     0.00326313    0.00047280   -0.00084093
     atom    5 type  1   force =     0.00064170   -0.00010739   -0.00003946
     atom    6 type  4   force =    -0.00184859   -0.00009626   -0.00673007
     atom    7 type  4   force =     0.00063038    0.00015442   -0.00890489
     atom    8 type  4   force =     0.00249701   -0.00032614    0.00728664
     atom    9 type  4   force =    -0.00405350    0.00033063    0.00644385
     atom   10 type  3   force =    -0.00274157    0.00008462    0.01265299
     atom   11 type  3   force =     0.00133883    0.00005024    0.01183955
     atom   12 type  3   force =     0.00352475   -0.00013559   -0.01267898
     atom   13 type  3   force =    -0.00212384    0.00009235   -0.01254327
     atom   14 type  3   force =    -0.00823775    0.00006575    0.00543146
     atom   15 type  3   force =     0.00809474   -0.00007440    0.00673470
     atom   16 type  3   force =     0.00809072    0.00008983   -0.00294125
     atom   17 type  3   force =    -0.00801738    0.00003135   -0.00546510
     atom   18 type  3   force =     0.00402140    0.00766481   -0.00685478
     atom   19 type  3   force =    -0.00393777   -0.00827386   -0.00699623
     atom   20 type  3   force =    -0.00407363    0.00767693    0.00603046
     atom   21 type  3   force =     0.00405222   -0.00745596    0.00651464
     atom   22 type  3   force =    -0.00440309   -0.00775898    0.00627683
     atom   23 type  3   force =     0.00444879    0.00756944    0.00585564
     atom   24 type  3   force =     0.00398937   -0.00761071   -0.00689656
     atom   25 type  3   force =    -0.00414935    0.00802359   -0.00718734
     The Hubbard contrib.    to forces
     atom    1 type  2   force =     0.00000000    0.00000000    0.00000000
     atom    2 type  1   force =     0.00000000    0.00000000    0.00000000
     atom    3 type  1   force =     0.00000000    0.00000000    0.00000000
     atom    4 type  1   force =     0.00000000    0.00000000    0.00000000
     atom    5 type  1   force =     0.00000000    0.00000000    0.00000000
     atom    6 type  4   force =     0.00000000    0.00000000    0.00000000
     atom    7 type  4   force =     0.00000000    0.00000000    0.00000000
     atom    8 type  4   force =     0.00000000    0.00000000    0.00000000
     atom    9 type  4   force =     0.00000000    0.00000000    0.00000000
     atom   10 type  3   force =     0.00000000    0.00000000    0.00000000
     atom   11 type  3   force =     0.00000000    0.00000000    0.00000000
     atom   12 type  3   force =     0.00000000    0.00000000    0.00000000
     atom   13 type  3   force =     0.00000000    0.00000000    0.00000000
     atom   14 type  3   force =     0.00000000    0.00000000    0.00000000
     atom   15 type  3   force =     0.00000000    0.00000000    0.00000000
     atom   16 type  3   force =     0.00000000    0.00000000    0.00000000
     atom   17 type  3   force =     0.00000000    0.00000000    0.00000000
     atom   18 type  3   force =     0.00000000    0.00000000    0.00000000
     atom   19 type  3   force =     0.00000000    0.00000000    0.00000000
     atom   20 type  3   force =     0.00000000    0.00000000    0.00000000
     atom   21 type  3   force =     0.00000000    0.00000000    0.00000000
     atom   22 type  3   force =     0.00000000    0.00000000    0.00000000
     atom   23 type  3   force =     0.00000000    0.00000000    0.00000000
     atom   24 type  3   force =     0.00000000    0.00000000    0.00000000
     atom   25 type  3   force =     0.00000000    0.00000000    0.00000000
     The SCF correction term to forces
     atom    1 type  2   force =     0.00000405    0.00000079   -0.00000047
     atom    2 type  1   force =     0.00000055   -0.00000014   -0.00000106
     atom    3 type  1   force =    -0.00000261    0.00000003    0.00000095
     atom    4 type  1   force =    -0.00000089   -0.00000005   -0.00000086
     atom    5 type  1   force =    -0.00000070   -0.00000012   -0.00000010
     atom    6 type  4   force =    -0.00000186   -0.00000003    0.00000051
     atom    7 type  4   force =     0.00000170    0.00000000   -0.00000003
     atom    8 type  4   force =    -0.00000154    0.00000006    0.00000079
     atom    9 type  4   force =     0.00000209   -0.00000008    0.00000022
     atom   10 type  3   force =    -0.00000659    0.00000003   -0.00000462
     atom   11 type  3   force =     0.00000107   -0.00000002   -0.00000024
     atom   12 type  3   force =    -0.00000420    0.00000010   -0.00000137
     atom   13 type  3   force =     0.00000253   -0.00000003    0.00000046
     atom   14 type  3   force =     0.00000855   -0.00000002    0.00000162
     atom   15 type  3   force =    -0.00000161    0.00000006   -0.00000024
     atom   16 type  3   force =     0.00000450   -0.00000003    0.00000100
     atom   17 type  3   force =    -0.00000258    0.00000000    0.00000030
     atom   18 type  3   force =    -0.00000318    0.00000269    0.00000397
     atom   19 type  3   force =     0.00000159    0.00000541   -0.00000269
     atom   20 type  3   force =    -0.00000217   -0.00000195    0.00000116
     atom   21 type  3   force =     0.00000188   -0.00000219   -0.00000098
     atom   22 type  3   force =    -0.00000211    0.00000202    0.00000112
     atom   23 type  3   force =     0.00000180    0.00000191   -0.00000088
     atom   24 type  3   force =    -0.00000317   -0.00000268    0.00000396
     atom   25 type  3   force =     0.00000159   -0.00000565   -0.00000274

     Total force =     0.417235     Total SCF correction =     0.000021


     Computing stress (Cartesian axis) and pressure


     negative rho (up, down):  0.000E+00 8.851E-04
          total   stress  (Ry/bohr**3)                   (kbar)     P=      170.99
   0.00161993  -0.00002759  -0.00002914          238.30       -4.06       -4.29
  -0.00002759   0.00126117   0.00002322           -4.06      185.52        3.42
  -0.00002914   0.00002322   0.00060606           -4.29        3.42       89.15

     kinetic stress (kbar)  29716.03      1.21    -12.00
                                1.21  29935.92      4.36
                              -12.00      4.36  29592.87

     local   stress (kbar)  -3804.03   1097.62   1289.13
                             1097.62 -14650.59   -388.47
                             1289.13   -388.47  -7943.44

     nonloc. stress (kbar)  -7607.16      1.73      4.22
                                1.73  -7536.86     -0.49
                                4.22     -0.49  -7566.93

     hartree stress (kbar)  13413.50   -437.45   -522.45
                             -437.45  19413.64    148.38
                             -522.45    148.38  16023.88

     exc-cor stress (kbar)  -3135.06     -0.72     -0.84
                               -0.72  -3143.48      0.33
                               -0.84      0.33  -3140.61

     corecor stress (kbar)  -3457.95      0.22      0.84
                                0.22  -3455.40     -0.05
                                0.84     -0.05  -3455.30

     ewald   stress (kbar) -24887.03   -666.67   -763.19
                             -666.67 -20377.71    239.35
                             -763.19    239.35 -23421.31

     hubbard stress (kbar)      0.00      0.00      0.00
                                0.00      0.00      0.00
                                0.00      0.00      0.00

     DFT-D   stress (kbar)      0.00      0.00      0.00
                                0.00      0.00      0.00
                                0.00      0.00      0.00

     XDM     stress (kbar)      0.00      0.00      0.00
                                0.00      0.00      0.00
                                0.00      0.00      0.00

     dft-nl  stress (kbar)      0.00      0.00      0.00
                                0.00      0.00      0.00
                                0.00      0.00      0.00

     TS-vdW  stress (kbar)      0.00      0.00      0.00
                                0.00      0.00      0.00
                                0.00      0.00      0.00



     init_run     :    153.35s CPU    156.52s WALL (       1 calls)
     electrons    :  12144.50s CPU  12320.43s WALL (       1 calls)
     forces       :     97.41s CPU     99.04s WALL (       1 calls)
     stress       :    677.42s CPU    681.67s WALL (       1 calls)

     Called by init_run:
     wfcinit      :    145.56s CPU    148.10s WALL (       1 calls)
     wfcinit:atom :      2.35s CPU      2.39s WALL (     316 calls)
     wfcinit:wfcr :    135.72s CPU    138.10s WALL (     316 calls)
     potinit      :      2.81s CPU      2.93s WALL (       1 calls)
     hinit0       :      2.92s CPU      2.99s WALL (       1 calls)

     Called by electrons:
     c_bands      :  10718.07s CPU  10842.53s WALL (      29 calls)
     sum_band     :   1358.56s CPU   1396.31s WALL (      29 calls)
     v_of_rho     :     18.00s CPU     19.15s WALL (      30 calls)
     v_h          :      0.79s CPU      0.85s WALL (      30 calls)
     v_xc         :     18.28s CPU     19.42s WALL (      32 calls)
     newd         :     33.78s CPU     46.31s WALL (      30 calls)
     PAW_pot      :     12.48s CPU     12.53s WALL (      30 calls)
     mix_rho      :      3.74s CPU      4.05s WALL (      29 calls)

     Called by c_bands:
     init_us_2    :    172.88s CPU    175.97s WALL (   19276 calls)
     cegterg      :  10409.35s CPU  10528.40s WALL (    9164 calls)

     Called by sum_band:
     sum_band:wei :      0.44s CPU      0.44s WALL (      29 calls)
     sum_band:loo :   1269.48s CPU   1291.52s WALL (      29 calls)
     sum_band:buf :     44.76s CPU     45.55s WALL (    9164 calls)
     sum_band:ini :     83.36s CPU     84.68s WALL (    9164 calls)
     sum_band:cal :    537.81s CPU    544.01s WALL (    9164 calls)
     sum_band:bec :      4.57s CPU      4.63s WALL (    9164 calls)
     addusdens    :     86.92s CPU    102.51s WALL (      29 calls)
     addusd:skk   :      0.75s CPU      0.78s WALL (      87 calls)
     addusd:dgemm :     42.08s CPU     55.24s WALL (     174 calls)
     addusd:qvan2 :     42.96s CPU     43.26s WALL (     174 calls)

     Called by *egterg:
     cdiaghg      :    769.65s CPU    789.17s WALL (   36709 calls)
     cegterg:over :   1044.20s CPU   1060.35s WALL (   27545 calls)
     cegterg:upda :    576.46s CPU    579.21s WALL (   27545 calls)
     cegterg:last :   1167.13s CPU   1172.63s WALL (   15505 calls)
     h_psi        :   4979.04s CPU   5041.71s WALL (   37025 calls)
     s_psi        :   1284.97s CPU   1291.18s WALL (   37025 calls)
     g_psi        :     10.80s CPU     10.95s WALL (   27545 calls)

     Called by h_psi:
     h_psi:calbec :   1371.24s CPU   1386.45s WALL (   37025 calls)
     vloc_psi     :   2155.08s CPU   2193.70s WALL (   37025 calls)
     add_vuspsi   :   1351.96s CPU   1358.59s WALL (   37025 calls)

     General routines
     calbec       :   1998.37s CPU   2020.85s WALL (   47769 calls)
     fft          :     13.30s CPU     14.92s WALL (     788 calls)
     ffts         :      0.20s CPU      0.24s WALL (     118 calls)
     fftw         :   2574.25s CPU   2624.19s WALL ( 5742502 calls)
     interpolate  :      1.25s CPU      1.38s WALL (      60 calls)

     Parallel routines
     fft_scatt_xy :    217.62s CPU    220.00s WALL ( 5743408 calls)
     fft_scatt_yz :   1116.87s CPU   1152.67s WALL ( 5743408 calls)

     PAW routines
     PAW_pot      :     12.48s CPU     12.53s WALL (      30 calls)

     PWSCF        :      3h37m CPU      3h40m WALL


   This run was terminated on:   9:38:47  17Dec2022            

=------------------------------------------------------------------------------=
   JOB DONE.
=------------------------------------------------------------------------------=
Note: The following floating-point exceptions are signalling: IEEE_DENORMAL
Note: The following floating-point exceptions are signalling: IEEE_DENORMAL
Note: The following floating-point exceptions are signalling: IEEE_UNDERFLOW_FLAG IEEE_DENORMAL
Note: The following floating-point exceptions are signalling: IEEE_INVALID_FLAG IEEE_DENORMAL
Note: The following floating-point exceptions are signalling: IEEE_DENORMAL
Note: The following floating-point exceptions are signalling: IEEE_DENORMAL
Note: The following floating-point exceptions are signalling: IEEE_DENORMAL
Note: The following floating-point exceptions are signalling: IEEE_DENORMAL
Note: The following floating-point exceptions are signalling: IEEE_DENORMAL
Note: The following floating-point exceptions are signalling: IEEE_DENORMAL
Note: The following floating-point exceptions are signalling: IEEE_DENORMAL
Note: The following floating-point exceptions are signalling: IEEE_DENORMAL
Note: The following floating-point exceptions are signalling: IEEE_DENORMAL
Note: The following floating-point exceptions are signalling: IEEE_DENORMAL
Note: The following floating-point exceptions are signalling: IEEE_INVALID_FLAG IEEE_DENORMAL
Note: The following floating-point exceptions are signalling: IEEE_DENORMAL
Note: The following floating-point exceptions are signalling: IEEE_DENORMAL
Note: The following floating-point exceptions are signalling: IEEE_DENORMAL
Note: The following floating-point exceptions are signalling: IEEE_DENORMAL
Note: The following floating-point exceptions are signalling: IEEE_DENORMAL
Note: The following floating-point exceptions are signalling: IEEE_DENORMAL
Note: The following floating-point exceptions are signalling: IEEE_DENORMAL
Note: The following floating-point exceptions are signalling: IEEE_DENORMAL
Note: The following floating-point exceptions are signalling: IEEE_DENORMAL
