
     Program PWSCF v.6.7MaX starts on 16Dec2022 at 21: 3:27 

     This program is part of the open-source Quantum ESPRESSO suite
     for quantum simulation of materials; please cite
         "P. Giannozzi et al., J. Phys.:Condens. Matter 21 395502 (2009);
         "P. Giannozzi et al., J. Phys.:Condens. Matter 29 465901 (2017);
          URL http://www.quantum-espresso.org", 
     in publications or presentations arising from this work. More details at
     http://www.quantum-espresso.org/quote

     Parallel version (MPI), running on    24 processors

     MPI processes distributed on     1 nodes
     R & G space division:  proc/nbgrp/npool/nimage =      24
     Reading input from scale_1da-02.in

     Current dimensions of program PWSCF are:
     Max number of different atomic species (ntypx) = 10
     Max number of k-points (npk) =  40000
     Max angular momentum in pseudopotentials (lmaxx) =  3
     Message from routine read_pp_mesh:
     mesh size missing, using the one in header
     file Fe.pbe-spn-kjpaw_psl.0.2.1.UPF: wavefunction(s)  3D renormalized
     file O.pbe-n-kjpaw_psl.0.1.UPF: wavefunction(s)  2P renormalized

     Subspace diagonalization in iterative solution of the eigenvalue problem:
     a serial algorithm will be used


     Parallelization info
     --------------------
     sticks:   dense  smooth     PW     G-vecs:    dense   smooth      PW
     Min         814     301     81                53060    11960    1683
     Max         815     303     82                53063    11961    1686
     Sum       19549    7233   1959              1273469   287059   40409



     bravais-lattice index     =            0
     lattice parameter (alat)  =      19.3373  a.u.
     unit-cell volume          =    2124.3518 (a.u.)^3
     number of atoms/cell      =           25
     number of atomic types    =            4
     number of electrons       =       189.00
     number of Kohn-Sham states=          114
     kinetic-energy cutoff     =     100.0000  Ry
     charge density cutoff     =    1080.0000  Ry
     scf convergence threshold =      2.0E-10
     mixing beta               =       0.4000
     number of iterations used =            8  plain     mixing
     Exchange-correlation= PBE
                           (   1   4   3   4   0   0   0)

     celldm(1)=  19.337306  celldm(2)=   0.000000  celldm(3)=   0.000000
     celldm(4)=   0.000000  celldm(5)=   0.000000  celldm(6)=   0.000000

     crystal axes: (cart. coord. in units of alat)
               a(1) = (   1.000000   0.000000   0.000000 )  
               a(2) = (   0.000000   0.607719   0.000000 )  
               a(3) = (   0.000000   0.000000   0.483433 )  

     reciprocal axes: (cart. coord. in units 2 pi/alat)
               b(1) = (  1.000000  0.000000  0.000000 )  
               b(2) = (  0.000000  1.645499  0.000000 )  
               b(3) = (  0.000000  0.000000  2.068540 )  


     PseudoPot. # 1 for Fe read from file:
     /opt/QEpot/SSSP_precision_pseudos/Fe.pbe-spn-kjpaw_psl.0.2.1.UPF
     MD5 check sum: e86618425769142926afa95317d90200
     Pseudo is Projector augmented-wave + core cor, Zval = 16.0
     Generated using "atomic" code by A. Dal Corso  v.5.0.99 svn rev. 10869
     Shape of augmentation charge: PSQ
     Using radial grid of 1191 points,  6 beta functions with: 
                l(1) =   0
                l(2) =   0
                l(3) =   1
                l(4) =   1
                l(5) =   2
                l(6) =   2
     Q(r) pseudized with 0 coefficients 


     PseudoPot. # 2 for Na read from file:
     /opt/QEpot/SSSP_precision_pseudos/Na_ONCV_PBE-1.0.oncvpsp.upf
     MD5 check sum: 24a298df0a6742ae313db96548fdb2a4
     Pseudo is Norm-conserving, Zval =  9.0
     Generated using ONCVPSP code by D. R. Hamann
     Using radial grid of 1992 points,  4 beta functions with: 
                l(1) =   0
                l(2) =   0
                l(3) =   1
                l(4) =   1

     PseudoPot. # 3 for O  read from file:
     /opt/QEpot/SSSP_precision_pseudos/O.pbe-n-kjpaw_psl.0.1.UPF
     MD5 check sum: 0234752ac141de4415c5fc33072bef88
     Pseudo is Projector augmented-wave + core cor, Zval =  6.0
     Generated using "atomic" code by A. Dal Corso  v.5.0.99 svn rev. 10869
     Shape of augmentation charge: BESSEL
     Using radial grid of 1095 points,  4 beta functions with: 
                l(1) =   0
                l(2) =   0
                l(3) =   1
                l(4) =   1
     Q(r) pseudized with 0 coefficients 


     PseudoPot. # 4 for P  read from file:
     /opt/QEpot/SSSP_precision_pseudos/P.pbe-n-rrkjus_psl.1.0.0.UPF
     MD5 check sum: 8b930f418f0a4573dca56cd030ffe088
     Pseudo is Ultrasoft + core correction, Zval =  5.0
     Generated using "atomic" code by A. Dal Corso  v.5.1
     Using radial grid of 1147 points,  6 beta functions with: 
                l(1) =   0
                l(2) =   0
                l(3) =   1
                l(4) =   1
                l(5) =   2
                l(6) =   2
     Q(r) pseudized with 0 coefficients 


     atomic species   valence    mass     pseudopotential
        Fe            16.00    55.84500     Fe( 1.00)
        Na             9.00    22.98977     Na( 1.00)
        O              6.00    15.99940     O ( 1.00)
        P              5.00    30.97376     P ( 1.00)

     Starting magnetic structure 
     atomic species   magnetization
        Fe           0.312
        Na           0.000
        O            0.000
        P            0.000

     No symmetry found


                                    s                        frac. trans.

      isym =  1     identity                                     

 cryst.   s( 1) = (     1          0          0      )
                  (     0          1          0      )
                  (     0          0          1      )

 cart.    s( 1) = (  1.0000000  0.0000000  0.0000000 )
                  (  0.0000000  1.0000000  0.0000000 )
                  (  0.0000000  0.0000000  1.0000000 )


   Cartesian axes

     site n.     atom                  positions (alat units)
         1           Na  tau(   1) = (   0.5528950   0.1191171   0.2185773  )
         2           Fe  tau(   2) = (   0.2772550   0.4565115   0.4793878  )
         3           Fe  tau(   3) = (   0.2104810   0.1529391   0.2371494  )
         4           Fe  tau(   4) = (   0.7295180   0.1563885   0.0007899  )
         5           Fe  tau(   5) = (   0.7815080   0.4552857   0.2483022  )
         6           P   tau(   6) = (   0.1053980   0.4566482   0.2146151  )
         7           P   tau(   7) = (   0.3872650   0.1541764   0.4554821  )
         8           P   tau(   8) = (   0.8920080   0.1522201   0.2691937  )
         9           P   tau(   9) = (   0.6044490   0.4558485   0.0309020  )
        10           O   tau(  10) = (   0.1314730   0.4572784   0.3630178  )
        11           O   tau(  11) = (   0.3628330   0.1526151   0.1208567  )
        12           O   tau(  12) = (   0.8713170   0.1524887   0.1201751  )
        13           O   tau(  13) = (   0.6316830   0.4576832   0.3661703  )
        14           O   tau(  14) = (   0.4581640   0.4573228   0.0580143  )
        15           O   tau(  15) = (   0.0360600   0.1516866   0.3031727  )
        16           O   tau(  16) = (   0.5359580   0.1536361   0.4335096  )
        17           O   tau(  17) = (   0.9586070   0.4567309   0.1889680  )
        18           O   tau(  18) = (   0.1746990   0.5749443   0.1445106  )
        19           O   tau(  19) = (   0.3222040   0.0355260   0.3833505  )
        20           O   tau(  20) = (   0.8184930   0.2703296   0.3364580  )
        21           O   tau(  21) = (   0.6734870   0.3365813   0.1010539  )
        22           O   tau(  22) = (   0.8164510   0.0358092   0.3362681  )
        23           O   tau(  23) = (   0.6734540   0.5746417   0.1021140  )
        24           O   tau(  24) = (   0.1741780   0.3376545   0.1452304  )
        25           O   tau(  25) = (   0.3202350   0.2724998   0.3856758  )

   Crystallographic axes

     site n.     atom                  positions (cryst. coord.)
         1           Na  tau(   1) = (  0.5528950  0.1960070  0.4521360  )
         2           Fe  tau(   2) = (  0.2772550  0.7511890  0.9916330  )
         3           Fe  tau(   3) = (  0.2104810  0.2516610  0.4905530  )
         4           Fe  tau(   4) = (  0.7295180  0.2573370  0.0016340  )
         5           Fe  tau(   5) = (  0.7815080  0.7491720  0.5136230  )
         6           P   tau(   6) = (  0.1053980  0.7514140  0.4439400  )
         7           P   tau(   7) = (  0.3872650  0.2536970  0.9421830  )
         8           P   tau(   8) = (  0.8920080  0.2504780  0.5568380  )
         9           P   tau(   9) = (  0.6044490  0.7500980  0.0639220  )
        10           O   tau(  10) = (  0.1314730  0.7524510  0.7509170  )
        11           O   tau(  11) = (  0.3628330  0.2511280  0.2499970  )
        12           O   tau(  12) = (  0.8713170  0.2509200  0.2485870  )
        13           O   tau(  13) = (  0.6316830  0.7531170  0.7574380  )
        14           O   tau(  14) = (  0.4581640  0.7525240  0.1200050  )
        15           O   tau(  15) = (  0.0360600  0.2496000  0.6271250  )
        16           O   tau(  16) = (  0.5359580  0.2528080  0.8967320  )
        17           O   tau(  17) = (  0.9586070  0.7515500  0.3908880  )
        18           O   tau(  18) = (  0.1746990  0.9460700  0.2989260  )
        19           O   tau(  19) = (  0.3222040  0.0584580  0.7929760  )
        20           O   tau(  20) = (  0.8184930  0.4448270  0.6959770  )
        21           O   tau(  21) = (  0.6734870  0.5538440  0.2090340  )
        22           O   tau(  22) = (  0.8164510  0.0589240  0.6955840  )
        23           O   tau(  23) = (  0.6734540  0.9455720  0.2112270  )
        24           O   tau(  24) = (  0.1741780  0.5556100  0.3004150  )
        25           O   tau(  25) = (  0.3202350  0.4483980  0.7977860  )

     number of k points=   158  Marzari-Vanderbilt smearing, width (Ry)=  0.0073
                       cart. coord. in units 2pi/alat
        k(    1) = (   0.0000000   0.0000000   0.0000000), wk =   0.0031746
        k(    2) = (   0.0000000   0.0000000   0.2298378), wk =   0.0063492
        k(    3) = (   0.0000000   0.0000000   0.4596756), wk =   0.0063492
        k(    4) = (   0.0000000   0.0000000   0.6895134), wk =   0.0063492
        k(    5) = (   0.0000000   0.0000000   0.9193512), wk =   0.0063492
        k(    6) = (   0.0000000   0.2350712   0.0000000), wk =   0.0063492
        k(    7) = (   0.0000000   0.2350712   0.2298378), wk =   0.0063492
        k(    8) = (   0.0000000   0.2350712   0.4596756), wk =   0.0063492
        k(    9) = (   0.0000000   0.2350712   0.6895134), wk =   0.0063492
        k(   10) = (   0.0000000   0.2350712   0.9193512), wk =   0.0063492
        k(   11) = (   0.0000000   0.4701424   0.0000000), wk =   0.0063492
        k(   12) = (   0.0000000   0.4701424   0.2298378), wk =   0.0063492
        k(   13) = (   0.0000000   0.4701424   0.4596756), wk =   0.0063492
        k(   14) = (   0.0000000   0.4701424   0.6895134), wk =   0.0063492
        k(   15) = (   0.0000000   0.4701424   0.9193512), wk =   0.0063492
        k(   16) = (   0.0000000   0.7052137   0.0000000), wk =   0.0063492
        k(   17) = (   0.0000000   0.7052137   0.2298378), wk =   0.0063492
        k(   18) = (   0.0000000   0.7052137   0.4596756), wk =   0.0063492
        k(   19) = (   0.0000000   0.7052137   0.6895134), wk =   0.0063492
        k(   20) = (   0.0000000   0.7052137   0.9193512), wk =   0.0063492
        k(   21) = (   0.2000000   0.0000000   0.0000000), wk =   0.0063492
        k(   22) = (   0.2000000   0.0000000   0.2298378), wk =   0.0063492
        k(   23) = (   0.2000000   0.0000000   0.4596756), wk =   0.0063492
        k(   24) = (   0.2000000   0.0000000   0.6895134), wk =   0.0063492
        k(   25) = (   0.2000000   0.0000000   0.9193512), wk =   0.0063492
        k(   26) = (   0.2000000   0.2350712   0.0000000), wk =   0.0063492
        k(   27) = (   0.2000000   0.2350712   0.2298378), wk =   0.0063492
        k(   28) = (   0.2000000   0.2350712   0.4596756), wk =   0.0063492
        k(   29) = (   0.2000000   0.2350712   0.6895134), wk =   0.0063492
        k(   30) = (   0.2000000   0.2350712   0.9193512), wk =   0.0063492
        k(   31) = (   0.2000000   0.4701424   0.0000000), wk =   0.0063492
        k(   32) = (   0.2000000   0.4701424   0.2298378), wk =   0.0063492
        k(   33) = (   0.2000000   0.4701424   0.4596756), wk =   0.0063492
        k(   34) = (   0.2000000   0.4701424   0.6895134), wk =   0.0063492
        k(   35) = (   0.2000000   0.4701424   0.9193512), wk =   0.0063492
        k(   36) = (   0.2000000   0.7052137   0.0000000), wk =   0.0063492
        k(   37) = (   0.2000000   0.7052137   0.2298378), wk =   0.0063492
        k(   38) = (   0.2000000   0.7052137   0.4596756), wk =   0.0063492
        k(   39) = (   0.2000000   0.7052137   0.6895134), wk =   0.0063492
        k(   40) = (   0.2000000   0.7052137   0.9193512), wk =   0.0063492
        k(   41) = (   0.4000000   0.0000000   0.0000000), wk =   0.0063492
        k(   42) = (   0.4000000   0.0000000   0.2298378), wk =   0.0063492
        k(   43) = (   0.4000000   0.0000000   0.4596756), wk =   0.0063492
        k(   44) = (   0.4000000   0.0000000   0.6895134), wk =   0.0063492
        k(   45) = (   0.4000000   0.0000000   0.9193512), wk =   0.0063492
        k(   46) = (   0.4000000   0.2350712   0.0000000), wk =   0.0063492
        k(   47) = (   0.4000000   0.2350712   0.2298378), wk =   0.0063492
        k(   48) = (   0.4000000   0.2350712   0.4596756), wk =   0.0063492
        k(   49) = (   0.4000000   0.2350712   0.6895134), wk =   0.0063492
        k(   50) = (   0.4000000   0.2350712   0.9193512), wk =   0.0063492
        k(   51) = (   0.4000000   0.4701424   0.0000000), wk =   0.0063492
        k(   52) = (   0.4000000   0.4701424   0.2298378), wk =   0.0063492
        k(   53) = (   0.4000000   0.4701424   0.4596756), wk =   0.0063492
        k(   54) = (   0.4000000   0.4701424   0.6895134), wk =   0.0063492
        k(   55) = (   0.4000000   0.4701424   0.9193512), wk =   0.0063492
        k(   56) = (   0.4000000   0.7052137   0.0000000), wk =   0.0063492
        k(   57) = (   0.4000000   0.7052137   0.2298378), wk =   0.0063492
        k(   58) = (   0.4000000   0.7052137   0.4596756), wk =   0.0063492
        k(   59) = (   0.4000000   0.7052137   0.6895134), wk =   0.0063492
        k(   60) = (   0.4000000   0.7052137   0.9193512), wk =   0.0063492
        k(   61) = (   0.0000000  -0.2350712   0.2298378), wk =   0.0063492
        k(   62) = (   0.0000000  -0.2350712   0.4596756), wk =   0.0063492
        k(   63) = (   0.0000000  -0.2350712   0.6895134), wk =   0.0063492
        k(   64) = (   0.0000000  -0.2350712   0.9193512), wk =   0.0063492
        k(   65) = (   0.0000000  -0.4701424   0.2298378), wk =   0.0063492
        k(   66) = (   0.0000000  -0.4701424   0.4596756), wk =   0.0063492
        k(   67) = (   0.0000000  -0.4701424   0.6895134), wk =   0.0063492
        k(   68) = (   0.0000000  -0.4701424   0.9193512), wk =   0.0063492
        k(   69) = (   0.0000000  -0.7052137   0.2298378), wk =   0.0063492
        k(   70) = (   0.0000000  -0.7052137   0.4596756), wk =   0.0063492
        k(   71) = (   0.0000000  -0.7052137   0.6895134), wk =   0.0063492
        k(   72) = (   0.0000000  -0.7052137   0.9193512), wk =   0.0063492
        k(   73) = (  -0.2000000   0.0000000   0.2298378), wk =   0.0063492
        k(   74) = (  -0.2000000   0.0000000   0.4596756), wk =   0.0063492
        k(   75) = (  -0.2000000   0.0000000   0.6895134), wk =   0.0063492
        k(   76) = (  -0.2000000   0.0000000   0.9193512), wk =   0.0063492
        k(   77) = (  -0.2000000   0.2350712   0.0000000), wk =   0.0063492
        k(   78) = (  -0.2000000  -0.2350712   0.2298378), wk =   0.0063492
        k(   79) = (  -0.2000000   0.2350712  -0.2298378), wk =   0.0063492
        k(   80) = (   0.2000000  -0.2350712  -0.2298378), wk =   0.0063492
        k(   81) = (  -0.2000000  -0.2350712   0.4596756), wk =   0.0063492
        k(   82) = (  -0.2000000   0.2350712  -0.4596756), wk =   0.0063492
        k(   83) = (   0.2000000  -0.2350712  -0.4596756), wk =   0.0063492
        k(   84) = (  -0.2000000  -0.2350712   0.6895134), wk =   0.0063492
        k(   85) = (  -0.2000000   0.2350712  -0.6895134), wk =   0.0063492
        k(   86) = (   0.2000000  -0.2350712  -0.6895134), wk =   0.0063492
        k(   87) = (  -0.2000000  -0.2350712   0.9193512), wk =   0.0063492
        k(   88) = (  -0.2000000   0.2350712  -0.9193512), wk =   0.0063492
        k(   89) = (   0.2000000  -0.2350712  -0.9193512), wk =   0.0063492
        k(   90) = (  -0.2000000   0.4701424   0.0000000), wk =   0.0063492
        k(   91) = (  -0.2000000  -0.4701424   0.2298378), wk =   0.0063492
        k(   92) = (  -0.2000000   0.4701424  -0.2298378), wk =   0.0063492
        k(   93) = (   0.2000000  -0.4701424  -0.2298378), wk =   0.0063492
        k(   94) = (  -0.2000000  -0.4701424   0.4596756), wk =   0.0063492
        k(   95) = (  -0.2000000   0.4701424  -0.4596756), wk =   0.0063492
        k(   96) = (   0.2000000  -0.4701424  -0.4596756), wk =   0.0063492
        k(   97) = (  -0.2000000  -0.4701424   0.6895134), wk =   0.0063492
        k(   98) = (  -0.2000000   0.4701424  -0.6895134), wk =   0.0063492
        k(   99) = (   0.2000000  -0.4701424  -0.6895134), wk =   0.0063492
        k(  100) = (  -0.2000000  -0.4701424   0.9193512), wk =   0.0063492
        k(  101) = (  -0.2000000   0.4701424  -0.9193512), wk =   0.0063492
        k(  102) = (   0.2000000  -0.4701424  -0.9193512), wk =   0.0063492
        k(  103) = (  -0.2000000   0.7052137   0.0000000), wk =   0.0063492
        k(  104) = (  -0.2000000  -0.7052137   0.2298378), wk =   0.0063492
        k(  105) = (  -0.2000000   0.7052137  -0.2298378), wk =   0.0063492
        k(  106) = (   0.2000000  -0.7052137  -0.2298378), wk =   0.0063492
        k(  107) = (  -0.2000000  -0.7052137   0.4596756), wk =   0.0063492
        k(  108) = (  -0.2000000   0.7052137  -0.4596756), wk =   0.0063492
        k(  109) = (   0.2000000  -0.7052137  -0.4596756), wk =   0.0063492
        k(  110) = (  -0.2000000  -0.7052137   0.6895134), wk =   0.0063492
        k(  111) = (  -0.2000000   0.7052137  -0.6895134), wk =   0.0063492
        k(  112) = (   0.2000000  -0.7052137  -0.6895134), wk =   0.0063492
        k(  113) = (  -0.2000000  -0.7052137   0.9193512), wk =   0.0063492
        k(  114) = (  -0.2000000   0.7052137  -0.9193512), wk =   0.0063492
        k(  115) = (   0.2000000  -0.7052137  -0.9193512), wk =   0.0063492
        k(  116) = (  -0.4000000   0.0000000   0.2298378), wk =   0.0063492
        k(  117) = (  -0.4000000   0.0000000   0.4596756), wk =   0.0063492
        k(  118) = (  -0.4000000   0.0000000   0.6895134), wk =   0.0063492
        k(  119) = (  -0.4000000   0.0000000   0.9193512), wk =   0.0063492
        k(  120) = (  -0.4000000   0.2350712   0.0000000), wk =   0.0063492
        k(  121) = (  -0.4000000  -0.2350712   0.2298378), wk =   0.0063492
        k(  122) = (  -0.4000000   0.2350712  -0.2298378), wk =   0.0063492
        k(  123) = (   0.4000000  -0.2350712  -0.2298378), wk =   0.0063492
        k(  124) = (  -0.4000000  -0.2350712   0.4596756), wk =   0.0063492
        k(  125) = (  -0.4000000   0.2350712  -0.4596756), wk =   0.0063492
        k(  126) = (   0.4000000  -0.2350712  -0.4596756), wk =   0.0063492
        k(  127) = (  -0.4000000  -0.2350712   0.6895134), wk =   0.0063492
        k(  128) = (  -0.4000000   0.2350712  -0.6895134), wk =   0.0063492
        k(  129) = (   0.4000000  -0.2350712  -0.6895134), wk =   0.0063492
        k(  130) = (  -0.4000000  -0.2350712   0.9193512), wk =   0.0063492
        k(  131) = (  -0.4000000   0.2350712  -0.9193512), wk =   0.0063492
        k(  132) = (   0.4000000  -0.2350712  -0.9193512), wk =   0.0063492
        k(  133) = (  -0.4000000   0.4701424   0.0000000), wk =   0.0063492
        k(  134) = (  -0.4000000  -0.4701424   0.2298378), wk =   0.0063492
        k(  135) = (  -0.4000000   0.4701424  -0.2298378), wk =   0.0063492
        k(  136) = (   0.4000000  -0.4701424  -0.2298378), wk =   0.0063492
        k(  137) = (  -0.4000000  -0.4701424   0.4596756), wk =   0.0063492
        k(  138) = (  -0.4000000   0.4701424  -0.4596756), wk =   0.0063492
        k(  139) = (   0.4000000  -0.4701424  -0.4596756), wk =   0.0063492
        k(  140) = (  -0.4000000  -0.4701424   0.6895134), wk =   0.0063492
        k(  141) = (  -0.4000000   0.4701424  -0.6895134), wk =   0.0063492
        k(  142) = (   0.4000000  -0.4701424  -0.6895134), wk =   0.0063492
        k(  143) = (  -0.4000000  -0.4701424   0.9193512), wk =   0.0063492
        k(  144) = (  -0.4000000   0.4701424  -0.9193512), wk =   0.0063492
        k(  145) = (   0.4000000  -0.4701424  -0.9193512), wk =   0.0063492
        k(  146) = (  -0.4000000   0.7052137   0.0000000), wk =   0.0063492
        k(  147) = (  -0.4000000  -0.7052137   0.2298378), wk =   0.0063492
        k(  148) = (  -0.4000000   0.7052137  -0.2298378), wk =   0.0063492
        k(  149) = (   0.4000000  -0.7052137  -0.2298378), wk =   0.0063492
        k(  150) = (  -0.4000000  -0.7052137   0.4596756), wk =   0.0063492
        k(  151) = (  -0.4000000   0.7052137  -0.4596756), wk =   0.0063492
        k(  152) = (   0.4000000  -0.7052137  -0.4596756), wk =   0.0063492
        k(  153) = (  -0.4000000  -0.7052137   0.6895134), wk =   0.0063492
        k(  154) = (  -0.4000000   0.7052137  -0.6895134), wk =   0.0063492
        k(  155) = (   0.4000000  -0.7052137  -0.6895134), wk =   0.0063492
        k(  156) = (  -0.4000000  -0.7052137   0.9193512), wk =   0.0063492
        k(  157) = (  -0.4000000   0.7052137  -0.9193512), wk =   0.0063492
        k(  158) = (   0.4000000  -0.7052137  -0.9193512), wk =   0.0063492

                       cryst. coord.
        k(    1) = (   0.0000000   0.0000000   0.0000000), wk =   0.0031746
        k(    2) = (   0.0000000   0.0000000   0.1111111), wk =   0.0063492
        k(    3) = (   0.0000000   0.0000000   0.2222222), wk =   0.0063492
        k(    4) = (   0.0000000   0.0000000   0.3333333), wk =   0.0063492
        k(    5) = (   0.0000000   0.0000000   0.4444444), wk =   0.0063492
        k(    6) = (   0.0000000   0.1428571   0.0000000), wk =   0.0063492
        k(    7) = (   0.0000000   0.1428571   0.1111111), wk =   0.0063492
        k(    8) = (   0.0000000   0.1428571   0.2222222), wk =   0.0063492
        k(    9) = (   0.0000000   0.1428571   0.3333333), wk =   0.0063492
        k(   10) = (   0.0000000   0.1428571   0.4444444), wk =   0.0063492
        k(   11) = (   0.0000000   0.2857143   0.0000000), wk =   0.0063492
        k(   12) = (   0.0000000   0.2857143   0.1111111), wk =   0.0063492
        k(   13) = (   0.0000000   0.2857143   0.2222222), wk =   0.0063492
        k(   14) = (   0.0000000   0.2857143   0.3333333), wk =   0.0063492
        k(   15) = (   0.0000000   0.2857143   0.4444444), wk =   0.0063492
        k(   16) = (   0.0000000   0.4285714   0.0000000), wk =   0.0063492
        k(   17) = (   0.0000000   0.4285714   0.1111111), wk =   0.0063492
        k(   18) = (   0.0000000   0.4285714   0.2222222), wk =   0.0063492
        k(   19) = (   0.0000000   0.4285714   0.3333333), wk =   0.0063492
        k(   20) = (   0.0000000   0.4285714   0.4444444), wk =   0.0063492
        k(   21) = (   0.2000000   0.0000000   0.0000000), wk =   0.0063492
        k(   22) = (   0.2000000   0.0000000   0.1111111), wk =   0.0063492
        k(   23) = (   0.2000000   0.0000000   0.2222222), wk =   0.0063492
        k(   24) = (   0.2000000   0.0000000   0.3333333), wk =   0.0063492
        k(   25) = (   0.2000000   0.0000000   0.4444444), wk =   0.0063492
        k(   26) = (   0.2000000   0.1428571   0.0000000), wk =   0.0063492
        k(   27) = (   0.2000000   0.1428571   0.1111111), wk =   0.0063492
        k(   28) = (   0.2000000   0.1428571   0.2222222), wk =   0.0063492
        k(   29) = (   0.2000000   0.1428571   0.3333333), wk =   0.0063492
        k(   30) = (   0.2000000   0.1428571   0.4444444), wk =   0.0063492
        k(   31) = (   0.2000000   0.2857143   0.0000000), wk =   0.0063492
        k(   32) = (   0.2000000   0.2857143   0.1111111), wk =   0.0063492
        k(   33) = (   0.2000000   0.2857143   0.2222222), wk =   0.0063492
        k(   34) = (   0.2000000   0.2857143   0.3333333), wk =   0.0063492
        k(   35) = (   0.2000000   0.2857143   0.4444444), wk =   0.0063492
        k(   36) = (   0.2000000   0.4285714   0.0000000), wk =   0.0063492
        k(   37) = (   0.2000000   0.4285714   0.1111111), wk =   0.0063492
        k(   38) = (   0.2000000   0.4285714   0.2222222), wk =   0.0063492
        k(   39) = (   0.2000000   0.4285714   0.3333333), wk =   0.0063492
        k(   40) = (   0.2000000   0.4285714   0.4444444), wk =   0.0063492
        k(   41) = (   0.4000000   0.0000000   0.0000000), wk =   0.0063492
        k(   42) = (   0.4000000   0.0000000   0.1111111), wk =   0.0063492
        k(   43) = (   0.4000000   0.0000000   0.2222222), wk =   0.0063492
        k(   44) = (   0.4000000   0.0000000   0.3333333), wk =   0.0063492
        k(   45) = (   0.4000000   0.0000000   0.4444444), wk =   0.0063492
        k(   46) = (   0.4000000   0.1428571   0.0000000), wk =   0.0063492
        k(   47) = (   0.4000000   0.1428571   0.1111111), wk =   0.0063492
        k(   48) = (   0.4000000   0.1428571   0.2222222), wk =   0.0063492
        k(   49) = (   0.4000000   0.1428571   0.3333333), wk =   0.0063492
        k(   50) = (   0.4000000   0.1428571   0.4444444), wk =   0.0063492
        k(   51) = (   0.4000000   0.2857143   0.0000000), wk =   0.0063492
        k(   52) = (   0.4000000   0.2857143   0.1111111), wk =   0.0063492
        k(   53) = (   0.4000000   0.2857143   0.2222222), wk =   0.0063492
        k(   54) = (   0.4000000   0.2857143   0.3333333), wk =   0.0063492
        k(   55) = (   0.4000000   0.2857143   0.4444444), wk =   0.0063492
        k(   56) = (   0.4000000   0.4285714   0.0000000), wk =   0.0063492
        k(   57) = (   0.4000000   0.4285714   0.1111111), wk =   0.0063492
        k(   58) = (   0.4000000   0.4285714   0.2222222), wk =   0.0063492
        k(   59) = (   0.4000000   0.4285714   0.3333333), wk =   0.0063492
        k(   60) = (   0.4000000   0.4285714   0.4444444), wk =   0.0063492
        k(   61) = (   0.0000000  -0.1428571   0.1111111), wk =   0.0063492
        k(   62) = (   0.0000000  -0.1428571   0.2222222), wk =   0.0063492
        k(   63) = (   0.0000000  -0.1428571   0.3333333), wk =   0.0063492
        k(   64) = (   0.0000000  -0.1428571   0.4444444), wk =   0.0063492
        k(   65) = (   0.0000000  -0.2857143   0.1111111), wk =   0.0063492
        k(   66) = (   0.0000000  -0.2857143   0.2222222), wk =   0.0063492
        k(   67) = (   0.0000000  -0.2857143   0.3333333), wk =   0.0063492
        k(   68) = (   0.0000000  -0.2857143   0.4444444), wk =   0.0063492
        k(   69) = (   0.0000000  -0.4285714   0.1111111), wk =   0.0063492
        k(   70) = (   0.0000000  -0.4285714   0.2222222), wk =   0.0063492
        k(   71) = (   0.0000000  -0.4285714   0.3333333), wk =   0.0063492
        k(   72) = (   0.0000000  -0.4285714   0.4444444), wk =   0.0063492
        k(   73) = (  -0.2000000   0.0000000   0.1111111), wk =   0.0063492
        k(   74) = (  -0.2000000   0.0000000   0.2222222), wk =   0.0063492
        k(   75) = (  -0.2000000   0.0000000   0.3333333), wk =   0.0063492
        k(   76) = (  -0.2000000   0.0000000   0.4444444), wk =   0.0063492
        k(   77) = (  -0.2000000   0.1428571   0.0000000), wk =   0.0063492
        k(   78) = (  -0.2000000  -0.1428571   0.1111111), wk =   0.0063492
        k(   79) = (  -0.2000000   0.1428571  -0.1111111), wk =   0.0063492
        k(   80) = (   0.2000000  -0.1428571  -0.1111111), wk =   0.0063492
        k(   81) = (  -0.2000000  -0.1428571   0.2222222), wk =   0.0063492
        k(   82) = (  -0.2000000   0.1428571  -0.2222222), wk =   0.0063492
        k(   83) = (   0.2000000  -0.1428571  -0.2222222), wk =   0.0063492
        k(   84) = (  -0.2000000  -0.1428571   0.3333333), wk =   0.0063492
        k(   85) = (  -0.2000000   0.1428571  -0.3333333), wk =   0.0063492
        k(   86) = (   0.2000000  -0.1428571  -0.3333333), wk =   0.0063492
        k(   87) = (  -0.2000000  -0.1428571   0.4444444), wk =   0.0063492
        k(   88) = (  -0.2000000   0.1428571  -0.4444444), wk =   0.0063492
        k(   89) = (   0.2000000  -0.1428571  -0.4444444), wk =   0.0063492
        k(   90) = (  -0.2000000   0.2857143   0.0000000), wk =   0.0063492
        k(   91) = (  -0.2000000  -0.2857143   0.1111111), wk =   0.0063492
        k(   92) = (  -0.2000000   0.2857143  -0.1111111), wk =   0.0063492
        k(   93) = (   0.2000000  -0.2857143  -0.1111111), wk =   0.0063492
        k(   94) = (  -0.2000000  -0.2857143   0.2222222), wk =   0.0063492
        k(   95) = (  -0.2000000   0.2857143  -0.2222222), wk =   0.0063492
        k(   96) = (   0.2000000  -0.2857143  -0.2222222), wk =   0.0063492
        k(   97) = (  -0.2000000  -0.2857143   0.3333333), wk =   0.0063492
        k(   98) = (  -0.2000000   0.2857143  -0.3333333), wk =   0.0063492
        k(   99) = (   0.2000000  -0.2857143  -0.3333333), wk =   0.0063492
        k(  100) = (  -0.2000000  -0.2857143   0.4444444), wk =   0.0063492
        k(  101) = (  -0.2000000   0.2857143  -0.4444444), wk =   0.0063492
        k(  102) = (   0.2000000  -0.2857143  -0.4444444), wk =   0.0063492
        k(  103) = (  -0.2000000   0.4285714   0.0000000), wk =   0.0063492
        k(  104) = (  -0.2000000  -0.4285714   0.1111111), wk =   0.0063492
        k(  105) = (  -0.2000000   0.4285714  -0.1111111), wk =   0.0063492
        k(  106) = (   0.2000000  -0.4285714  -0.1111111), wk =   0.0063492
        k(  107) = (  -0.2000000  -0.4285714   0.2222222), wk =   0.0063492
        k(  108) = (  -0.2000000   0.4285714  -0.2222222), wk =   0.0063492
        k(  109) = (   0.2000000  -0.4285714  -0.2222222), wk =   0.0063492
        k(  110) = (  -0.2000000  -0.4285714   0.3333333), wk =   0.0063492
        k(  111) = (  -0.2000000   0.4285714  -0.3333333), wk =   0.0063492
        k(  112) = (   0.2000000  -0.4285714  -0.3333333), wk =   0.0063492
        k(  113) = (  -0.2000000  -0.4285714   0.4444444), wk =   0.0063492
        k(  114) = (  -0.2000000   0.4285714  -0.4444444), wk =   0.0063492
        k(  115) = (   0.2000000  -0.4285714  -0.4444444), wk =   0.0063492
        k(  116) = (  -0.4000000   0.0000000   0.1111111), wk =   0.0063492
        k(  117) = (  -0.4000000   0.0000000   0.2222222), wk =   0.0063492
        k(  118) = (  -0.4000000   0.0000000   0.3333333), wk =   0.0063492
        k(  119) = (  -0.4000000   0.0000000   0.4444444), wk =   0.0063492
        k(  120) = (  -0.4000000   0.1428571   0.0000000), wk =   0.0063492
        k(  121) = (  -0.4000000  -0.1428571   0.1111111), wk =   0.0063492
        k(  122) = (  -0.4000000   0.1428571  -0.1111111), wk =   0.0063492
        k(  123) = (   0.4000000  -0.1428571  -0.1111111), wk =   0.0063492
        k(  124) = (  -0.4000000  -0.1428571   0.2222222), wk =   0.0063492
        k(  125) = (  -0.4000000   0.1428571  -0.2222222), wk =   0.0063492
        k(  126) = (   0.4000000  -0.1428571  -0.2222222), wk =   0.0063492
        k(  127) = (  -0.4000000  -0.1428571   0.3333333), wk =   0.0063492
        k(  128) = (  -0.4000000   0.1428571  -0.3333333), wk =   0.0063492
        k(  129) = (   0.4000000  -0.1428571  -0.3333333), wk =   0.0063492
        k(  130) = (  -0.4000000  -0.1428571   0.4444444), wk =   0.0063492
        k(  131) = (  -0.4000000   0.1428571  -0.4444444), wk =   0.0063492
        k(  132) = (   0.4000000  -0.1428571  -0.4444444), wk =   0.0063492
        k(  133) = (  -0.4000000   0.2857143   0.0000000), wk =   0.0063492
        k(  134) = (  -0.4000000  -0.2857143   0.1111111), wk =   0.0063492
        k(  135) = (  -0.4000000   0.2857143  -0.1111111), wk =   0.0063492
        k(  136) = (   0.4000000  -0.2857143  -0.1111111), wk =   0.0063492
        k(  137) = (  -0.4000000  -0.2857143   0.2222222), wk =   0.0063492
        k(  138) = (  -0.4000000   0.2857143  -0.2222222), wk =   0.0063492
        k(  139) = (   0.4000000  -0.2857143  -0.2222222), wk =   0.0063492
        k(  140) = (  -0.4000000  -0.2857143   0.3333333), wk =   0.0063492
        k(  141) = (  -0.4000000   0.2857143  -0.3333333), wk =   0.0063492
        k(  142) = (   0.4000000  -0.2857143  -0.3333333), wk =   0.0063492
        k(  143) = (  -0.4000000  -0.2857143   0.4444444), wk =   0.0063492
        k(  144) = (  -0.4000000   0.2857143  -0.4444444), wk =   0.0063492
        k(  145) = (   0.4000000  -0.2857143  -0.4444444), wk =   0.0063492
        k(  146) = (  -0.4000000   0.4285714   0.0000000), wk =   0.0063492
        k(  147) = (  -0.4000000  -0.4285714   0.1111111), wk =   0.0063492
        k(  148) = (  -0.4000000   0.4285714  -0.1111111), wk =   0.0063492
        k(  149) = (   0.4000000  -0.4285714  -0.1111111), wk =   0.0063492
        k(  150) = (  -0.4000000  -0.4285714   0.2222222), wk =   0.0063492
        k(  151) = (  -0.4000000   0.4285714  -0.2222222), wk =   0.0063492
        k(  152) = (   0.4000000  -0.4285714  -0.2222222), wk =   0.0063492
        k(  153) = (  -0.4000000  -0.4285714   0.3333333), wk =   0.0063492
        k(  154) = (  -0.4000000   0.4285714  -0.3333333), wk =   0.0063492
        k(  155) = (   0.4000000  -0.4285714  -0.3333333), wk =   0.0063492
        k(  156) = (  -0.4000000  -0.4285714   0.4444444), wk =   0.0063492
        k(  157) = (  -0.4000000   0.4285714  -0.4444444), wk =   0.0063492
        k(  158) = (   0.4000000  -0.4285714  -0.4444444), wk =   0.0063492

     Dense  grid:  1273469 G-vectors     FFT dimensions: ( 216, 125, 100)

     Smooth grid:   287059 G-vectors     FFT dimensions: ( 125,  75,  60)

     Dynamical RAM for                 wfc:       2.60 MB

     Dynamical RAM for     wfc (w. buffer):     823.82 MB

     Dynamical RAM for           str. fact:       3.24 MB

     Dynamical RAM for           local pot:       0.00 MB

     Dynamical RAM for          nlocal pot:       6.38 MB

     Dynamical RAM for                qrad:      10.54 MB

     Dynamical RAM for          rho,v,vnew:      11.04 MB

     Dynamical RAM for               rhoin:       3.68 MB

     Dynamical RAM for            rho*nmix:      25.91 MB

     Dynamical RAM for           G-vectors:       3.13 MB

     Dynamical RAM for          h,s,v(r/c):       2.38 MB

     Dynamical RAM for          <psi|beta>:       0.49 MB

     Dynamical RAM for                 psi:       5.20 MB

     Dynamical RAM for                hpsi:       5.20 MB

     Dynamical RAM for                spsi:       5.20 MB

     Dynamical RAM for      wfcinit/wfcrot:       6.68 MB

     Dynamical RAM for           addusdens:     164.36 MB

     Dynamical RAM for          addusforce:     188.78 MB

     Dynamical RAM for         addusstress:     163.96 MB

     Estimated static dynamical RAM per process >     897.97 MB

     Estimated max dynamical RAM per process >       1.06 GB

     Estimated total dynamical RAM >      25.47 GB

     Check: negative core charge=   -0.000003
     Generating pointlists ...
     new r_m :   0.0765 (alat units)  1.4789 (a.u.) for type    1
     new r_m :   0.0892 (alat units)  1.7255 (a.u.) for type    2
     new r_m :   0.0611 (alat units)  1.1806 (a.u.) for type    3
     new r_m :   0.0611 (alat units)  1.1806 (a.u.) for type    4

     Initial potential from superposition of free atoms

     starting charge  188.99132, renormalised to  189.00000
     Starting wfcs are  137 randomized atomic wfcs
     Checking if some PAW data can be deallocated... 
       PAW data deallocated on   20 nodes for type:  1
       PAW data deallocated on    8 nodes for type:  3

     total cpu time spent up to now is      261.4 secs

     Self-consistent Calculation

     iteration #  1     ecut=   100.00 Ry     beta= 0.40
     Davidson diagonalization with overlap
     ethr =  1.00E-02,  avg # of iterations =  3.0

     negative rho (up, down):  0.000E+00 6.837E-05

     total cpu time spent up to now is     1110.6 secs

     total energy              =   -2123.89676772 Ry
     estimated scf accuracy    <       7.00308756 Ry

     total magnetization       =    19.00 Bohr mag/cell
     absolute magnetization    =    19.00 Bohr mag/cell

     iteration #  2     ecut=   100.00 Ry     beta= 0.40
     Davidson diagonalization with overlap
     ethr =  3.71E-03,  avg # of iterations =  2.0

     negative rho (up, down):  0.000E+00 4.525E-05

     total cpu time spent up to now is     1867.7 secs

     total energy              =   -2120.58308102 Ry
     estimated scf accuracy    <      47.87360626 Ry

     total magnetization       =     6.84 Bohr mag/cell
     absolute magnetization    =     8.24 Bohr mag/cell

     iteration #  3     ecut=   100.00 Ry     beta= 0.40
     Davidson diagonalization with overlap
     ethr =  3.71E-03,  avg # of iterations =  2.9

     negative rho (up, down):  0.000E+00 2.470E-05

     total cpu time spent up to now is     2548.1 secs

     total energy              =   -2123.45273610 Ry
     estimated scf accuracy    <      57.26056301 Ry

     total magnetization       =     3.86 Bohr mag/cell
     absolute magnetization    =     7.86 Bohr mag/cell

     iteration #  4     ecut=   100.00 Ry     beta= 0.40
     Davidson diagonalization with overlap
     ethr =  3.71E-03,  avg # of iterations =  1.6

     negative rho (up, down):  0.000E+00 2.167E-05

     total cpu time spent up to now is     3128.9 secs

     total energy              =   -2124.59463936 Ry
     estimated scf accuracy    <      29.59159903 Ry

     total magnetization       =     9.00 Bohr mag/cell
     absolute magnetization    =     9.34 Bohr mag/cell

     iteration #  5     ecut=   100.00 Ry     beta= 0.40
     Davidson diagonalization with overlap
     ethr =  3.71E-03,  avg # of iterations =  2.0

     negative rho (up, down):  0.000E+00 9.962E-05

     total cpu time spent up to now is     3755.7 secs

     total energy              =   -2126.00748844 Ry
     estimated scf accuracy    <       1.83707122 Ry

     total magnetization       =    19.03 Bohr mag/cell
     absolute magnetization    =    19.03 Bohr mag/cell

     iteration #  6     ecut=   100.00 Ry     beta= 0.40
     Davidson diagonalization with overlap
     ethr =  9.72E-04,  avg # of iterations =  2.0

     negative rho (up, down):  0.000E+00 2.188E-04

     total cpu time spent up to now is     4378.3 secs

     total energy              =   -2126.09124721 Ry
     estimated scf accuracy    <       0.57331889 Ry

     total magnetization       =    19.00 Bohr mag/cell
     absolute magnetization    =    19.00 Bohr mag/cell

     iteration #  7     ecut=   100.00 Ry     beta= 0.40
     Davidson diagonalization with overlap
     ethr =  3.03E-04,  avg # of iterations =  2.2

     negative rho (up, down):  0.000E+00 3.593E-04

     total cpu time spent up to now is     4988.1 secs

     total energy              =   -2126.09541807 Ry
     estimated scf accuracy    <       0.22891233 Ry

     total magnetization       =    19.00 Bohr mag/cell
     absolute magnetization    =    19.00 Bohr mag/cell

     iteration #  8     ecut=   100.00 Ry     beta= 0.40
     Davidson diagonalization with overlap
     c_bands:  1 eigenvalues not converged
     c_bands:  1 eigenvalues not converged
     c_bands:  2 eigenvalues not converged
     c_bands:  1 eigenvalues not converged
     ethr =  1.21E-04,  avg # of iterations = 10.7

     negative rho (up, down):  0.000E+00 5.818E-04

     total cpu time spent up to now is     5962.0 secs

     total energy              =   -2126.10766424 Ry
     estimated scf accuracy    <       0.17432398 Ry

     total magnetization       =    19.00 Bohr mag/cell
     absolute magnetization    =    19.00 Bohr mag/cell

     iteration #  9     ecut=   100.00 Ry     beta= 0.40
     Davidson diagonalization with overlap
     c_bands:  1 eigenvalues not converged
     c_bands:  2 eigenvalues not converged
     c_bands:  2 eigenvalues not converged
     ethr =  9.22E-05,  avg # of iterations =  3.8

     negative rho (up, down):  0.000E+00 8.414E-04

     total cpu time spent up to now is     6635.9 secs

     total energy              =   -2126.11830433 Ry
     estimated scf accuracy    <       0.11348636 Ry

     total magnetization       =    19.00 Bohr mag/cell
     absolute magnetization    =    19.01 Bohr mag/cell

     iteration # 10     ecut=   100.00 Ry     beta= 0.40
     Davidson diagonalization with overlap
     c_bands:  2 eigenvalues not converged
     ethr =  6.00E-05,  avg # of iterations =  2.2

     negative rho (up, down):  0.000E+00 8.797E-04

     total cpu time spent up to now is     7222.6 secs

     total energy              =   -2126.12684736 Ry
     estimated scf accuracy    <       0.15788388 Ry

     total magnetization       =    19.00 Bohr mag/cell
     absolute magnetization    =    19.02 Bohr mag/cell

     iteration # 11     ecut=   100.00 Ry     beta= 0.40
     Davidson diagonalization with overlap
     ethr =  6.00E-05,  avg # of iterations =  1.1

     negative rho (up, down):  0.000E+00 9.396E-04

     total cpu time spent up to now is     7750.4 secs

     total energy              =   -2126.12629532 Ry
     estimated scf accuracy    <       0.11142616 Ry

     total magnetization       =    19.00 Bohr mag/cell
     absolute magnetization    =    19.03 Bohr mag/cell

     iteration # 12     ecut=   100.00 Ry     beta= 0.40
     Davidson diagonalization with overlap
     ethr =  5.90E-05,  avg # of iterations =  1.2

     negative rho (up, down):  0.000E+00 9.413E-04

     total cpu time spent up to now is     8280.6 secs

     total energy              =   -2126.12699842 Ry
     estimated scf accuracy    <       0.03047226 Ry

     total magnetization       =    19.00 Bohr mag/cell
     absolute magnetization    =    19.03 Bohr mag/cell

     iteration # 13     ecut=   100.00 Ry     beta= 0.40
     Davidson diagonalization with overlap
     c_bands:  1 eigenvalues not converged
     c_bands:  1 eigenvalues not converged
     c_bands:  1 eigenvalues not converged
     c_bands:  1 eigenvalues not converged
     c_bands:  1 eigenvalues not converged
     c_bands:  1 eigenvalues not converged
     c_bands:  1 eigenvalues not converged
     c_bands:  1 eigenvalues not converged
     c_bands:  1 eigenvalues not converged
     c_bands:  1 eigenvalues not converged
     c_bands:  2 eigenvalues not converged
     c_bands:  1 eigenvalues not converged
     c_bands:  1 eigenvalues not converged
     c_bands:  1 eigenvalues not converged
     c_bands:  1 eigenvalues not converged
     ethr =  1.61E-05,  avg # of iterations =  9.0

     negative rho (up, down):  0.000E+00 9.780E-04

     total cpu time spent up to now is     9210.4 secs

     total energy              =   -2126.12843862 Ry
     estimated scf accuracy    <       0.02367876 Ry

     total magnetization       =    19.00 Bohr mag/cell
     absolute magnetization    =    19.04 Bohr mag/cell

     iteration # 14     ecut=   100.00 Ry     beta= 0.40
     Davidson diagonalization with overlap
     c_bands:  1 eigenvalues not converged
     ethr =  1.25E-05,  avg # of iterations =  2.2

     negative rho (up, down):  0.000E+00 9.841E-04

     total cpu time spent up to now is     9805.8 secs

     total energy              =   -2126.12918970 Ry
     estimated scf accuracy    <       0.00573335 Ry

     total magnetization       =    19.00 Bohr mag/cell
     absolute magnetization    =    19.04 Bohr mag/cell

     iteration # 15     ecut=   100.00 Ry     beta= 0.40
     Davidson diagonalization with overlap
     c_bands:  1 eigenvalues not converged
     c_bands:  1 eigenvalues not converged
     c_bands:  1 eigenvalues not converged
     c_bands:  1 eigenvalues not converged
     c_bands:  1 eigenvalues not converged
     c_bands:  1 eigenvalues not converged
     c_bands:  1 eigenvalues not converged
     c_bands:  1 eigenvalues not converged
     c_bands:  1 eigenvalues not converged
     c_bands:  1 eigenvalues not converged
     c_bands:  1 eigenvalues not converged
     c_bands:  1 eigenvalues not converged
     c_bands:  1 eigenvalues not converged
     c_bands:  1 eigenvalues not converged
     c_bands:  1 eigenvalues not converged
     c_bands:  1 eigenvalues not converged
     c_bands:  1 eigenvalues not converged
     c_bands:  1 eigenvalues not converged
     c_bands:  1 eigenvalues not converged
     c_bands:  1 eigenvalues not converged
     ethr =  3.03E-06,  avg # of iterations = 10.6

     negative rho (up, down):  0.000E+00 9.699E-04

     total cpu time spent up to now is    10846.7 secs

     total energy              =   -2126.12939100 Ry
     estimated scf accuracy    <       0.00188819 Ry

     total magnetization       =    19.00 Bohr mag/cell
     absolute magnetization    =    19.04 Bohr mag/cell

     iteration # 16     ecut=   100.00 Ry     beta= 0.40
     Davidson diagonalization with overlap
     c_bands:  1 eigenvalues not converged
     c_bands:  1 eigenvalues not converged
     c_bands:  1 eigenvalues not converged
     ethr =  9.99E-07,  avg # of iterations =  3.8

     negative rho (up, down):  0.000E+00 9.662E-04

     total cpu time spent up to now is    11589.3 secs

     total energy              =   -2126.12958987 Ry
     estimated scf accuracy    <       0.00033603 Ry

     total magnetization       =    19.00 Bohr mag/cell
     absolute magnetization    =    19.05 Bohr mag/cell

     iteration # 17     ecut=   100.00 Ry     beta= 0.40
     Davidson diagonalization with overlap
     c_bands:  1 eigenvalues not converged
     ethr =  1.78E-07,  avg # of iterations =  4.5

     negative rho (up, down):  0.000E+00 9.583E-04

     total cpu time spent up to now is    12533.2 secs

     total energy              =   -2126.12969996 Ry
     estimated scf accuracy    <       0.00003833 Ry

     total magnetization       =    19.00 Bohr mag/cell
     absolute magnetization    =    19.05 Bohr mag/cell

     iteration # 18     ecut=   100.00 Ry     beta= 0.40
     Davidson diagonalization with overlap
     ethr =  2.03E-08,  avg # of iterations =  2.0

     negative rho (up, down):  0.000E+00 9.533E-04

     total cpu time spent up to now is    13163.3 secs

     total energy              =   -2126.12970424 Ry
     estimated scf accuracy    <       0.00007039 Ry

     total magnetization       =    19.00 Bohr mag/cell
     absolute magnetization    =    19.05 Bohr mag/cell

     iteration # 19     ecut=   100.00 Ry     beta= 0.40
     Davidson diagonalization with overlap
     ethr =  2.03E-08,  avg # of iterations =  1.0

     negative rho (up, down):  0.000E+00 9.533E-04

     total cpu time spent up to now is    13683.1 secs

     total energy              =   -2126.12970724 Ry
     estimated scf accuracy    <       0.00001139 Ry

     total magnetization       =    19.00 Bohr mag/cell
     absolute magnetization    =    19.05 Bohr mag/cell

     iteration # 20     ecut=   100.00 Ry     beta= 0.40
     Davidson diagonalization with overlap
     ethr =  6.02E-09,  avg # of iterations =  1.6

     negative rho (up, down):  0.000E+00 9.522E-04

     total cpu time spent up to now is    14261.4 secs

     total energy              =   -2126.12970825 Ry
     estimated scf accuracy    <       0.00000330 Ry

     total magnetization       =    19.00 Bohr mag/cell
     absolute magnetization    =    19.05 Bohr mag/cell

     iteration # 21     ecut=   100.00 Ry     beta= 0.40
     Davidson diagonalization with overlap
     ethr =  1.75E-09,  avg # of iterations =  3.0

     negative rho (up, down):  0.000E+00 9.516E-04

     total cpu time spent up to now is    14994.0 secs

     total energy              =   -2126.12970886 Ry
     estimated scf accuracy    <       0.00000227 Ry

     total magnetization       =    19.00 Bohr mag/cell
     absolute magnetization    =    19.05 Bohr mag/cell

     iteration # 22     ecut=   100.00 Ry     beta= 0.40
     Davidson diagonalization with overlap
     ethr =  1.20E-09,  avg # of iterations =  1.9

     negative rho (up, down):  0.000E+00 9.518E-04

     total cpu time spent up to now is    15590.4 secs

     total energy              =   -2126.12970910 Ry
     estimated scf accuracy    <       0.00000115 Ry

     total magnetization       =    19.00 Bohr mag/cell
     absolute magnetization    =    19.05 Bohr mag/cell

     iteration # 23     ecut=   100.00 Ry     beta= 0.40
     Davidson diagonalization with overlap
     ethr =  6.11E-10,  avg # of iterations =  1.0

     negative rho (up, down):  0.000E+00 9.527E-04

     total cpu time spent up to now is    16114.1 secs

     total energy              =   -2126.12970913 Ry
     estimated scf accuracy    <       0.00000025 Ry

     total magnetization       =    19.00 Bohr mag/cell
     absolute magnetization    =    19.05 Bohr mag/cell

     iteration # 24     ecut=   100.00 Ry     beta= 0.40
     Davidson diagonalization with overlap
     ethr =  1.31E-10,  avg # of iterations =  2.8

     negative rho (up, down):  0.000E+00 9.529E-04

     total cpu time spent up to now is    16795.2 secs

     total energy              =   -2126.12970918 Ry
     estimated scf accuracy    <       0.00000002 Ry

     total magnetization       =    19.00 Bohr mag/cell
     absolute magnetization    =    19.05 Bohr mag/cell

     iteration # 25     ecut=   100.00 Ry     beta= 0.40
     Davidson diagonalization with overlap
     ethr =  7.99E-12,  avg # of iterations =  5.4

     negative rho (up, down):  0.000E+00 9.530E-04

     total cpu time spent up to now is    17960.5 secs

     total energy              =   -2126.12970919 Ry
     estimated scf accuracy    <       0.00000001 Ry

     total magnetization       =    19.00 Bohr mag/cell
     absolute magnetization    =    19.05 Bohr mag/cell

     iteration # 26     ecut=   100.00 Ry     beta= 0.40
     Davidson diagonalization with overlap
     ethr =  6.30E-12,  avg # of iterations =  2.0

     negative rho (up, down):  0.000E+00 9.530E-04

     total cpu time spent up to now is    18598.5 secs

     total energy              =   -2126.12970919 Ry
     estimated scf accuracy    <       0.00000001 Ry

     total magnetization       =    19.00 Bohr mag/cell
     absolute magnetization    =    19.05 Bohr mag/cell

     iteration # 27     ecut=   100.00 Ry     beta= 0.40
     Davidson diagonalization with overlap
     ethr =  6.30E-12,  avg # of iterations =  1.1

     negative rho (up, down):  0.000E+00 9.531E-04

     total cpu time spent up to now is    19128.0 secs

     total energy              =   -2126.12970919 Ry
     estimated scf accuracy    <          8.1E-09 Ry

     total magnetization       =    19.00 Bohr mag/cell
     absolute magnetization    =    19.05 Bohr mag/cell

     iteration # 28     ecut=   100.00 Ry     beta= 0.40
     Davidson diagonalization with overlap
     ethr =  4.28E-12,  avg # of iterations =  1.0

     negative rho (up, down):  0.000E+00 9.531E-04

     total cpu time spent up to now is    19647.1 secs

     total energy              =   -2126.12970919 Ry
     estimated scf accuracy    <          3.5E-09 Ry

     total magnetization       =    19.00 Bohr mag/cell
     absolute magnetization    =    19.05 Bohr mag/cell

     iteration # 29     ecut=   100.00 Ry     beta= 0.40
     Davidson diagonalization with overlap
     ethr =  1.87E-12,  avg # of iterations =  1.1

     negative rho (up, down):  0.000E+00 9.530E-04

     total cpu time spent up to now is    20173.7 secs

     total energy              =   -2126.12970919 Ry
     estimated scf accuracy    <          2.9E-10 Ry

     total magnetization       =    19.00 Bohr mag/cell
     absolute magnetization    =    19.05 Bohr mag/cell

     iteration # 30     ecut=   100.00 Ry     beta= 0.40
     Davidson diagonalization with overlap
     ethr =  1.53E-13,  avg # of iterations =  4.5

     negative rho (up, down):  0.000E+00 9.530E-04

     Magnetic moment per site:
     atom:    1    charge:    7.8908    magn:    0.0006    constr:    0.0000
     atom:    2    charge:   12.7963    magn:    3.6503    constr:    0.0000
     atom:    3    charge:   12.8029    magn:    3.6352    constr:    0.0000
     atom:    4    charge:   12.8412    magn:    3.5351    constr:    0.0000
     atom:    5    charge:   12.8034    magn:    3.6382    constr:    0.0000
     atom:    6    charge:    0.8071    magn:    0.0104    constr:    0.0000
     atom:    7    charge:    0.8104    magn:    0.0083    constr:    0.0000
     atom:    8    charge:    0.8103    magn:    0.0112    constr:    0.0000
     atom:    9    charge:    0.8052    magn:    0.0089    constr:    0.0000
     atom:   10    charge:    4.1853    magn:    0.1357    constr:    0.0000
     atom:   11    charge:    4.2023    magn:    0.0886    constr:    0.0000
     atom:   12    charge:    4.1886    magn:    0.1251    constr:    0.0000
     atom:   13    charge:    4.1843    magn:    0.1086    constr:    0.0000
     atom:   14    charge:    4.1954    magn:    0.1102    constr:    0.0000
     atom:   15    charge:    4.2029    magn:    0.1251    constr:    0.0000
     atom:   16    charge:    4.1987    magn:    0.0761    constr:    0.0000
     atom:   17    charge:    4.1974    magn:    0.1353    constr:    0.0000
     atom:   18    charge:    4.1578    magn:    0.1499    constr:    0.0000
     atom:   19    charge:    4.1600    magn:    0.1299    constr:    0.0000
     atom:   20    charge:    4.1655    magn:    0.1477    constr:    0.0000
     atom:   21    charge:    4.1560    magn:    0.1299    constr:    0.0000
     atom:   22    charge:    4.1641    magn:    0.1403    constr:    0.0000
     atom:   23    charge:    4.1625    magn:    0.1202    constr:    0.0000
     atom:   24    charge:    4.1582    magn:    0.1512    constr:    0.0000
     atom:   25    charge:    4.1628    magn:    0.1319    constr:    0.0000

     total cpu time spent up to now is    21021.5 secs

     End of self-consistent calculation

 ------ SPIN UP ------------


          k = 0.0000 0.0000 0.0000 ( 35837 PWs)   bands (ev):

   -85.0219 -85.0001 -84.9892 -84.6007 -51.1526 -51.0948 -51.0940 -50.9730
   -50.9635 -50.9604 -50.9325 -50.9196 -50.8880 -50.8811 -50.5470 -50.3618
   -44.9121 -16.9541 -16.8931 -16.8646 -16.1637 -15.9883 -15.7872 -15.7014
   -13.8196 -13.6897 -13.5639 -13.5184 -13.4702 -13.4526 -13.3513 -13.2928
   -13.2604 -13.2181 -13.1325 -13.0269  -4.0376  -3.5511  -3.4122  -2.9947
    -2.2146  -1.8799  -1.7120  -1.5400  -1.4010  -1.3099  -1.1619  -1.1145
    -0.9645  -0.8570  -0.5943  -0.3459  -0.1787  -0.1416   0.3792   0.4181
     0.4546   0.5536   0.7299   0.8227   0.9095   0.9684   1.0820   1.1236
     1.2451   1.4936   1.5096   1.6652   1.7064   1.7519   1.8462   1.8963
     1.9838   2.1654   2.3335   2.3715   2.4373   2.4429   2.5661   2.6370
     2.7376   2.8200   2.8867   3.0100   3.0146   3.2304   3.3412   3.3686
     3.4092   3.5653   3.5937   3.6307   3.7280   3.8818   3.8967   4.0310
     4.1401   4.3237   4.3559   4.3786   4.6293   4.7644   4.9807   5.0990
     9.3819  11.4148  11.8899  12.2858  12.5218  13.0938  13.5749  13.6900
    13.7682  13.9882

     occupation numbers 
     1.0000   1.0000   1.0000   1.0000   1.0000   1.0000   1.0000   1.0000
     1.0000   1.0000   1.0000   1.0000   1.0000   1.0000   1.0000   1.0000
     1.0000   1.0000   1.0000   1.0000   1.0000   1.0000   1.0000   1.0000
     1.0000   1.0000   1.0000   1.0000   1.0000   1.0000   1.0000   1.0000
     1.0000   1.0000   1.0000   1.0000   1.0000   1.0000   1.0000   1.0000
     1.0000   1.0000   1.0000   1.0000   1.0000   1.0000   1.0000   1.0000
     1.0000   1.0000   1.0000   1.0000   1.0000   1.0000   1.0000   1.0000
     1.0000   1.0000   1.0000   1.0000   1.0000   1.0000   1.0000   1.0000
     1.0000   1.0000   1.0000   1.0000   1.0000   1.0000   1.0000   1.0000
     1.0000   1.0000   1.0000   1.0000   1.0000   1.0000   1.0000   1.0000
     1.0000   1.0000   1.0000   1.0000   1.0000   1.0000   1.0000   1.0000
     1.0000   1.0000   1.0000   1.0000   1.0000   1.0000   1.0000   1.0000
     1.0000   1.0000   1.0000   1.0000   1.0000   1.0000   1.0000   1.0000
     0.0000   0.0000   0.0000   0.0000   0.0000   0.0000   0.0000   0.0000
     0.0000   0.0000

          k = 0.0000 0.0000 0.2298 ( 35841 PWs)   bands (ev):

   -85.0219 -85.0001 -84.9892 -84.6007 -51.1526 -51.0948 -51.0940 -50.9730
   -50.9635 -50.9604 -50.9325 -50.9196 -50.8880 -50.8811 -50.5470 -50.3618
   -44.9121 -16.9551 -16.8997 -16.8637 -16.1477 -15.9802 -15.7814 -15.6979
   -13.8215 -13.6927 -13.5817 -13.5230 -13.4706 -13.4527 -13.3468 -13.3049
   -13.2561 -13.2279 -13.1366 -13.0308  -4.0132  -3.5443  -3.4100  -3.0064
    -2.1701  -1.8568  -1.7119  -1.5293  -1.3952  -1.3244  -1.1748  -1.0530
    -0.9584  -0.8228  -0.6397  -0.3184  -0.1830  -0.1586   0.3898   0.4177
     0.4671   0.5926   0.7277   0.8268   0.9055   0.9391   1.0605   1.1599
     1.2319   1.4856   1.4947   1.6289   1.6894   1.7251   1.7870   1.8365
     2.1102   2.1654   2.2592   2.3014   2.4282   2.4705   2.5120   2.6891
     2.7199   2.8011   2.9017   3.0189   3.1343   3.2145   3.2730   3.3352
     3.4129   3.5640   3.5736   3.6131   3.7215   3.8847   3.9609   4.0322
     4.1677   4.3330   4.3478   4.4007   4.6280   4.7488   4.9553   5.0773
     9.5315  11.4864  11.9515  12.2882  12.5740  13.0390  13.5172  13.6420
    13.6675  13.9186

     occupation numbers 
     1.0000   1.0000   1.0000   1.0000   1.0000   1.0000   1.0000   1.0000
     1.0000   1.0000   1.0000   1.0000   1.0000   1.0000   1.0000   1.0000
     1.0000   1.0000   1.0000   1.0000   1.0000   1.0000   1.0000   1.0000
     1.0000   1.0000   1.0000   1.0000   1.0000   1.0000   1.0000   1.0000
     1.0000   1.0000   1.0000   1.0000   1.0000   1.0000   1.0000   1.0000
     1.0000   1.0000   1.0000   1.0000   1.0000   1.0000   1.0000   1.0000
     1.0000   1.0000   1.0000   1.0000   1.0000   1.0000   1.0000   1.0000
     1.0000   1.0000   1.0000   1.0000   1.0000   1.0000   1.0000   1.0000
     1.0000   1.0000   1.0000   1.0000   1.0000   1.0000   1.0000   1.0000
     1.0000   1.0000   1.0000   1.0000   1.0000   1.0000   1.0000   1.0000
     1.0000   1.0000   1.0000   1.0000   1.0000   1.0000   1.0000   1.0000
     1.0000   1.0000   1.0000   1.0000   1.0000   1.0000   1.0000   1.0000
     1.0000   1.0000   1.0000   1.0000   1.0000   1.0000   1.0000   1.0000
     0.0000   0.0000   0.0000   0.0000   0.0000   0.0000   0.0000   0.0000
     0.0000   0.0000

          k = 0.0000 0.0000 0.4597 ( 35884 PWs)   bands (ev):

   -85.0219 -85.0001 -84.9892 -84.6007 -51.1526 -51.0948 -51.0940 -50.9730
   -50.9635 -50.9604 -50.9325 -50.9196 -50.8880 -50.8811 -50.5470 -50.3618
   -44.9121 -16.9597 -16.9127 -16.8621 -16.1067 -15.9597 -15.7659 -15.6902
   -13.8280 -13.7023 -13.6223 -13.5357 -13.4742 -13.4528 -13.3398 -13.3295
   -13.2517 -13.2447 -13.1479 -13.0415  -3.9435  -3.5356  -3.3998  -3.0490
    -2.0481  -1.8030  -1.7041  -1.5211  -1.3734  -1.3411  -1.1694  -0.9475
    -0.9142  -0.7570  -0.7345  -0.3004  -0.2315  -0.0949   0.4164   0.4388
     0.4989   0.6652   0.7521   0.8286   0.8848   0.9108   0.9918   1.2043
     1.2219   1.4419   1.5059   1.5400   1.6120   1.6573   1.7102   1.7841
     1.9842   2.0996   2.2354   2.3033   2.3884   2.3990   2.5857   2.6215
     2.7576   2.7991   2.9794   3.0365   3.0676   3.2054   3.2557   3.2868
     3.4284   3.4498   3.6125   3.7100   3.7493   3.8988   4.0331   4.0558
     4.2419   4.3226   4.3556   4.4579   4.6202   4.7186   4.8775   5.0108
     9.9336  11.6772  12.0934  12.3364  12.6882  12.9440  13.2676  13.4768
    13.5416  13.6057

     occupation numbers 
     1.0000   1.0000   1.0000   1.0000   1.0000   1.0000   1.0000   1.0000
     1.0000   1.0000   1.0000   1.0000   1.0000   1.0000   1.0000   1.0000
     1.0000   1.0000   1.0000   1.0000   1.0000   1.0000   1.0000   1.0000
     1.0000   1.0000   1.0000   1.0000   1.0000   1.0000   1.0000   1.0000
     1.0000   1.0000   1.0000   1.0000   1.0000   1.0000   1.0000   1.0000
     1.0000   1.0000   1.0000   1.0000   1.0000   1.0000   1.0000   1.0000
     1.0000   1.0000   1.0000   1.0000   1.0000   1.0000   1.0000   1.0000
     1.0000   1.0000   1.0000   1.0000   1.0000   1.0000   1.0000   1.0000
     1.0000   1.0000   1.0000   1.0000   1.0000   1.0000   1.0000   1.0000
     1.0000   1.0000   1.0000   1.0000   1.0000   1.0000   1.0000   1.0000
     1.0000   1.0000   1.0000   1.0000   1.0000   1.0000   1.0000   1.0000
     1.0000   1.0000   1.0000   1.0000   1.0000   1.0000   1.0000   1.0000
     1.0000   1.0000   1.0000   1.0000   1.0000   1.0000   1.0000   1.0000
     0.0000   0.0000   0.0000   0.0000   0.0000   0.0000   0.0000   0.0000
     0.0000   0.0000

          k = 0.0000 0.0000 0.6895 ( 35896 PWs)   bands (ev):

   -85.0219 -85.0001 -84.9892 -84.6007 -51.1526 -51.0948 -51.0940 -50.9730
   -50.9635 -50.9604 -50.9325 -50.9196 -50.8880 -50.8811 -50.5470 -50.3618
   -44.9121 -16.9693 -16.9214 -16.8608 -16.0578 -15.9367 -15.7462 -15.6845
   -13.8390 -13.7164 -13.6635 -13.5482 -13.4850 -13.4532 -13.3667 -13.3164
   -13.2768 -13.2305 -13.1626 -13.0555  -3.8407  -3.5482  -3.3774  -3.1222
    -1.9037  -1.7643  -1.6608  -1.5302  -1.3451  -1.3187  -1.1508  -0.9688
    -0.8326  -0.7730  -0.6284  -0.4594  -0.0871   0.0340   0.4365   0.5032
     0.5533   0.6601   0.8101   0.8289   0.8361   0.8841   0.9520   1.2052
     1.2347   1.3553   1.3997   1.4743   1.5753   1.5971   1.6785   1.6904
     1.7791   1.9447   2.1718   2.2649   2.3163   2.5126   2.5592   2.7203
     2.7861   2.8106   2.8550   2.9362   3.0931   3.1094   3.2136   3.2974
     3.3871   3.4593   3.7325   3.7988   3.8870   3.9765   4.0387   4.1039
     4.2791   4.3542   4.4009   4.4970   4.6125   4.7019   4.7461   4.8989
    10.4884  11.9166  12.1276  12.4739  12.7026  12.9427  13.1057  13.2892
    13.3408  13.3730

     occupation numbers 
     1.0000   1.0000   1.0000   1.0000   1.0000   1.0000   1.0000   1.0000
     1.0000   1.0000   1.0000   1.0000   1.0000   1.0000   1.0000   1.0000
     1.0000   1.0000   1.0000   1.0000   1.0000   1.0000   1.0000   1.0000
     1.0000   1.0000   1.0000   1.0000   1.0000   1.0000   1.0000   1.0000
     1.0000   1.0000   1.0000   1.0000   1.0000   1.0000   1.0000   1.0000
     1.0000   1.0000   1.0000   1.0000   1.0000   1.0000   1.0000   1.0000
     1.0000   1.0000   1.0000   1.0000   1.0000   1.0000   1.0000   1.0000
     1.0000   1.0000   1.0000   1.0000   1.0000   1.0000   1.0000   1.0000
     1.0000   1.0000   1.0000   1.0000   1.0000   1.0000   1.0000   1.0000
     1.0000   1.0000   1.0000   1.0000   1.0000   1.0000   1.0000   1.0000
     1.0000   1.0000   1.0000   1.0000   1.0000   1.0000   1.0000   1.0000
     1.0000   1.0000   1.0000   1.0000   1.0000   1.0000   1.0000   1.0000
     1.0000   1.0000   1.0000   1.0000   1.0000   1.0000   1.0000   1.0000
     0.0000   0.0000   0.0000   0.0000   0.0000   0.0000   0.0000   0.0000
     0.0000   0.0000

          k = 0.0000 0.0000 0.9194 ( 35906 PWs)   bands (ev):

   -85.0219 -85.0001 -84.9892 -84.6007 -51.1526 -51.0948 -51.0940 -50.9730
   -50.9635 -50.9604 -50.9325 -50.9196 -50.8880 -50.8811 -50.5470 -50.3618
   -44.9121 -16.9777 -16.9242 -16.8601 -16.0237 -15.9228 -15.7304 -15.6843
   -13.8486 -13.7286 -13.6867 -13.5548 -13.4975 -13.4538 -13.3822 -13.3041
   -13.2915 -13.2207 -13.1734 -13.0662  -3.7334  -3.5948  -3.3475  -3.1932
    -1.8175  -1.7560  -1.6089  -1.5319  -1.3210  -1.2370  -1.1554  -1.0989
    -0.7589  -0.6805  -0.6225  -0.5519   0.0998   0.2419   0.4324   0.5172
     0.5910   0.6287   0.7455   0.7626   0.7732   0.8966   1.0217   1.1526
     1.2594   1.2801   1.3213   1.3719   1.4411   1.5635   1.6314   1.7011
     1.8219   1.9380   2.0124   2.1739   2.3097   2.4586   2.6980   2.7132
     2.7689   2.8222   2.8633   2.8802   2.9971   3.0444   3.2090   3.3100
     3.3756   3.4629   3.8330   3.8574   3.9181   4.0259   4.1209   4.2283
     4.2528   4.4159   4.4806   4.5098   4.5683   4.6280   4.6978   4.7642
    11.0973  11.6925  12.2342  12.5712  12.7458  12.8718  13.1044  13.1574
    13.3178  13.3799

     occupation numbers 
     1.0000   1.0000   1.0000   1.0000   1.0000   1.0000   1.0000   1.0000
     1.0000   1.0000   1.0000   1.0000   1.0000   1.0000   1.0000   1.0000
     1.0000   1.0000   1.0000   1.0000   1.0000   1.0000   1.0000   1.0000
     1.0000   1.0000   1.0000   1.0000   1.0000   1.0000   1.0000   1.0000
     1.0000   1.0000   1.0000   1.0000   1.0000   1.0000   1.0000   1.0000
     1.0000   1.0000   1.0000   1.0000   1.0000   1.0000   1.0000   1.0000
     1.0000   1.0000   1.0000   1.0000   1.0000   1.0000   1.0000   1.0000
     1.0000   1.0000   1.0000   1.0000   1.0000   1.0000   1.0000   1.0000
     1.0000   1.0000   1.0000   1.0000   1.0000   1.0000   1.0000   1.0000
     1.0000   1.0000   1.0000   1.0000   1.0000   1.0000   1.0000   1.0000
     1.0000   1.0000   1.0000   1.0000   1.0000   1.0000   1.0000   1.0000
     1.0000   1.0000   1.0000   1.0000   1.0000   1.0000   1.0000   1.0000
     1.0000   1.0000   1.0000   1.0000   1.0000   1.0000   1.0000   1.0000
     0.0000   0.0000   0.0000   0.0000   0.0000   0.0000   0.0000   0.0000
     0.0000   0.0000

          k = 0.0000 0.2351 0.0000 ( 35823 PWs)   bands (ev):

   -85.0219 -85.0001 -84.9892 -84.6007 -51.1526 -51.0948 -51.0940 -50.9730
   -50.9635 -50.9604 -50.9325 -50.9196 -50.8880 -50.8811 -50.5470 -50.3618
   -44.9121 -16.9539 -16.8930 -16.8655 -16.1479 -15.9855 -15.7864 -15.7172
   -13.8207 -13.6870 -13.5629 -13.5206 -13.5082 -13.4564 -13.3376 -13.2951
   -13.2471 -13.2065 -13.1323 -13.0309  -4.0131  -3.5718  -3.3875  -3.0020
    -2.1918  -1.8862  -1.7111  -1.5450  -1.3706  -1.2994  -1.1621  -1.1005
    -0.9192  -0.8527  -0.5676  -0.3211  -0.2353  -0.0988   0.4006   0.4210
     0.4855   0.5197   0.6234   0.7323   0.8094   1.0427   1.1001   1.1841
     1.3372   1.4912   1.5085   1.6208   1.6767   1.7125   1.7677   1.8025
     2.0124   2.1990   2.3120   2.3908   2.4510   2.4862   2.5785   2.6068
     2.7833   2.7909   2.8430   2.8977   3.0308   3.2531   3.3307   3.3744
     3.4172   3.5008   3.5349   3.7200   3.7827   3.8726   3.9278   4.0424
     4.1411   4.2799   4.3572   4.4035   4.6110   4.7134   5.0409   5.1048
     9.5360  11.5036  11.9662  12.2422  12.5574  13.1710  13.5088  13.6567
    13.7463  13.9450

     occupation numbers 
     1.0000   1.0000   1.0000   1.0000   1.0000   1.0000   1.0000   1.0000
     1.0000   1.0000   1.0000   1.0000   1.0000   1.0000   1.0000   1.0000
     1.0000   1.0000   1.0000   1.0000   1.0000   1.0000   1.0000   1.0000
     1.0000   1.0000   1.0000   1.0000   1.0000   1.0000   1.0000   1.0000
     1.0000   1.0000   1.0000   1.0000   1.0000   1.0000   1.0000   1.0000
     1.0000   1.0000   1.0000   1.0000   1.0000   1.0000   1.0000   1.0000
     1.0000   1.0000   1.0000   1.0000   1.0000   1.0000   1.0000   1.0000
     1.0000   1.0000   1.0000   1.0000   1.0000   1.0000   1.0000   1.0000
     1.0000   1.0000   1.0000   1.0000   1.0000   1.0000   1.0000   1.0000
     1.0000   1.0000   1.0000   1.0000   1.0000   1.0000   1.0000   1.0000
     1.0000   1.0000   1.0000   1.0000   1.0000   1.0000   1.0000   1.0000
     1.0000   1.0000   1.0000   1.0000   1.0000   1.0000   1.0000   1.0000
     1.0000   1.0000   1.0000   1.0000   1.0000   1.0000   1.0000   1.0000
     0.0000   0.0000   0.0000   0.0000   0.0000   0.0000   0.0000   0.0000
     0.0000   0.0000

          k = 0.0000 0.2351 0.2298 ( 35841 PWs)   bands (ev):

   -85.0219 -85.0001 -84.9892 -84.6007 -51.1526 -51.0948 -51.0940 -50.9730
   -50.9635 -50.9604 -50.9325 -50.9196 -50.8880 -50.8811 -50.5470 -50.3618
   -44.9121 -16.9550 -16.8997 -16.8645 -16.1316 -15.9768 -15.7814 -15.7134
   -13.8226 -13.6898 -13.5810 -13.5252 -13.5079 -13.4569 -13.3439 -13.2981
   -13.2520 -13.2093 -13.1342 -13.0338  -3.9891  -3.5634  -3.3870  -3.0126
    -2.1494  -1.8622  -1.7084  -1.5337  -1.3663  -1.3124  -1.1613  -1.0533
    -0.9051  -0.8291  -0.6143  -0.3156  -0.2406  -0.0965   0.3946   0.4221
     0.4962   0.5557   0.6337   0.7418   0.8083   1.0352   1.1225   1.1648
     1.3018   1.4800   1.5076   1.5812   1.6602   1.6773   1.7345   1.7879
     2.1024   2.2032   2.2553   2.3540   2.4241   2.4912   2.5012   2.6544
     2.7359   2.8023   2.8497   2.9699   3.0510   3.2454   3.2607   3.3657
     3.3842   3.5160   3.5611   3.6773   3.7831   3.8853   3.9645   4.0490
     4.1681   4.2787   4.3738   4.4235   4.5929   4.7073   5.0225   5.0880
     9.6793  11.5733  12.0286  12.2752  12.5859  13.1060  13.4777  13.5759
    13.7077  13.8644

     occupation numbers 
     1.0000   1.0000   1.0000   1.0000   1.0000   1.0000   1.0000   1.0000
     1.0000   1.0000   1.0000   1.0000   1.0000   1.0000   1.0000   1.0000
     1.0000   1.0000   1.0000   1.0000   1.0000   1.0000   1.0000   1.0000
     1.0000   1.0000   1.0000   1.0000   1.0000   1.0000   1.0000   1.0000
     1.0000   1.0000   1.0000   1.0000   1.0000   1.0000   1.0000   1.0000
     1.0000   1.0000   1.0000   1.0000   1.0000   1.0000   1.0000   1.0000
     1.0000   1.0000   1.0000   1.0000   1.0000   1.0000   1.0000   1.0000
     1.0000   1.0000   1.0000   1.0000   1.0000   1.0000   1.0000   1.0000
     1.0000   1.0000   1.0000   1.0000   1.0000   1.0000   1.0000   1.0000
     1.0000   1.0000   1.0000   1.0000   1.0000   1.0000   1.0000   1.0000
     1.0000   1.0000   1.0000   1.0000   1.0000   1.0000   1.0000   1.0000
     1.0000   1.0000   1.0000   1.0000   1.0000   1.0000   1.0000   1.0000
     1.0000   1.0000   1.0000   1.0000   1.0000   1.0000   1.0000   1.0000
     0.0000   0.0000   0.0000   0.0000   0.0000   0.0000   0.0000   0.0000
     0.0000   0.0000

          k = 0.0000 0.2351 0.4597 ( 35884 PWs)   bands (ev):

   -85.0219 -85.0001 -84.9892 -84.6007 -51.1526 -51.0948 -51.0940 -50.9730
   -50.9635 -50.9604 -50.9325 -50.9196 -50.8880 -50.8811 -50.5470 -50.3618
   -44.9121 -16.9596 -16.9127 -16.8628 -16.0922 -15.9546 -15.7676 -15.7033
   -13.8286 -13.6991 -13.6227 -13.5374 -13.5075 -13.4583 -13.3683 -13.2967
   -13.2681 -13.2092 -13.1423 -13.0421  -3.9211  -3.5488  -3.3809  -3.0531
    -2.0322  -1.8049  -1.6965  -1.5208  -1.3544  -1.3165  -1.1520  -0.9377
    -0.8889  -0.7431  -0.7280  -0.3659  -0.1986  -0.0735   0.3793   0.4565
     0.5292   0.5559   0.7228   0.7696   0.8182   0.9916   1.0992   1.1860
     1.2454   1.4477   1.4828   1.5252   1.5781   1.6397   1.6771   1.7800
     2.0165   2.1071   2.2739   2.3077   2.3644   2.4230   2.5301   2.6441
     2.6978   2.8456   2.9196   2.9989   3.0663   3.1094   3.2290   3.3208
     3.3624   3.4956   3.6289   3.6860   3.7991   3.9220   4.0202   4.0745
     4.2302   4.2882   4.3531   4.4953   4.5577   4.7025   4.9706   5.0402
    10.0678  11.7626  12.1769  12.3668  12.6724  13.0014  13.2688  13.4563
    13.5615  13.6801

     occupation numbers 
     1.0000   1.0000   1.0000   1.0000   1.0000   1.0000   1.0000   1.0000
     1.0000   1.0000   1.0000   1.0000   1.0000   1.0000   1.0000   1.0000
     1.0000   1.0000   1.0000   1.0000   1.0000   1.0000   1.0000   1.0000
     1.0000   1.0000   1.0000   1.0000   1.0000   1.0000   1.0000   1.0000
     1.0000   1.0000   1.0000   1.0000   1.0000   1.0000   1.0000   1.0000
     1.0000   1.0000   1.0000   1.0000   1.0000   1.0000   1.0000   1.0000
     1.0000   1.0000   1.0000   1.0000   1.0000   1.0000   1.0000   1.0000
     1.0000   1.0000   1.0000   1.0000   1.0000   1.0000   1.0000   1.0000
     1.0000   1.0000   1.0000   1.0000   1.0000   1.0000   1.0000   1.0000
     1.0000   1.0000   1.0000   1.0000   1.0000   1.0000   1.0000   1.0000
     1.0000   1.0000   1.0000   1.0000   1.0000   1.0000   1.0000   1.0000
     1.0000   1.0000   1.0000   1.0000   1.0000   1.0000   1.0000   1.0000
     1.0000   1.0000   1.0000   1.0000   1.0000   1.0000   1.0000   1.0000
     0.0000   0.0000   0.0000   0.0000   0.0000   0.0000   0.0000   0.0000
     0.0000   0.0000

          k = 0.0000 0.2351 0.6895 ( 35919 PWs)   bands (ev):

   -85.0219 -85.0001 -84.9892 -84.6007 -51.1526 -51.0948 -51.0940 -50.9730
   -50.9635 -50.9604 -50.9325 -50.9196 -50.8880 -50.8811 -50.5470 -50.3618
   -44.9121 -16.9690 -16.9213 -16.8614 -16.0469 -15.9292 -15.7504 -15.6933
   -13.8390 -13.7134 -13.6652 -13.5472 -13.5138 -13.4598 -13.4000 -13.2941
   -13.2817 -13.2029 -13.1542 -13.0534  -3.8218  -3.5515  -3.3649  -3.1230
    -1.8915  -1.7570  -1.6561  -1.5239  -1.3376  -1.2802  -1.1327  -0.9386
    -0.8248  -0.7745  -0.6265  -0.4811  -0.0935   0.0071   0.3648   0.4839
     0.5194   0.6092   0.7692   0.8457   0.8989   0.9403   1.0273   1.1814
     1.2347   1.3473   1.4044   1.4867   1.5522   1.6115   1.6252   1.7216
     1.7860   1.9488   2.1427   2.3085   2.3248   2.4911   2.5390   2.6809
     2.7039   2.8340   2.8961   2.9795   3.0166   3.0969   3.1272   3.3141
     3.3581   3.4483   3.7478   3.7967   3.8608   3.9623   4.0440   4.1060
     4.2574   4.3169   4.3594   4.4936   4.6023   4.7020   4.8897   4.9657
    10.6091  12.0127  12.2185  12.5112  12.7481  12.9845  13.1261  13.2654
    13.3455  13.4100

     occupation numbers 
     1.0000   1.0000   1.0000   1.0000   1.0000   1.0000   1.0000   1.0000
     1.0000   1.0000   1.0000   1.0000   1.0000   1.0000   1.0000   1.0000
     1.0000   1.0000   1.0000   1.0000   1.0000   1.0000   1.0000   1.0000
     1.0000   1.0000   1.0000   1.0000   1.0000   1.0000   1.0000   1.0000
     1.0000   1.0000   1.0000   1.0000   1.0000   1.0000   1.0000   1.0000
     1.0000   1.0000   1.0000   1.0000   1.0000   1.0000   1.0000   1.0000
     1.0000   1.0000   1.0000   1.0000   1.0000   1.0000   1.0000   1.0000
     1.0000   1.0000   1.0000   1.0000   1.0000   1.0000   1.0000   1.0000
     1.0000   1.0000   1.0000   1.0000   1.0000   1.0000   1.0000   1.0000
     1.0000   1.0000   1.0000   1.0000   1.0000   1.0000   1.0000   1.0000
     1.0000   1.0000   1.0000   1.0000   1.0000   1.0000   1.0000   1.0000
     1.0000   1.0000   1.0000   1.0000   1.0000   1.0000   1.0000   1.0000
     1.0000   1.0000   1.0000   1.0000   1.0000   1.0000   1.0000   1.0000
     0.0000   0.0000   0.0000   0.0000   0.0000   0.0000   0.0000   0.0000
     0.0000   0.0000

          k = 0.0000 0.2351 0.9194 ( 35896 PWs)   bands (ev):

   -85.0219 -85.0001 -84.9892 -84.6007 -51.1526 -51.0948 -51.0940 -50.9730
   -50.9635 -50.9604 -50.9325 -50.9196 -50.8880 -50.8811 -50.5470 -50.3618
   -44.9121 -16.9771 -16.9241 -16.8606 -16.0161 -15.9144 -15.7362 -15.6887
   -13.8484 -13.7261 -13.6889 -13.5511 -13.5238 -13.4606 -13.4176 -13.3058
   -13.2735 -13.1981 -13.1636 -13.0622  -3.7209  -3.5861  -3.3431  -3.1888
    -1.8046  -1.7432  -1.6070  -1.5255  -1.3095  -1.2059  -1.1353  -1.0625
    -0.7698  -0.6903  -0.6222  -0.5330   0.0429   0.1648   0.3192   0.3612
     0.5943   0.7295   0.7572   0.8490   0.8994   0.9459   1.0405   1.1172
     1.2247   1.2649   1.3555   1.4274   1.4523   1.5493   1.6080   1.6511
     1.8098   1.9311   2.0016   2.1822   2.3366   2.4559   2.6273   2.6797
     2.7476   2.8256   2.8466   2.9147   3.0065   3.0506   3.1357   3.3076
     3.3583   3.4312   3.8118   3.8706   3.9399   4.0123   4.0842   4.1151
     4.2212   4.3043   4.4222   4.4986   4.6584   4.7026   4.8099   4.8932
    11.2097  11.8017  12.3172  12.6639  12.7860  12.9218  13.1290  13.1911
    13.2509  13.3881

     occupation numbers 
     1.0000   1.0000   1.0000   1.0000   1.0000   1.0000   1.0000   1.0000
     1.0000   1.0000   1.0000   1.0000   1.0000   1.0000   1.0000   1.0000
     1.0000   1.0000   1.0000   1.0000   1.0000   1.0000   1.0000   1.0000
     1.0000   1.0000   1.0000   1.0000   1.0000   1.0000   1.0000   1.0000
     1.0000   1.0000   1.0000   1.0000   1.0000   1.0000   1.0000   1.0000
     1.0000   1.0000   1.0000   1.0000   1.0000   1.0000   1.0000   1.0000
     1.0000   1.0000   1.0000   1.0000   1.0000   1.0000   1.0000   1.0000
     1.0000   1.0000   1.0000   1.0000   1.0000   1.0000   1.0000   1.0000
     1.0000   1.0000   1.0000   1.0000   1.0000   1.0000   1.0000   1.0000
     1.0000   1.0000   1.0000   1.0000   1.0000   1.0000   1.0000   1.0000
     1.0000   1.0000   1.0000   1.0000   1.0000   1.0000   1.0000   1.0000
     1.0000   1.0000   1.0000   1.0000   1.0000   1.0000   1.0000   1.0000
     1.0000   1.0000   1.0000   1.0000   1.0000   1.0000   1.0000   1.0000
     0.0000   0.0000   0.0000   0.0000   0.0000   0.0000   0.0000   0.0000
     0.0000   0.0000

          k = 0.0000 0.4701 0.0000 ( 35853 PWs)   bands (ev):

   -85.0219 -85.0001 -84.9892 -84.6007 -51.1526 -51.0948 -51.0940 -50.9730
   -50.9635 -50.9604 -50.9325 -50.9196 -50.8880 -50.8811 -50.5470 -50.3618
   -44.9121 -16.9534 -16.8929 -16.8674 -16.1068 -15.9786 -15.7959 -15.7478
   -13.8216 -13.6797 -13.5927 -13.5535 -13.5073 -13.4636 -13.3384 -13.2876
   -13.2392 -13.1657 -13.1377 -13.0387  -3.9465  -3.6302  -3.3221  -3.0305
    -2.1338  -1.9038  -1.7076  -1.5537  -1.3411  -1.2499  -1.1535  -1.0210
    -0.9045  -0.7569  -0.5420  -0.3518  -0.2290  -0.0077   0.3498   0.4145
     0.4697   0.5184   0.5645   0.6191   0.6904   0.9915   1.1752   1.2948
     1.3343   1.4061   1.4315   1.5102   1.5865   1.6624   1.7830   1.8609
     2.0633   2.1790   2.3170   2.3476   2.4370   2.4874   2.5307   2.5710
     2.7670   2.8063   2.8363   2.9234   3.0349   3.1956   3.2541   3.3003
     3.3485   3.4611   3.7039   3.7634   3.8367   3.8921   3.9621   4.0883
     4.1267   4.2020   4.3080   4.3980   4.5152   4.8327   5.0737   5.1133
     9.9554  11.7068  11.8985  12.1838  12.7225  13.2845  13.3990  13.5147
    13.8782  13.9712

     occupation numbers 
     1.0000   1.0000   1.0000   1.0000   1.0000   1.0000   1.0000   1.0000
     1.0000   1.0000   1.0000   1.0000   1.0000   1.0000   1.0000   1.0000
     1.0000   1.0000   1.0000   1.0000   1.0000   1.0000   1.0000   1.0000
     1.0000   1.0000   1.0000   1.0000   1.0000   1.0000   1.0000   1.0000
     1.0000   1.0000   1.0000   1.0000   1.0000   1.0000   1.0000   1.0000
     1.0000   1.0000   1.0000   1.0000   1.0000   1.0000   1.0000   1.0000
     1.0000   1.0000   1.0000   1.0000   1.0000   1.0000   1.0000   1.0000
     1.0000   1.0000   1.0000   1.0000   1.0000   1.0000   1.0000   1.0000
     1.0000   1.0000   1.0000   1.0000   1.0000   1.0000   1.0000   1.0000
     1.0000   1.0000   1.0000   1.0000   1.0000   1.0000   1.0000   1.0000
     1.0000   1.0000   1.0000   1.0000   1.0000   1.0000   1.0000   1.0000
     1.0000   1.0000   1.0000   1.0000   1.0000   1.0000   1.0000   1.0000
     1.0000   1.0000   1.0000   1.0000   1.0000   1.0000   1.0000   1.0000
     0.0000   0.0000   0.0000   0.0000   0.0000   0.0000   0.0000   0.0000
     0.0000   0.0000

          k = 0.0000 0.4701 0.2298 ( 35845 PWs)   bands (ev):

   -85.0219 -85.0001 -84.9892 -84.6007 -51.1526 -51.0948 -51.0940 -50.9730
   -50.9635 -50.9604 -50.9325 -50.9196 -50.8880 -50.8811 -50.5470 -50.3618
   -44.9121 -16.9545 -16.8996 -16.8662 -16.0920 -15.9688 -15.7923 -15.7416
   -13.8230 -13.6819 -13.5963 -13.5678 -13.5117 -13.4658 -13.3576 -13.2846
   -13.2443 -13.1665 -13.1362 -13.0398  -3.9240  -3.6179  -3.3245  -3.0387
    -2.0964  -1.8779  -1.6989  -1.5418  -1.3396  -1.2556  -1.1182  -1.0146
    -0.8584  -0.7699  -0.5821  -0.3921  -0.2033  -0.0099   0.3253   0.3941
     0.4751   0.5367   0.5845   0.6539   0.7204   1.0259   1.1492   1.2455
     1.2976   1.3780   1.4478   1.5037   1.5733   1.6667   1.7685   1.8793
[...]
     atom   24 type  3   force =     0.00406368   -0.00049323   -0.00116370
     atom   25 type  3   force =    -0.00384057    0.00285818   -0.00114710
     The non-local contrib.  to forces
     atom    1 type  2   force =     0.11354276    0.04190635   -0.01257297
     atom    2 type  1   force =     0.06021898    0.01542578    0.12248997
     atom    3 type  1   force =     0.04477097   -0.00003183    0.09554050
     atom    4 type  1   force =    -0.19576898   -0.04543795   -0.07581939
     atom    5 type  1   force =    -0.02500243    0.00863262   -0.10188402
     atom    6 type  4   force =     0.00063956    0.00028759   -0.02559295
     atom    7 type  4   force =     0.02074576   -0.00127670    0.00275739
     atom    8 type  4   force =    -0.02308451    0.00526858    0.02452282
     atom    9 type  4   force =     0.02668387   -0.00109918    0.03247394
     atom   10 type  3   force =     0.31065564   -0.01115157   -1.47146942
     atom   11 type  3   force =    -0.11147352   -0.00941475   -1.39375776
     atom   12 type  3   force =    -0.39514725    0.01501852    1.47422464
     atom   13 type  3   force =     0.24054036   -0.01462935    1.47516301
     atom   14 type  3   force =     1.22022774   -0.00935623   -0.62058863
     atom   15 type  3   force =    -1.19518077    0.01115824   -0.78281564
     atom   16 type  3   force =    -1.20337539   -0.01988203    0.31582639
     atom   17 type  3   force =     1.17042994   -0.00543998    0.62724789
     atom   18 type  3   force =    -0.52278218   -1.12308452    0.76772802
     atom   19 type  3   force =     0.51943949    1.19334684    0.79301308
     atom   20 type  3   force =     0.52772167   -1.12254250   -0.67014899
     atom   21 type  3   force =    -0.52384296    1.08872952   -0.73239591
     atom   22 type  3   force =     0.57067103    1.13612736   -0.69684757
     atom   23 type  3   force =    -0.59288575   -1.08205967   -0.64426908
     atom   24 type  3   force =    -0.52026918    1.11708719    0.77254547
     atom   25 type  3   force =     0.54553756   -1.17011695    0.81604719
     The ionic contribution  to forces
     atom    1 type  2   force =    -3.16208842    0.23877435    2.14013721
     atom    2 type  1   force =    -0.32451654   -0.11263516   -0.50247204
     atom    3 type  1   force =    -8.01058474    0.36456569   -0.66778011
     atom    4 type  1   force =     3.90035454    0.50154478   -0.22651918
     atom    5 type  1   force =     8.07038513   -0.57285314    0.77118846
     atom    6 type  4   force =    -3.05867935   -0.02113522    0.39463854
     atom    7 type  4   force =     0.29527471    0.40400764    0.52718924
     atom    8 type  4   force =     4.75276075   -0.01364837   -0.63907869
     atom    9 type  4   force =    -2.29294939   -0.47134938   -0.80638936
     atom   10 type  3   force =   -10.23248912    0.03878617    2.50771269
     atom   11 type  3   force =     3.83892642    0.74229369    1.02574986
     atom   12 type  3   force =    12.21873238   -0.15595514   -2.65350987
     atom   13 type  3   force =    -8.36414231   -0.49599710   -2.03532874
     atom   14 type  3   force =     0.63181867   -0.54239446    5.54103140
     atom   15 type  3   force =    -1.92993818   -0.07923647    7.08174454
     atom   16 type  3   force =    -1.88883274    0.92855398   -2.60967426
     atom   17 type  3   force =     3.57179852    0.07381105   -6.23034172
     atom   18 type  3   force =    -4.07225158    2.81585150   -2.96001281
     atom   19 type  3   force =     0.62331802   -4.27889073   -2.31581076
     atom   20 type  3   force =     5.26646717    4.27322411    2.26099795
     atom   21 type  3   force =    -1.83264673   -1.60538652    2.02874665
     atom   22 type  3   force =     5.27737176   -4.35179411    2.59196213
     atom   23 type  3   force =    -0.31150744    1.11149897    0.54724315
     atom   24 type  3   force =    -3.94581223   -2.73437134   -3.00038053
     atom   25 type  3   force =     0.97923069    3.94273524   -2.77104373
     The local contribution  to forces
     atom    1 type  2   force =     3.05289947   -0.28496132   -2.12495669
     atom    2 type  1   force =     0.25837578    0.09758438    0.38043845
     atom    3 type  1   force =     7.97265216   -0.36416514    0.57107081
     atom    4 type  1   force =    -3.70547856   -0.45562985    0.30302341
     atom    5 type  1   force =    -8.05208848    0.56448186   -0.66886542
     atom    6 type  4   force =     3.08880755    0.02097929   -0.36614281
     atom    7 type  4   force =    -0.33905703   -0.40223931   -0.52533514
     atom    8 type  4   force =    -4.76576185    0.00972525    0.60695571
     atom    9 type  4   force =     2.29943911    0.47124213    0.77146589
     atom   10 type  3   force =     9.92104749   -0.02735864   -1.05070895
     atom   11 type  3   force =    -3.72958593   -0.73229078    0.35571282
     atom   12 type  3   force =   -11.82228920    0.14131851    1.19515314
     atom   13 type  3   force =     8.12243080    0.51032228    0.57373098
     atom   14 type  3   force =    -1.87811015    0.55251602   -4.91756692
     atom   15 type  3   force =     3.15206862    0.06779445   -6.29617664
     atom   16 type  3   force =     3.11439095   -0.90875038    2.29073162
     atom   17 type  3   force =    -4.76510063   -0.06814633    5.60010211
     atom   18 type  3   force =     4.59479861   -1.70186899    2.19786304
     atom   19 type  3   force =    -1.14179409    3.09374129    1.52856578
     atom   20 type  3   force =    -5.79270363   -3.15644900   -1.59800403
     atom   21 type  3   force =     2.35373568    0.52433756   -1.30100078
     atom   22 type  3   force =    -5.84749325    3.22245330   -1.90220903
     atom   23 type  3   force =     0.90327620   -0.03894754    0.09292325
     atom   24 type  3   force =     4.46571279    1.62642309    2.23365695
     atom   25 type  3   force =    -1.52398272   -2.77981525    1.96123631
     The core correction contribution to forces
     atom    1 type  2   force =     0.00000000    0.00000000    0.00000000
     atom    2 type  1   force =    -0.00067463   -0.00014788   -0.00035730
     atom    3 type  1   force =     0.00006847    0.00002215    0.00055133
     atom    4 type  1   force =     0.00367702    0.00043346   -0.00093560
     atom    5 type  1   force =     0.00010531   -0.00007583    0.00012712
     atom    6 type  4   force =    -0.00066958   -0.00002289    0.00149616
     atom    7 type  4   force =    -0.00053003   -0.00002212   -0.00055513
     atom    8 type  4   force =     0.00188867   -0.00034115   -0.00118603
     atom    9 type  4   force =    -0.00264436    0.00036491   -0.00181576
     atom   10 type  3   force =    -0.00332774    0.00010115    0.01283997
     atom   11 type  3   force =     0.00166971    0.00007074    0.01202645
     atom   12 type  3   force =     0.00408729   -0.00015102   -0.01282728
     atom   13 type  3   force =    -0.00273569    0.00013525   -0.01282676
     atom   14 type  3   force =    -0.00975807    0.00008914    0.00579446
     atom   15 type  3   force =     0.00956781   -0.00009645    0.00715996
     atom   16 type  3   force =     0.00957426    0.00015248   -0.00304643
     atom   17 type  3   force =    -0.00945753    0.00004623   -0.00580923
     atom   18 type  3   force =     0.00445722    0.00969551   -0.00692696
     atom   19 type  3   force =    -0.00438168   -0.01032731   -0.00716372
     atom   20 type  3   force =    -0.00454381    0.00966635    0.00601493
     atom   21 type  3   force =     0.00448344   -0.00941480    0.00666658
     atom   22 type  3   force =    -0.00492680   -0.00978953    0.00625981
     atom   23 type  3   force =     0.00506547    0.00942208    0.00583859
     atom   24 type  3   force =     0.00443330   -0.00963022   -0.00698527
     atom   25 type  3   force =    -0.00462215    0.01005645   -0.00738372
     The Hubbard contrib.    to forces
     atom    1 type  2   force =     0.00000000    0.00000000    0.00000000
     atom    2 type  1   force =     0.00000000    0.00000000    0.00000000
     atom    3 type  1   force =     0.00000000    0.00000000    0.00000000
     atom    4 type  1   force =     0.00000000    0.00000000    0.00000000
     atom    5 type  1   force =     0.00000000    0.00000000    0.00000000
     atom    6 type  4   force =     0.00000000    0.00000000    0.00000000
     atom    7 type  4   force =     0.00000000    0.00000000    0.00000000
     atom    8 type  4   force =     0.00000000    0.00000000    0.00000000
     atom    9 type  4   force =     0.00000000    0.00000000    0.00000000
     atom   10 type  3   force =     0.00000000    0.00000000    0.00000000
     atom   11 type  3   force =     0.00000000    0.00000000    0.00000000
     atom   12 type  3   force =     0.00000000    0.00000000    0.00000000
     atom   13 type  3   force =     0.00000000    0.00000000    0.00000000
     atom   14 type  3   force =     0.00000000    0.00000000    0.00000000
     atom   15 type  3   force =     0.00000000    0.00000000    0.00000000
     atom   16 type  3   force =     0.00000000    0.00000000    0.00000000
     atom   17 type  3   force =     0.00000000    0.00000000    0.00000000
     atom   18 type  3   force =     0.00000000    0.00000000    0.00000000
     atom   19 type  3   force =     0.00000000    0.00000000    0.00000000
     atom   20 type  3   force =     0.00000000    0.00000000    0.00000000
     atom   21 type  3   force =     0.00000000    0.00000000    0.00000000
     atom   22 type  3   force =     0.00000000    0.00000000    0.00000000
     atom   23 type  3   force =     0.00000000    0.00000000    0.00000000
     atom   24 type  3   force =     0.00000000    0.00000000    0.00000000
     atom   25 type  3   force =     0.00000000    0.00000000    0.00000000
     The SCF correction term to forces
     atom    1 type  2   force =    -0.00000179    0.00000016    0.00000051
     atom    2 type  1   force =    -0.00000816   -0.00000002   -0.00000068
     atom    3 type  1   force =    -0.00000401    0.00000002   -0.00000060
     atom    4 type  1   force =     0.00000543   -0.00000009    0.00000031
     atom    5 type  1   force =     0.00000705    0.00000018   -0.00000051
     atom    6 type  4   force =     0.00000012   -0.00000002    0.00000007
     atom    7 type  4   force =    -0.00000311   -0.00000002   -0.00000014
     atom    8 type  4   force =     0.00000256   -0.00000004   -0.00000007
     atom    9 type  4   force =     0.00000026    0.00000006    0.00000017
     atom   10 type  3   force =    -0.00000117    0.00000000   -0.00000073
     atom   11 type  3   force =    -0.00000523   -0.00000001    0.00000190
     atom   12 type  3   force =     0.00000354   -0.00000008    0.00000066
     atom   13 type  3   force =     0.00000032    0.00000009   -0.00000022
     atom   14 type  3   force =    -0.00000206    0.00000003    0.00000046
     atom   15 type  3   force =     0.00000368    0.00000002   -0.00000079
     atom   16 type  3   force =    -0.00000138   -0.00000005   -0.00000065
     atom   17 type  3   force =     0.00000288    0.00000002   -0.00000019
     atom   18 type  3   force =    -0.00000075    0.00000194    0.00000117
     atom   19 type  3   force =    -0.00000376    0.00000128   -0.00000170
     atom   20 type  3   force =     0.00000285    0.00000008   -0.00000039
     atom   21 type  3   force =     0.00000121    0.00000009    0.00000071
     atom   22 type  3   force =     0.00000277   -0.00000016   -0.00000039
     atom   23 type  3   force =     0.00000129    0.00000002    0.00000065
     atom   24 type  3   force =    -0.00000074   -0.00000199    0.00000118
     atom   25 type  3   force =    -0.00000370   -0.00000134   -0.00000167

     Total force =     0.095306     Total SCF correction =     0.000018


     Computing stress (Cartesian axis) and pressure


     negative rho (up, down):  0.000E+00 9.530E-04
          total   stress  (Ry/bohr**3)                   (kbar)     P=        5.11
   0.00012954  -0.00000777  -0.00002088           19.06       -1.14       -3.07
  -0.00000777  -0.00011632   0.00001256           -1.14      -17.11        1.85
  -0.00002088   0.00001256   0.00009096           -3.07        1.85       13.38

     kinetic stress (kbar)  26928.49      2.85     -9.67
                                2.85  27125.04      3.22
                               -9.67      3.22  26932.46

     local   stress (kbar)  -4832.99    965.12   1147.82
                              965.12 -13286.70   -346.90
                             1147.82   -346.90  -8664.83

     nonloc. stress (kbar)  -6871.22      1.16      1.70
                                1.16  -6805.04     -0.09
                                1.70     -0.09  -6825.17

     hartree stress (kbar)  12802.32   -388.57   -468.32
                             -388.57  17713.53    135.94
                             -468.32    135.94  15176.65

     exc-cor stress (kbar)  -2850.35     -0.61     -0.75
                               -0.61  -2858.66      0.27
                               -0.75      0.27  -2855.43

     corecor stress (kbar)  -3169.18      0.17      0.82
                                0.17  -3167.81     -0.04
                                0.82     -0.04  -3168.99

     ewald   stress (kbar) -21988.02   -581.27   -674.67
                             -581.27 -18737.48    209.44
                             -674.67    209.44 -20581.31

     hubbard stress (kbar)      0.00      0.00      0.00
                                0.00      0.00      0.00
                                0.00      0.00      0.00

     DFT-D   stress (kbar)      0.00      0.00      0.00
                                0.00      0.00      0.00
                                0.00      0.00      0.00

     XDM     stress (kbar)      0.00      0.00      0.00
                                0.00      0.00      0.00
                                0.00      0.00      0.00

     dft-nl  stress (kbar)      0.00      0.00      0.00
                                0.00      0.00      0.00
                                0.00      0.00      0.00

     TS-vdW  stress (kbar)      0.00      0.00      0.00
                                0.00      0.00      0.00
                                0.00      0.00      0.00



     init_run     :    237.32s CPU    252.18s WALL (       1 calls)
     electrons    :  20368.28s CPU  20760.20s WALL (       1 calls)
     forces       :    167.52s CPU    171.37s WALL (       1 calls)
     stress       :   1607.45s CPU   1632.60s WALL (       1 calls)

     Called by init_run:
     wfcinit      :    226.03s CPU    234.98s WALL (       1 calls)
     wfcinit:atom :      4.95s CPU      5.11s WALL (     316 calls)
     wfcinit:wfcr :    205.81s CPU    214.10s WALL (     316 calls)
     potinit      :      3.48s CPU      4.64s WALL (       1 calls)
     hinit0       :      3.14s CPU      6.59s WALL (       1 calls)

     Called by electrons:
     c_bands      :  18185.46s CPU  18473.11s WALL (      30 calls)
     sum_band     :   2046.57s CPU   2119.57s WALL (      30 calls)
     v_of_rho     :     37.76s CPU     39.74s WALL (      31 calls)
     v_h          :      1.87s CPU      2.00s WALL (      31 calls)
     v_xc         :     38.20s CPU     40.17s WALL (      33 calls)
     newd         :     75.86s CPU    105.29s WALL (      31 calls)
     PAW_pot      :     13.37s CPU     13.91s WALL (      31 calls)
     mix_rho      :      9.00s CPU      9.46s WALL (      30 calls)

     Called by c_bands:
     init_us_2    :    438.98s CPU    453.91s WALL (   19908 calls)
     cegterg      :  17559.97s CPU  17827.89s WALL (    9480 calls)

     Called by sum_band:
     sum_band:wei :      0.49s CPU      0.49s WALL (      30 calls)
     sum_band:loo :   1830.23s CPU   1864.52s WALL (      30 calls)
     sum_band:buf :    102.19s CPU    105.47s WALL (    9480 calls)
     sum_band:ini :    208.92s CPU    215.43s WALL (    9480 calls)
     sum_band:cal :    877.67s CPU    893.26s WALL (    9480 calls)
     sum_band:bec :     11.15s CPU     11.43s WALL (    9480 calls)
     addusdens    :    207.03s CPU    245.38s WALL (      30 calls)
     addusd:skk   :      1.49s CPU      1.57s WALL (      90 calls)
     addusd:dgemm :     90.52s CPU    122.63s WALL (     180 calls)
     addusd:qvan2 :    112.24s CPU    113.80s WALL (     180 calls)

     Called by *egterg:
     cdiaghg      :    830.02s CPU    858.93s WALL (   38926 calls)
     cegterg:over :   1950.79s CPU   1998.33s WALL (   29446 calls)
     cegterg:upda :   1057.53s CPU   1067.94s WALL (   29446 calls)
     cegterg:last :   2189.85s CPU   2211.93s WALL (   16663 calls)
     h_psi        :   8057.91s CPU   8175.19s WALL (   39242 calls)
     s_psi        :   2333.48s CPU   2355.22s WALL (   39242 calls)
     g_psi        :     34.04s CPU     34.62s WALL (   29446 calls)

     Called by h_psi:
     h_psi:calbec :   2452.76s CPU   2498.14s WALL (   39242 calls)
     vloc_psi     :   2927.38s CPU   2965.30s WALL (   39242 calls)
     add_vuspsi   :   2447.71s CPU   2472.15s WALL (   39242 calls)

     General routines
     calbec       :   3484.23s CPU   3547.89s WALL (   50302 calls)
     fft          :     34.11s CPU     37.65s WALL (     813 calls)
     ffts         :      0.48s CPU      0.69s WALL (     122 calls)
     fftw         :   3254.93s CPU   3296.18s WALL ( 5945580 calls)
     interpolate  :      2.57s CPU      2.94s WALL (      62 calls)

     Parallel routines
     fft_scatt_xy :    266.68s CPU    269.84s WALL ( 5946515 calls)
     fft_scatt_yz :   1289.55s CPU   1310.13s WALL ( 5946515 calls)

     PAW routines
     PAW_pot      :     13.37s CPU     13.91s WALL (      31 calls)

     PWSCF        :      6h13m CPU      6h20m WALL


   This run was terminated on:   3:23:53  17Dec2022            

=------------------------------------------------------------------------------=
   JOB DONE.
=------------------------------------------------------------------------------=
Note: The following floating-point exceptions are signalling: IEEE_UNDERFLOW_FLAG IEEE_DENORMAL
Note: The following floating-point exceptions are signalling: IEEE_DENORMAL
Note: The following floating-point exceptions are signalling: IEEE_DENORMAL
Note: The following floating-point exceptions are signalling: IEEE_DENORMAL
Note: The following floating-point exceptions are signalling: IEEE_DENORMAL
Note: The following floating-point exceptions are signalling: IEEE_DENORMAL
Note: The following floating-point exceptions are signalling: IEEE_DENORMAL
Note: The following floating-point exceptions are signalling: IEEE_DENORMAL
Note: The following floating-point exceptions are signalling: IEEE_DENORMAL
Note: The following floating-point exceptions are signalling: IEEE_DENORMAL
Note: The following floating-point exceptions are signalling: IEEE_DENORMAL
Note: The following floating-point exceptions are signalling: IEEE_DENORMAL
Note: The following floating-point exceptions are signalling: IEEE_DENORMAL
Note: The following floating-point exceptions are signalling: IEEE_DENORMAL
Note: The following floating-point exceptions are signalling: IEEE_INVALID_FLAG IEEE_DENORMAL
Note: The following floating-point exceptions are signalling: IEEE_DENORMAL
Note: The following floating-point exceptions are signalling: IEEE_DENORMAL
Note: The following floating-point exceptions are signalling: IEEE_DENORMAL
Note: The following floating-point exceptions are signalling: IEEE_DENORMAL
Note: The following floating-point exceptions are signalling: IEEE_DENORMAL
Note: The following floating-point exceptions are signalling: IEEE_DENORMAL
Note: The following floating-point exceptions are signalling: IEEE_DENORMAL
Note: The following floating-point exceptions are signalling: IEEE_DENORMAL
Note: The following floating-point exceptions are signalling: IEEE_DENORMAL
