# /home/jsp1/perl4dpgen_20221025/initial/BN_mp-984/BN_mp-984.in

4 atoms
3 atom types

0.000000000000       2.512428460000  xlo xhi
0.000000000000       2.175826608231  ylo yhi
0.000000000000       7.707265000000  zlo zhi
-1.256214686084       0.000000000000       0.000000000000  xy xz yz

Masses

1 10.81  # B
2 15.999  # O
3 14.007  # N

Atoms  # atomic

1 1 -0.000001560270 1.450551797429 1.926816250000
2 1 1.256215334186 0.725274810801 5.780448750000
3 3 -0.000001560270 1.450551797429 5.780448750000
4 3 1.256215334186 0.725274810801 1.926816250000
