
     Program PWSCF v.6.7MaX starts on 28Sep2022 at 21: 7:14 

     This program is part of the open-source Quantum ESPRESSO suite
     for quantum simulation of materials; please cite
         "P. Giannozzi et al., J. Phys.:Condens. Matter 21 395502 (2009);
         "P. Giannozzi et al., J. Phys.:Condens. Matter 29 465901 (2017);
          URL http://www.quantum-espresso.org", 
     in publications or presentations arising from this work. More details at
     http://www.quantum-espresso.org/quote

     Parallel version (MPI), running on    16 processors

     MPI processes distributed on     1 nodes
     R & G space division:  proc/nbgrp/npool/nimage =      16
     Reading input from scale_2dab-01.in

     Current dimensions of program PWSCF are:
     Max number of different atomic species (ntypx) = 10
     Max number of k-points (npk) =  40000
     Max angular momentum in pseudopotentials (lmaxx) =  3
     Message from routine read_pp_mesh:
     mesh size missing, using the one in header

     Subspace diagonalization in iterative solution of the eigenvalue problem:
     a serial algorithm will be used


     Parallelization info
     --------------------
     sticks:   dense  smooth     PW     G-vecs:    dense   smooth      PW
     Min          40      28      8                 2592     1597     258
     Max          41      29      9                 2599     1605     267
     Sum         649     463    139                41545    25613    4191



     bravais-lattice index     =            0
     lattice parameter (alat)  =       4.5895  a.u.
     unit-cell volume          =     265.6810 (a.u.)^3
     number of atoms/cell      =            4
     number of atomic types    =            2
     number of electrons       =        16.00
     number of Kohn-Sham states=           12
     kinetic-energy cutoff     =      80.0000  Ry
     charge density cutoff     =     440.0000  Ry
     scf convergence threshold =      2.0E-10
     mixing beta               =       0.4000
     number of iterations used =            8  plain     mixing
     Exchange-correlation= PBE
                           (   1   4   3   4   0   0   0)

     celldm(1)=   4.589490  celldm(2)=   0.000000  celldm(3)=   0.000000
     celldm(4)=   0.000000  celldm(5)=   0.000000  celldm(6)=   0.000000

     crystal axes: (cart. coord. in units of alat)
               a(1) = (   1.000000   0.000000   0.000000 )  
               a(2) = (  -0.500000   0.866025   0.000000 )  
               a(3) = (   0.000000   0.000000   3.173487 )  

     reciprocal axes: (cart. coord. in units 2 pi/alat)
               b(1) = (  1.000000  0.577350 -0.000000 )  
               b(2) = (  0.000000  1.154701  0.000000 )  
               b(3) = (  0.000000 -0.000000  0.315111 )  


     PseudoPot. # 1 for B  read from file:
     /opt/QEpot/SSSP_precision_pseudos/B_pbe_v1.01.uspp.F.UPF
     MD5 check sum: d081ebb89d0c768e112975f650467a00
     Pseudo is Ultrasoft + core correction, Zval =  3.0
     Generated by new atomic code, or converted to UPF format
     Using radial grid of  781 points,  4 beta functions with: 
                l(1) =   0
                l(2) =   0
                l(3) =   1
                l(4) =   1
     Q(r) pseudized with  8 coefficients,  rinner =    1.100   1.100   1.100


     PseudoPot. # 2 for N  read from file:
     /opt/QEpot/SSSP_precision_pseudos/N.oncvpsp.upf
     MD5 check sum: 563d65bfb082928f0c9eb97172f6c357
     Pseudo is Norm-conserving + core correction, Zval =  5.0
     Generated using ONCVPSP code by D. R. Hamann
     Using radial grid of 1058 points,  4 beta functions with: 
                l(1) =   0
                l(2) =   0
                l(3) =   1
                l(4) =   1

     atomic species   valence    mass     pseudopotential
        B              3.00    10.81000     B ( 1.00)
        N              5.00    14.00700     N ( 1.00)

     No symmetry found


                                    s                        frac. trans.

      isym =  1     identity                                     

 cryst.   s( 1) = (     1          0          0      )
                  (     0          1          0      )
                  (     0          0          1      )

 cart.    s( 1) = (  1.0000000  0.0000000  0.0000000 )
                  (  0.0000000  1.0000000  0.0000000 )
                  (  0.0000000  0.0000000  1.0000000 )


   Cartesian axes

     site n.     atom                  positions (alat units)
         1           B   tau(   1) = (  -0.0009938   0.5802770   0.7975051  )
         2           B   tau(   2) = (   0.4990072   0.2916013   2.3842486  )
         3           N   tau(   3) = (  -0.0009938   0.5802770   2.3842486  )
         4           N   tau(   4) = (   0.4990072   0.2916013   0.7975051  )

   Crystallographic axes

     site n.     atom                  positions (cryst. coord.)
         1           B   tau(   1) = (  0.3340293  0.6700462  0.2513024  )
         2           B   tau(   2) = (  0.6673633  0.3367122  0.7513024  )
         3           N   tau(   3) = (  0.3340293  0.6700462  0.7513024  )
         4           N   tau(   4) = (  0.6673633  0.3367122  0.2513024  )

     number of k points=   152  Marzari-Vanderbilt smearing, width (Ry)=  0.0220
                       cart. coord. in units 2pi/alat
        k(    1) = (   0.0000000   0.0000000   0.0000000), wk =   0.0066667
        k(    2) = (   0.0000000   0.0000000   0.1050369), wk =   0.0133333
        k(    3) = (   0.0000000   0.1154701   0.0000000), wk =   0.0133333
        k(    4) = (   0.0000000   0.1154701   0.1050369), wk =   0.0133333
        k(    5) = (   0.0000000   0.2309401   0.0000000), wk =   0.0133333
        k(    6) = (   0.0000000   0.2309401   0.1050369), wk =   0.0133333
        k(    7) = (   0.0000000   0.3464102   0.0000000), wk =   0.0133333
        k(    8) = (   0.0000000   0.3464102   0.1050369), wk =   0.0133333
        k(    9) = (   0.0000000   0.4618802   0.0000000), wk =   0.0133333
        k(   10) = (   0.0000000   0.4618802   0.1050369), wk =   0.0133333
        k(   11) = (   0.0000000  -0.5773503   0.0000000), wk =   0.0066667
        k(   12) = (   0.0000000  -0.5773503   0.1050369), wk =   0.0133333
        k(   13) = (   0.1000000   0.1732051   0.0000000), wk =   0.0133333
        k(   14) = (   0.1000000   0.1732051   0.1050369), wk =   0.0133333
        k(   15) = (   0.1000000   0.2886751   0.0000000), wk =   0.0133333
        k(   16) = (   0.1000000   0.2886751   0.1050369), wk =   0.0133333
        k(   17) = (   0.1000000   0.4041452   0.0000000), wk =   0.0133333
        k(   18) = (   0.1000000   0.4041452   0.1050369), wk =   0.0133333
        k(   19) = (   0.1000000   0.5196152   0.0000000), wk =   0.0133333
        k(   20) = (   0.1000000   0.5196152   0.1050369), wk =   0.0133333
        k(   21) = (   0.2000000   0.3464102   0.0000000), wk =   0.0133333
        k(   22) = (   0.2000000   0.3464102   0.1050369), wk =   0.0133333
        k(   23) = (   0.2000000   0.4618802   0.0000000), wk =   0.0133333
        k(   24) = (   0.2000000   0.4618802   0.1050369), wk =   0.0133333
        k(   25) = (   0.2000000   0.5773503   0.0000000), wk =   0.0133333
        k(   26) = (   0.2000000   0.5773503   0.1050369), wk =   0.0133333
        k(   27) = (   0.3000000   0.5196152   0.0000000), wk =   0.0133333
        k(   28) = (   0.3000000   0.5196152   0.1050369), wk =   0.0133333
        k(   29) = (  -0.1000000   0.0577350   0.0000000), wk =   0.0133333
        k(   30) = (   0.1000000   0.0577350   0.0000000), wk =   0.0133333
        k(   31) = (   0.0000000  -0.1154701   0.1050369), wk =   0.0133333
        k(   32) = (  -0.1000000   0.0577350   0.1050369), wk =   0.0133333
        k(   33) = (   0.1000000   0.0577350   0.1050369), wk =   0.0133333
        k(   34) = (  -0.1000000  -0.0577350   0.1050369), wk =   0.0133333
        k(   35) = (   0.1000000  -0.0577350   0.1050369), wk =   0.0133333
        k(   36) = (  -0.2000000   0.1154701   0.0000000), wk =   0.0133333
        k(   37) = (   0.2000000   0.1154701   0.0000000), wk =   0.0133333
        k(   38) = (   0.0000000  -0.2309401   0.1050369), wk =   0.0133333
        k(   39) = (  -0.2000000   0.1154701   0.1050369), wk =   0.0133333
        k(   40) = (   0.2000000   0.1154701   0.1050369), wk =   0.0133333
        k(   41) = (  -0.2000000  -0.1154701   0.1050369), wk =   0.0133333
        k(   42) = (   0.2000000  -0.1154701   0.1050369), wk =   0.0133333
        k(   43) = (  -0.3000000   0.1732051   0.0000000), wk =   0.0133333
        k(   44) = (   0.3000000   0.1732051   0.0000000), wk =   0.0133333
        k(   45) = (   0.0000000  -0.3464102   0.1050369), wk =   0.0133333
        k(   46) = (  -0.3000000   0.1732051   0.1050369), wk =   0.0133333
        k(   47) = (   0.3000000   0.1732051   0.1050369), wk =   0.0133333
        k(   48) = (  -0.3000000  -0.1732051   0.1050369), wk =   0.0133333
        k(   49) = (   0.3000000  -0.1732051   0.1050369), wk =   0.0133333
        k(   50) = (  -0.4000000   0.2309401   0.0000000), wk =   0.0133333
        k(   51) = (   0.4000000   0.2309401   0.0000000), wk =   0.0133333
        k(   52) = (   0.0000000  -0.4618802   0.1050369), wk =   0.0133333
        k(   53) = (  -0.4000000   0.2309401   0.1050369), wk =   0.0133333
        k(   54) = (   0.4000000   0.2309401   0.1050369), wk =   0.0133333
        k(   55) = (  -0.4000000  -0.2309401   0.1050369), wk =   0.0133333
        k(   56) = (   0.4000000  -0.2309401   0.1050369), wk =   0.0133333
        k(   57) = (   0.5000000  -0.2886751   0.0000000), wk =   0.0066667
        k(   58) = (  -0.5000000  -0.2886751   0.0000000), wk =   0.0066667
        k(   59) = (   0.5000000  -0.2886751   0.1050369), wk =   0.0133333
        k(   60) = (  -0.5000000  -0.2886751   0.1050369), wk =   0.0133333
        k(   61) = (  -0.1000000   0.1732051   0.0000000), wk =   0.0133333
        k(   62) = (   0.2000000   0.0000000   0.0000000), wk =   0.0133333
        k(   63) = (  -0.1000000  -0.1732051   0.1050369), wk =   0.0133333
        k(   64) = (  -0.1000000   0.1732051  -0.1050369), wk =   0.0133333
        k(   65) = (   0.1000000  -0.1732051  -0.1050369), wk =   0.0133333
        k(   66) = (   0.2000000   0.0000000   0.1050369), wk =   0.0133333
        k(   67) = (  -0.2000000  -0.0000000   0.1050369), wk =   0.0133333
        k(   68) = (  -0.1000000   0.2886751   0.0000000), wk =   0.0133333
        k(   69) = (  -0.2000000   0.2309401   0.0000000), wk =   0.0133333
        k(   70) = (   0.3000000   0.0577350   0.0000000), wk =   0.0133333
        k(   71) = (  -0.2000000  -0.2309401   0.0000000), wk =   0.0133333
        k(   72) = (   0.3000000  -0.0577350   0.0000000), wk =   0.0133333
        k(   73) = (  -0.1000000  -0.2886751   0.1050369), wk =   0.0133333
        k(   74) = (  -0.1000000   0.2886751  -0.1050369), wk =   0.0133333
        k(   75) = (   0.1000000  -0.2886751  -0.1050369), wk =   0.0133333
        k(   76) = (  -0.2000000   0.2309401   0.1050369), wk =   0.0133333
        k(   77) = (   0.3000000   0.0577350   0.1050369), wk =   0.0133333
        k(   78) = (  -0.3000000  -0.0577350   0.1050369), wk =   0.0133333
        k(   79) = (   0.2000000  -0.2309401   0.1050369), wk =   0.0133333
        k(   80) = (  -0.2000000  -0.2309401  -0.1050369), wk =   0.0133333
        k(   81) = (   0.3000000  -0.0577350  -0.1050369), wk =   0.0133333
        k(   82) = (  -0.3000000   0.0577350  -0.1050369), wk =   0.0133333
        k(   83) = (   0.2000000   0.2309401  -0.1050369), wk =   0.0133333
        k(   84) = (  -0.1000000   0.4041452   0.0000000), wk =   0.0133333
        k(   85) = (  -0.3000000   0.2886751   0.0000000), wk =   0.0133333
        k(   86) = (   0.4000000   0.1154701   0.0000000), wk =   0.0133333
        k(   87) = (  -0.3000000  -0.2886751   0.0000000), wk =   0.0133333
        k(   88) = (   0.4000000  -0.1154701   0.0000000), wk =   0.0133333
        k(   89) = (  -0.1000000  -0.4041452   0.1050369), wk =   0.0133333
        k(   90) = (  -0.1000000   0.4041452  -0.1050369), wk =   0.0133333
        k(   91) = (   0.1000000  -0.4041452  -0.1050369), wk =   0.0133333
        k(   92) = (  -0.3000000   0.2886751   0.1050369), wk =   0.0133333
        k(   93) = (   0.4000000   0.1154701   0.1050369), wk =   0.0133333
        k(   94) = (  -0.4000000  -0.1154701   0.1050369), wk =   0.0133333
        k(   95) = (   0.3000000  -0.2886751   0.1050369), wk =   0.0133333
        k(   96) = (  -0.3000000  -0.2886751  -0.1050369), wk =   0.0133333
        k(   97) = (   0.4000000  -0.1154701  -0.1050369), wk =   0.0133333
        k(   98) = (  -0.4000000   0.1154701  -0.1050369), wk =   0.0133333
        k(   99) = (   0.3000000   0.2886751  -0.1050369), wk =   0.0133333
        k(  100) = (  -0.1000000   0.5196152   0.0000000), wk =   0.0133333
        k(  101) = (  -0.4000000   0.3464102   0.0000000), wk =   0.0133333
        k(  102) = (   0.5000000   0.1732051   0.0000000), wk =   0.0133333
        k(  103) = (  -0.4000000  -0.3464102   0.0000000), wk =   0.0133333
        k(  104) = (   0.5000000  -0.1732051   0.0000000), wk =   0.0133333
        k(  105) = (  -0.1000000  -0.5196152   0.1050369), wk =   0.0133333
        k(  106) = (  -0.1000000   0.5196152  -0.1050369), wk =   0.0133333
        k(  107) = (   0.1000000  -0.5196152  -0.1050369), wk =   0.0133333
        k(  108) = (  -0.4000000   0.3464102   0.1050369), wk =   0.0133333
        k(  109) = (   0.5000000   0.1732051   0.1050369), wk =   0.0133333
        k(  110) = (  -0.5000000  -0.1732051   0.1050369), wk =   0.0133333
        k(  111) = (   0.4000000  -0.3464102   0.1050369), wk =   0.0133333
        k(  112) = (  -0.4000000  -0.3464102  -0.1050369), wk =   0.0133333
        k(  113) = (   0.5000000  -0.1732051  -0.1050369), wk =   0.0133333
        k(  114) = (  -0.5000000   0.1732051  -0.1050369), wk =   0.0133333
        k(  115) = (   0.4000000   0.3464102  -0.1050369), wk =   0.0133333
        k(  116) = (  -0.2000000   0.3464102   0.0000000), wk =   0.0133333
        k(  117) = (   0.4000000   0.0000000   0.0000000), wk =   0.0133333
        k(  118) = (  -0.2000000  -0.3464102   0.1050369), wk =   0.0133333
        k(  119) = (  -0.2000000   0.3464102  -0.1050369), wk =   0.0133333
        k(  120) = (   0.2000000  -0.3464102  -0.1050369), wk =   0.0133333
        k(  121) = (   0.4000000   0.0000000   0.1050369), wk =   0.0133333
        k(  122) = (  -0.4000000  -0.0000000   0.1050369), wk =   0.0133333
        k(  123) = (  -0.2000000   0.4618802   0.0000000), wk =   0.0133333
        k(  124) = (  -0.3000000   0.4041452   0.0000000), wk =   0.0133333
        k(  125) = (   0.5000000   0.0577350   0.0000000), wk =   0.0133333
        k(  126) = (  -0.3000000  -0.4041452   0.0000000), wk =   0.0133333
        k(  127) = (   0.5000000  -0.0577350   0.0000000), wk =   0.0133333
        k(  128) = (  -0.2000000  -0.4618802   0.1050369), wk =   0.0133333
        k(  129) = (  -0.2000000   0.4618802  -0.1050369), wk =   0.0133333
        k(  130) = (   0.2000000  -0.4618802  -0.1050369), wk =   0.0133333
        k(  131) = (  -0.3000000   0.4041452   0.1050369), wk =   0.0133333
        k(  132) = (   0.5000000   0.0577350   0.1050369), wk =   0.0133333
        k(  133) = (  -0.5000000  -0.0577350   0.1050369), wk =   0.0133333
        k(  134) = (   0.3000000  -0.4041452   0.1050369), wk =   0.0133333
        k(  135) = (  -0.3000000  -0.4041452  -0.1050369), wk =   0.0133333
        k(  136) = (   0.5000000  -0.0577350  -0.1050369), wk =   0.0133333
        k(  137) = (  -0.5000000   0.0577350  -0.1050369), wk =   0.0133333
        k(  138) = (   0.3000000   0.4041452  -0.1050369), wk =   0.0133333
        k(  139) = (  -0.4000000   0.4618802   0.0000000), wk =   0.0133333
        k(  140) = (   0.6000000   0.1154701   0.0000000), wk =   0.0133333
        k(  141) = (  -0.2000000  -0.5773503   0.1050369), wk =   0.0133333
        k(  142) = (  -0.4000000   0.4618802   0.1050369), wk =   0.0133333
        k(  143) = (   0.6000000   0.1154701   0.1050369), wk =   0.0133333
        k(  144) = (  -0.6000000  -0.1154701   0.1050369), wk =   0.0133333
        k(  145) = (   0.4000000  -0.4618802   0.1050369), wk =   0.0133333
        k(  146) = (  -0.3000000   0.5196152   0.0000000), wk =   0.0133333
        k(  147) = (   0.6000000   0.0000000   0.0000000), wk =   0.0133333
        k(  148) = (  -0.3000000  -0.5196152   0.1050369), wk =   0.0133333
        k(  149) = (  -0.3000000   0.5196152  -0.1050369), wk =   0.0133333
        k(  150) = (   0.3000000  -0.5196152  -0.1050369), wk =   0.0133333
        k(  151) = (   0.6000000   0.0000000   0.1050369), wk =   0.0133333
        k(  152) = (  -0.6000000  -0.0000000   0.1050369), wk =   0.0133333

                       cryst. coord.
        k(    1) = (   0.0000000   0.0000000   0.0000000), wk =   0.0066667
        k(    2) = (   0.0000000   0.0000000   0.3333333), wk =   0.0133333
        k(    3) = (   0.0000000   0.1000000   0.0000000), wk =   0.0133333
        k(    4) = (   0.0000000   0.1000000   0.3333333), wk =   0.0133333
        k(    5) = (   0.0000000   0.2000000   0.0000000), wk =   0.0133333
        k(    6) = (   0.0000000   0.2000000   0.3333333), wk =   0.0133333
        k(    7) = (   0.0000000   0.3000000   0.0000000), wk =   0.0133333
        k(    8) = (   0.0000000   0.3000000   0.3333333), wk =   0.0133333
        k(    9) = (   0.0000000   0.4000000   0.0000000), wk =   0.0133333
        k(   10) = (   0.0000000   0.4000000   0.3333333), wk =   0.0133333
        k(   11) = (   0.0000000  -0.5000000   0.0000000), wk =   0.0066667
        k(   12) = (   0.0000000  -0.5000000   0.3333333), wk =   0.0133333
        k(   13) = (   0.1000000   0.1000000   0.0000000), wk =   0.0133333
        k(   14) = (   0.1000000   0.1000000   0.3333333), wk =   0.0133333
        k(   15) = (   0.1000000   0.2000000   0.0000000), wk =   0.0133333
        k(   16) = (   0.1000000   0.2000000   0.3333333), wk =   0.0133333
        k(   17) = (   0.1000000   0.3000000   0.0000000), wk =   0.0133333
        k(   18) = (   0.1000000   0.3000000   0.3333333), wk =   0.0133333
        k(   19) = (   0.1000000   0.4000000   0.0000000), wk =   0.0133333
        k(   20) = (   0.1000000   0.4000000   0.3333333), wk =   0.0133333
        k(   21) = (   0.2000000   0.2000000   0.0000000), wk =   0.0133333
        k(   22) = (   0.2000000   0.2000000   0.3333333), wk =   0.0133333
        k(   23) = (   0.2000000   0.3000000   0.0000000), wk =   0.0133333
        k(   24) = (   0.2000000   0.3000000   0.3333333), wk =   0.0133333
        k(   25) = (   0.2000000   0.4000000   0.0000000), wk =   0.0133333
        k(   26) = (   0.2000000   0.4000000   0.3333333), wk =   0.0133333
        k(   27) = (   0.3000000   0.3000000   0.0000000), wk =   0.0133333
        k(   28) = (   0.3000000   0.3000000   0.3333333), wk =   0.0133333
        k(   29) = (  -0.1000000   0.1000000   0.0000000), wk =   0.0133333
        k(   30) = (   0.1000000   0.0000000   0.0000000), wk =   0.0133333
        k(   31) = (   0.0000000  -0.1000000   0.3333333), wk =   0.0133333
        k(   32) = (  -0.1000000   0.1000000   0.3333333), wk =   0.0133333
        k(   33) = (   0.1000000   0.0000000   0.3333333), wk =   0.0133333
        k(   34) = (  -0.1000000   0.0000000   0.3333333), wk =   0.0133333
        k(   35) = (   0.1000000  -0.1000000   0.3333333), wk =   0.0133333
        k(   36) = (  -0.2000000   0.2000000   0.0000000), wk =   0.0133333
        k(   37) = (   0.2000000   0.0000000   0.0000000), wk =   0.0133333
        k(   38) = (   0.0000000  -0.2000000   0.3333333), wk =   0.0133333
        k(   39) = (  -0.2000000   0.2000000   0.3333333), wk =   0.0133333
        k(   40) = (   0.2000000   0.0000000   0.3333333), wk =   0.0133333
        k(   41) = (  -0.2000000   0.0000000   0.3333333), wk =   0.0133333
        k(   42) = (   0.2000000  -0.2000000   0.3333333), wk =   0.0133333
        k(   43) = (  -0.3000000   0.3000000   0.0000000), wk =   0.0133333
        k(   44) = (   0.3000000  -0.0000000   0.0000000), wk =   0.0133333
        k(   45) = (   0.0000000  -0.3000000   0.3333333), wk =   0.0133333
        k(   46) = (  -0.3000000   0.3000000   0.3333333), wk =   0.0133333
        k(   47) = (   0.3000000  -0.0000000   0.3333333), wk =   0.0133333
        k(   48) = (  -0.3000000   0.0000000   0.3333333), wk =   0.0133333
        k(   49) = (   0.3000000  -0.3000000   0.3333333), wk =   0.0133333
        k(   50) = (  -0.4000000   0.4000000   0.0000000), wk =   0.0133333
        k(   51) = (   0.4000000   0.0000000   0.0000000), wk =   0.0133333
        k(   52) = (   0.0000000  -0.4000000   0.3333333), wk =   0.0133333
        k(   53) = (  -0.4000000   0.4000000   0.3333333), wk =   0.0133333
        k(   54) = (   0.4000000   0.0000000   0.3333333), wk =   0.0133333
        k(   55) = (  -0.4000000   0.0000000   0.3333333), wk =   0.0133333
        k(   56) = (   0.4000000  -0.4000000   0.3333333), wk =   0.0133333
        k(   57) = (   0.5000000  -0.5000000   0.0000000), wk =   0.0066667
        k(   58) = (  -0.5000000   0.0000000   0.0000000), wk =   0.0066667
        k(   59) = (   0.5000000  -0.5000000   0.3333333), wk =   0.0133333
        k(   60) = (  -0.5000000   0.0000000   0.3333333), wk =   0.0133333
        k(   61) = (  -0.1000000   0.2000000   0.0000000), wk =   0.0133333
        k(   62) = (   0.2000000  -0.1000000   0.0000000), wk =   0.0133333
        k(   63) = (  -0.1000000  -0.1000000   0.3333333), wk =   0.0133333
        k(   64) = (  -0.1000000   0.2000000  -0.3333333), wk =   0.0133333
        k(   65) = (   0.1000000  -0.2000000  -0.3333333), wk =   0.0133333
        k(   66) = (   0.2000000  -0.1000000   0.3333333), wk =   0.0133333
        k(   67) = (  -0.2000000   0.1000000   0.3333333), wk =   0.0133333
        k(   68) = (  -0.1000000   0.3000000   0.0000000), wk =   0.0133333
        k(   69) = (  -0.2000000   0.3000000   0.0000000), wk =   0.0133333
        k(   70) = (   0.3000000  -0.1000000   0.0000000), wk =   0.0133333
        k(   71) = (  -0.2000000  -0.1000000   0.0000000), wk =   0.0133333
        k(   72) = (   0.3000000  -0.2000000   0.0000000), wk =   0.0133333
        k(   73) = (  -0.1000000  -0.2000000   0.3333333), wk =   0.0133333
        k(   74) = (  -0.1000000   0.3000000  -0.3333333), wk =   0.0133333
        k(   75) = (   0.1000000  -0.3000000  -0.3333333), wk =   0.0133333
        k(   76) = (  -0.2000000   0.3000000   0.3333333), wk =   0.0133333
        k(   77) = (   0.3000000  -0.1000000   0.3333333), wk =   0.0133333
        k(   78) = (  -0.3000000   0.1000000   0.3333333), wk =   0.0133333
        k(   79) = (   0.2000000  -0.3000000   0.3333333), wk =   0.0133333
        k(   80) = (  -0.2000000  -0.1000000  -0.3333333), wk =   0.0133333
        k(   81) = (   0.3000000  -0.2000000  -0.3333333), wk =   0.0133333
        k(   82) = (  -0.3000000   0.2000000  -0.3333333), wk =   0.0133333
        k(   83) = (   0.2000000   0.1000000  -0.3333333), wk =   0.0133333
        k(   84) = (  -0.1000000   0.4000000   0.0000000), wk =   0.0133333
        k(   85) = (  -0.3000000   0.4000000   0.0000000), wk =   0.0133333
        k(   86) = (   0.4000000  -0.1000000   0.0000000), wk =   0.0133333
        k(   87) = (  -0.3000000  -0.1000000   0.0000000), wk =   0.0133333
        k(   88) = (   0.4000000  -0.3000000   0.0000000), wk =   0.0133333
        k(   89) = (  -0.1000000  -0.3000000   0.3333333), wk =   0.0133333
        k(   90) = (  -0.1000000   0.4000000  -0.3333333), wk =   0.0133333
        k(   91) = (   0.1000000  -0.4000000  -0.3333333), wk =   0.0133333
        k(   92) = (  -0.3000000   0.4000000   0.3333333), wk =   0.0133333
        k(   93) = (   0.4000000  -0.1000000   0.3333333), wk =   0.0133333
        k(   94) = (  -0.4000000   0.1000000   0.3333333), wk =   0.0133333
        k(   95) = (   0.3000000  -0.4000000   0.3333333), wk =   0.0133333
        k(   96) = (  -0.3000000  -0.1000000  -0.3333333), wk =   0.0133333
        k(   97) = (   0.4000000  -0.3000000  -0.3333333), wk =   0.0133333
        k(   98) = (  -0.4000000   0.3000000  -0.3333333), wk =   0.0133333
        k(   99) = (   0.3000000   0.1000000  -0.3333333), wk =   0.0133333
        k(  100) = (  -0.1000000   0.5000000   0.0000000), wk =   0.0133333
        k(  101) = (  -0.4000000   0.5000000   0.0000000), wk =   0.0133333
        k(  102) = (   0.5000000  -0.1000000   0.0000000), wk =   0.0133333
        k(  103) = (  -0.4000000  -0.1000000   0.0000000), wk =   0.0133333
        k(  104) = (   0.5000000  -0.4000000   0.0000000), wk =   0.0133333
        k(  105) = (  -0.1000000  -0.4000000   0.3333333), wk =   0.0133333
        k(  106) = (  -0.1000000   0.5000000  -0.3333333), wk =   0.0133333
        k(  107) = (   0.1000000  -0.5000000  -0.3333333), wk =   0.0133333
        k(  108) = (  -0.4000000   0.5000000   0.3333333), wk =   0.0133333
        k(  109) = (   0.5000000  -0.1000000   0.3333333), wk =   0.0133333
        k(  110) = (  -0.5000000   0.1000000   0.3333333), wk =   0.0133333
        k(  111) = (   0.4000000  -0.5000000   0.3333333), wk =   0.0133333
        k(  112) = (  -0.4000000  -0.1000000  -0.3333333), wk =   0.0133333
        k(  113) = (   0.5000000  -0.4000000  -0.3333333), wk =   0.0133333
        k(  114) = (  -0.5000000   0.4000000  -0.3333333), wk =   0.0133333
        k(  115) = (   0.4000000   0.1000000  -0.3333333), wk =   0.0133333
        k(  116) = (  -0.2000000   0.4000000   0.0000000), wk =   0.0133333
        k(  117) = (   0.4000000  -0.2000000   0.0000000), wk =   0.0133333
        k(  118) = (  -0.2000000  -0.2000000   0.3333333), wk =   0.0133333
        k(  119) = (  -0.2000000   0.4000000  -0.3333333), wk =   0.0133333
        k(  120) = (   0.2000000  -0.4000000  -0.3333333), wk =   0.0133333
        k(  121) = (   0.4000000  -0.2000000   0.3333333), wk =   0.0133333
        k(  122) = (  -0.4000000   0.2000000   0.3333333), wk =   0.0133333
        k(  123) = (  -0.2000000   0.5000000   0.0000000), wk =   0.0133333
        k(  124) = (  -0.3000000   0.5000000   0.0000000), wk =   0.0133333
        k(  125) = (   0.5000000  -0.2000000   0.0000000), wk =   0.0133333
        k(  126) = (  -0.3000000  -0.2000000   0.0000000), wk =   0.0133333
        k(  127) = (   0.5000000  -0.3000000   0.0000000), wk =   0.0133333
        k(  128) = (  -0.2000000  -0.3000000   0.3333333), wk =   0.0133333
        k(  129) = (  -0.2000000   0.5000000  -0.3333333), wk =   0.0133333
        k(  130) = (   0.2000000  -0.5000000  -0.3333333), wk =   0.0133333
        k(  131) = (  -0.3000000   0.5000000   0.3333333), wk =   0.0133333
        k(  132) = (   0.5000000  -0.2000000   0.3333333), wk =   0.0133333
        k(  133) = (  -0.5000000   0.2000000   0.3333333), wk =   0.0133333
        k(  134) = (   0.3000000  -0.5000000   0.3333333), wk =   0.0133333
        k(  135) = (  -0.3000000  -0.2000000  -0.3333333), wk =   0.0133333
        k(  136) = (   0.5000000  -0.3000000  -0.3333333), wk =   0.0133333
        k(  137) = (  -0.5000000   0.3000000  -0.3333333), wk =   0.0133333
        k(  138) = (   0.3000000   0.2000000  -0.3333333), wk =   0.0133333
        k(  139) = (  -0.4000000   0.6000000   0.0000000), wk =   0.0133333
        k(  140) = (   0.6000000  -0.2000000   0.0000000), wk =   0.0133333
        k(  141) = (  -0.2000000  -0.4000000   0.3333333), wk =   0.0133333
        k(  142) = (  -0.4000000   0.6000000   0.3333333), wk =   0.0133333
        k(  143) = (   0.6000000  -0.2000000   0.3333333), wk =   0.0133333
        k(  144) = (  -0.6000000   0.2000000   0.3333333), wk =   0.0133333
        k(  145) = (   0.4000000  -0.6000000   0.3333333), wk =   0.0133333
        k(  146) = (  -0.3000000   0.6000000   0.0000000), wk =   0.0133333
        k(  147) = (   0.6000000  -0.3000000   0.0000000), wk =   0.0133333
        k(  148) = (  -0.3000000  -0.3000000   0.3333333), wk =   0.0133333
        k(  149) = (  -0.3000000   0.6000000  -0.3333333), wk =   0.0133333
        k(  150) = (   0.3000000  -0.6000000  -0.3333333), wk =   0.0133333
        k(  151) = (   0.6000000  -0.3000000   0.3333333), wk =   0.0133333
        k(  152) = (  -0.6000000   0.3000000   0.3333333), wk =   0.0133333

     Dense  grid:    41545 G-vectors     FFT dimensions: (  32,  32, 100)

     Smooth grid:    25613 G-vectors     FFT dimensions: (  27,  27,  90)

     Dynamical RAM for                 wfc:       0.04 MB

     Dynamical RAM for     wfc (w. buffer):       5.60 MB

     Dynamical RAM for           str. fact:       0.08 MB

     Dynamical RAM for           local pot:       0.00 MB

     Dynamical RAM for          nlocal pot:       0.10 MB

     Dynamical RAM for                qrad:       0.96 MB

     Dynamical RAM for          rho,v,vnew:       0.28 MB

     Dynamical RAM for               rhoin:       0.09 MB

     Dynamical RAM for            rho*nmix:       0.63 MB

     Dynamical RAM for           G-vectors:       0.16 MB

     Dynamical RAM for          h,s,v(r/c):       0.03 MB

     Dynamical RAM for          <psi|beta>:       0.01 MB

     Dynamical RAM for                 psi:       0.07 MB

     Dynamical RAM for                hpsi:       0.07 MB

     Dynamical RAM for                spsi:       0.07 MB

     Dynamical RAM for      wfcinit/wfcrot:       0.10 MB

     Dynamical RAM for           addusdens:       1.78 MB

     Dynamical RAM for          addusforce:       1.88 MB

     Dynamical RAM for         addusstress:       1.98 MB

     Estimated static dynamical RAM per process >       8.31 MB

     Estimated max dynamical RAM per process >      10.29 MB

     Estimated total dynamical RAM >     164.58 MB

     Check: negative core charge=   -0.000010

     Initial potential from superposition of free atoms

     starting charge   15.99942, renormalised to   16.00000
     Starting wfcs are   16 randomized atomic wfcs

     total cpu time spent up to now is        2.0 secs

     Self-consistent Calculation

     iteration #  1     ecut=    80.00 Ry     beta= 0.40
     Davidson diagonalization with overlap
     ethr =  1.00E-02,  avg # of iterations =  3.0

     total cpu time spent up to now is        3.3 secs

     total energy              =     -54.76066451 Ry
     estimated scf accuracy    <       0.85887910 Ry

     iteration #  2     ecut=    80.00 Ry     beta= 0.40
     Davidson diagonalization with overlap
     ethr =  5.37E-03,  avg # of iterations =  1.8

     total cpu time spent up to now is        4.4 secs

     total energy              =     -54.85009615 Ry
     estimated scf accuracy    <       0.06975914 Ry

     iteration #  3     ecut=    80.00 Ry     beta= 0.40
     Davidson diagonalization with overlap
     ethr =  4.36E-04,  avg # of iterations =  5.1

     total cpu time spent up to now is        5.6 secs

     total energy              =     -54.85544498 Ry
     estimated scf accuracy    <       0.01579887 Ry

     iteration #  4     ecut=    80.00 Ry     beta= 0.40
     Davidson diagonalization with overlap
     c_bands:  1 eigenvalues not converged
     ethr =  9.87E-05,  avg # of iterations =  4.1

     total cpu time spent up to now is        6.8 secs

     total energy              =     -54.85844522 Ry
     estimated scf accuracy    <       0.00063626 Ry

     iteration #  5     ecut=    80.00 Ry     beta= 0.40
     Davidson diagonalization with overlap
     c_bands:  1 eigenvalues not converged
     c_bands:  1 eigenvalues not converged
     c_bands:  1 eigenvalues not converged
     c_bands:  1 eigenvalues not converged
     c_bands:  1 eigenvalues not converged
     c_bands:  1 eigenvalues not converged
     c_bands:  1 eigenvalues not converged
     c_bands:  1 eigenvalues not converged
     c_bands:  1 eigenvalues not converged
     c_bands:  1 eigenvalues not converged
     c_bands:  1 eigenvalues not converged
     ethr =  3.98E-06,  avg # of iterations =  9.4

     total cpu time spent up to now is        8.4 secs

     total energy              =     -54.85863120 Ry
     estimated scf accuracy    <       0.00027911 Ry

     iteration #  6     ecut=    80.00 Ry     beta= 0.40
     Davidson diagonalization with overlap
     ethr =  1.74E-06,  avg # of iterations =  2.2

     total cpu time spent up to now is        9.3 secs

     total energy              =     -54.85866248 Ry
     estimated scf accuracy    <       0.00001591 Ry

     iteration #  7     ecut=    80.00 Ry     beta= 0.40
     Davidson diagonalization with overlap
     ethr =  9.94E-08,  avg # of iterations =  3.9

     total cpu time spent up to now is       10.5 secs

     total energy              =     -54.85867051 Ry
     estimated scf accuracy    <       0.00000033 Ry

     iteration #  8     ecut=    80.00 Ry     beta= 0.40
     Davidson diagonalization with overlap
     ethr =  2.04E-09,  avg # of iterations =  4.6

     total cpu time spent up to now is       11.8 secs

     total energy              =     -54.85867091 Ry
     estimated scf accuracy    <       0.00000007 Ry

     iteration #  9     ecut=    80.00 Ry     beta= 0.40
     Davidson diagonalization with overlap
     ethr =  4.14E-10,  avg # of iterations =  2.2

     total cpu time spent up to now is       12.8 secs

     total energy              =     -54.85867093 Ry
     estimated scf accuracy    <          8.8E-09 Ry

     iteration # 10     ecut=    80.00 Ry     beta= 0.40
     Davidson diagonalization with overlap
     ethr =  5.48E-11,  avg # of iterations =  2.0

     total cpu time spent up to now is       13.7 secs

     total energy              =     -54.85867093 Ry
     estimated scf accuracy    <          1.8E-09 Ry

     iteration # 11     ecut=    80.00 Ry     beta= 0.40
     Davidson diagonalization with overlap
     ethr =  1.15E-11,  avg # of iterations =  3.2

     total cpu time spent up to now is       14.8 secs

     total energy              =     -54.85867093 Ry
     estimated scf accuracy    <          7.0E-10 Ry

     iteration # 12     ecut=    80.00 Ry     beta= 0.40
     Davidson diagonalization with overlap
     ethr =  4.37E-12,  avg # of iterations =  1.8

     total cpu time spent up to now is       15.7 secs

     End of self-consistent calculation

          k = 0.0000 0.0000 0.0000 (  3257 PWs)   bands (ev):

   -14.4584 -14.3765  -2.3906  -1.4696   2.5298   2.5299   2.5356   2.5356
     8.3103  12.3534  15.7176  16.2729

     occupation numbers 
     1.0000   1.0000   1.0000   1.0000   1.0000   1.0000   1.0000   1.0000
     0.0000   0.0000   0.0000   0.0000

          k = 0.0000 0.0000 0.1050 (  3252 PWs)   bands (ev):

   -14.4382 -14.3973  -2.1832  -1.7259   2.5313   2.5313   2.5341   2.5342
     9.0840  10.9472  16.2687  16.2722

     occupation numbers 
     1.0000   1.0000   1.0000   1.0000   1.0000   1.0000   1.0000   1.0000
     0.0000   0.0000   0.0000   0.0000

          k = 0.0000 0.1155 0.0000 (  3245 PWs)   bands (ev):

   -14.2524 -14.1728  -2.1056  -1.1987   1.7145   1.7169   2.1313   2.1384
     8.6612  12.4911  15.7990  16.1927

     occupation numbers 
     1.0000   1.0000   1.0000   1.0000   1.0000   1.0000   1.0000   1.0000
     0.0000   0.0000   0.0000   0.0000

          k = 0.0000 0.1155 0.1050 (  3237 PWs)   bands (ev):

   -14.2328 -14.1930  -1.9013  -1.4509   1.7162   1.7173   2.1331   2.1366
     9.4146  11.2075  16.0602  16.1695

     occupation numbers 
     1.0000   1.0000   1.0000   1.0000   1.0000   1.0000   1.0000   1.0000
     0.0000   0.0000   0.0000   0.0000

          k = 0.0000 0.2309 0.0000 (  3223 PWs)   bands (ev):

   -13.6499 -13.5769  -1.2673  -0.4062  -0.2479  -0.2433   1.2379   1.2470
     9.6276  12.6509  15.0016  15.4600

     occupation numbers 
     1.0000   1.0000   1.0000   1.0000   1.0000   1.0000   1.0000   1.0000
     0.0000   0.0000   0.0000   0.0000

          k = 0.0000 0.2309 0.1050 (  3225 PWs)   bands (ev):

   -13.6319 -13.5954  -1.0750  -0.6516  -0.2417  -0.2369   1.2402   1.2447
    10.3080  11.8073  15.1081  15.3620

     occupation numbers 
     1.0000   1.0000   1.0000   1.0000   1.0000   1.0000   1.0000   1.0000
     0.0000   0.0000   0.0000   0.0000

          k = 0.0000 0.3464 0.0000 (  3229 PWs)   bands (ev):

   -12.7139 -12.6524  -2.5613  -2.5508   0.0560   0.3316   0.3422   0.8256
    11.1227  11.8023  12.5039  15.1299

     occupation numbers 
     1.0000   1.0000   1.0000   1.0000   1.0000   1.0000   1.0000   1.0000
     0.0000   0.0000   0.0000   0.0000

          k = 0.0000 0.3464 0.1050 (  3213 PWs)   bands (ev):

   -12.6987 -12.6680  -2.5594  -2.5541   0.2343   0.3343   0.3396   0.6174
    11.3767  11.7029  13.0157  14.4854

     occupation numbers 
     1.0000   1.0000   1.0000   1.0000   1.0000   1.0000   1.0000   1.0000
     0.0000   0.0000   0.0000   0.0000

          k = 0.0000 0.4619 0.0000 (  3200 PWs)   bands (ev):

   -11.6444 -11.6027  -4.5824  -4.5659  -0.2963  -0.2848   1.6368   2.2314
     9.7087  10.2555  12.9873  14.9274

     occupation numbers 
     1.0000   1.0000   1.0000   1.0000   1.0000   1.0000   1.0000   1.0000
     0.0000   0.0000   0.0000   0.0000

          k = 0.0000 0.4619 0.1050 (  3201 PWs)   bands (ev):

   -11.6340 -11.6132  -4.5786  -4.5704  -0.2934  -0.2877   1.7783   2.0752
     9.7907  10.0552  13.6662  14.6857

     occupation numbers 
     1.0000   1.0000   1.0000   1.0000   1.0000   1.0000   1.0000   1.0000
     0.0000   0.0000   0.0000   0.0000

          k = 0.0000-0.5774 0.0000 (  3194 PWs)   bands (ev):

   -11.0622 -11.0466  -5.4883  -5.4745  -0.5173  -0.5056   2.5845   2.9693
     8.4966   9.1810  14.1452  14.8606

     occupation numbers 
     1.0000   1.0000   1.0000   1.0000   1.0000   1.0000   1.0000   1.0000
     0.0000   0.0000   0.0000   0.0000

          k = 0.0000-0.5774 0.1050 (  3176 PWs)   bands (ev):

   -11.0583 -11.0505  -5.4852  -5.4783  -0.5144  -0.5085   2.6808   2.8735
     8.6251   8.9642  14.4031  14.7589

     occupation numbers 
     1.0000   1.0000   1.0000   1.0000   1.0000   1.0000   1.0000   1.0000
     0.0000   0.0000   0.0000   0.0000

          k = 0.1000 0.1732 0.0000 (  3225 PWs)   bands (ev):

   -13.8478 -13.7725  -1.5435  -0.6665   0.4547   0.4610   1.3542   1.3627
     9.3235  12.6545  15.6115  16.2744

     occupation numbers 
     1.0000   1.0000   1.0000   1.0000   1.0000   1.0000   1.0000   1.0000
     0.0000   0.0000   0.0000   0.0000

          k = 0.1000 0.1732 0.1050 (  3233 PWs)   bands (ev):

   -13.8292 -13.7916  -1.3461  -0.9110   0.4591   0.4614   1.3565   1.3607
    10.0329  11.6522  15.6994  15.9896

     occupation numbers 
     1.0000   1.0000   1.0000   1.0000   1.0000   1.0000   1.0000   1.0000
     0.0000   0.0000   0.0000   0.0000

          k = 0.1000 0.2887 0.0000 (  3220 PWs)   bands (ev):

   -13.0737 -13.0074  -1.5051  -1.4986  -0.4577   0.2767   0.2874   0.3518
    10.5770  12.3689  13.5165  16.0838

     occupation numbers 
     1.0000   1.0000   1.0000   1.0000   1.0000   1.0000   1.0000   1.0000
     0.0000   0.0000   0.0000   0.0000

          k = 0.1000 0.2887 0.1050 (  3222 PWs)   bands (ev):

   -13.0573 -13.0242  -1.5053  -1.5021  -0.2708   0.1290   0.2817   0.2868
    11.1151  12.0341  13.8029  14.9300

     occupation numbers 
     1.0000   1.0000   1.0000   1.0000   1.0000   1.0000   1.0000   1.0000
     0.0000   0.0000   0.0000   0.0000

          k = 0.1000 0.4041 0.0000 (  3203 PWs)   bands (ev):

   -12.0431 -11.9917  -3.6136  -3.5999  -0.5704  -0.5587   1.0280   1.7088
    10.7891  11.1768  12.3421  15.8502

     occupation numbers 
     1.0000   1.0000   1.0000   1.0000   1.0000   1.0000   1.0000   1.0000
     0.0000   0.0000   0.0000   0.0000

          k = 0.1000 0.4041 0.1050 (  3208 PWs)   bands (ev):

   -12.0304 -12.0047  -3.6106  -3.6037  -0.5677  -0.5618   1.1878   1.5273
    10.7935  10.9516  13.2859  15.0741

     occupation numbers 
     1.0000   1.0000   1.0000   1.0000   1.0000   1.0000   1.0000   1.0000
     0.0000   0.0000   0.0000   0.0000

          k = 0.1000 0.5196 0.0000 (  3204 PWs)   bands (ev):

   -11.1185 -11.0926  -5.1432  -5.1268  -1.0209  -1.0086   2.4664   2.9122
     8.9079   9.4628  14.3186  15.7211

     occupation numbers 
     1.0000   1.0000   1.0000   1.0000   1.0000   1.0000   1.0000   1.0000
     0.0000   0.0000   0.0000   0.0000

          k = 0.1000 0.5196 0.1050 (  3190 PWs)   bands (ev):

   -11.1120 -11.0991  -5.1394  -5.1312  -1.0179  -1.0118   2.5762   2.7993
     9.0078   9.2828  14.8134  15.5414

     occupation numbers 
     1.0000   1.0000   1.0000   1.0000   1.0000   1.0000   1.0000   1.0000
     0.0000   0.0000   0.0000   0.0000

          k = 0.2000 0.3464 0.0000 (  3207 PWs)   bands (ev):

   -12.1885 -12.1339  -2.9127  -2.9054  -1.1005  -1.0877   0.8093   1.5174
    11.3444  11.6365  12.1353  16.8784

     occupation numbers 
     1.0000   1.0000   1.0000   1.0000   1.0000   1.0000   1.0000   1.0000
     0.0000   0.0000   0.0000   0.0000

          k = 0.2000 0.3464 0.1050 (  3216 PWs)   bands (ev):

   -12.1749 -12.1476  -2.9113  -2.9076  -1.0977  -1.0913   0.9752   1.3281
    11.3054  11.3401  13.2251  15.2202

     occupation numbers 
     1.0000   1.0000   1.0000   1.0000   1.0000   1.0000   1.0000   1.0000
     0.0000   0.0000   0.0000   0.0000

          k = 0.2000 0.4619 0.0000 (  3208 PWs)   bands (ev):

   -11.2014 -11.1659  -4.3593  -4.3430  -2.0378  -2.0255   2.2989   2.8172
     9.7005   9.9139  14.1891  16.7375

     occupation numbers 
     1.0000   1.0000   1.0000   1.0000   1.0000   1.0000   1.0000   1.0000
     0.0000   0.0000   0.0000   0.0000

          k = 0.2000 0.4619 0.1050 (  3207 PWs)   bands (ev):

   -11.1926 -11.1748  -4.3554  -4.3473  -2.0350  -2.0288   2.4244   2.6835
     9.7181   9.8252  14.8600  16.1844

     occupation numbers 
     1.0000   1.0000   1.0000   1.0000   1.0000   1.0000   1.0000   1.0000
     0.0000   0.0000   0.0000   0.0000

          k = 0.2000 0.5774 0.0000 (  3208 PWs)   bands (ev):

   -10.6836 -10.6709  -5.0733  -5.0517  -2.3375  -2.3249   3.1810   3.4661
     8.7352   9.0864  16.1031  16.5332

     occupation numbers 
     1.0000   1.0000   1.0000   1.0000   1.0000   1.0000   1.0000   1.0000
     0.0000   0.0000   0.0000   0.0000

          k = 0.2000 0.5774 0.1050 (  3205 PWs)   bands (ev):

   -10.6804 -10.6741  -5.0681  -5.0573  -2.3346  -2.3283   3.2553   3.3983
     8.7923   8.9680  16.4677  16.8080

     occupation numbers 
     1.0000   1.0000   1.0000   1.0000   1.0000   1.0000   1.0000   1.0000
     0.0000   0.0000   0.0000   0.0000

          k = 0.3000 0.5196 0.0000 (  3202 PWs)   bands (ev):

   -10.5259 -10.5122  -4.6930  -4.6625  -3.2115  -3.2073   3.4427   3.6747
     8.8956   8.9886  15.6331  16.4054

     occupation numbers 
     1.0000   1.0000   1.0000   1.0000   1.0000   1.0000   1.0000   1.0000
     0.0000   0.0000   0.0000   0.0000

          k = 0.3000 0.5196 0.1050 (  3195 PWs)   bands (ev):

   -10.5225 -10.5156  -4.6854  -4.6702  -3.2108  -3.2087   3.5050   3.6213
     8.8902   8.9380  15.9599  16.5652

     occupation numbers 
     1.0000   1.0000   1.0000   1.0000   1.0000   1.0000   1.0000   1.0000
     0.0000   0.0000   0.0000   0.0000

          k =-0.1000 0.0577 0.0000 (  3245 PWs)   bands (ev):

   -14.2524 -14.1728  -2.1056  -1.1987   1.7145   1.7170   2.1313   2.1383
     8.6612  12.4911  15.7990  16.1927

     occupation numbers 
     1.0000   1.0000   1.0000   1.0000   1.0000   1.0000   1.0000   1.0000
     0.0000   0.0000   0.0000   0.0000

          k = 0.1000 0.0577 0.0000 (  3245 PWs)   bands (ev):

   -14.2524 -14.1728  -2.1056  -1.1987   1.7145   1.7169   2.1313   2.1384
     8.6612  12.4911  15.7990  16.1925

     occupation numbers 
     1.0000   1.0000   1.0000   1.0000   1.0000   1.0000   1.0000   1.0000
     0.0000   0.0000   0.0000   0.0000

          k = 0.0000-0.1155 0.1050 (  3237 PWs)   bands (ev):

   -14.2328 -14.1930  -1.9013  -1.4509   1.7162   1.7173   2.1331   2.1366
     9.4146  11.2075  16.0600  16.1696

     occupation numbers 
     1.0000   1.0000   1.0000   1.0000   1.0000   1.0000   1.0000   1.0000
     0.0000   0.0000   0.0000   0.0000

          k =-0.1000 0.0577 0.1050 (  3237 PWs)   bands (ev):

   -14.2328 -14.1930  -1.9013  -1.4509   1.7162   1.7173   2.1330   2.1366
     9.4146  11.2075  16.0600  16.1695

     occupation numbers 
     1.0000   1.0000   1.0000   1.0000   1.0000   1.0000   1.0000   1.0000
     0.0000   0.0000   0.0000   0.0000

          k = 0.1000 0.0577 0.1050 (  3237 PWs)   bands (ev):

   -14.2328 -14.1930  -1.9013  -1.4509   1.7162   1.7173   2.1331   2.1366
     9.4146  11.2075  16.0600  16.1697

     occupation numbers 
     1.0000   1.0000   1.0000   1.0000   1.0000   1.0000   1.0000   1.0000
     0.0000   0.0000   0.0000   0.0000

          k =-0.1000-0.0577 0.1050 (  3237 PWs)   bands (ev):

   -14.2328 -14.1930  -1.9013  -1.4509   1.7162   1.7173   2.1331   2.1366
     9.4146  11.2075  16.0603  16.1698

     occupation numbers 
     1.0000   1.0000   1.0000   1.0000   1.0000   1.0000   1.0000   1.0000
     0.0000   0.0000   0.0000   0.0000

          k = 0.1000-0.0577 0.1050 (  3237 PWs)   bands (ev):

   -14.2328 -14.1930  -1.9013  -1.4509   1.7162   1.7173   2.1330   2.1366
     9.4146  11.2075  16.0599  16.1697

     occupation numbers 
     1.0000   1.0000   1.0000   1.0000   1.0000   1.0000   1.0000   1.0000
     0.0000   0.0000   0.0000   0.0000

          k =-0.2000 0.1155 0.0000 (  3223 PWs)   bands (ev):

   -13.6499 -13.5769  -1.2673  -0.4062  -0.2479  -0.2433   1.2379   1.2470
     9.6276  12.6509  15.0016  15.4599

     occupation numbers 
     1.0000   1.0000   1.0000   1.0000   1.0000   1.0000   1.0000   1.0000
     0.0000   0.0000   0.0000   0.0000

          k = 0.2000 0.1155 0.0000 (  3223 PWs)   bands (ev):

   -13.6499 -13.5769  -1.2673  -0.4062  -0.2479  -0.2433   1.2379   1.2470
     9.6276  12.6509  15.0016  15.4600

     occupation numbers 
     1.0000   1.0000   1.0000   1.0000   1.0000   1.0000   1.0000   1.0000
     0.0000   0.0000   0.0000   0.0000

          k = 0.0000-0.2309 0.1050 (  3225 PWs)   bands (ev):

   -13.6319 -13.5954  -1.0750  -0.6516  -0.2417  -0.2369   1.2402   1.2447
    10.3080  11.8073  15.1081  15.3623

     occupation numbers 
     1.0000   1.0000   1.0000   1.0000   1.0000   1.0000   1.0000   1.0000
     0.0000   0.0000   0.0000   0.0000

          k =-0.2000 0.1155 0.1050 (  3225 PWs)   bands (ev):

   -13.6319 -13.5954  -1.0750  -0.6516  -0.2417  -0.2369   1.2402   1.2447
    10.3080  11.8073  15.1081  15.3620

     occupation numbers 
     1.0000   1.0000   1.0000   1.0000   1.0000   1.0000   1.0000   1.0000
     0.0000   0.0000   0.0000   0.0000

          k = 0.2000 0.1155 0.1050 (  3225 PWs)   bands (ev):

   -13.6319 -13.5954  -1.0750  -0.6516  -0.2417  -0.2369   1.2402   1.2447
    10.3080  11.8073  15.1081  15.3620

     occupation numbers 
     1.0000   1.0000   1.0000   1.0000   1.0000   1.0000   1.0000   1.0000
     0.0000   0.0000   0.0000   0.0000

          k =-0.2000-0.1155 0.1050 (  3225 PWs)   bands (ev):

   -13.6319 -13.5954  -1.0750  -0.6516  -0.2417  -0.2369   1.2402   1.2447
    10.3080  11.8073  15.1081  15.3623

     occupation numbers 
     1.0000   1.0000   1.0000   1.0000   1.0000   1.0000   1.0000   1.0000
     0.0000   0.0000   0.0000   0.0000

          k = 0.2000-0.1155 0.1050 (  3225 PWs)   bands (ev):

   -13.6319 -13.5954  -1.0750  -0.6516  -0.2417  -0.2369   1.2402   1.2447
    10.3080  11.8073  15.1081  15.3620

     occupation numbers 
     1.0000   1.0000   1.0000   1.0000   1.0000   1.0000   1.0000   1.0000
     0.0000   0.0000   0.0000   0.0000

          k =-0.3000 0.1732 0.0000 (  3229 PWs)   bands (ev):

   -12.7139 -12.6524  -2.5613  -2.5507   0.0560   0.3316   0.3422   0.8256
    11.1227  11.8023  12.5039  15.1299

     occupation numbers 
     1.0000   1.0000   1.0000   1.0000   1.0000   1.0000   1.0000   1.0000
     0.0000   0.0000   0.0000   0.0000

          k = 0.3000 0.1732 0.0000 (  3229 PWs)   bands (ev):

   -12.7139 -12.6524  -2.5613  -2.5508   0.0560   0.3316   0.3422   0.8256
    11.1227  11.8023  12.5039  15.1300

     occupation numbers 
     1.0000   1.0000   1.0000   1.0000   1.0000   1.0000   1.0000   1.0000
     0.0000   0.0000   0.0000   0.0000

          k = 0.0000-0.3464 0.1050 (  3213 PWs)   bands (ev):

   -12.6987 -12.6680  -2.5594  -2.5541   0.2343   0.3343   0.3396   0.6174
    11.3767  11.7029  13.0157  14.4854

     occupation numbers 
     1.0000   1.0000   1.0000   1.0000   1.0000   1.0000   1.0000   1.0000
     0.0000   0.0000   0.0000   0.0000

          k =-0.3000 0.1732 0.1050 (  3213 PWs)   bands (ev):

   -12.6987 -12.6680  -2.5594  -2.5541   0.2343   0.3342   0.3395   0.6174
    11.3767  11.7029  13.0157  14.4854

     occupation numbers 
     1.0000   1.0000   1.0000   1.0000   1.0000   1.0000   1.0000   1.0000
     0.0000   0.0000   0.0000   0.0000

          k = 0.3000 0.1732 0.1050 (  3213 PWs)   bands (ev):

   -12.6987 -12.6680  -2.5594  -2.5541   0.2343   0.3343   0.3396   0.6174
    11.3767  11.7029  13.0157  14.4854

     occupation numbers 
     1.0000   1.0000   1.0000   1.0000   1.0000   1.0000   1.0000   1.0000
     0.0000   0.0000   0.0000   0.0000

          k =-0.3000-0.1732 0.1050 (  3213 PWs)   bands (ev):

   -12.6987 -12.6680  -2.5594  -2.5541   0.2343   0.3343   0.3396   0.6174
    11.3767  11.7029  13.0157  14.4854

     occupation numbers 
     1.0000   1.0000   1.0000   1.0000   1.0000   1.0000   1.0000   1.0000
     0.0000   0.0000   0.0000   0.0000

          k = 0.3000-0.1732 0.1050 (  3213 PWs)   bands (ev):

   -12.6987 -12.6680  -2.5594  -2.5541   0.2343   0.3342   0.3395   0.6174
    11.3767  11.7029  13.0157  14.4854

     occupation numbers 
     1.0000   1.0000   1.0000   1.0000   1.0000   1.0000   1.0000   1.0000
     0.0000   0.0000   0.0000   0.0000

          k =-0.4000 0.2309 0.0000 (  3200 PWs)   bands (ev):

   -11.6444 -11.6027  -4.5823  -4.5659  -0.2963  -0.2848   1.6368   2.2314
     9.7087  10.2555  12.9873  14.9274

     occupation numbers 
     1.0000   1.0000   1.0000   1.0000   1.0000   1.0000   1.0000   1.0000
     0.0000   0.0000   0.0000   0.0000

          k = 0.4000 0.2309 0.0000 (  3200 PWs)   bands (ev):

   -11.6444 -11.6027  -4.5824  -4.5659  -0.2963  -0.2848   1.6368   2.2314
     9.7087  10.2555  12.9873  14.9274

     occupation numbers 
     1.0000   1.0000   1.0000   1.0000   1.0000   1.0000   1.0000   1.0000
     0.0000   0.0000   0.0000   0.0000

          k = 0.0000-0.4619 0.1050 (  3201 PWs)   bands (ev):

   -11.6340 -11.6132  -4.5786  -4.5704  -0.2934  -0.2877   1.7783   2.0752
     9.7907  10.0552  13.6662  14.6857

     occupation numbers 
     1.0000   1.0000   1.0000   1.0000   1.0000   1.0000   1.0000   1.0000
     0.0000   0.0000   0.0000   0.0000

          k =-0.4000 0.2309 0.1050 (  3201 PWs)   bands (ev):

   -11.6340 -11.6132  -4.5786  -4.5703  -0.2934  -0.2877   1.7783   2.0752
     9.7907  10.0553  13.6662  14.6857

     occupation numbers 
     1.0000   1.0000   1.0000   1.0000   1.0000   1.0000   1.0000   1.0000
     0.0000   0.0000   0.0000   0.0000

          k = 0.4000 0.2309 0.1050 (  3201 PWs)   bands (ev):

   -11.6340 -11.6132  -4.5786  -4.5704  -0.2934  -0.2877   1.7783   2.0752
     9.7907  10.0552  13.6662  14.6857

     occupation numbers 
     1.0000   1.0000   1.0000   1.0000   1.0000   1.0000   1.0000   1.0000
     0.0000   0.0000   0.0000   0.0000

          k =-0.4000-0.2309 0.1050 (  3201 PWs)   bands (ev):

   -11.6340 -11.6132  -4.5786  -4.5704  -0.2934  -0.2877   1.7783   2.0752
     9.7907  10.0552  13.6662  14.6857

     occupation numbers 
     1.0000   1.0000   1.0000   1.0000   1.0000   1.0000   1.0000   1.0000
     0.0000   0.0000   0.0000   0.0000

          k = 0.4000-0.2309 0.1050 (  3201 PWs)   bands (ev):

   -11.6340 -11.6132  -4.5786  -4.5703  -0.2934  -0.2877   1.7783   2.0752
     9.7907  10.0553  13.6662  14.6856

     occupation numbers 
     1.0000   1.0000   1.0000   1.0000   1.0000   1.0000   1.0000   1.0000
     0.0000   0.0000   0.0000   0.0000

          k = 0.5000-0.2887 0.0000 (  3194 PWs)   bands (ev):

   -11.0622 -11.0466  -5.4883  -5.4745  -0.5173  -0.5056   2.5845   2.9692
     8.4966   9.1810  14.1452  14.8606

     occupation numbers 
     1.0000   1.0000   1.0000   1.0000   1.0000   1.0000   1.0000   1.0000
     0.0000   0.0000   0.0000   0.0000

          k =-0.5000-0.2887 0.0000 (  3194 PWs)   bands (ev):

   -11.0622 -11.0466  -5.4883  -5.4745  -0.5173  -0.5056   2.5845   2.9693
     8.4966   9.1810  14.1452  14.8606

     occupation numbers 
     1.0000   1.0000   1.0000   1.0000   1.0000   1.0000   1.0000   1.0000
     0.0000   0.0000   0.0000   0.0000

          k = 0.5000-0.2887 0.1050 (  3176 PWs)   bands (ev):

   -11.0583 -11.0505  -5.4852  -5.4783  -0.5144  -0.5086   2.6808   2.8735
     8.6252   8.9643  14.4031  14.7589

     occupation numbers 
     1.0000   1.0000   1.0000   1.0000   1.0000   1.0000   1.0000   1.0000
     0.0000   0.0000   0.0000   0.0000

          k =-0.5000-0.2887 0.1050 (  3176 PWs)   bands (ev):

   -11.0583 -11.0505  -5.4852  -5.4783  -0.5144  -0.5085   2.6808   2.8735
     8.6251   8.9642  14.4031  14.7589

     occupation numbers 
     1.0000   1.0000   1.0000   1.0000   1.0000   1.0000   1.0000   1.0000
     0.0000   0.0000   0.0000   0.0000

          k =-0.1000 0.1732 0.0000 (  3225 PWs)   bands (ev):

   -13.8478 -13.7725  -1.5435  -0.6665   0.4547   0.4610   1.3541   1.3626
     9.3235  12.6545  15.6116  16.2743

     occupation numbers 
     1.0000   1.0000   1.0000   1.0000   1.0000   1.0000   1.0000   1.0000
     0.0000   0.0000   0.0000   0.0000

          k = 0.2000 0.0000 0.0000 (  3225 PWs)   bands (ev):

   -13.8478 -13.7725  -1.5435  -0.6665   0.4547   0.4610   1.3541   1.3626
     9.3235  12.6545  15.6116  16.2745

     occupation numbers 
     1.0000   1.0000   1.0000   1.0000   1.0000   1.0000   1.0000   1.0000
     0.0000   0.0000   0.0000   0.0000

          k =-0.1000-0.1732 0.1050 (  3233 PWs)   bands (ev):

   -13.8292 -13.7916  -1.3461  -0.9110   0.4591   0.4614   1.3565   1.3607
    10.0329  11.6522  15.6992  15.9897

     occupation numbers 
     1.0000   1.0000   1.0000   1.0000   1.0000   1.0000   1.0000   1.0000
     0.0000   0.0000   0.0000   0.0000

          k =-0.1000 0.1732-0.1050 (  3233 PWs)   bands (ev):

   -13.8292 -13.7916  -1.3461  -0.9110   0.4591   0.4614   1.3564   1.3606
    10.0329  11.6522  15.6992  15.9896

     occupation numbers 
     1.0000   1.0000   1.0000   1.0000   1.0000   1.0000   1.0000   1.0000
     0.0000   0.0000   0.0000   0.0000

          k = 0.1000-0.1732-0.1050 (  3233 PWs)   bands (ev):

   -13.8292 -13.7916  -1.3461  -0.9110   0.4591   0.4614   1.3564   1.3606
    10.0329  11.6522  15.6992  15.9900

     occupation numbers 
     1.0000   1.0000   1.0000   1.0000   1.0000   1.0000   1.0000   1.0000
     0.0000   0.0000   0.0000   0.0000

          k = 0.2000 0.0000 0.1050 (  3233 PWs)   bands (ev):

   -13.8292 -13.7916  -1.3461  -0.9110   0.4591   0.4614   1.3564   1.3606
    10.0329  11.6522  15.6996  15.9896

     occupation numbers 
     1.0000   1.0000   1.0000   1.0000   1.0000   1.0000   1.0000   1.0000
     0.0000   0.0000   0.0000   0.0000

          k =-0.2000-0.0000 0.1050 (  3233 PWs)   bands (ev):

   -13.8292 -13.7916  -1.3461  -0.9110   0.4591   0.4614   1.3564   1.3606
    10.0329  11.6522  15.6994  15.9904

     occupation numbers 
     1.0000   1.0000   1.0000   1.0000   1.0000   1.0000   1.0000   1.0000
     0.0000   0.0000   0.0000   0.0000

          k =-0.1000 0.2887 0.0000 (  3220 PWs)   bands (ev):

   -13.0737 -13.0074  -1.5051  -1.4986  -0.4577   0.2767   0.2874   0.3518
    10.5770  12.3689  13.5165  16.0838

     occupation numbers 
     1.0000   1.0000   1.0000   1.0000   1.0000   1.0000   1.0000   1.0000
     0.0000   0.0000   0.0000   0.0000

          k =-0.2000 0.2309 0.0000 (  3220 PWs)   bands (ev):

   -13.0737 -13.0074  -1.5051  -1.4986  -0.4577   0.2767   0.2874   0.3518
    10.5770  12.3689  13.5165  16.0838

     occupation numbers 
     1.0000   1.0000   1.0000   1.0000   1.0000   1.0000   1.0000   1.0000
     0.0000   0.0000   0.0000   0.0000

          k = 0.3000 0.0577 0.0000 (  3220 PWs)   bands (ev):

   -13.0737 -13.0074  -1.5051  -1.4986  -0.4577   0.2767   0.2874   0.3518
    10.5770  12.3689  13.5165  16.0838

     occupation numbers 
     1.0000   1.0000   1.0000   1.0000   1.0000   1.0000   1.0000   1.0000
     0.0000   0.0000   0.0000   0.0000

          k =-0.2000-0.2309 0.0000 (  3220 PWs)   bands (ev):

   -13.0737 -13.0074  -1.5051  -1.4986  -0.4577   0.2767   0.2874   0.3518
    10.5770  12.3689  13.5165  16.0838

     occupation numbers 
     1.0000   1.0000   1.0000   1.0000   1.0000   1.0000   1.0000   1.0000
     0.0000   0.0000   0.0000   0.0000

          k = 0.3000-0.0577 0.0000 (  3220 PWs)   bands (ev):

   -13.0737 -13.0074  -1.5051  -1.4986  -0.4577   0.2767   0.2874   0.3518
    10.5770  12.3689  13.5165  16.0838

     occupation numbers 
     1.0000   1.0000   1.0000   1.0000   1.0000   1.0000   1.0000   1.0000
     0.0000   0.0000   0.0000   0.0000

          k =-0.1000-0.2887 0.1050 (  3222 PWs)   bands (ev):

   -13.0573 -13.0242  -1.5053  -1.5021  -0.2708   0.1290   0.2817   0.2868
    11.1151  12.0341  13.8029  14.9300

     occupation numbers 
     1.0000   1.0000   1.0000   1.0000   1.0000   1.0000   1.0000   1.0000
     0.0000   0.0000   0.0000   0.0000

          k =-0.1000 0.2887-0.1050 (  3222 PWs)   bands (ev):

   -13.0573 -13.0241  -1.5053  -1.5020  -0.2708   0.1290   0.2817   0.2868
    11.1151  12.0341  13.8029  14.9300

     occupation numbers 
     1.0000   1.0000   1.0000   1.0000   1.0000   1.0000   1.0000   1.0000
     0.0000   0.0000   0.0000   0.0000

          k = 0.1000-0.2887-0.1050 (  3222 PWs)   bands (ev):

   -13.0573 -13.0241  -1.5053  -1.5020  -0.2708   0.1290   0.2817   0.2868
    11.1151  12.0341  13.8029  14.9300

     occupation numbers 
     1.0000   1.0000   1.0000   1.0000   1.0000   1.0000   1.0000   1.0000
     0.0000   0.0000   0.0000   0.0000

          k =-0.2000 0.2309 0.1050 (  3222 PWs)   bands (ev):

   -13.0573 -13.0241  -1.5052  -1.5020  -0.2708   0.1290   0.2817   0.2868
    11.1151  12.0341  13.8029  14.9300

     occupation numbers 
     1.0000   1.0000   1.0000   1.0000   1.0000   1.0000   1.0000   1.0000
     0.0000   0.0000   0.0000   0.0000

          k = 0.3000 0.0577 0.1050 (  3222 PWs)   bands (ev):

   -13.0573 -13.0241  -1.5053  -1.5020  -0.2708   0.1290   0.2817   0.2868
    11.1151  12.0341  13.8029  14.9300

     occupation numbers 
     1.0000   1.0000   1.0000   1.0000   1.0000   1.0000   1.0000   1.0000
     0.0000   0.0000   0.0000   0.0000

          k =-0.3000-0.0577 0.1050 (  3222 PWs)   bands (ev):

   -13.0573 -13.0241  -1.5053  -1.5020  -0.2708   0.1290   0.2817   0.2868
    11.1151  12.0341  13.8029  14.9300

     occupation numbers 
     1.0000   1.0000   1.0000   1.0000   1.0000   1.0000   1.0000   1.0000
     0.0000   0.0000   0.0000   0.0000

          k = 0.2000-0.2309 0.1050 (  3222 PWs)   bands (ev):

   -13.0573 -13.0241  -1.5052  -1.5020  -0.2708   0.1290   0.2817   0.2868
    11.1151  12.0341  13.8029  14.9300

     occupation numbers 
     1.0000   1.0000   1.0000   1.0000   1.0000   1.0000   1.0000   1.0000
     0.0000   0.0000   0.0000   0.0000

          k =-0.2000-0.2309-0.1050 (  3222 PWs)   bands (ev):

   -13.0573 -13.0242  -1.5053  -1.5021  -0.2708   0.1290   0.2817   0.2868
    11.1151  12.0341  13.8029  14.9300

     occupation numbers 
     1.0000   1.0000   1.0000   1.0000   1.0000   1.0000   1.0000   1.0000
     0.0000   0.0000   0.0000   0.0000

          k = 0.3000-0.0577-0.1050 (  3222 PWs)   bands (ev):

   -13.0573 -13.0241  -1.5052  -1.5020  -0.2708   0.1290   0.2817   0.2868
    11.1151  12.0341  13.8029  14.9300

     occupation numbers 
     1.0000   1.0000   1.0000   1.0000   1.0000   1.0000   1.0000   1.0000
     0.0000   0.0000   0.0000   0.0000

          k =-0.3000 0.0577-0.1050 (  3222 PWs)   bands (ev):

   -13.0573 -13.0241  -1.5052  -1.5020  -0.2708   0.1290   0.2817   0.2868
    11.1151  12.0341  13.8029  14.9300

     occupation numbers 
     1.0000   1.0000   1.0000   1.0000   1.0000   1.0000   1.0000   1.0000
     0.0000   0.0000   0.0000   0.0000

          k = 0.2000 0.2309-0.1050 (  3222 PWs)   bands (ev):

   -13.0573 -13.0242  -1.5053  -1.5021  -0.2708   0.1290   0.2817   0.2868
    11.1151  12.0341  13.8029  14.9300

     occupation numbers 
     1.0000   1.0000   1.0000   1.0000   1.0000   1.0000   1.0000   1.0000
     0.0000   0.0000   0.0000   0.0000

          k =-0.1000 0.4041 0.0000 (  3203 PWs)   bands (ev):

   -12.0431 -11.9917  -3.6136  -3.5999  -0.5704  -0.5587   1.0280   1.7088
    10.7891  11.1768  12.3421  15.8502

     occupation numbers 
     1.0000   1.0000   1.0000   1.0000   1.0000   1.0000   1.0000   1.0000
     0.0000   0.0000   0.0000   0.0000

          k =-0.3000 0.2887 0.0000 (  3203 PWs)   bands (ev):

   -12.0431 -11.9917  -3.6136  -3.5999  -0.5704  -0.5587   1.0280   1.7088
    10.7891  11.1768  12.3421  15.8502

     occupation numbers 
     1.0000   1.0000   1.0000   1.0000   1.0000   1.0000   1.0000   1.0000
     0.0000   0.0000   0.0000   0.0000

          k = 0.4000 0.1155 0.0000 (  3203 PWs)   bands (ev):

   -12.0431 -11.9917  -3.6136  -3.5999  -0.5704  -0.5587   1.0280   1.7088
    10.7891  11.1768  12.3421  15.8502

     occupation numbers 
     1.0000   1.0000   1.0000   1.0000   1.0000   1.0000   1.0000   1.0000
     0.0000   0.0000   0.0000   0.0000

          k =-0.3000-0.2887 0.0000 (  3203 PWs)   bands (ev):

   -12.0431 -11.9917  -3.6136  -3.5999  -0.5704  -0.5587   1.0280   1.7088
    10.7891  11.1768  12.3421  15.8502

     occupation numbers 
     1.0000   1.0000   1.0000   1.0000   1.0000   1.0000   1.0000   1.0000
     0.0000   0.0000   0.0000   0.0000

          k = 0.4000-0.1155 0.0000 (  3203 PWs)   bands (ev):

   -12.0431 -11.9917  -3.6136  -3.5999  -0.5704  -0.5587   1.0280   1.7088
    10.7891  11.1768  12.3421  15.8502

     occupation numbers 
     1.0000   1.0000   1.0000   1.0000   1.0000   1.0000   1.0000   1.0000
     0.0000   0.0000   0.0000   0.0000

          k =-0.1000-0.4041 0.1050 (  3208 PWs)   bands (ev):

   -12.0304 -12.0047  -3.6106  -3.6037  -0.5677  -0.5618   1.1878   1.5273
    10.7935  10.9516  13.2859  15.0741

     occupation numbers 
     1.0000   1.0000   1.0000   1.0000   1.0000   1.0000   1.0000   1.0000
     0.0000   0.0000   0.0000   0.0000

          k =-0.1000 0.4041-0.1050 (  3208 PWs)   bands (ev):

   -12.0304 -12.0047  -3.6106  -3.6037  -0.5677  -0.5618   1.1878   1.5273
    10.7935  10.9517  13.2859  15.0741

     occupation numbers 
     1.0000   1.0000   1.0000   1.0000   1.0000   1.0000   1.0000   1.0000
     0.0000   0.0000   0.0000   0.0000

          k = 0.1000-0.4041-0.1050 (  3208 PWs)   bands (ev):

   -12.0304 -12.0047  -3.6106  -3.6037  -0.5677  -0.5618   1.1878   1.5273
    10.7935  10.9517  13.2859  15.0741

     occupation numbers 
     1.0000   1.0000   1.0000   1.0000   1.0000   1.0000   1.0000   1.0000
     0.0000   0.0000   0.0000   0.0000

          k =-0.3000 0.2887 0.1050 (  3208 PWs)   bands (ev):

   -12.0304 -12.0047  -3.6106  -3.6037  -0.5677  -0.5619   1.1878   1.5273
    10.7936  10.9517  13.2859  15.0741

     occupation numbers 
     1.0000   1.0000   1.0000   1.0000   1.0000   1.0000   1.0000   1.0000
     0.0000   0.0000   0.0000   0.0000

          k = 0.4000 0.1155 0.1050 (  3208 PWs)   bands (ev):

   -12.0304 -12.0047  -3.6106  -3.6037  -0.5677  -0.5618   1.1878   1.5273
    10.7935  10.9517  13.2859  15.0741

     occupation numbers 
     1.0000   1.0000   1.0000   1.0000   1.0000   1.0000   1.0000   1.0000
     0.0000   0.0000   0.0000   0.0000

          k =-0.4000-0.1155 0.1050 (  3208 PWs)   bands (ev):

   -12.0304 -12.0047  -3.6106  -3.6037  -0.5677  -0.5618   1.1878   1.5273
    10.7935  10.9517  13.2859  15.0741

     occupation numbers 
     1.0000   1.0000   1.0000   1.0000   1.0000   1.0000   1.0000   1.0000
     0.0000   0.0000   0.0000   0.0000

          k = 0.3000-0.2887 0.1050 (  3208 PWs)   bands (ev):

   -12.0304 -12.0047  -3.6106  -3.6037  -0.5677  -0.5619   1.1878   1.5273
    10.7936  10.9517  13.2859  15.0741

     occupation numbers 
     1.0000   1.0000   1.0000   1.0000   1.0000   1.0000   1.0000   1.0000
     0.0000   0.0000   0.0000   0.0000

          k =-0.3000-0.2887-0.1050 (  3208 PWs)   bands (ev):

   -12.0304 -12.0047  -3.6106  -3.6037  -0.5677  -0.5618   1.1878   1.5273
    10.7935  10.9516  13.2859  15.0741

     occupation numbers 
     1.0000   1.0000   1.0000   1.0000   1.0000   1.0000   1.0000   1.0000
     0.0000   0.0000   0.0000   0.0000

          k = 0.4000-0.1155-0.1050 (  3208 PWs)   bands (ev):

   -12.0304 -12.0047  -3.6106  -3.6037  -0.5677  -0.5619   1.1878   1.5273
    10.7936  10.9517  13.2859  15.0741

     occupation numbers 
     1.0000   1.0000   1.0000   1.0000   1.0000   1.0000   1.0000   1.0000
     0.0000   0.0000   0.0000   0.0000

          k =-0.4000 0.1155-0.1050 (  3208 PWs)   bands (ev):

   -12.0304 -12.0047  -3.6106  -3.6037  -0.5677  -0.5619   1.1878   1.5273
    10.7936  10.9517  13.2859  15.0741

     occupation numbers 
     1.0000   1.0000   1.0000   1.0000   1.0000   1.0000   1.0000   1.0000
     0.0000   0.0000   0.0000   0.0000

          k = 0.3000 0.2887-0.1050 (  3208 PWs)   bands (ev):

   -12.0304 -12.0047  -3.6106  -3.6037  -0.5677  -0.5618   1.1878   1.5273
    10.7935  10.9516  13.2859  15.0741

     occupation numbers 
     1.0000   1.0000   1.0000   1.0000   1.0000   1.0000   1.0000   1.0000
     0.0000   0.0000   0.0000   0.0000

          k =-0.1000 0.5196 0.0000 (  3204 PWs)   bands (ev):

   -11.1185 -11.0926  -5.1432  -5.1268  -1.0209  -1.0086   2.4664   2.9122
     8.9079   9.4628  14.3186  15.7211

     occupation numbers 
     1.0000   1.0000   1.0000   1.0000   1.0000   1.0000   1.0000   1.0000
     0.0000   0.0000   0.0000   0.0000

          k =-0.4000 0.3464 0.0000 (  3204 PWs)   bands (ev):

   -11.1185 -11.0926  -5.1432  -5.1268  -1.0209  -1.0086   2.4663   2.9122
     8.9079   9.4629  14.3186  15.7211

     occupation numbers 
     1.0000   1.0000   1.0000   1.0000   1.0000   1.0000   1.0000   1.0000
     0.0000   0.0000   0.0000   0.0000

          k = 0.5000 0.1732 0.0000 (  3204 PWs)   bands (ev):

   -11.1185 -11.0926  -5.1432  -5.1268  -1.0209  -1.0086   2.4664   2.9122
     8.9079   9.4628  14.3186  15.7211

     occupation numbers 
     1.0000   1.0000   1.0000   1.0000   1.0000   1.0000   1.0000   1.0000
     0.0000   0.0000   0.0000   0.0000

          k =-0.4000-0.3464 0.0000 (  3204 PWs)   bands (ev):

   -11.1185 -11.0926  -5.1432  -5.1268  -1.0209  -1.0086   2.4664   2.9122
     8.9079   9.4628  14.3186  15.7211

     occupation numbers 
     1.0000   1.0000   1.0000   1.0000   1.0000   1.0000   1.0000   1.0000
     0.0000   0.0000   0.0000   0.0000

          k = 0.5000-0.1732 0.0000 (  3204 PWs)   bands (ev):

   -11.1185 -11.0926  -5.1432  -5.1268  -1.0209  -1.0086   2.4663   2.9122
     8.9079   9.4629  14.3186  15.7211

     occupation numbers 
     1.0000   1.0000   1.0000   1.0000   1.0000   1.0000   1.0000   1.0000
     0.0000   0.0000   0.0000   0.0000

          k =-0.1000-0.5196 0.1050 (  3190 PWs)   bands (ev):

   -11.1120 -11.0991  -5.1394  -5.1312  -1.0179  -1.0118   2.5762   2.7993
     9.0078   9.2828  14.8134  15.5414

     occupation numbers 
     1.0000   1.0000   1.0000   1.0000   1.0000   1.0000   1.0000   1.0000
     0.0000   0.0000   0.0000   0.0000

          k =-0.1000 0.5196-0.1050 (  3190 PWs)   bands (ev):

   -11.1120 -11.0991  -5.1394  -5.1312  -1.0179  -1.0118   2.5762   2.7993
     9.0078   9.2829  14.8134  15.5414

     occupation numbers 
     1.0000   1.0000   1.0000   1.0000   1.0000   1.0000   1.0000   1.0000
     0.0000   0.0000   0.0000   0.0000

          k = 0.1000-0.5196-0.1050 (  3190 PWs)   bands (ev):

   -11.1120 -11.0991  -5.1394  -5.1312  -1.0179  -1.0118   2.5762   2.7993
     9.0078   9.2829  14.8134  15.5415

     occupation numbers 
     1.0000   1.0000   1.0000   1.0000   1.0000   1.0000   1.0000   1.0000
     0.0000   0.0000   0.0000   0.0000

          k =-0.4000 0.3464 0.1050 (  3190 PWs)   bands (ev):

   -11.1120 -11.0991  -5.1394  -5.1312  -1.0180  -1.0118   2.5762   2.7992
     9.0078   9.2829  14.8134  15.5414

     occupation numbers 
     1.0000   1.0000   1.0000   1.0000   1.0000   1.0000   1.0000   1.0000
     0.0000   0.0000   0.0000   0.0000

          k = 0.5000 0.1732 0.1050 (  3190 PWs)   bands (ev):

   -11.1120 -11.0991  -5.1394  -5.1312  -1.0179  -1.0118   2.5762   2.7993
     9.0078   9.2829  14.8134  15.5414

     occupation numbers 
     1.0000   1.0000   1.0000   1.0000   1.0000   1.0000   1.0000   1.0000
     0.0000   0.0000   0.0000   0.0000

          k =-0.5000-0.1732 0.1050 (  3190 PWs)   bands (ev):

   -11.1120 -11.0991  -5.1394  -5.1312  -1.0179  -1.0118   2.5762   2.7993
     9.0078   9.2829  14.8134  15.5414

     occupation numbers 
     1.0000   1.0000   1.0000   1.0000   1.0000   1.0000   1.0000   1.0000
     0.0000   0.0000   0.0000   0.0000

          k = 0.4000-0.3464 0.1050 (  3190 PWs)   bands (ev):

   -11.1120 -11.0991  -5.1394  -5.1312  -1.0180  -1.0118   2.5762   2.7992
     9.0078   9.2829  14.8134  15.5414

     occupation numbers 
     1.0000   1.0000   1.0000   1.0000   1.0000   1.0000   1.0000   1.0000
     0.0000   0.0000   0.0000   0.0000

          k =-0.4000-0.3464-0.1050 (  3190 PWs)   bands (ev):

   -11.1120 -11.0991  -5.1394  -5.1312  -1.0179  -1.0118   2.5762   2.7993
     9.0078   9.2828  14.8134  15.5414

     occupation numbers 
     1.0000   1.0000   1.0000   1.0000   1.0000   1.0000   1.0000   1.0000
     0.0000   0.0000   0.0000   0.0000

          k = 0.5000-0.1732-0.1050 (  3190 PWs)   bands (ev):

   -11.1120 -11.0991  -5.1394  -5.1312  -1.0180  -1.0118   2.5762   2.7992
     9.0078   9.2829  14.8134  15.5414

     occupation numbers 
     1.0000   1.0000   1.0000   1.0000   1.0000   1.0000   1.0000   1.0000
     0.0000   0.0000   0.0000   0.0000

          k =-0.5000 0.1732-0.1050 (  3190 PWs)   bands (ev):

   -11.1120 -11.0991  -5.1394  -5.1312  -1.0180  -1.0118   2.5762   2.7992
     9.0078   9.2829  14.8134  15.5414

     occupation numbers 
     1.0000   1.0000   1.0000   1.0000   1.0000   1.0000   1.0000   1.0000
     0.0000   0.0000   0.0000   0.0000

          k = 0.4000 0.3464-0.1050 (  3190 PWs)   bands (ev):

   -11.1120 -11.0991  -5.1394  -5.1312  -1.0179  -1.0118   2.5762   2.7993
     9.0078   9.2828  14.8134  15.5414

     occupation numbers 
     1.0000   1.0000   1.0000   1.0000   1.0000   1.0000   1.0000   1.0000
     0.0000   0.0000   0.0000   0.0000

          k =-0.2000 0.3464 0.0000 (  3207 PWs)   bands (ev):

   -12.1885 -12.1339  -2.9127  -2.9054  -1.1006  -1.0877   0.8093   1.5174
    11.3444  11.6366  12.1353  16.8783

     occupation numbers 
     1.0000   1.0000   1.0000   1.0000   1.0000   1.0000   1.0000   1.0000
     0.0000   0.0000   0.0000   0.0000

          k = 0.4000 0.0000 0.0000 (  3207 PWs)   bands (ev):

   -12.1885 -12.1339  -2.9127  -2.9054  -1.1006  -1.0877   0.8093   1.5174
    11.3444  11.6366  12.1353  16.8784

     occupation numbers 
     1.0000   1.0000   1.0000   1.0000   1.0000   1.0000   1.0000   1.0000
     0.0000   0.0000   0.0000   0.0000

          k =-0.2000-0.3464 0.1050 (  3216 PWs)   bands (ev):

   -12.1749 -12.1476  -2.9113  -2.9076  -1.0977  -1.0913   0.9752   1.3281
    11.3054  11.3401  13.2251  15.2202

     occupation numbers 
     1.0000   1.0000   1.0000   1.0000   1.0000   1.0000   1.0000   1.0000
     0.0000   0.0000   0.0000   0.0000

          k =-0.2000 0.3464-0.1050 (  3216 PWs)   bands (ev):

   -12.1749 -12.1476  -2.9112  -2.9076  -1.0977  -1.0914   0.9752   1.3281
    11.3054  11.3401  13.2251  15.2202

     occupation numbers 
     1.0000   1.0000   1.0000   1.0000   1.0000   1.0000   1.0000   1.0000
     0.0000   0.0000   0.0000   0.0000

          k = 0.2000-0.3464-0.1050 (  3216 PWs)   bands (ev):

   -12.1749 -12.1476  -2.9112  -2.9076  -1.0977  -1.0914   0.9752   1.3281
    11.3054  11.3401  13.2251  15.2202

     occupation numbers 
     1.0000   1.0000   1.0000   1.0000   1.0000   1.0000   1.0000   1.0000
     0.0000   0.0000   0.0000   0.0000

          k = 0.4000 0.0000 0.1050 (  3216 PWs)   bands (ev):

   -12.1749 -12.1476  -2.9112  -2.9076  -1.0977  -1.0914   0.9752   1.3281
    11.3054  11.3401  13.2251  15.2202

     occupation numbers 
     1.0000   1.0000   1.0000   1.0000   1.0000   1.0000   1.0000   1.0000
     0.0000   0.0000   0.0000   0.0000

          k =-0.4000-0.0000 0.1050 (  3216 PWs)   bands (ev):

   -12.1749 -12.1476  -2.9112  -2.9076  -1.0977  -1.0914   0.9752   1.3281
    11.3054  11.3401  13.2251  15.2202

     occupation numbers 
     1.0000   1.0000   1.0000   1.0000   1.0000   1.0000   1.0000   1.0000
     0.0000   0.0000   0.0000   0.0000

          k =-0.2000 0.4619 0.0000 (  3208 PWs)   bands (ev):

   -11.2014 -11.1659  -4.3593  -4.3430  -2.0378  -2.0255   2.2989   2.8172
     9.7005   9.9139  14.1891  16.7375

     occupation numbers 
     1.0000   1.0000   1.0000   1.0000   1.0000   1.0000   1.0000   1.0000
     0.0000   0.0000   0.0000   0.0000

          k =-0.3000 0.4041 0.0000 (  3208 PWs)   bands (ev):

   -11.2014 -11.1659  -4.3593  -4.3430  -2.0378  -2.0255   2.2988   2.8172
     9.7005   9.9139  14.1891  16.7374

     occupation numbers 
     1.0000   1.0000   1.0000   1.0000   1.0000   1.0000   1.0000   1.0000
     0.0000   0.0000   0.0000   0.0000

          k = 0.5000 0.0577 0.0000 (  3208 PWs)   bands (ev):

   -11.2014 -11.1659  -4.3593  -4.3430  -2.0378  -2.0255   2.2989   2.8172
     9.7005   9.9139  14.1891  16.7374

     occupation numbers 
     1.0000   1.0000   1.0000   1.0000   1.0000   1.0000   1.0000   1.0000
     0.0000   0.0000   0.0000   0.0000

          k =-0.3000-0.4041 0.0000 (  3208 PWs)   bands (ev):

   -11.2014 -11.1659  -4.3593  -4.3430  -2.0378  -2.0255   2.2989   2.8172
     9.7005   9.9139  14.1891  16.7375

     occupation numbers 
     1.0000   1.0000   1.0000   1.0000   1.0000   1.0000   1.0000   1.0000
     0.0000   0.0000   0.0000   0.0000

          k = 0.5000-0.0577 0.0000 (  3208 PWs)   bands (ev):

   -11.2014 -11.1659  -4.3593  -4.3430  -2.0378  -2.0255   2.2988   2.8172
     9.7005   9.9139  14.1891  16.7374

     occupation numbers 
     1.0000   1.0000   1.0000   1.0000   1.0000   1.0000   1.0000   1.0000
     0.0000   0.0000   0.0000   0.0000

          k =-0.2000-0.4619 0.1050 (  3207 PWs)   bands (ev):

   -11.1926 -11.1748  -4.3554  -4.3473  -2.0350  -2.0288   2.4244   2.6835
     9.7181   9.8252  14.8600  16.1844

     occupation numbers 
     1.0000   1.0000   1.0000   1.0000   1.0000   1.0000   1.0000   1.0000
     0.0000   0.0000   0.0000   0.0000

          k =-0.2000 0.4619-0.1050 (  3207 PWs)   bands (ev):

   -11.1926 -11.1748  -4.3554  -4.3473  -2.0350  -2.0288   2.4244   2.6835
     9.7181   9.8252  14.8600  16.1844

     occupation numbers 
     1.0000   1.0000   1.0000   1.0000   1.0000   1.0000   1.0000   1.0000
     0.0000   0.0000   0.0000   0.0000

          k = 0.2000-0.4619-0.1050 (  3207 PWs)   bands (ev):

   -11.1926 -11.1748  -4.3554  -4.3473  -2.0350  -2.0288   2.4244   2.6835
     9.7181   9.8252  14.8600  16.1844

     occupation numbers 
     1.0000   1.0000   1.0000   1.0000   1.0000   1.0000   1.0000   1.0000
     0.0000   0.0000   0.0000   0.0000

          k =-0.3000 0.4041 0.1050 (  3207 PWs)   bands (ev):

   -11.1926 -11.1748  -4.3554  -4.3473  -2.0350  -2.0288   2.4244   2.6835
     9.7181   9.8252  14.8600  16.1844

     occupation numbers 
     1.0000   1.0000   1.0000   1.0000   1.0000   1.0000   1.0000   1.0000
     0.0000   0.0000   0.0000   0.0000

          k = 0.5000 0.0577 0.1050 (  3207 PWs)   bands (ev):

   -11.1926 -11.1748  -4.3554  -4.3473  -2.0350  -2.0288   2.4244   2.6835
     9.7181   9.8252  14.8600  16.1844

     occupation numbers 
     1.0000   1.0000   1.0000   1.0000   1.0000   1.0000   1.0000   1.0000
     0.0000   0.0000   0.0000   0.0000

          k =-0.5000-0.0577 0.1050 (  3207 PWs)   bands (ev):

   -11.1926 -11.1748  -4.3554  -4.3473  -2.0350  -2.0288   2.4244   2.6835
     9.7181   9.8252  14.8600  16.1844

     occupation numbers 
     1.0000   1.0000   1.0000   1.0000   1.0000   1.0000   1.0000   1.0000
     0.0000   0.0000   0.0000   0.0000

          k = 0.3000-0.4041 0.1050 (  3207 PWs)   bands (ev):

   -11.1926 -11.1748  -4.3554  -4.3473  -2.0350  -2.0288   2.4244   2.6835
     9.7181   9.8252  14.8600  16.1844

     occupation numbers 
     1.0000   1.0000   1.0000   1.0000   1.0000   1.0000   1.0000   1.0000
     0.0000   0.0000   0.0000   0.0000

          k =-0.3000-0.4041-0.1050 (  3207 PWs)   bands (ev):

   -11.1926 -11.1748  -4.3554  -4.3473  -2.0350  -2.0288   2.4244   2.6835
     9.7181   9.8252  14.8600  16.1844

     occupation numbers 
     1.0000   1.0000   1.0000   1.0000   1.0000   1.0000   1.0000   1.0000
     0.0000   0.0000   0.0000   0.0000

          k = 0.5000-0.0577-0.1050 (  3207 PWs)   bands (ev):

   -11.1926 -11.1748  -4.3554  -4.3473  -2.0350  -2.0288   2.4244   2.6835
     9.7181   9.8252  14.8600  16.1844

     occupation numbers 
     1.0000   1.0000   1.0000   1.0000   1.0000   1.0000   1.0000   1.0000
     0.0000   0.0000   0.0000   0.0000

          k =-0.5000 0.0577-0.1050 (  3207 PWs)   bands (ev):

   -11.1926 -11.1748  -4.3554  -4.3473  -2.0350  -2.0288   2.4244   2.6835
     9.7181   9.8252  14.8600  16.1844

     occupation numbers 
     1.0000   1.0000   1.0000   1.0000   1.0000   1.0000   1.0000   1.0000
     0.0000   0.0000   0.0000   0.0000

          k = 0.3000 0.4041-0.1050 (  3207 PWs)   bands (ev):

   -11.1926 -11.1748  -4.3554  -4.3473  -2.0350  -2.0288   2.4244   2.6835
     9.7181   9.8252  14.8600  16.1844

     occupation numbers 
     1.0000   1.0000   1.0000   1.0000   1.0000   1.0000   1.0000   1.0000
     0.0000   0.0000   0.0000   0.0000

          k =-0.4000 0.4619 0.0000 (  3208 PWs)   bands (ev):

   -10.6836 -10.6709  -5.0733  -5.0517  -2.3375  -2.3249   3.1809   3.4661
     8.7352   9.0864  16.1031  16.5331

     occupation numbers 
     1.0000   1.0000   1.0000   1.0000   1.0000   1.0000   1.0000   1.0000
     0.0000   0.0000   0.0000   0.0000

          k = 0.6000 0.1155 0.0000 (  3208 PWs)   bands (ev):

   -10.6836 -10.6709  -5.0733  -5.0517  -2.3375  -2.3249   3.1810   3.4661
     8.7352   9.0864  16.1031  16.5332

     occupation numbers 
     1.0000   1.0000   1.0000   1.0000   1.0000   1.0000   1.0000   1.0000
     0.0000   0.0000   0.0000   0.0000

          k =-0.2000-0.5774 0.1050 (  3205 PWs)   bands (ev):

   -10.6804 -10.6741  -5.0681  -5.0573  -2.3346  -2.3283   3.2553   3.3983
     8.7923   8.9680  16.4677  16.8080

     occupation numbers 
     1.0000   1.0000   1.0000   1.0000   1.0000   1.0000   1.0000   1.0000
     0.0000   0.0000   0.0000   0.0000

          k =-0.4000 0.4619 0.1050 (  3205 PWs)   bands (ev):

   -10.6804 -10.6741  -5.0681  -5.0573  -2.3346  -2.3283   3.2553   3.3983
     8.7924   8.9680  16.4677  16.8080

     occupation numbers 
     1.0000   1.0000   1.0000   1.0000   1.0000   1.0000   1.0000   1.0000
     0.0000   0.0000   0.0000   0.0000

          k = 0.6000 0.1155 0.1050 (  3205 PWs)   bands (ev):

   -10.6804 -10.6741  -5.0681  -5.0573  -2.3346  -2.3283   3.2553   3.3983
     8.7923   8.9680  16.4677  16.8106

     occupation numbers 
     1.0000   1.0000   1.0000   1.0000   1.0000   1.0000   1.0000   1.0000
     0.0000   0.0000   0.0000   0.0000

          k =-0.6000-0.1155 0.1050 (  3205 PWs)   bands (ev):

   -10.6804 -10.6741  -5.0681  -5.0573  -2.3346  -2.3283   3.2553   3.3983
     8.7923   8.9680  16.4677  16.8080

     occupation numbers 
     1.0000   1.0000   1.0000   1.0000   1.0000   1.0000   1.0000   1.0000
     0.0000   0.0000   0.0000   0.0000

          k = 0.4000-0.4619 0.1050 (  3205 PWs)   bands (ev):

   -10.6804 -10.6741  -5.0681  -5.0573  -2.3346  -2.3283   3.2553   3.3983
     8.7924   8.9680  16.4677  16.8081

     occupation numbers 
     1.0000   1.0000   1.0000   1.0000   1.0000   1.0000   1.0000   1.0000
     0.0000   0.0000   0.0000   0.0000

          k =-0.3000 0.5196 0.0000 (  3202 PWs)   bands (ev):

   -10.5259 -10.5122  -4.6930  -4.6625  -3.2115  -3.2073   3.4427   3.6747
     8.8956   8.9887  15.6331  16.4054

     occupation numbers 
     1.0000   1.0000   1.0000   1.0000   1.0000   1.0000   1.0000   1.0000
     0.0000   0.0000   0.0000   0.0000

          k = 0.6000 0.0000 0.0000 (  3202 PWs)   bands (ev):

   -10.5259 -10.5122  -4.6930  -4.6625  -3.2115  -3.2073   3.4427   3.6747
     8.8956   8.9887  15.6331  16.4054

     occupation numbers 
     1.0000   1.0000   1.0000   1.0000   1.0000   1.0000   1.0000   1.0000
     0.0000   0.0000   0.0000   0.0000

          k =-0.3000-0.5196 0.1050 (  3195 PWs)   bands (ev):

   -10.5225 -10.5156  -4.6854  -4.6702  -3.2108  -3.2087   3.5050   3.6213
     8.8902   8.9380  15.9599  16.5652

     occupation numbers 
     1.0000   1.0000   1.0000   1.0000   1.0000   1.0000   1.0000   1.0000
     0.0000   0.0000   0.0000   0.0000

          k =-0.3000 0.5196-0.1050 (  3195 PWs)   bands (ev):

   -10.5225 -10.5156  -4.6854  -4.6702  -3.2108  -3.2087   3.5049   3.6213
     8.8902   8.9380  15.9599  16.5652

     occupation numbers 
     1.0000   1.0000   1.0000   1.0000   1.0000   1.0000   1.0000   1.0000
     0.0000   0.0000   0.0000   0.0000

          k = 0.3000-0.5196-0.1050 (  3195 PWs)   bands (ev):

   -10.5225 -10.5156  -4.6854  -4.6702  -3.2108  -3.2087   3.5049   3.6213
     8.8902   8.9380  15.9599  16.5652

     occupation numbers 
     1.0000   1.0000   1.0000   1.0000   1.0000   1.0000   1.0000   1.0000
     0.0000   0.0000   0.0000   0.0000

          k = 0.6000 0.0000 0.1050 (  3195 PWs)   bands (ev):

   -10.5225 -10.5156  -4.6854  -4.6702  -3.2108  -3.2087   3.5049   3.6213
     8.8902   8.9380  15.9599  16.5652

     occupation numbers 
     1.0000   1.0000   1.0000   1.0000   1.0000   1.0000   1.0000   1.0000
     0.0000   0.0000   0.0000   0.0000

          k =-0.6000-0.0000 0.1050 (  3195 PWs)   bands (ev):

   -10.5225 -10.5156  -4.6854  -4.6702  -3.2108  -3.2087   3.5049   3.6213
     8.8902   8.9380  15.9599  16.5652

     occupation numbers 
     1.0000   1.0000   1.0000   1.0000   1.0000   1.0000   1.0000   1.0000
     0.0000   0.0000   0.0000   0.0000

     the Fermi energy is     5.2771 ev

!    total energy              =     -54.85867093 Ry
     estimated scf accuracy    <          1.7E-11 Ry
     smearing contrib. (-TS)   =       0.00000000 Ry
     internal energy E=F+TS    =     -54.85867093 Ry

     The total energy is F=E-TS. E is the sum of the following terms:
     one-electron contribution =     -29.59832194 Ry
     hartree contribution      =      22.69299687 Ry
     xc contribution           =     -18.87592403 Ry
     ewald contribution        =     -29.07742183 Ry

     convergence has been achieved in  12 iterations

     Forces acting on atoms (cartesian axes, Ry/au):

     atom    1 type  1   force =     0.00000311   -0.00000519   -0.00000144
     atom    2 type  1   force =    -0.00000303    0.00000528   -0.00000132
     atom    3 type  2   force =     0.00000511   -0.00000240    0.00000145
     atom    4 type  2   force =    -0.00000519    0.00000232    0.00000131
     The non-local contrib.  to forces
     atom    1 type  1   force =     0.00000324    0.00000165   -0.00001301
     atom    2 type  1   force =    -0.00000658    0.00000808   -0.00001294
     atom    3 type  2   force =     0.00000111    0.00000168   -0.00000241
     atom    4 type  2   force =    -0.00000279    0.00000286   -0.00000248
     The ionic contribution  to forces
     atom    1 type  1   force =     0.00001649   -0.00000952   -0.00000000
     atom    2 type  1   force =    -0.00001649    0.00000952    0.00000000
     atom    3 type  2   force =     0.00001649   -0.00000952    0.00000000
     atom    4 type  2   force =    -0.00001649    0.00000952   -0.00000000
     The local contribution  to forces
     atom    1 type  1   force =    -0.00001494    0.00000719    0.00000481
     atom    2 type  1   force =     0.00001692   -0.00001289    0.00000451
     atom    3 type  2   force =    -0.00001238    0.00000557    0.00000086
     atom    4 type  2   force =     0.00001370   -0.00000976    0.00000143
     The core correction contribution to forces
     atom    1 type  1   force =    -0.00000177   -0.00000437    0.00000443
     atom    2 type  1   force =     0.00000302    0.00000070    0.00000449
     atom    3 type  2   force =    -0.00000021    0.00000003    0.00000013
     atom    4 type  2   force =     0.00000026   -0.00000019    0.00000014
     The Hubbard contrib.    to forces
     atom    1 type  1   force =     0.00000000    0.00000000    0.00000000
     atom    2 type  1   force =     0.00000000    0.00000000    0.00000000
     atom    3 type  2   force =     0.00000000    0.00000000    0.00000000
     atom    4 type  2   force =     0.00000000    0.00000000    0.00000000
     The SCF correction term to forces
     atom    1 type  1   force =     0.00000000    0.00000000   -0.00000011
     atom    2 type  1   force =    -0.00000000    0.00000000    0.00000017
     atom    3 type  2   force =    -0.00000001   -0.00000002    0.00000042
     atom    4 type  2   force =     0.00000003    0.00000003   -0.00000022

     Total force =     0.000012     Total SCF correction =     0.000001


     Computing stress (Cartesian axis) and pressure

          total   stress  (Ry/bohr**3)                   (kbar)     P=      229.07
   0.00232616   0.00000002   0.00000000          342.19        0.00        0.00
   0.00000002   0.00232620  -0.00000000            0.00      342.20       -0.00
   0.00000000  -0.00000000   0.00001919            0.00       -0.00        2.82

     kinetic stress (kbar)  13509.83     -0.00     -0.00
                               -0.00  13509.82      0.00
                               -0.00      0.00  14589.40

     local   stress (kbar) -25620.26     -0.04      0.00
                               -0.04 -25620.31      0.00
                                0.00      0.00  27981.68

     nonloc. stress (kbar)  -1783.66      0.00      0.00
                                0.00  -1783.66     -0.00
                                0.00     -0.00  -1782.00

     hartree stress (kbar)  10378.75      0.00     -0.00
                                0.00  10378.76      0.00
                               -0.00      0.00  -8192.61

     exc-cor stress (kbar)   -717.58      0.00     -0.00
                                0.00   -717.58      0.00
                               -0.00      0.00   -832.37

     corecor stress (kbar)  -2187.26     -0.00      0.00
                               -0.00  -2187.25     -0.00
                                0.00     -0.00  -2136.60

     ewald   stress (kbar)   6762.37      0.04      0.00
                                0.04   6762.42     -0.00
                                0.00     -0.00 -29624.69

     hubbard stress (kbar)      0.00      0.00      0.00
                                0.00      0.00      0.00
                                0.00      0.00      0.00

     DFT-D   stress (kbar)      0.00      0.00      0.00
                                0.00      0.00      0.00
                                0.00      0.00      0.00

     XDM     stress (kbar)      0.00      0.00      0.00
                                0.00      0.00      0.00
                                0.00      0.00      0.00

     dft-nl  stress (kbar)      0.00      0.00      0.00
                                0.00      0.00      0.00
                                0.00      0.00      0.00

     TS-vdW  stress (kbar)      0.00      0.00      0.00
                                0.00      0.00      0.00
                                0.00      0.00      0.00



     init_run     :      0.50s CPU      1.34s WALL (       1 calls)
     electrons    :     12.77s CPU     13.62s WALL (       1 calls)
     forces       :      0.12s CPU      0.12s WALL (       1 calls)
     stress       :      0.33s CPU      0.33s WALL (       1 calls)

     Called by init_run:
     wfcinit      :      0.40s CPU      0.81s WALL (       1 calls)
     wfcinit:atom :      0.01s CPU      0.01s WALL (     152 calls)
     wfcinit:wfcr :      0.35s CPU      0.77s WALL (     152 calls)
     potinit      :      0.03s CPU      0.06s WALL (       1 calls)
     hinit0       :      0.06s CPU      0.35s WALL (       1 calls)

     Called by electrons:
     c_bands      :     11.11s CPU     11.80s WALL (      12 calls)
     sum_band     :      1.53s CPU      1.63s WALL (      12 calls)
     v_of_rho     :      0.07s CPU      0.08s WALL (      13 calls)
     v_h          :      0.00s CPU      0.00s WALL (      13 calls)
     v_xc         :      0.07s CPU      0.09s WALL (      15 calls)
     newd         :      0.04s CPU      0.12s WALL (      13 calls)
     mix_rho      :      0.01s CPU      0.06s WALL (      12 calls)

     Called by c_bands:
     init_us_2    :      0.27s CPU      0.28s WALL (    4104 calls)
     cegterg      :     10.61s CPU     11.28s WALL (    1824 calls)

     Called by sum_band:
     sum_band:wei :      0.00s CPU      0.00s WALL (      12 calls)
     sum_band:loo :      1.49s CPU      1.55s WALL (      12 calls)
     sum_band:buf :      0.04s CPU      0.04s WALL (    1824 calls)
     sum_band:ini :      0.10s CPU      0.10s WALL (    1824 calls)
     sum_band:cal :      0.10s CPU      0.10s WALL (    1824 calls)
     sum_band:bec :      0.01s CPU      0.01s WALL (    1824 calls)
     addusdens    :      0.04s CPU      0.07s WALL (      12 calls)
     addusd:skk   :      0.00s CPU      0.00s WALL (      12 calls)
     addusd:dgemm :      0.02s CPU      0.05s WALL (      12 calls)
     addusd:qvan2 :      0.01s CPU      0.01s WALL (      12 calls)

     Called by *egterg:
     cdiaghg      :      1.14s CPU      1.77s WALL (    8416 calls)
     cegterg:over :      0.49s CPU      0.53s WALL (    6592 calls)
     cegterg:upda :      0.15s CPU      0.16s WALL (    6592 calls)
     cegterg:last :      0.25s CPU      0.26s WALL (    4369 calls)
     h_psi        :      8.35s CPU      8.73s WALL (    8568 calls)
     s_psi        :      0.18s CPU      0.18s WALL (    8568 calls)
     g_psi        :      0.04s CPU      0.04s WALL (    6592 calls)

     Called by h_psi:
     h_psi:calbec :      0.62s CPU      0.69s WALL (    8568 calls)
     vloc_psi     :      7.44s CPU      7.74s WALL (    8568 calls)
     add_vuspsi   :      0.22s CPU      0.23s WALL (    8568 calls)

     General routines
     calbec       :      0.75s CPU      0.83s WALL (   11152 calls)
     fft          :      0.03s CPU      0.28s WALL (     192 calls)
     ffts         :      0.00s CPU      0.01s WALL (      25 calls)
     fftw         :      7.95s CPU      8.28s WALL (  151086 calls)
     interpolate  :      0.00s CPU      0.01s WALL (      13 calls)

     Parallel routines
     fft_scatt_xy :      0.92s CPU      0.95s WALL (  151303 calls)
     fft_scatt_yz :      2.07s CPU      2.15s WALL (  151303 calls)

     PWSCF        :     13.78s CPU     16.14s WALL


   This run was terminated on:  21: 7:30  28Sep2022            

=------------------------------------------------------------------------------=
   JOB DONE.
=------------------------------------------------------------------------------=
Note: The following floating-point exceptions are signalling: IEEE_UNDERFLOW_FLAG IEEE_DENORMAL
