
     Program PWSCF v.6.7MaX starts on 28Sep2022 at 21:19:44 

     This program is part of the open-source Quantum ESPRESSO suite
     for quantum simulation of materials; please cite
         "P. Giannozzi et al., J. Phys.:Condens. Matter 21 395502 (2009);
         "P. Giannozzi et al., J. Phys.:Condens. Matter 29 465901 (2017);
          URL http://www.quantum-espresso.org", 
     in publications or presentations arising from this work. More details at
     http://www.quantum-espresso.org/quote

     Parallel version (MPI), running on    16 processors

     MPI processes distributed on     1 nodes
     R & G space division:  proc/nbgrp/npool/nimage =      16
     Reading input from scale_2dab-00.in

     Current dimensions of program PWSCF are:
     Max number of different atomic species (ntypx) = 10
     Max number of k-points (npk) =  40000
     Max angular momentum in pseudopotentials (lmaxx) =  3
     Message from routine read_pp_mesh:
     mesh size missing, using the one in header

     Subspace diagonalization in iterative solution of the eigenvalue problem:
     a serial algorithm will be used


     Parallelization info
     --------------------
     sticks:   dense  smooth     PW     G-vecs:    dense   smooth      PW
     Min          40      28      8                 1422      873     144
     Max          41      30     10                 1425      877     148
     Sum         649     463    139                22769    13995    2323



     bravais-lattice index     =            0
     lattice parameter (alat)  =       4.5849  a.u.
     unit-cell volume          =     145.4133 (a.u.)^3
     number of atoms/cell      =            4
     number of atomic types    =            2
     number of electrons       =        16.00
     number of Kohn-Sham states=           12
     kinetic-energy cutoff     =      80.0000  Ry
     charge density cutoff     =     440.0000  Ry
     scf convergence threshold =      2.0E-10
     mixing beta               =       0.4000
     number of iterations used =            8  plain     mixing
     Exchange-correlation= PBE
                           (   1   4   3   4   0   0   0)

     celldm(1)=   4.584863  celldm(2)=   0.000000  celldm(3)=   0.000000
     celldm(4)=   0.000000  celldm(5)=   0.000000  celldm(6)=   0.000000

     crystal axes: (cart. coord. in units of alat)
               a(1) = (   1.000000   0.000000   0.000000 )  
               a(2) = (  -0.500000   0.866025   0.000000 )  
               a(3) = (   0.000000   0.000000   1.742186 )  

     reciprocal axes: (cart. coord. in units 2 pi/alat)
               b(1) = (  1.000000  0.577350 -0.000000 )  
               b(2) = (  0.000000  1.154701  0.000000 )  
               b(3) = (  0.000000 -0.000000  0.573992 )  


     PseudoPot. # 1 for B  read from file:
     /opt/QEpot/SSSP_precision_pseudos/B_pbe_v1.01.uspp.F.UPF
     MD5 check sum: d081ebb89d0c768e112975f650467a00
     Pseudo is Ultrasoft + core correction, Zval =  3.0
     Generated by new atomic code, or converted to UPF format
     Using radial grid of  781 points,  4 beta functions with: 
                l(1) =   0
                l(2) =   0
                l(3) =   1
                l(4) =   1
     Q(r) pseudized with  8 coefficients,  rinner =    1.100   1.100   1.100


     PseudoPot. # 2 for N  read from file:
     /opt/QEpot/SSSP_precision_pseudos/N.oncvpsp.upf
     MD5 check sum: 563d65bfb082928f0c9eb97172f6c357
     Pseudo is Norm-conserving + core correction, Zval =  5.0
     Generated using ONCVPSP code by D. R. Hamann
     Using radial grid of 1058 points,  4 beta functions with: 
                l(1) =   0
                l(2) =   0
                l(3) =   1
                l(4) =   1

     atomic species   valence    mass     pseudopotential
        B              3.00    10.81000     B ( 1.00)
        N              5.00    14.00700     N ( 1.00)

     No symmetry found


                                    s                        frac. trans.

      isym =  1     identity                                     

 cryst.   s( 1) = (     1          0          0      )
                  (     0          1          0      )
                  (     0          0          1      )

 cart.    s( 1) = (  1.0000000  0.0000000  0.0000000 )
                  (  0.0000000  1.0000000  0.0000000 )
                  (  0.0000000  0.0000000  1.0000000 )


   Cartesian axes

     site n.     atom                  positions (alat units)
         1           B   tau(   1) = (   0.0022200   0.5765229   0.8675385  )
         2           B   tau(   2) = (   0.5022210   0.2878472   1.7386314  )
         3           N   tau(   3) = (   0.0022200   0.5765229   0.2151805  )
         4           N   tau(   4) = (   0.5022210   0.2878472   1.0862734  )

   Crystallographic axes

     site n.     atom                  positions (cryst. coord.)
         1           B   tau(   1) = (  0.3350756  0.6657113  0.4979598  )
         2           B   tau(   2) = (  0.6684096  0.3323773  0.9979598  )
         3           N   tau(   3) = (  0.3350756  0.6657113  0.1235118  )
         4           N   tau(   4) = (  0.6684096  0.3323773  0.6235118  )

     number of k points=   252  Marzari-Vanderbilt smearing, width (Ry)=  0.0220
                       cart. coord. in units 2pi/alat
        k(    1) = (   0.0000000   0.0000000   0.0000000), wk =   0.0040000
        k(    2) = (   0.0000000   0.0000000   0.1147983), wk =   0.0080000
        k(    3) = (   0.0000000   0.0000000   0.2295966), wk =   0.0080000
        k(    4) = (   0.0000000   0.1154701   0.0000000), wk =   0.0080000
        k(    5) = (   0.0000000   0.1154701   0.1147983), wk =   0.0080000
        k(    6) = (   0.0000000   0.1154701   0.2295966), wk =   0.0080000
        k(    7) = (   0.0000000   0.2309401   0.0000000), wk =   0.0080000
        k(    8) = (   0.0000000   0.2309401   0.1147983), wk =   0.0080000
        k(    9) = (   0.0000000   0.2309401   0.2295966), wk =   0.0080000
        k(   10) = (   0.0000000   0.3464102   0.0000000), wk =   0.0080000
        k(   11) = (   0.0000000   0.3464102   0.1147983), wk =   0.0080000
        k(   12) = (   0.0000000   0.3464102   0.2295966), wk =   0.0080000
        k(   13) = (   0.0000000   0.4618802   0.0000000), wk =   0.0080000
        k(   14) = (   0.0000000   0.4618802   0.1147983), wk =   0.0080000
        k(   15) = (   0.0000000   0.4618802   0.2295966), wk =   0.0080000
        k(   16) = (   0.0000000  -0.5773503   0.0000000), wk =   0.0040000
        k(   17) = (   0.0000000  -0.5773503   0.1147983), wk =   0.0080000
        k(   18) = (   0.0000000  -0.5773503   0.2295966), wk =   0.0080000
        k(   19) = (   0.1000000   0.1732051   0.0000000), wk =   0.0080000
        k(   20) = (   0.1000000   0.1732051   0.1147983), wk =   0.0080000
        k(   21) = (   0.1000000   0.1732051   0.2295966), wk =   0.0080000
        k(   22) = (   0.1000000   0.2886751   0.0000000), wk =   0.0080000
        k(   23) = (   0.1000000   0.2886751   0.1147983), wk =   0.0080000
        k(   24) = (   0.1000000   0.2886751   0.2295966), wk =   0.0080000
        k(   25) = (   0.1000000   0.4041452   0.0000000), wk =   0.0080000
        k(   26) = (   0.1000000   0.4041452   0.1147983), wk =   0.0080000
        k(   27) = (   0.1000000   0.4041452   0.2295966), wk =   0.0080000
        k(   28) = (   0.1000000   0.5196152   0.0000000), wk =   0.0080000
        k(   29) = (   0.1000000   0.5196152   0.1147983), wk =   0.0080000
        k(   30) = (   0.1000000   0.5196152   0.2295966), wk =   0.0080000
        k(   31) = (   0.2000000   0.3464102   0.0000000), wk =   0.0080000
        k(   32) = (   0.2000000   0.3464102   0.1147983), wk =   0.0080000
        k(   33) = (   0.2000000   0.3464102   0.2295966), wk =   0.0080000
        k(   34) = (   0.2000000   0.4618802   0.0000000), wk =   0.0080000
        k(   35) = (   0.2000000   0.4618802   0.1147983), wk =   0.0080000
        k(   36) = (   0.2000000   0.4618802   0.2295966), wk =   0.0080000
        k(   37) = (   0.2000000   0.5773503   0.0000000), wk =   0.0080000
        k(   38) = (   0.2000000   0.5773503   0.1147983), wk =   0.0080000
        k(   39) = (   0.2000000   0.5773503   0.2295966), wk =   0.0080000
        k(   40) = (   0.3000000   0.5196152   0.0000000), wk =   0.0080000
        k(   41) = (   0.3000000   0.5196152   0.1147983), wk =   0.0080000
        k(   42) = (   0.3000000   0.5196152   0.2295966), wk =   0.0080000
        k(   43) = (  -0.1000000   0.0577350   0.0000000), wk =   0.0080000
        k(   44) = (   0.1000000   0.0577350   0.0000000), wk =   0.0080000
        k(   45) = (   0.0000000  -0.1154701   0.1147983), wk =   0.0080000
        k(   46) = (  -0.1000000   0.0577350   0.1147983), wk =   0.0080000
        k(   47) = (   0.1000000   0.0577350   0.1147983), wk =   0.0080000
        k(   48) = (  -0.1000000  -0.0577350   0.1147983), wk =   0.0080000
        k(   49) = (   0.1000000  -0.0577350   0.1147983), wk =   0.0080000
        k(   50) = (   0.0000000  -0.1154701   0.2295966), wk =   0.0080000
        k(   51) = (  -0.1000000   0.0577350   0.2295966), wk =   0.0080000
        k(   52) = (   0.1000000   0.0577350   0.2295966), wk =   0.0080000
        k(   53) = (  -0.1000000  -0.0577350   0.2295966), wk =   0.0080000
        k(   54) = (   0.1000000  -0.0577350   0.2295966), wk =   0.0080000
        k(   55) = (  -0.2000000   0.1154701   0.0000000), wk =   0.0080000
        k(   56) = (   0.2000000   0.1154701   0.0000000), wk =   0.0080000
        k(   57) = (   0.0000000  -0.2309401   0.1147983), wk =   0.0080000
        k(   58) = (  -0.2000000   0.1154701   0.1147983), wk =   0.0080000
        k(   59) = (   0.2000000   0.1154701   0.1147983), wk =   0.0080000
        k(   60) = (  -0.2000000  -0.1154701   0.1147983), wk =   0.0080000
        k(   61) = (   0.2000000  -0.1154701   0.1147983), wk =   0.0080000
        k(   62) = (   0.0000000  -0.2309401   0.2295966), wk =   0.0080000
        k(   63) = (  -0.2000000   0.1154701   0.2295966), wk =   0.0080000
        k(   64) = (   0.2000000   0.1154701   0.2295966), wk =   0.0080000
        k(   65) = (  -0.2000000  -0.1154701   0.2295966), wk =   0.0080000
        k(   66) = (   0.2000000  -0.1154701   0.2295966), wk =   0.0080000
        k(   67) = (  -0.3000000   0.1732051   0.0000000), wk =   0.0080000
        k(   68) = (   0.3000000   0.1732051   0.0000000), wk =   0.0080000
        k(   69) = (   0.0000000  -0.3464102   0.1147983), wk =   0.0080000
        k(   70) = (  -0.3000000   0.1732051   0.1147983), wk =   0.0080000
        k(   71) = (   0.3000000   0.1732051   0.1147983), wk =   0.0080000
        k(   72) = (  -0.3000000  -0.1732051   0.1147983), wk =   0.0080000
        k(   73) = (   0.3000000  -0.1732051   0.1147983), wk =   0.0080000
        k(   74) = (   0.0000000  -0.3464102   0.2295966), wk =   0.0080000
        k(   75) = (  -0.3000000   0.1732051   0.2295966), wk =   0.0080000
        k(   76) = (   0.3000000   0.1732051   0.2295966), wk =   0.0080000
        k(   77) = (  -0.3000000  -0.1732051   0.2295966), wk =   0.0080000
        k(   78) = (   0.3000000  -0.1732051   0.2295966), wk =   0.0080000
        k(   79) = (  -0.4000000   0.2309401   0.0000000), wk =   0.0080000
        k(   80) = (   0.4000000   0.2309401   0.0000000), wk =   0.0080000
        k(   81) = (   0.0000000  -0.4618802   0.1147983), wk =   0.0080000
        k(   82) = (  -0.4000000   0.2309401   0.1147983), wk =   0.0080000
        k(   83) = (   0.4000000   0.2309401   0.1147983), wk =   0.0080000
        k(   84) = (  -0.4000000  -0.2309401   0.1147983), wk =   0.0080000
        k(   85) = (   0.4000000  -0.2309401   0.1147983), wk =   0.0080000
        k(   86) = (   0.0000000  -0.4618802   0.2295966), wk =   0.0080000
        k(   87) = (  -0.4000000   0.2309401   0.2295966), wk =   0.0080000
        k(   88) = (   0.4000000   0.2309401   0.2295966), wk =   0.0080000
        k(   89) = (  -0.4000000  -0.2309401   0.2295966), wk =   0.0080000
        k(   90) = (   0.4000000  -0.2309401   0.2295966), wk =   0.0080000
        k(   91) = (   0.5000000  -0.2886751   0.0000000), wk =   0.0040000
        k(   92) = (  -0.5000000  -0.2886751   0.0000000), wk =   0.0040000
        k(   93) = (   0.5000000  -0.2886751   0.1147983), wk =   0.0080000
        k(   94) = (  -0.5000000  -0.2886751   0.1147983), wk =   0.0080000
        k(   95) = (   0.5000000  -0.2886751   0.2295966), wk =   0.0080000
        k(   96) = (  -0.5000000  -0.2886751   0.2295966), wk =   0.0080000
        k(   97) = (  -0.1000000   0.1732051   0.0000000), wk =   0.0080000
        k(   98) = (   0.2000000   0.0000000   0.0000000), wk =   0.0080000
        k(   99) = (  -0.1000000  -0.1732051   0.1147983), wk =   0.0080000
        k(  100) = (  -0.1000000   0.1732051  -0.1147983), wk =   0.0080000
        k(  101) = (   0.1000000  -0.1732051  -0.1147983), wk =   0.0080000
        k(  102) = (   0.2000000   0.0000000   0.1147983), wk =   0.0080000
        k(  103) = (  -0.2000000   0.0000000   0.1147983), wk =   0.0080000
        k(  104) = (  -0.1000000  -0.1732051   0.2295966), wk =   0.0080000
        k(  105) = (  -0.1000000   0.1732051  -0.2295966), wk =   0.0080000
        k(  106) = (   0.1000000  -0.1732051  -0.2295966), wk =   0.0080000
        k(  107) = (   0.2000000   0.0000000   0.2295966), wk =   0.0080000
        k(  108) = (  -0.2000000   0.0000000   0.2295966), wk =   0.0080000
        k(  109) = (  -0.1000000   0.2886751   0.0000000), wk =   0.0080000
        k(  110) = (  -0.2000000   0.2309401   0.0000000), wk =   0.0080000
        k(  111) = (   0.3000000   0.0577350   0.0000000), wk =   0.0080000
        k(  112) = (  -0.2000000  -0.2309401   0.0000000), wk =   0.0080000
        k(  113) = (   0.3000000  -0.0577350   0.0000000), wk =   0.0080000
        k(  114) = (  -0.1000000  -0.2886751   0.1147983), wk =   0.0080000
        k(  115) = (  -0.1000000   0.2886751  -0.1147983), wk =   0.0080000
        k(  116) = (   0.1000000  -0.2886751  -0.1147983), wk =   0.0080000
        k(  117) = (  -0.2000000   0.2309401   0.1147983), wk =   0.0080000
        k(  118) = (   0.3000000   0.0577350   0.1147983), wk =   0.0080000
        k(  119) = (  -0.3000000  -0.0577350   0.1147983), wk =   0.0080000
        k(  120) = (   0.2000000  -0.2309401   0.1147983), wk =   0.0080000
        k(  121) = (  -0.2000000  -0.2309401  -0.1147983), wk =   0.0080000
        k(  122) = (   0.3000000  -0.0577350  -0.1147983), wk =   0.0080000
        k(  123) = (  -0.3000000   0.0577350  -0.1147983), wk =   0.0080000
        k(  124) = (   0.2000000   0.2309401  -0.1147983), wk =   0.0080000
        k(  125) = (  -0.1000000  -0.2886751   0.2295966), wk =   0.0080000
        k(  126) = (  -0.1000000   0.2886751  -0.2295966), wk =   0.0080000
        k(  127) = (   0.1000000  -0.2886751  -0.2295966), wk =   0.0080000
        k(  128) = (  -0.2000000   0.2309401   0.2295966), wk =   0.0080000
        k(  129) = (   0.3000000   0.0577350   0.2295966), wk =   0.0080000
        k(  130) = (  -0.3000000  -0.0577350   0.2295966), wk =   0.0080000
        k(  131) = (   0.2000000  -0.2309401   0.2295966), wk =   0.0080000
        k(  132) = (  -0.2000000  -0.2309401  -0.2295966), wk =   0.0080000
        k(  133) = (   0.3000000  -0.0577350  -0.2295966), wk =   0.0080000
        k(  134) = (  -0.3000000   0.0577350  -0.2295966), wk =   0.0080000
        k(  135) = (   0.2000000   0.2309401  -0.2295966), wk =   0.0080000
        k(  136) = (  -0.1000000   0.4041452   0.0000000), wk =   0.0080000
        k(  137) = (  -0.3000000   0.2886751   0.0000000), wk =   0.0080000
        k(  138) = (   0.4000000   0.1154701   0.0000000), wk =   0.0080000
        k(  139) = (  -0.3000000  -0.2886751   0.0000000), wk =   0.0080000
        k(  140) = (   0.4000000  -0.1154701   0.0000000), wk =   0.0080000
        k(  141) = (  -0.1000000  -0.4041452   0.1147983), wk =   0.0080000
        k(  142) = (  -0.1000000   0.4041452  -0.1147983), wk =   0.0080000
        k(  143) = (   0.1000000  -0.4041452  -0.1147983), wk =   0.0080000
        k(  144) = (  -0.3000000   0.2886751   0.1147983), wk =   0.0080000
        k(  145) = (   0.4000000   0.1154701   0.1147983), wk =   0.0080000
        k(  146) = (  -0.4000000  -0.1154701   0.1147983), wk =   0.0080000
        k(  147) = (   0.3000000  -0.2886751   0.1147983), wk =   0.0080000
        k(  148) = (  -0.3000000  -0.2886751  -0.1147983), wk =   0.0080000
        k(  149) = (   0.4000000  -0.1154701  -0.1147983), wk =   0.0080000
        k(  150) = (  -0.4000000   0.1154701  -0.1147983), wk =   0.0080000
        k(  151) = (   0.3000000   0.2886751  -0.1147983), wk =   0.0080000
        k(  152) = (  -0.1000000  -0.4041452   0.2295966), wk =   0.0080000
        k(  153) = (  -0.1000000   0.4041452  -0.2295966), wk =   0.0080000
        k(  154) = (   0.1000000  -0.4041452  -0.2295966), wk =   0.0080000
        k(  155) = (  -0.3000000   0.2886751   0.2295966), wk =   0.0080000
        k(  156) = (   0.4000000   0.1154701   0.2295966), wk =   0.0080000
        k(  157) = (  -0.4000000  -0.1154701   0.2295966), wk =   0.0080000
        k(  158) = (   0.3000000  -0.2886751   0.2295966), wk =   0.0080000
        k(  159) = (  -0.3000000  -0.2886751  -0.2295966), wk =   0.0080000
        k(  160) = (   0.4000000  -0.1154701  -0.2295966), wk =   0.0080000
        k(  161) = (  -0.4000000   0.1154701  -0.2295966), wk =   0.0080000
        k(  162) = (   0.3000000   0.2886751  -0.2295966), wk =   0.0080000
        k(  163) = (  -0.1000000   0.5196152   0.0000000), wk =   0.0080000
        k(  164) = (  -0.4000000   0.3464102   0.0000000), wk =   0.0080000
        k(  165) = (   0.5000000   0.1732051   0.0000000), wk =   0.0080000
        k(  166) = (  -0.4000000  -0.3464102   0.0000000), wk =   0.0080000
        k(  167) = (   0.5000000  -0.1732051   0.0000000), wk =   0.0080000
        k(  168) = (  -0.1000000  -0.5196152   0.1147983), wk =   0.0080000
        k(  169) = (  -0.1000000   0.5196152  -0.1147983), wk =   0.0080000
        k(  170) = (   0.1000000  -0.5196152  -0.1147983), wk =   0.0080000
        k(  171) = (  -0.4000000   0.3464102   0.1147983), wk =   0.0080000
        k(  172) = (   0.5000000   0.1732051   0.1147983), wk =   0.0080000
        k(  173) = (  -0.5000000  -0.1732051   0.1147983), wk =   0.0080000
        k(  174) = (   0.4000000  -0.3464102   0.1147983), wk =   0.0080000
        k(  175) = (  -0.4000000  -0.3464102  -0.1147983), wk =   0.0080000
        k(  176) = (   0.5000000  -0.1732051  -0.1147983), wk =   0.0080000
        k(  177) = (  -0.5000000   0.1732051  -0.1147983), wk =   0.0080000
        k(  178) = (   0.4000000   0.3464102  -0.1147983), wk =   0.0080000
        k(  179) = (  -0.1000000  -0.5196152   0.2295966), wk =   0.0080000
        k(  180) = (  -0.1000000   0.5196152  -0.2295966), wk =   0.0080000
        k(  181) = (   0.1000000  -0.5196152  -0.2295966), wk =   0.0080000
        k(  182) = (  -0.4000000   0.3464102   0.2295966), wk =   0.0080000
        k(  183) = (   0.5000000   0.1732051   0.2295966), wk =   0.0080000
        k(  184) = (  -0.5000000  -0.1732051   0.2295966), wk =   0.0080000
        k(  185) = (   0.4000000  -0.3464102   0.2295966), wk =   0.0080000
        k(  186) = (  -0.4000000  -0.3464102  -0.2295966), wk =   0.0080000
        k(  187) = (   0.5000000  -0.1732051  -0.2295966), wk =   0.0080000
        k(  188) = (  -0.5000000   0.1732051  -0.2295966), wk =   0.0080000
        k(  189) = (   0.4000000   0.3464102  -0.2295966), wk =   0.0080000
        k(  190) = (  -0.2000000   0.3464102   0.0000000), wk =   0.0080000
        k(  191) = (   0.4000000   0.0000000   0.0000000), wk =   0.0080000
        k(  192) = (  -0.2000000  -0.3464102   0.1147983), wk =   0.0080000
        k(  193) = (  -0.2000000   0.3464102  -0.1147983), wk =   0.0080000
        k(  194) = (   0.2000000  -0.3464102  -0.1147983), wk =   0.0080000
        k(  195) = (   0.4000000   0.0000000   0.1147983), wk =   0.0080000
        k(  196) = (  -0.4000000   0.0000000   0.1147983), wk =   0.0080000
        k(  197) = (  -0.2000000  -0.3464102   0.2295966), wk =   0.0080000
        k(  198) = (  -0.2000000   0.3464102  -0.2295966), wk =   0.0080000
        k(  199) = (   0.2000000  -0.3464102  -0.2295966), wk =   0.0080000
        k(  200) = (   0.4000000   0.0000000   0.2295966), wk =   0.0080000
        k(  201) = (  -0.4000000   0.0000000   0.2295966), wk =   0.0080000
        k(  202) = (  -0.2000000   0.4618802   0.0000000), wk =   0.0080000
        k(  203) = (  -0.3000000   0.4041452   0.0000000), wk =   0.0080000
        k(  204) = (   0.5000000   0.0577350   0.0000000), wk =   0.0080000
        k(  205) = (  -0.3000000  -0.4041452   0.0000000), wk =   0.0080000
        k(  206) = (   0.5000000  -0.0577350   0.0000000), wk =   0.0080000
        k(  207) = (  -0.2000000  -0.4618802   0.1147983), wk =   0.0080000
        k(  208) = (  -0.2000000   0.4618802  -0.1147983), wk =   0.0080000
        k(  209) = (   0.2000000  -0.4618802  -0.1147983), wk =   0.0080000
        k(  210) = (  -0.3000000   0.4041452   0.1147983), wk =   0.0080000
        k(  211) = (   0.5000000   0.0577350   0.1147983), wk =   0.0080000
        k(  212) = (  -0.5000000  -0.0577350   0.1147983), wk =   0.0080000
        k(  213) = (   0.3000000  -0.4041452   0.1147983), wk =   0.0080000
        k(  214) = (  -0.3000000  -0.4041452  -0.1147983), wk =   0.0080000
        k(  215) = (   0.5000000  -0.0577350  -0.1147983), wk =   0.0080000
        k(  216) = (  -0.5000000   0.0577350  -0.1147983), wk =   0.0080000
        k(  217) = (   0.3000000   0.4041452  -0.1147983), wk =   0.0080000
        k(  218) = (  -0.2000000  -0.4618802   0.2295966), wk =   0.0080000
        k(  219) = (  -0.2000000   0.4618802  -0.2295966), wk =   0.0080000
        k(  220) = (   0.2000000  -0.4618802  -0.2295966), wk =   0.0080000
        k(  221) = (  -0.3000000   0.4041452   0.2295966), wk =   0.0080000
        k(  222) = (   0.5000000   0.0577350   0.2295966), wk =   0.0080000
        k(  223) = (  -0.5000000  -0.0577350   0.2295966), wk =   0.0080000
        k(  224) = (   0.3000000  -0.4041452   0.2295966), wk =   0.0080000
        k(  225) = (  -0.3000000  -0.4041452  -0.2295966), wk =   0.0080000
        k(  226) = (   0.5000000  -0.0577350  -0.2295966), wk =   0.0080000
        k(  227) = (  -0.5000000   0.0577350  -0.2295966), wk =   0.0080000
        k(  228) = (   0.3000000   0.4041452  -0.2295966), wk =   0.0080000
        k(  229) = (  -0.4000000   0.4618802   0.0000000), wk =   0.0080000
        k(  230) = (   0.6000000   0.1154701   0.0000000), wk =   0.0080000
        k(  231) = (  -0.2000000  -0.5773503   0.1147983), wk =   0.0080000
        k(  232) = (  -0.4000000   0.4618802   0.1147983), wk =   0.0080000
        k(  233) = (   0.6000000   0.1154701   0.1147983), wk =   0.0080000
        k(  234) = (  -0.6000000  -0.1154701   0.1147983), wk =   0.0080000
        k(  235) = (   0.4000000  -0.4618802   0.1147983), wk =   0.0080000
        k(  236) = (  -0.2000000  -0.5773503   0.2295966), wk =   0.0080000
        k(  237) = (  -0.4000000   0.4618802   0.2295966), wk =   0.0080000
        k(  238) = (   0.6000000   0.1154701   0.2295966), wk =   0.0080000
        k(  239) = (  -0.6000000  -0.1154701   0.2295966), wk =   0.0080000
        k(  240) = (   0.4000000  -0.4618802   0.2295966), wk =   0.0080000
        k(  241) = (  -0.3000000   0.5196152   0.0000000), wk =   0.0080000
        k(  242) = (   0.6000000  -0.0000000   0.0000000), wk =   0.0080000
        k(  243) = (  -0.3000000  -0.5196152   0.1147983), wk =   0.0080000
        k(  244) = (  -0.3000000   0.5196152  -0.1147983), wk =   0.0080000
        k(  245) = (   0.3000000  -0.5196152  -0.1147983), wk =   0.0080000
        k(  246) = (   0.6000000  -0.0000000   0.1147983), wk =   0.0080000
        k(  247) = (  -0.6000000   0.0000000   0.1147983), wk =   0.0080000
        k(  248) = (  -0.3000000  -0.5196152   0.2295966), wk =   0.0080000
        k(  249) = (  -0.3000000   0.5196152  -0.2295966), wk =   0.0080000
        k(  250) = (   0.3000000  -0.5196152  -0.2295966), wk =   0.0080000
        k(  251) = (   0.6000000  -0.0000000   0.2295966), wk =   0.0080000
        k(  252) = (  -0.6000000   0.0000000   0.2295966), wk =   0.0080000

                       cryst. coord.
        k(    1) = (   0.0000000   0.0000000   0.0000000), wk =   0.0040000
        k(    2) = (   0.0000000   0.0000000   0.2000000), wk =   0.0080000
        k(    3) = (   0.0000000   0.0000000   0.4000000), wk =   0.0080000
        k(    4) = (   0.0000000   0.1000000   0.0000000), wk =   0.0080000
        k(    5) = (   0.0000000   0.1000000   0.2000000), wk =   0.0080000
        k(    6) = (   0.0000000   0.1000000   0.4000000), wk =   0.0080000
        k(    7) = (   0.0000000   0.2000000   0.0000000), wk =   0.0080000
        k(    8) = (   0.0000000   0.2000000   0.2000000), wk =   0.0080000
        k(    9) = (   0.0000000   0.2000000   0.4000000), wk =   0.0080000
        k(   10) = (   0.0000000   0.3000000   0.0000000), wk =   0.0080000
        k(   11) = (   0.0000000   0.3000000   0.2000000), wk =   0.0080000
        k(   12) = (   0.0000000   0.3000000   0.4000000), wk =   0.0080000
        k(   13) = (   0.0000000   0.4000000   0.0000000), wk =   0.0080000
        k(   14) = (   0.0000000   0.4000000   0.2000000), wk =   0.0080000
        k(   15) = (   0.0000000   0.4000000   0.4000000), wk =   0.0080000
        k(   16) = (   0.0000000  -0.5000000   0.0000000), wk =   0.0040000
        k(   17) = (   0.0000000  -0.5000000   0.2000000), wk =   0.0080000
        k(   18) = (   0.0000000  -0.5000000   0.4000000), wk =   0.0080000
        k(   19) = (   0.1000000   0.1000000   0.0000000), wk =   0.0080000
        k(   20) = (   0.1000000   0.1000000   0.2000000), wk =   0.0080000
        k(   21) = (   0.1000000   0.1000000   0.4000000), wk =   0.0080000
        k(   22) = (   0.1000000   0.2000000   0.0000000), wk =   0.0080000
        k(   23) = (   0.1000000   0.2000000   0.2000000), wk =   0.0080000
        k(   24) = (   0.1000000   0.2000000   0.4000000), wk =   0.0080000
        k(   25) = (   0.1000000   0.3000000   0.0000000), wk =   0.0080000
        k(   26) = (   0.1000000   0.3000000   0.2000000), wk =   0.0080000
        k(   27) = (   0.1000000   0.3000000   0.4000000), wk =   0.0080000
        k(   28) = (   0.1000000   0.4000000   0.0000000), wk =   0.0080000
        k(   29) = (   0.1000000   0.4000000   0.2000000), wk =   0.0080000
        k(   30) = (   0.1000000   0.4000000   0.4000000), wk =   0.0080000
        k(   31) = (   0.2000000   0.2000000   0.0000000), wk =   0.0080000
        k(   32) = (   0.2000000   0.2000000   0.2000000), wk =   0.0080000
        k(   33) = (   0.2000000   0.2000000   0.4000000), wk =   0.0080000
        k(   34) = (   0.2000000   0.3000000   0.0000000), wk =   0.0080000
        k(   35) = (   0.2000000   0.3000000   0.2000000), wk =   0.0080000
        k(   36) = (   0.2000000   0.3000000   0.4000000), wk =   0.0080000
        k(   37) = (   0.2000000   0.4000000   0.0000000), wk =   0.0080000
        k(   38) = (   0.2000000   0.4000000   0.2000000), wk =   0.0080000
        k(   39) = (   0.2000000   0.4000000   0.4000000), wk =   0.0080000
        k(   40) = (   0.3000000   0.3000000   0.0000000), wk =   0.0080000
        k(   41) = (   0.3000000   0.3000000   0.2000000), wk =   0.0080000
        k(   42) = (   0.3000000   0.3000000   0.4000000), wk =   0.0080000
        k(   43) = (  -0.1000000   0.1000000   0.0000000), wk =   0.0080000
        k(   44) = (   0.1000000   0.0000000   0.0000000), wk =   0.0080000
        k(   45) = (   0.0000000  -0.1000000   0.2000000), wk =   0.0080000
        k(   46) = (  -0.1000000   0.1000000   0.2000000), wk =   0.0080000
        k(   47) = (   0.1000000   0.0000000   0.2000000), wk =   0.0080000
        k(   48) = (  -0.1000000   0.0000000   0.2000000), wk =   0.0080000
        k(   49) = (   0.1000000  -0.1000000   0.2000000), wk =   0.0080000
        k(   50) = (   0.0000000  -0.1000000   0.4000000), wk =   0.0080000
        k(   51) = (  -0.1000000   0.1000000   0.4000000), wk =   0.0080000
        k(   52) = (   0.1000000   0.0000000   0.4000000), wk =   0.0080000
        k(   53) = (  -0.1000000   0.0000000   0.4000000), wk =   0.0080000
        k(   54) = (   0.1000000  -0.1000000   0.4000000), wk =   0.0080000
        k(   55) = (  -0.2000000   0.2000000   0.0000000), wk =   0.0080000
        k(   56) = (   0.2000000   0.0000000   0.0000000), wk =   0.0080000
        k(   57) = (   0.0000000  -0.2000000   0.2000000), wk =   0.0080000
        k(   58) = (  -0.2000000   0.2000000   0.2000000), wk =   0.0080000
        k(   59) = (   0.2000000   0.0000000   0.2000000), wk =   0.0080000
        k(   60) = (  -0.2000000   0.0000000   0.2000000), wk =   0.0080000
        k(   61) = (   0.2000000  -0.2000000   0.2000000), wk =   0.0080000
        k(   62) = (   0.0000000  -0.2000000   0.4000000), wk =   0.0080000
        k(   63) = (  -0.2000000   0.2000000   0.4000000), wk =   0.0080000
        k(   64) = (   0.2000000   0.0000000   0.4000000), wk =   0.0080000
        k(   65) = (  -0.2000000   0.0000000   0.4000000), wk =   0.0080000
        k(   66) = (   0.2000000  -0.2000000   0.4000000), wk =   0.0080000
        k(   67) = (  -0.3000000   0.3000000   0.0000000), wk =   0.0080000
        k(   68) = (   0.3000000   0.0000000   0.0000000), wk =   0.0080000
        k(   69) = (   0.0000000  -0.3000000   0.2000000), wk =   0.0080000
        k(   70) = (  -0.3000000   0.3000000   0.2000000), wk =   0.0080000
        k(   71) = (   0.3000000   0.0000000   0.2000000), wk =   0.0080000
        k(   72) = (  -0.3000000   0.0000000   0.2000000), wk =   0.0080000
        k(   73) = (   0.3000000  -0.3000000   0.2000000), wk =   0.0080000
        k(   74) = (   0.0000000  -0.3000000   0.4000000), wk =   0.0080000
        k(   75) = (  -0.3000000   0.3000000   0.4000000), wk =   0.0080000
        k(   76) = (   0.3000000   0.0000000   0.4000000), wk =   0.0080000
        k(   77) = (  -0.3000000   0.0000000   0.4000000), wk =   0.0080000
        k(   78) = (   0.3000000  -0.3000000   0.4000000), wk =   0.0080000
        k(   79) = (  -0.4000000   0.4000000   0.0000000), wk =   0.0080000
        k(   80) = (   0.4000000   0.0000000   0.0000000), wk =   0.0080000
        k(   81) = (   0.0000000  -0.4000000   0.2000000), wk =   0.0080000
        k(   82) = (  -0.4000000   0.4000000   0.2000000), wk =   0.0080000
        k(   83) = (   0.4000000   0.0000000   0.2000000), wk =   0.0080000
        k(   84) = (  -0.4000000   0.0000000   0.2000000), wk =   0.0080000
        k(   85) = (   0.4000000  -0.4000000   0.2000000), wk =   0.0080000
        k(   86) = (   0.0000000  -0.4000000   0.4000000), wk =   0.0080000
        k(   87) = (  -0.4000000   0.4000000   0.4000000), wk =   0.0080000
        k(   88) = (   0.4000000   0.0000000   0.4000000), wk =   0.0080000
        k(   89) = (  -0.4000000   0.0000000   0.4000000), wk =   0.0080000
        k(   90) = (   0.4000000  -0.4000000   0.4000000), wk =   0.0080000
        k(   91) = (   0.5000000  -0.5000000   0.0000000), wk =   0.0040000
        k(   92) = (  -0.5000000   0.0000000   0.0000000), wk =   0.0040000
        k(   93) = (   0.5000000  -0.5000000   0.2000000), wk =   0.0080000
        k(   94) = (  -0.5000000   0.0000000   0.2000000), wk =   0.0080000
        k(   95) = (   0.5000000  -0.5000000   0.4000000), wk =   0.0080000
        k(   96) = (  -0.5000000   0.0000000   0.4000000), wk =   0.0080000
        k(   97) = (  -0.1000000   0.2000000   0.0000000), wk =   0.0080000
        k(   98) = (   0.2000000  -0.1000000   0.0000000), wk =   0.0080000
        k(   99) = (  -0.1000000  -0.1000000   0.2000000), wk =   0.0080000
        k(  100) = (  -0.1000000   0.2000000  -0.2000000), wk =   0.0080000
        k(  101) = (   0.1000000  -0.2000000  -0.2000000), wk =   0.0080000
        k(  102) = (   0.2000000  -0.1000000   0.2000000), wk =   0.0080000
        k(  103) = (  -0.2000000   0.1000000   0.2000000), wk =   0.0080000
        k(  104) = (  -0.1000000  -0.1000000   0.4000000), wk =   0.0080000
        k(  105) = (  -0.1000000   0.2000000  -0.4000000), wk =   0.0080000
        k(  106) = (   0.1000000  -0.2000000  -0.4000000), wk =   0.0080000
        k(  107) = (   0.2000000  -0.1000000   0.4000000), wk =   0.0080000
        k(  108) = (  -0.2000000   0.1000000   0.4000000), wk =   0.0080000
        k(  109) = (  -0.1000000   0.3000000   0.0000000), wk =   0.0080000
        k(  110) = (  -0.2000000   0.3000000   0.0000000), wk =   0.0080000
        k(  111) = (   0.3000000  -0.1000000   0.0000000), wk =   0.0080000
        k(  112) = (  -0.2000000  -0.1000000   0.0000000), wk =   0.0080000
        k(  113) = (   0.3000000  -0.2000000   0.0000000), wk =   0.0080000
        k(  114) = (  -0.1000000  -0.2000000   0.2000000), wk =   0.0080000
        k(  115) = (  -0.1000000   0.3000000  -0.2000000), wk =   0.0080000
        k(  116) = (   0.1000000  -0.3000000  -0.2000000), wk =   0.0080000
        k(  117) = (  -0.2000000   0.3000000   0.2000000), wk =   0.0080000
        k(  118) = (   0.3000000  -0.1000000   0.2000000), wk =   0.0080000
        k(  119) = (  -0.3000000   0.1000000   0.2000000), wk =   0.0080000
        k(  120) = (   0.2000000  -0.3000000   0.2000000), wk =   0.0080000
        k(  121) = (  -0.2000000  -0.1000000  -0.2000000), wk =   0.0080000
        k(  122) = (   0.3000000  -0.2000000  -0.2000000), wk =   0.0080000
        k(  123) = (  -0.3000000   0.2000000  -0.2000000), wk =   0.0080000
        k(  124) = (   0.2000000   0.1000000  -0.2000000), wk =   0.0080000
        k(  125) = (  -0.1000000  -0.2000000   0.4000000), wk =   0.0080000
        k(  126) = (  -0.1000000   0.3000000  -0.4000000), wk =   0.0080000
        k(  127) = (   0.1000000  -0.3000000  -0.4000000), wk =   0.0080000
        k(  128) = (  -0.2000000   0.3000000   0.4000000), wk =   0.0080000
        k(  129) = (   0.3000000  -0.1000000   0.4000000), wk =   0.0080000
        k(  130) = (  -0.3000000   0.1000000   0.4000000), wk =   0.0080000
        k(  131) = (   0.2000000  -0.3000000   0.4000000), wk =   0.0080000
        k(  132) = (  -0.2000000  -0.1000000  -0.4000000), wk =   0.0080000
        k(  133) = (   0.3000000  -0.2000000  -0.4000000), wk =   0.0080000
        k(  134) = (  -0.3000000   0.2000000  -0.4000000), wk =   0.0080000
        k(  135) = (   0.2000000   0.1000000  -0.4000000), wk =   0.0080000
        k(  136) = (  -0.1000000   0.4000000   0.0000000), wk =   0.0080000
        k(  137) = (  -0.3000000   0.4000000   0.0000000), wk =   0.0080000
        k(  138) = (   0.4000000  -0.1000000   0.0000000), wk =   0.0080000
        k(  139) = (  -0.3000000  -0.1000000   0.0000000), wk =   0.0080000
        k(  140) = (   0.4000000  -0.3000000   0.0000000), wk =   0.0080000
        k(  141) = (  -0.1000000  -0.3000000   0.2000000), wk =   0.0080000
        k(  142) = (  -0.1000000   0.4000000  -0.2000000), wk =   0.0080000
        k(  143) = (   0.1000000  -0.4000000  -0.2000000), wk =   0.0080000
        k(  144) = (  -0.3000000   0.4000000   0.2000000), wk =   0.0080000
        k(  145) = (   0.4000000  -0.1000000   0.2000000), wk =   0.0080000
        k(  146) = (  -0.4000000   0.1000000   0.2000000), wk =   0.0080000
        k(  147) = (   0.3000000  -0.4000000   0.2000000), wk =   0.0080000
        k(  148) = (  -0.3000000  -0.1000000  -0.2000000), wk =   0.0080000
        k(  149) = (   0.4000000  -0.3000000  -0.2000000), wk =   0.0080000
        k(  150) = (  -0.4000000   0.3000000  -0.2000000), wk =   0.0080000
        k(  151) = (   0.3000000   0.1000000  -0.2000000), wk =   0.0080000
        k(  152) = (  -0.1000000  -0.3000000   0.4000000), wk =   0.0080000
        k(  153) = (  -0.1000000   0.4000000  -0.4000000), wk =   0.0080000
        k(  154) = (   0.1000000  -0.4000000  -0.4000000), wk =   0.0080000
        k(  155) = (  -0.3000000   0.4000000   0.4000000), wk =   0.0080000
        k(  156) = (   0.4000000  -0.1000000   0.4000000), wk =   0.0080000
        k(  157) = (  -0.4000000   0.1000000   0.4000000), wk =   0.0080000
        k(  158) = (   0.3000000  -0.4000000   0.4000000), wk =   0.0080000
        k(  159) = (  -0.3000000  -0.1000000  -0.4000000), wk =   0.0080000
        k(  160) = (   0.4000000  -0.3000000  -0.4000000), wk =   0.0080000
        k(  161) = (  -0.4000000   0.3000000  -0.4000000), wk =   0.0080000
        k(  162) = (   0.3000000   0.1000000  -0.4000000), wk =   0.0080000
        k(  163) = (  -0.1000000   0.5000000   0.0000000), wk =   0.0080000
        k(  164) = (  -0.4000000   0.5000000   0.0000000), wk =   0.0080000
        k(  165) = (   0.5000000  -0.1000000   0.0000000), wk =   0.0080000
        k(  166) = (  -0.4000000  -0.1000000   0.0000000), wk =   0.0080000
        k(  167) = (   0.5000000  -0.4000000   0.0000000), wk =   0.0080000
        k(  168) = (  -0.1000000  -0.4000000   0.2000000), wk =   0.0080000
        k(  169) = (  -0.1000000   0.5000000  -0.2000000), wk =   0.0080000
        k(  170) = (   0.1000000  -0.5000000  -0.2000000), wk =   0.0080000
        k(  171) = (  -0.4000000   0.5000000   0.2000000), wk =   0.0080000
        k(  172) = (   0.5000000  -0.1000000   0.2000000), wk =   0.0080000
        k(  173) = (  -0.5000000   0.1000000   0.2000000), wk =   0.0080000
        k(  174) = (   0.4000000  -0.5000000   0.2000000), wk =   0.0080000
        k(  175) = (  -0.4000000  -0.1000000  -0.2000000), wk =   0.0080000
        k(  176) = (   0.5000000  -0.4000000  -0.2000000), wk =   0.0080000
        k(  177) = (  -0.5000000   0.4000000  -0.2000000), wk =   0.0080000
        k(  178) = (   0.4000000   0.1000000  -0.2000000), wk =   0.0080000
        k(  179) = (  -0.1000000  -0.4000000   0.4000000), wk =   0.0080000
        k(  180) = (  -0.1000000   0.5000000  -0.4000000), wk =   0.0080000
        k(  181) = (   0.1000000  -0.5000000  -0.4000000), wk =   0.0080000
        k(  182) = (  -0.4000000   0.5000000   0.4000000), wk =   0.0080000
        k(  183) = (   0.5000000  -0.1000000   0.4000000), wk =   0.0080000
        k(  184) = (  -0.5000000   0.1000000   0.4000000), wk =   0.0080000
        k(  185) = (   0.4000000  -0.5000000   0.4000000), wk =   0.0080000
        k(  186) = (  -0.4000000  -0.1000000  -0.4000000), wk =   0.0080000
        k(  187) = (   0.5000000  -0.4000000  -0.4000000), wk =   0.0080000
        k(  188) = (  -0.5000000   0.4000000  -0.4000000), wk =   0.0080000
        k(  189) = (   0.4000000   0.1000000  -0.4000000), wk =   0.0080000
        k(  190) = (  -0.2000000   0.4000000   0.0000000), wk =   0.0080000
        k(  191) = (   0.4000000  -0.2000000   0.0000000), wk =   0.0080000
        k(  192) = (  -0.2000000  -0.2000000   0.2000000), wk =   0.0080000
        k(  193) = (  -0.2000000   0.4000000  -0.2000000), wk =   0.0080000
        k(  194) = (   0.2000000  -0.4000000  -0.2000000), wk =   0.0080000
        k(  195) = (   0.4000000  -0.2000000   0.2000000), wk =   0.0080000
        k(  196) = (  -0.4000000   0.2000000   0.2000000), wk =   0.0080000
        k(  197) = (  -0.2000000  -0.2000000   0.4000000), wk =   0.0080000
        k(  198) = (  -0.2000000   0.4000000  -0.4000000), wk =   0.0080000
        k(  199) = (   0.2000000  -0.4000000  -0.4000000), wk =   0.0080000
        k(  200) = (   0.4000000  -0.2000000   0.4000000), wk =   0.0080000
        k(  201) = (  -0.4000000   0.2000000   0.4000000), wk =   0.0080000
        k(  202) = (  -0.2000000   0.5000000   0.0000000), wk =   0.0080000
        k(  203) = (  -0.3000000   0.5000000   0.0000000), wk =   0.0080000
        k(  204) = (   0.5000000  -0.2000000   0.0000000), wk =   0.0080000
        k(  205) = (  -0.3000000  -0.2000000   0.0000000), wk =   0.0080000
        k(  206) = (   0.5000000  -0.3000000   0.0000000), wk =   0.0080000
        k(  207) = (  -0.2000000  -0.3000000   0.2000000), wk =   0.0080000
        k(  208) = (  -0.2000000   0.5000000  -0.2000000), wk =   0.0080000
        k(  209) = (   0.2000000  -0.5000000  -0.2000000), wk =   0.0080000
        k(  210) = (  -0.3000000   0.5000000   0.2000000), wk =   0.0080000
        k(  211) = (   0.5000000  -0.2000000   0.2000000), wk =   0.0080000
        k(  212) = (  -0.5000000   0.2000000   0.2000000), wk =   0.0080000
        k(  213) = (   0.3000000  -0.5000000   0.2000000), wk =   0.0080000
        k(  214) = (  -0.3000000  -0.2000000  -0.2000000), wk =   0.0080000
        k(  215) = (   0.5000000  -0.3000000  -0.2000000), wk =   0.0080000
        k(  216) = (  -0.5000000   0.3000000  -0.2000000), wk =   0.0080000
        k(  217) = (   0.3000000   0.2000000  -0.2000000), wk =   0.0080000
        k(  218) = (  -0.2000000  -0.3000000   0.4000000), wk =   0.0080000
        k(  219) = (  -0.2000000   0.5000000  -0.4000000), wk =   0.0080000
        k(  220) = (   0.2000000  -0.5000000  -0.4000000), wk =   0.0080000
        k(  221) = (  -0.3000000   0.5000000   0.4000000), wk =   0.0080000
        k(  222) = (   0.5000000  -0.2000000   0.4000000), wk =   0.0080000
        k(  223) = (  -0.5000000   0.2000000   0.4000000), wk =   0.0080000
        k(  224) = (   0.3000000  -0.5000000   0.4000000), wk =   0.0080000
        k(  225) = (  -0.3000000  -0.2000000  -0.4000000), wk =   0.0080000
        k(  226) = (   0.5000000  -0.3000000  -0.4000000), wk =   0.0080000
        k(  227) = (  -0.5000000   0.3000000  -0.4000000), wk =   0.0080000
        k(  228) = (   0.3000000   0.2000000  -0.4000000), wk =   0.0080000
        k(  229) = (  -0.4000000   0.6000000   0.0000000), wk =   0.0080000
        k(  230) = (   0.6000000  -0.2000000   0.0000000), wk =   0.0080000
        k(  231) = (  -0.2000000  -0.4000000   0.2000000), wk =   0.0080000
        k(  232) = (  -0.4000000   0.6000000   0.2000000), wk =   0.0080000
        k(  233) = (   0.6000000  -0.2000000   0.2000000), wk =   0.0080000
        k(  234) = (  -0.6000000   0.2000000   0.2000000), wk =   0.0080000
        k(  235) = (   0.4000000  -0.6000000   0.2000000), wk =   0.0080000
        k(  236) = (  -0.2000000  -0.4000000   0.4000000), wk =   0.0080000
        k(  237) = (  -0.4000000   0.6000000   0.4000000), wk =   0.0080000
        k(  238) = (   0.6000000  -0.2000000   0.4000000), wk =   0.0080000
        k(  239) = (  -0.6000000   0.2000000   0.4000000), wk =   0.0080000
        k(  240) = (   0.4000000  -0.6000000   0.4000000), wk =   0.0080000
        k(  241) = (  -0.3000000   0.6000000   0.0000000), wk =   0.0080000
        k(  242) = (   0.6000000  -0.3000000   0.0000000), wk =   0.0080000
        k(  243) = (  -0.3000000  -0.3000000   0.2000000), wk =   0.0080000
        k(  244) = (  -0.3000000   0.6000000  -0.2000000), wk =   0.0080000
        k(  245) = (   0.3000000  -0.6000000  -0.2000000), wk =   0.0080000
        k(  246) = (   0.6000000  -0.3000000   0.2000000), wk =   0.0080000
        k(  247) = (  -0.6000000   0.3000000   0.2000000), wk =   0.0080000
        k(  248) = (  -0.3000000  -0.3000000   0.4000000), wk =   0.0080000
        k(  249) = (  -0.3000000   0.6000000  -0.4000000), wk =   0.0080000
        k(  250) = (   0.3000000  -0.6000000  -0.4000000), wk =   0.0080000
        k(  251) = (   0.6000000  -0.3000000   0.4000000), wk =   0.0080000
        k(  252) = (  -0.6000000   0.3000000   0.4000000), wk =   0.0080000

     Dense  grid:    22769 G-vectors     FFT dimensions: (  32,  32,  54)

     Smooth grid:    13995 G-vectors     FFT dimensions: (  27,  27,  45)

     Dynamical RAM for                 wfc:       0.02 MB

     Dynamical RAM for     wfc (w. buffer):       5.05 MB

     Dynamical RAM for           str. fact:       0.04 MB

     Dynamical RAM for           local pot:       0.00 MB

     Dynamical RAM for          nlocal pot:       0.05 MB

     Dynamical RAM for                qrad:       0.96 MB

     Dynamical RAM for          rho,v,vnew:       0.16 MB

     Dynamical RAM for               rhoin:       0.05 MB

     Dynamical RAM for            rho*nmix:       0.35 MB

     Dynamical RAM for           G-vectors:       0.09 MB

     Dynamical RAM for          h,s,v(r/c):       0.03 MB

     Dynamical RAM for          <psi|beta>:       0.01 MB

     Dynamical RAM for                 psi:       0.04 MB

     Dynamical RAM for                hpsi:       0.04 MB

     Dynamical RAM for                spsi:       0.04 MB

     Dynamical RAM for      wfcinit/wfcrot:       0.06 MB

     Dynamical RAM for           addusdens:       0.98 MB

     Dynamical RAM for          addusforce:       1.03 MB

     Dynamical RAM for         addusstress:       1.09 MB

     Estimated static dynamical RAM per process >       6.98 MB

     Estimated max dynamical RAM per process >       8.06 MB

     Estimated total dynamical RAM >     129.00 MB

     Check: negative core charge=   -0.000011

     Initial potential from superposition of free atoms

     starting charge   15.99942, renormalised to   16.00000
     Starting wfcs are   16 randomized atomic wfcs

     total cpu time spent up to now is        2.1 secs

     Self-consistent Calculation

     iteration #  1     ecut=    80.00 Ry     beta= 0.40
     Davidson diagonalization with overlap
     ethr =  1.00E-02,  avg # of iterations =  2.9

     total cpu time spent up to now is        3.5 secs

     total energy              =     -54.77520404 Ry
     estimated scf accuracy    <       0.46785884 Ry

     iteration #  2     ecut=    80.00 Ry     beta= 0.40
     Davidson diagonalization with overlap
     ethr =  2.92E-03,  avg # of iterations =  1.3

     total cpu time spent up to now is        4.7 secs

     total energy              =     -54.81288981 Ry
     estimated scf accuracy    <       0.05045621 Ry

     iteration #  3     ecut=    80.00 Ry     beta= 0.40
     Davidson diagonalization with overlap
     ethr =  3.15E-04,  avg # of iterations =  3.5

     total cpu time spent up to now is        5.7 secs

     total energy              =     -54.81607923 Ry
     estimated scf accuracy    <       0.01054903 Ry

     iteration #  4     ecut=    80.00 Ry     beta= 0.40
     Davidson diagonalization with overlap
     ethr =  6.59E-05,  avg # of iterations =  4.9

     total cpu time spent up to now is        6.9 secs

     total energy              =     -54.81748693 Ry
     estimated scf accuracy    <       0.00021104 Ry

     iteration #  5     ecut=    80.00 Ry     beta= 0.40
     Davidson diagonalization with overlap
     c_bands:  1 eigenvalues not converged
     c_bands:  1 eigenvalues not converged
     c_bands:  1 eigenvalues not converged
     c_bands:  1 eigenvalues not converged
     c_bands:  1 eigenvalues not converged
     c_bands:  1 eigenvalues not converged
     c_bands:  1 eigenvalues not converged
     ethr =  1.32E-06,  avg # of iterations =  8.4

     total cpu time spent up to now is        8.8 secs

     total energy              =     -54.81764683 Ry
     estimated scf accuracy    <       0.00010020 Ry

     iteration #  6     ecut=    80.00 Ry     beta= 0.40
     Davidson diagonalization with overlap
     c_bands:  1 eigenvalues not converged
     ethr =  6.26E-07,  avg # of iterations =  2.1

     total cpu time spent up to now is        9.8 secs

     total energy              =     -54.81765924 Ry
     estimated scf accuracy    <       0.00002451 Ry

     iteration #  7     ecut=    80.00 Ry     beta= 0.40
     Davidson diagonalization with overlap
     ethr =  1.53E-07,  avg # of iterations =  2.0

     total cpu time spent up to now is       10.8 secs

     total energy              =     -54.81766645 Ry
     estimated scf accuracy    <       0.00000673 Ry

     iteration #  8     ecut=    80.00 Ry     beta= 0.40
     Davidson diagonalization with overlap
     ethr =  4.21E-08,  avg # of iterations =  1.8

     total cpu time spent up to now is       11.6 secs

     total energy              =     -54.81766729 Ry
     estimated scf accuracy    <       0.00000024 Ry

     iteration #  9     ecut=    80.00 Ry     beta= 0.40
     Davidson diagonalization with overlap
     ethr =  1.53E-09,  avg # of iterations =  4.8

     total cpu time spent up to now is       13.1 secs

     total energy              =     -54.81766754 Ry
     estimated scf accuracy    <          9.7E-09 Ry

     iteration # 10     ecut=    80.00 Ry     beta= 0.40
     Davidson diagonalization with overlap
     ethr =  6.06E-11,  avg # of iterations =  3.6

     total cpu time spent up to now is       14.2 secs

     total energy              =     -54.81766754 Ry
     estimated scf accuracy    <          2.7E-09 Ry

     iteration # 11     ecut=    80.00 Ry     beta= 0.40
     Davidson diagonalization with overlap
     ethr =  1.71E-11,  avg # of iterations =  1.7

     total cpu time spent up to now is       15.1 secs

     total energy              =     -54.81766754 Ry
     estimated scf accuracy    <          1.5E-09 Ry

     iteration # 12     ecut=    80.00 Ry     beta= 0.40
     Davidson diagonalization with overlap
     ethr =  9.44E-12,  avg # of iterations =  2.0

     total cpu time spent up to now is       16.0 secs

     End of self-consistent calculation

          k = 0.0000 0.0000 0.0000 (  1763 PWs)   bands (ev):

    -8.6277  -4.5189   0.9240  10.9987  10.9988  12.3128  12.9270  12.9271
    20.3552  22.2873  22.2874  24.8093

     occupation numbers 
     1.0000   1.0000   1.0000   1.0000   1.0000   1.0247   0.5199   0.5198
     0.0000   0.0000   0.0000   0.0000

          k = 0.0000 0.0000 0.1148 (  1775 PWs)   bands (ev):

    -8.3907  -5.2771   2.1243  10.8074  11.1543  11.1544  12.7056  12.7057
    21.4838  22.5629  22.5629  24.6909

     occupation numbers 
     1.0000   1.0000   1.0000   1.0000   1.0000   1.0000   0.9935   0.9935
     0.0000   0.0000   0.0000   0.0000

          k = 0.0000 0.0000 0.2296 (  1792 PWs)   bands (ev):

    -7.6927  -6.5891   4.7255   7.8234  11.5848  11.5848  12.1721  12.1722
    23.2483  23.3067  23.3068  24.3149

     occupation numbers 
     1.0000   1.0000   1.0000   1.0000   1.0000   1.0000   1.0055   1.0055
     0.0000   0.0000   0.0000   0.0000

          k = 0.0000 0.1155 0.0000 (  1765 PWs)   bands (ev):

    -8.3850  -4.3206   1.1669   9.9419  10.5449  12.0059  12.1811  12.6420
    20.5435  22.1459  22.7736  25.3280

     occupation numbers 
     1.0000   1.0000   1.0000   1.0000   1.0000   1.0005   1.0061   1.0560
     0.0000   0.0000   0.0000   0.0000

          k = 0.0000 0.1155 0.1148 (  1774 PWs)   bands (ev):

    -8.1494  -5.0647   2.3428  10.1049  10.7109  10.7265  11.8530  12.3955
    21.3233  22.5700  23.0896  25.0307

     occupation numbers 
     1.0000   1.0000   1.0000   1.0000   1.0000   1.0000   1.0000   1.0468
     0.0000   0.0000   0.0000   0.0000

          k = 0.0000 0.1155 0.2296 (  1774 PWs)   bands (ev):

    -7.4559  -6.3612   4.8930   7.9014  10.5833  11.1723  11.2371  11.8088
    22.6072  23.4319  23.9157  24.2352

     occupation numbers 
     1.0000   1.0000   1.0000   1.0000   1.0000   1.0000   1.0000   1.0000
     0.0000   0.0000   0.0000   0.0000

          k = 0.0000 0.2309 0.0000 (  1761 PWs)   bands (ev):

    -7.6666  -3.7560   1.8820   7.5358   9.5732   9.9673  11.5891  11.9317
    20.8780  21.8715  23.7477  25.0019

     occupation numbers 
     1.0000   1.0000   1.0000   1.0000   1.0000   1.0000   1.0000   1.0001
     0.0000   0.0000   0.0000   0.0000

          k = 0.0000 0.2309 0.1148 (  1764 PWs)   bands (ev):

    -7.4357  -4.4517   2.9660   7.7365   9.4584   9.7550  10.8329  11.6456
    20.8289  22.4016  24.1803  24.6828

     occupation numbers 
     1.0000   1.0000   1.0000   1.0000   1.0000   1.0000   1.0000   1.0000
     0.0000   0.0000   0.0000   0.0000

          k = 0.0000 0.2309 0.2296 (  1777 PWs)   bands (ev):

    -6.7578  -5.6940   5.2952   7.7636   8.4095   9.3772  10.2639  10.9760
    21.5287  22.4916  24.5499  25.2593

     occupation numbers 
     1.0000   1.0000   1.0000   1.0000   1.0000   1.0000   1.0000   1.0000
     0.0000   0.0000   0.0000   0.0000

          k = 0.0000 0.3464 0.0000 (  1757 PWs)   bands (ev):

    -6.5095  -2.9617   3.0051   4.9136   7.5437   8.6221  10.5513  11.1540
    20.7958  21.7853  24.3222  24.3620

     occupation numbers 
     1.0000   1.0000   1.0000   1.0000   1.0000   1.0000   1.0000   1.0000
     0.0000   0.0000   0.0000   0.0000

          k = 0.0000 0.3464 0.1148 (  1767 PWs)   bands (ev):

    -6.2898  -3.5467   3.6886   5.3633   7.0231   8.8143  10.3139  10.8413
    20.3057  21.7634  24.2770  24.9495

     occupation numbers 
     1.0000   1.0000   1.0000   1.0000   1.0000   1.0000   1.0000   1.0000
     0.0000   0.0000   0.0000   0.0000

          k = 0.0000 0.3464 0.2296 (  1755 PWs)   bands (ev):

    -5.6485  -4.6589   4.8024   5.8463   7.0438   9.0312   9.3545  10.1165
    20.4595  21.3838  24.1952  25.3431

     occupation numbers 
     1.0000   1.0000   1.0000   1.0000   1.0000   1.0000   1.0000   1.0000
     0.0000   0.0000   0.0000   0.0000

          k = 0.0000 0.4619 0.0000 (  1760 PWs)   bands (ev):

    -5.0308  -2.4240   2.9279   4.4265   5.3988   7.9743   9.1143  10.5956
    20.5766  21.1956  24.4836  24.7735

     occupation numbers 
     1.0000   1.0000   1.0000   1.0000   1.0000   1.0000   1.0000   1.0000
     0.0000   0.0000   0.0000   0.0000

          k = 0.0000 0.4619 0.1148 (  1759 PWs)   bands (ev):

    -4.8391  -2.7474   2.6371   4.5825   5.7572   8.1718   9.4153  10.2691
    19.9997  20.9469  24.3096  25.1775

     occupation numbers 
     1.0000   1.0000   1.0000   1.0000   1.0000   1.0000   1.0000   1.0000
     0.0000   0.0000   0.0000   0.0000

          k = 0.0000 0.4619 0.2296 (  1739 PWs)   bands (ev):

    -4.2935  -3.5067   2.8106   3.5884   7.6205   8.7281   9.1478   9.5157
    19.6478  20.4802  23.6699  24.3908

     occupation numbers 
     1.0000   1.0000   1.0000   1.0000   1.0000   1.0000   1.0000   1.0000
     0.0000   0.0000   0.0000   0.0000

          k = 0.0000-0.5774 0.0000 (  1758 PWs)   bands (ev):

    -3.9002  -2.7315   2.5447   4.0681   5.5445   7.7476   8.1146  10.3963
    20.5734  20.7724  24.4694  25.4148

     occupation numbers 
     1.0000   1.0000   1.0000   1.0000   1.0000   1.0000   1.0000   1.0000
     0.0000   0.0000   0.0000   0.0000

          k = 0.0000-0.5774 0.1148 (  1752 PWs)   bands (ev):

    -3.7623  -2.7785   2.1254   3.4233   6.4723   7.9469   8.6961  10.0655
    19.9447  20.5683  24.7351  25.1972

     occupation numbers 
     1.0000   1.0000   1.0000   1.0000   1.0000   1.0000   1.0000   1.0000
     0.0000   0.0000   0.0000   0.0000

          k = 0.0000-0.5774 0.2296 (  1732 PWs)   bands (ev):

    -3.4034  -3.0022   1.8880   2.4120   8.0997   8.5080   9.0806   9.3035
    19.3489  20.1029  23.6061  23.7876

     occupation numbers 
     1.0000   1.0000   1.0000   1.0000   1.0000   1.0000   1.0000   1.0000
     0.0000   0.0000   0.0000   0.0000

          k = 0.1000 0.1732 0.0000 (  1769 PWs)   bands (ev):

    -7.9043  -3.9381   1.6465   8.4886   9.3992  10.8931  11.8137  11.9244
    20.9160  22.4126  22.8826  25.6687

     occupation numbers 
     1.0000   1.0000   1.0000   1.0000   1.0000   1.0000   1.0000   1.0001
     0.0000   0.0000   0.0000   0.0000

          k = 0.1000 0.1732 0.1148 (  1770 PWs)   bands (ev):

    -7.6717  -4.6512   2.7661   8.6712   9.5063  10.2919  11.1094  11.6411
    21.1947  22.9745  23.1880  25.1255

     occupation numbers 
     1.0000   1.0000   1.0000   1.0000   1.0000   1.0000   1.0000   1.0000
     0.0000   0.0000   0.0000   0.0000

          k = 0.1000 0.1732 0.2296 (  1771 PWs)   bands (ev):

    -6.9882  -5.9131   5.1893   7.9417   9.1814   9.7849  10.4901  10.9951
    22.1989  23.3673  23.9013  24.3372

     occupation numbers 
     1.0000   1.0000   1.0000   1.0000   1.0000   1.0000   1.0000   1.0000
     0.0000   0.0000   0.0000   0.0000

          k = 0.1000 0.2887 0.0000 (  1758 PWs)   bands (ev):

    -6.9645  -3.2453   2.5753   6.2078   7.8395   9.1752  10.9289  11.0491
    21.4765  22.0554  23.3522  25.4371

     occupation numbers 
     1.0000   1.0000   1.0000   1.0000   1.0000   1.0000   1.0000   1.0000
     0.0000   0.0000   0.0000   0.0000

          k = 0.1000 0.2887 0.1148 (  1761 PWs)   bands (ev):

    -6.7396  -3.8823   3.5169   6.4627   7.7716   8.8923  10.5161  10.7226
    21.0255  22.5015  23.7565  25.3016

     occupation numbers 
     1.0000   1.0000   1.0000   1.0000   1.0000   1.0000   1.0000   1.0000
     0.0000   0.0000   0.0000   0.0000

          k = 0.1000 0.2887 0.2296 (  1764 PWs)   bands (ev):

    -6.0812  -5.0565   5.3984   6.9011   7.4004   8.7237   9.4616   9.9261
    21.4306  22.4156  24.4343  25.1526

     occupation numbers 
     1.0000   1.0000   1.0000   1.0000   1.0000   1.0000   1.0000   1.0000
     0.0000   0.0000   0.0000   0.0000

          k = 0.1000 0.4041 0.0000 (  1767 PWs)   bands (ev):

    -5.6320  -2.5035   3.6809   4.1006   6.1904   7.7032   9.8106  10.1617
    20.8905  21.9380  23.7830  25.3442

     occupation numbers 
     1.0000   1.0000   1.0000   1.0000   1.0000   1.0000   1.0000   1.0000
     0.0000   0.0000   0.0000   0.0000

          k = 0.1000 0.4041 0.1148 (  1758 PWs)   bands (ev):

    -5.4251  -2.9681   3.4867   5.1673   5.8576   7.7559   9.6888  10.0304
    20.5365  21.9286  23.7463  25.5428

     occupation numbers 
     1.0000   1.0000   1.0000   1.0000   1.0000   1.0000   1.0000   1.0000
     0.0000   0.0000   0.0000   0.0000

          k = 0.1000 0.4041 0.2296 (  1750 PWs)   bands (ev):

    -4.8269  -3.9260   3.8903   4.7276   7.2287   8.2056   8.8934   9.4342
    20.5131  21.4687  24.2475  25.1800

     occupation numbers 
     1.0000   1.0000   1.0000   1.0000   1.0000   1.0000   1.0000   1.0000
     0.0000   0.0000   0.0000   0.0000

          k = 0.1000 0.5196 0.0000 (  1750 PWs)   bands (ev):

    -4.1514  -2.4442   2.7168   4.4899   5.4066   7.0633   8.4060   9.7490
    20.2135  21.7664  24.2490  25.8173

     occupation numbers 
     1.0000   1.0000   1.0000   1.0000   1.0000   1.0000   1.0000   1.0000
     0.0000   0.0000   0.0000   0.0000

          k = 0.1000 0.5196 0.1148 (  1750 PWs)   bands (ev):

    -3.9918  -2.5805   2.3677   3.9034   6.2400   7.3218   8.8356   9.4658
    20.0301  21.6835  23.9190  25.5434

     occupation numbers 
     1.0000   1.0000   1.0000   1.0000   1.0000   1.0000   1.0000   1.0000
     0.0000   0.0000   0.0000   0.0000

          k = 0.1000 0.5196 0.2296 (  1746 PWs)   bands (ev):

    -3.5570  -3.0009   2.2865   2.9020   7.4223   8.2238   8.5086   9.3408
    19.8907  20.8965  24.0129  24.3814

     occupation numbers 
     1.0000   1.0000   1.0000   1.0000   1.0000   1.0000   1.0000   1.0000
     0.0000   0.0000   0.0000   0.0000

          k = 0.2000 0.3464 0.0000 (  1761 PWs)   bands (ev):

    -5.8414  -2.5560   3.6727   5.0304   5.6692   7.9992   9.3872  10.1249
    20.7419  22.7785  23.9978  26.7543

     occupation numbers 
     1.0000   1.0000   1.0000   1.0000   1.0000   1.0000   1.0000   1.0000
     0.0000   0.0000   0.0000   0.0000

          k = 0.2000 0.3464 0.1148 (  1767 PWs)   bands (ev):

    -5.6301  -3.0670   4.0332   5.6719   5.7178   7.5489   9.0159  10.1678
    21.3440  21.7739  24.4533  26.5559

     occupation numbers 
     1.0000   1.0000   1.0000   1.0000   1.0000   1.0000   1.0000   1.0000
     0.0000   0.0000   0.0000   0.0000

          k = 0.2000 0.3464 0.2296 (  1752 PWs)   bands (ev):

    -5.0168  -4.0836   4.7124   5.4460   7.1652   7.2956   8.4026   9.4045
    21.4813  22.0429  24.9197  25.3201

     occupation numbers 
     1.0000   1.0000   1.0000   1.0000   1.0000   1.0000   1.0000   1.0000
     0.0000   0.0000   0.0000   0.0000

          k = 0.2000 0.4619 0.0000 (  1760 PWs)   bands (ev):

    -4.4267  -2.1324   3.4977   4.7267   5.0744   6.4918   8.3764   8.9032
    19.2826  23.9332  24.8650  26.9012

     occupation numbers 
     1.0000   1.0000   1.0000   1.0000   1.0000   1.0000   1.0000   1.0000
     0.0000   0.0000   0.0000   0.0000

          k = 0.2000 0.4619 0.1148 (  1752 PWs)   bands (ev):

    -4.2483  -2.3961   3.2498   4.4295   5.8513   6.4889   7.9672   9.3666
    19.9846  22.6922  24.6952  26.1104

     occupation numbers 
     1.0000   1.0000   1.0000   1.0000   1.0000   1.0000   1.0000   1.0000
     0.0000   0.0000   0.0000   0.0000

          k = 0.2000 0.4619 0.2296 (  1750 PWs)   bands (ev):

    -3.7464  -3.0430   3.3159   3.8844   6.0842   6.8203   8.3159   9.4318
    20.9971  21.7870  24.1865  25.1245

     occupation numbers 
     1.0000   1.0000   1.0000   1.0000   1.0000   1.0000   1.0000   1.0000
     0.0000   0.0000   0.0000   0.0000

          k = 0.2000 0.5774 0.0000 (  1752 PWs)   bands (ev):

    -3.3598  -2.4170   2.8704   4.6529   5.5237   6.1534   7.7779   8.2441
    18.7314  24.4082  25.1326  27.1069

     occupation numbers 
     1.0000   1.0000   1.0000   1.0000   1.0000   1.0000   1.0000   1.0000
     0.0000   0.0000   0.0000   0.0000

          k = 0.2000 0.5774 0.1148 (  1749 PWs)   bands (ev):

    -3.2413  -2.4523   2.6733   4.0103   5.2856   7.2419   7.4747   8.7387
    19.4518  23.7268  23.8798  25.8391

     occupation numbers 
     1.0000   1.0000   1.0000   1.0000   1.0000   1.0000   1.0000   1.0000
     0.0000   0.0000   0.0000   0.0000

          k = 0.2000 0.5774 0.2296 (  1752 PWs)   bands (ev):

    -2.9407  -2.6219   2.5622   3.0518   5.6873   6.5528   8.6936   9.3206
    20.6326  21.9701  23.5145  24.9704

     occupation numbers 
     1.0000   1.0000   1.0000   1.0000   1.0000   1.0000   1.0000   1.0000
     0.0000   0.0000   0.0000   0.0000

          k = 0.3000 0.5196 0.0000 (  1738 PWs)   bands (ev):

    -3.1569  -2.2256   2.9854   4.5439   5.5673   6.3287   6.8963   7.8347
    18.0453  25.5348  26.8506  26.9583

     occupation numbers 
     1.0000   1.0000   1.0000   1.0000   1.0000   1.0000   1.0000   1.0000
     0.0000   0.0000   0.0000   0.0000

          k = 0.3000 0.5196 0.1148 (  1754 PWs)   bands (ev):

    -3.0438  -2.2720   3.1729   3.9288   4.9369   6.2233   7.5033   8.5739
    19.0277  23.7747  24.9575  26.6067

     occupation numbers 
     1.0000   1.0000   1.0000   1.0000   1.0000   1.0000   1.0000   1.0000
     0.0000   0.0000   0.0000   0.0000

          k = 0.3000 0.5196 0.2296 (  1753 PWs)   bands (ev):

    -2.7582  -2.4513   3.4366   3.4436   4.4963   5.2364   8.8508   9.3083
    21.2997  22.1700  23.0509  24.6950

     occupation numbers 
     1.0000   1.0000   1.0000   1.0000   1.0000   1.0000   1.0000   1.0000
     0.0000   0.0000   0.0000   0.0000

          k =-0.1000 0.0577 0.0000 (  1765 PWs)   bands (ev):

    -8.3850  -4.3206   1.1669   9.9420  10.5449  12.0060  12.1811  12.6420
    20.5435  22.1458  22.7736  25.3280

     occupation numbers 
     1.0000   1.0000   1.0000   1.0000   1.0000   1.0005   1.0061   1.0560
     0.0000   0.0000   0.0000   0.0000

          k = 0.1000 0.0577 0.0000 (  1765 PWs)   bands (ev):

    -8.3850  -4.3206   1.1669   9.9419  10.5449  12.0059  12.1811  12.6420
    20.5435  22.1459  22.7736  25.3280

     occupation numbers 
     1.0000   1.0000   1.0000   1.0000   1.0000   1.0005   1.0061   1.0560
     0.0000   0.0000   0.0000   0.0000

          k = 0.0000-0.1155 0.1148 (  1774 PWs)   bands (ev):

    -8.1494  -5.0647   2.3428  10.1049  10.7109  10.7265  11.8530  12.3955
    21.3233  22.5700  23.0896  25.0308

     occupation numbers 
     1.0000   1.0000   1.0000   1.0000   1.0000   1.0000   1.0000   1.0468
     0.0000   0.0000   0.0000   0.0000

          k =-0.1000 0.0577 0.1148 (  1774 PWs)   bands (ev):

    -8.1494  -5.0647   2.3428  10.1049  10.7109  10.7265  11.8531  12.3955
    21.3233  22.5700  23.0896  25.0308

     occupation numbers 
     1.0000   1.0000   1.0000   1.0000   1.0000   1.0000   1.0000   1.0468
     0.0000   0.0000   0.0000   0.0000

          k = 0.1000 0.0577 0.1148 (  1774 PWs)   bands (ev):

    -8.1494  -5.0647   2.3428  10.1049  10.7109  10.7265  11.8530  12.3955
    21.3233  22.5700  23.0896  25.0308

     occupation numbers 
     1.0000   1.0000   1.0000   1.0000   1.0000   1.0000   1.0000   1.0468
     0.0000   0.0000   0.0000   0.0000

          k =-0.1000-0.0577 0.1148 (  1774 PWs)   bands (ev):

    -8.1494  -5.0647   2.3428  10.1049  10.7109  10.7265  11.8530  12.3955
    21.3233  22.5700  23.0896  25.0308

     occupation numbers 
     1.0000   1.0000   1.0000   1.0000   1.0000   1.0000   1.0000   1.0468
     0.0000   0.0000   0.0000   0.0000

          k = 0.1000-0.0577 0.1148 (  1774 PWs)   bands (ev):

    -8.1494  -5.0647   2.3428  10.1049  10.7109  10.7265  11.8531  12.3955
    21.3233  22.5700  23.0896  25.0307

     occupation numbers 
     1.0000   1.0000   1.0000   1.0000   1.0000   1.0000   1.0000   1.0468
     0.0000   0.0000   0.0000   0.0000

          k = 0.0000-0.1155 0.2296 (  1774 PWs)   bands (ev):

    -7.4559  -6.3612   4.8930   7.9014  10.5833  11.1723  11.2371  11.8088
    22.6072  23.4319  23.9157  24.2352

     occupation numbers 
     1.0000   1.0000   1.0000   1.0000   1.0000   1.0000   1.0000   1.0000
     0.0000   0.0000   0.0000   0.0000

          k =-0.1000 0.0577 0.2296 (  1774 PWs)   bands (ev):

    -7.4559  -6.3612   4.8930   7.9014  10.5834  11.1723  11.2371  11.8087
    22.6071  23.4319  23.9158  24.2352

     occupation numbers 
     1.0000   1.0000   1.0000   1.0000   1.0000   1.0000   1.0000   1.0000
     0.0000   0.0000   0.0000   0.0000

          k = 0.1000 0.0577 0.2296 (  1774 PWs)   bands (ev):

    -7.4559  -6.3612   4.8930   7.9014  10.5833  11.1723  11.2371  11.8088
    22.6072  23.4319  23.9157  24.2352

     occupation numbers 
     1.0000   1.0000   1.0000   1.0000   1.0000   1.0000   1.0000   1.0000
     0.0000   0.0000   0.0000   0.0000

          k =-0.1000-0.0577 0.2296 (  1774 PWs)   bands (ev):

    -7.4559  -6.3612   4.8930   7.9014  10.5833  11.1723  11.2371  11.8088
    22.6072  23.4319  23.9157  24.2353

     occupation numbers 
     1.0000   1.0000   1.0000   1.0000   1.0000   1.0000   1.0000   1.0000
     0.0000   0.0000   0.0000   0.0000

          k = 0.1000-0.0577 0.2296 (  1774 PWs)   bands (ev):

    -7.4559  -6.3612   4.8930   7.9014  10.5834  11.1723  11.2371  11.8087
    22.6071  23.4319  23.9157  24.2351

     occupation numbers 
     1.0000   1.0000   1.0000   1.0000   1.0000   1.0000   1.0000   1.0000
     0.0000   0.0000   0.0000   0.0000

          k =-0.2000 0.1155 0.0000 (  1761 PWs)   bands (ev):

    -7.6666  -3.7560   1.8820   7.5358   9.5732   9.9673  11.5891  11.9317
    20.8780  21.8715  23.7477  25.0019

     occupation numbers 
     1.0000   1.0000   1.0000   1.0000   1.0000   1.0000   1.0000   1.0001
     0.0000   0.0000   0.0000   0.0000

          k = 0.2000 0.1155 0.0000 (  1761 PWs)   bands (ev):

    -7.6666  -3.7560   1.8820   7.5358   9.5732   9.9673  11.5891  11.9317
    20.8780  21.8715  23.7477  25.0019

     occupation numbers 
     1.0000   1.0000   1.0000   1.0000   1.0000   1.0000   1.0000   1.0001
     0.0000   0.0000   0.0000   0.0000

          k = 0.0000-0.2309 0.1148 (  1764 PWs)   bands (ev):

    -7.4357  -4.4517   2.9660   7.7365   9.4584   9.7550  10.8329  11.6456
    20.8289  22.4016  24.1803  24.6828

     occupation numbers 
     1.0000   1.0000   1.0000   1.0000   1.0000   1.0000   1.0000   1.0000
     0.0000   0.0000   0.0000   0.0000

          k =-0.2000 0.1155 0.1148 (  1764 PWs)   bands (ev):

    -7.4357  -4.4517   2.9660   7.7365   9.4584   9.7550  10.8329  11.6456
    20.8289  22.4016  24.1803  24.6828

     occupation numbers 
     1.0000   1.0000   1.0000   1.0000   1.0000   1.0000   1.0000   1.0000
     0.0000   0.0000   0.0000   0.0000

          k = 0.2000 0.1155 0.1148 (  1764 PWs)   bands (ev):

    -7.4357  -4.4517   2.9660   7.7365   9.4584   9.7550  10.8329  11.6456
    20.8289  22.4016  24.1803  24.6828

     occupation numbers 
     1.0000   1.0000   1.0000   1.0000   1.0000   1.0000   1.0000   1.0000
     0.0000   0.0000   0.0000   0.0000

          k =-0.2000-0.1155 0.1148 (  1764 PWs)   bands (ev):

    -7.4357  -4.4517   2.9660   7.7365   9.4584   9.7550  10.8329  11.6456
    20.8289  22.4016  24.1803  24.6828

     occupation numbers 
     1.0000   1.0000   1.0000   1.0000   1.0000   1.0000   1.0000   1.0000
     0.0000   0.0000   0.0000   0.0000

          k = 0.2000-0.1155 0.1148 (  1764 PWs)   bands (ev):

    -7.4357  -4.4517   2.9660   7.7365   9.4584   9.7550  10.8329  11.6456
    20.8289  22.4015  24.1803  24.6828

     occupation numbers 
     1.0000   1.0000   1.0000   1.0000   1.0000   1.0000   1.0000   1.0000
     0.0000   0.0000   0.0000   0.0000

          k = 0.0000-0.2309 0.2296 (  1777 PWs)   bands (ev):

    -6.7578  -5.6940   5.2952   7.7636   8.4095   9.3772  10.2639  10.9760
    21.5287  22.4916  24.5499  25.2594

     occupation numbers 
     1.0000   1.0000   1.0000   1.0000   1.0000   1.0000   1.0000   1.0000
     0.0000   0.0000   0.0000   0.0000

          k =-0.2000 0.1155 0.2296 (  1777 PWs)   bands (ev):

    -6.7578  -5.6940   5.2952   7.7636   8.4095   9.3772  10.2639  10.9760
    21.5287  22.4916  24.5499  25.2593

     occupation numbers 
     1.0000   1.0000   1.0000   1.0000   1.0000   1.0000   1.0000   1.0000
     0.0000   0.0000   0.0000   0.0000

          k = 0.2000 0.1155 0.2296 (  1777 PWs)   bands (ev):

    -6.7578  -5.6940   5.2952   7.7636   8.4095   9.3772  10.2639  10.9760
    21.5287  22.4916  24.5499  25.2594

     occupation numbers 
     1.0000   1.0000   1.0000   1.0000   1.0000   1.0000   1.0000   1.0000
     0.0000   0.0000   0.0000   0.0000

          k =-0.2000-0.1155 0.2296 (  1777 PWs)   bands (ev):

    -6.7578  -5.6940   5.2952   7.7636   8.4095   9.3772  10.2639  10.9760
    21.5287  22.4916  24.5499  25.2593

     occupation numbers 
     1.0000   1.0000   1.0000   1.0000   1.0000   1.0000   1.0000   1.0000
     0.0000   0.0000   0.0000   0.0000

          k = 0.2000-0.1155 0.2296 (  1777 PWs)   bands (ev):

    -6.7578  -5.6940   5.2952   7.7636   8.4095   9.3772  10.2639  10.9760
    21.5287  22.4916  24.5499  25.2594

     occupation numbers 
     1.0000   1.0000   1.0000   1.0000   1.0000   1.0000   1.0000   1.0000
     0.0000   0.0000   0.0000   0.0000

          k =-0.3000 0.1732 0.0000 (  1757 PWs)   bands (ev):

    -6.5095  -2.9617   3.0051   4.9137   7.5438   8.6220  10.5513  11.1540
    20.7958  21.7853  24.3222  24.3620

     occupation numbers 
     1.0000   1.0000   1.0000   1.0000   1.0000   1.0000   1.0000   1.0000
     0.0000   0.0000   0.0000   0.0000

          k = 0.3000 0.1732 0.0000 (  1757 PWs)   bands (ev):

    -6.5095  -2.9617   3.0051   4.9136   7.5437   8.6221  10.5513  11.1540
    20.7958  21.7853  24.3222  24.3620

     occupation numbers 
     1.0000   1.0000   1.0000   1.0000   1.0000   1.0000   1.0000   1.0000
     0.0000   0.0000   0.0000   0.0000

          k = 0.0000-0.3464 0.1148 (  1767 PWs)   bands (ev):

    -6.2898  -3.5467   3.6886   5.3633   7.0231   8.8143  10.3139  10.8413
    20.3057  21.7634  24.2770  24.9495

     occupation numbers 
     1.0000   1.0000   1.0000   1.0000   1.0000   1.0000   1.0000   1.0000
     0.0000   0.0000   0.0000   0.0000

          k =-0.3000 0.1732 0.1148 (  1767 PWs)   bands (ev):

    -6.2898  -3.5467   3.6886   5.3633   7.0231   8.8143  10.3139  10.8413
    20.3057  21.7634  24.2769  24.9495

     occupation numbers 
     1.0000   1.0000   1.0000   1.0000   1.0000   1.0000   1.0000   1.0000
     0.0000   0.0000   0.0000   0.0000

          k = 0.3000 0.1732 0.1148 (  1767 PWs)   bands (ev):

    -6.2898  -3.5467   3.6886   5.3633   7.0231   8.8143  10.3139  10.8413
    20.3057  21.7634  24.2770  24.9495

     occupation numbers 
     1.0000   1.0000   1.0000   1.0000   1.0000   1.0000   1.0000   1.0000
     0.0000   0.0000   0.0000   0.0000

          k =-0.3000-0.1732 0.1148 (  1767 PWs)   bands (ev):

    -6.2898  -3.5467   3.6886   5.3633   7.0231   8.8143  10.3139  10.8413
    20.3057  21.7634  24.2770  24.9495

     occupation numbers 
     1.0000   1.0000   1.0000   1.0000   1.0000   1.0000   1.0000   1.0000
     0.0000   0.0000   0.0000   0.0000

          k = 0.3000-0.1732 0.1148 (  1767 PWs)   bands (ev):

    -6.2898  -3.5467   3.6886   5.3633   7.0231   8.8143  10.3139  10.8413
    20.3057  21.7633  24.2769  24.9495

     occupation numbers 
     1.0000   1.0000   1.0000   1.0000   1.0000   1.0000   1.0000   1.0000
     0.0000   0.0000   0.0000   0.0000

          k = 0.0000-0.3464 0.2296 (  1755 PWs)   bands (ev):

    -5.6485  -4.6589   4.8024   5.8463   7.0438   9.0312   9.3545  10.1165
    20.4595  21.3838  24.1952  25.3432

     occupation numbers 
     1.0000   1.0000   1.0000   1.0000   1.0000   1.0000   1.0000   1.0000
     0.0000   0.0000   0.0000   0.0000

          k =-0.3000 0.1732 0.2296 (  1755 PWs)   bands (ev):

    -5.6485  -4.6589   4.8024   5.8464   7.0438   9.0312   9.3545  10.1164
    20.4595  21.3838  24.1952  25.3431

     occupation numbers 
     1.0000   1.0000   1.0000   1.0000   1.0000   1.0000   1.0000   1.0000
     0.0000   0.0000   0.0000   0.0000

          k = 0.3000 0.1732 0.2296 (  1755 PWs)   bands (ev):

    -5.6485  -4.6589   4.8024   5.8463   7.0438   9.0312   9.3545  10.1165
    20.4595  21.3838  24.1952  25.3431

     occupation numbers 
     1.0000   1.0000   1.0000   1.0000   1.0000   1.0000   1.0000   1.0000
     0.0000   0.0000   0.0000   0.0000

          k =-0.3000-0.1732 0.2296 (  1755 PWs)   bands (ev):

    -5.6485  -4.6589   4.8024   5.8463   7.0438   9.0312   9.3545  10.1165
    20.4595  21.3838  24.1952  25.3431

     occupation numbers 
     1.0000   1.0000   1.0000   1.0000   1.0000   1.0000   1.0000   1.0000
     0.0000   0.0000   0.0000   0.0000

          k = 0.3000-0.1732 0.2296 (  1755 PWs)   bands (ev):

    -5.6485  -4.6589   4.8024   5.8463   7.0438   9.0312   9.3545  10.1164
    20.4595  21.3838  24.1952  25.3431

     occupation numbers 
     1.0000   1.0000   1.0000   1.0000   1.0000   1.0000   1.0000   1.0000
     0.0000   0.0000   0.0000   0.0000

          k =-0.4000 0.2309 0.0000 (  1760 PWs)   bands (ev):

    -5.0308  -2.4240   2.9279   4.4265   5.3989   7.9742   9.1143  10.5956
    20.5766  21.1956  24.4836  24.7735

     occupation numbers 
     1.0000   1.0000   1.0000   1.0000   1.0000   1.0000   1.0000   1.0000
     0.0000   0.0000   0.0000   0.0000

          k = 0.4000 0.2309 0.0000 (  1760 PWs)   bands (ev):

    -5.0308  -2.4240   2.9279   4.4265   5.3988   7.9743   9.1143  10.5956
    20.5766  21.1956  24.4836  24.7736

     occupation numbers 
     1.0000   1.0000   1.0000   1.0000   1.0000   1.0000   1.0000   1.0000
     0.0000   0.0000   0.0000   0.0000

          k = 0.0000-0.4619 0.1148 (  1759 PWs)   bands (ev):

    -4.8391  -2.7474   2.6371   4.5825   5.7572   8.1718   9.4153  10.2691
    19.9997  20.9469  24.3096  25.1775

     occupation numbers 
     1.0000   1.0000   1.0000   1.0000   1.0000   1.0000   1.0000   1.0000
     0.0000   0.0000   0.0000   0.0000

          k =-0.4000 0.2309 0.1148 (  1759 PWs)   bands (ev):

    -4.8391  -2.7474   2.6371   4.5825   5.7572   8.1718   9.4153  10.2690
    19.9997  20.9469  24.3096  25.1776

     occupation numbers 
     1.0000   1.0000   1.0000   1.0000   1.0000   1.0000   1.0000   1.0000
     0.0000   0.0000   0.0000   0.0000

          k = 0.4000 0.2309 0.1148 (  1759 PWs)   bands (ev):

    -4.8391  -2.7474   2.6371   4.5825   5.7572   8.1718   9.4153  10.2691
    19.9997  20.9469  24.3096  25.1775

     occupation numbers 
     1.0000   1.0000   1.0000   1.0000   1.0000   1.0000   1.0000   1.0000
     0.0000   0.0000   0.0000   0.0000

          k =-0.4000-0.2309 0.1148 (  1759 PWs)   bands (ev):

    -4.8391  -2.7474   2.6371   4.5825   5.7572   8.1718   9.4153  10.2691
    19.9997  20.9469  24.3096  25.1775

     occupation numbers 
     1.0000   1.0000   1.0000   1.0000   1.0000   1.0000   1.0000   1.0000
     0.0000   0.0000   0.0000   0.0000

          k = 0.4000-0.2309 0.1148 (  1759 PWs)   bands (ev):

    -4.8391  -2.7474   2.6371   4.5825   5.7572   8.1718   9.4153  10.2690
    19.9997  20.9469  24.3096  25.1775

     occupation numbers 
     1.0000   1.0000   1.0000   1.0000   1.0000   1.0000   1.0000   1.0000
     0.0000   0.0000   0.0000   0.0000

          k = 0.0000-0.4619 0.2296 (  1739 PWs)   bands (ev):

    -4.2935  -3.5067   2.8106   3.5884   7.6205   8.7281   9.1478   9.5157
    19.6478  20.4802  23.6699  24.3908

     occupation numbers 
     1.0000   1.0000   1.0000   1.0000   1.0000   1.0000   1.0000   1.0000
     0.0000   0.0000   0.0000   0.0000

          k =-0.4000 0.2309 0.2296 (  1739 PWs)   bands (ev):

    -4.2935  -3.5067   2.8106   3.5884   7.6205   8.7281   9.1478   9.5157
    19.6478  20.4802  23.6699  24.3908

     occupation numbers 
     1.0000   1.0000   1.0000   1.0000   1.0000   1.0000   1.0000   1.0000
     0.0000   0.0000   0.0000   0.0000

          k = 0.4000 0.2309 0.2296 (  1739 PWs)   bands (ev):

    -4.2935  -3.5067   2.8106   3.5884   7.6205   8.7281   9.1478   9.5157
    19.6478  20.4802  23.6699  24.3908

     occupation numbers 
     1.0000   1.0000   1.0000   1.0000   1.0000   1.0000   1.0000   1.0000
     0.0000   0.0000   0.0000   0.0000

          k =-0.4000-0.2309 0.2296 (  1739 PWs)   bands (ev):

    -4.2935  -3.5067   2.8106   3.5884   7.6205   8.7281   9.1478   9.5157
    19.6478  20.4802  23.6699  24.3908

     occupation numbers 
     1.0000   1.0000   1.0000   1.0000   1.0000   1.0000   1.0000   1.0000
     0.0000   0.0000   0.0000   0.0000

          k = 0.4000-0.2309 0.2296 (  1739 PWs)   bands (ev):

    -4.2935  -3.5067   2.8106   3.5884   7.6205   8.7281   9.1478   9.5157
    19.6478  20.4802  23.6699  24.3908

     occupation numbers 
     1.0000   1.0000   1.0000   1.0000   1.0000   1.0000   1.0000   1.0000
     0.0000   0.0000   0.0000   0.0000

          k = 0.5000-0.2887 0.0000 (  1758 PWs)   bands (ev):

    -3.9002  -2.7315   2.5447   4.0681   5.5445   7.7476   8.1146  10.3963
    20.5734  20.7724  24.4694  25.4148

     occupation numbers 
     1.0000   1.0000   1.0000   1.0000   1.0000   1.0000   1.0000   1.0000
     0.0000   0.0000   0.0000   0.0000

          k =-0.5000-0.2887 0.0000 (  1758 PWs)   bands (ev):

    -3.9002  -2.7315   2.5447   4.0681   5.5445   7.7476   8.1146  10.3963
    20.5734  20.7724  24.4694  25.4148

     occupation numbers 
     1.0000   1.0000   1.0000   1.0000   1.0000   1.0000   1.0000   1.0000
     0.0000   0.0000   0.0000   0.0000

          k = 0.5000-0.2887 0.1148 (  1752 PWs)   bands (ev):

    -3.7624  -2.7785   2.1254   3.4233   6.4723   7.9468   8.6962  10.0655
    19.9447  20.5683  24.7351  25.1967

     occupation numbers 
     1.0000   1.0000   1.0000   1.0000   1.0000   1.0000   1.0000   1.0000
     0.0000   0.0000   0.0000   0.0000

          k =-0.5000-0.2887 0.1148 (  1752 PWs)   bands (ev):

    -3.7623  -2.7785   2.1254   3.4233   6.4723   7.9469   8.6961  10.0655
    19.9447  20.5683  24.7351  25.1969

     occupation numbers 
     1.0000   1.0000   1.0000   1.0000   1.0000   1.0000   1.0000   1.0000
     0.0000   0.0000   0.0000   0.0000

          k = 0.5000-0.2887 0.2296 (  1732 PWs)   bands (ev):

    -3.4034  -3.0022   1.8880   2.4120   8.0997   8.5080   9.0806   9.3035
    19.3489  20.1029  23.6061  23.7876

     occupation numbers 
     1.0000   1.0000   1.0000   1.0000   1.0000   1.0000   1.0000   1.0000
     0.0000   0.0000   0.0000   0.0000

          k =-0.5000-0.2887 0.2296 (  1732 PWs)   bands (ev):

    -3.4034  -3.0022   1.8880   2.4120   8.0997   8.5080   9.0806   9.3035
    19.3489  20.1029  23.6061  23.7876

     occupation numbers 
     1.0000   1.0000   1.0000   1.0000   1.0000   1.0000   1.0000   1.0000
[...]

          k =-0.2000 0.4619-0.2296 (  1750 PWs)   bands (ev):

    -3.7464  -3.0430   3.3159   3.8844   6.0841   6.8203   8.3159   9.4318
    20.9971  21.7870  24.1865  25.1245

     occupation numbers 
     1.0000   1.0000   1.0000   1.0000   1.0000   1.0000   1.0000   1.0000
     0.0000   0.0000   0.0000   0.0000

          k = 0.2000-0.4619-0.2296 (  1750 PWs)   bands (ev):

    -3.7464  -3.0430   3.3159   3.8844   6.0841   6.8203   8.3159   9.4318
    20.9971  21.7870  24.1865  25.1245

     occupation numbers 
     1.0000   1.0000   1.0000   1.0000   1.0000   1.0000   1.0000   1.0000
     0.0000   0.0000   0.0000   0.0000

          k =-0.3000 0.4041 0.2296 (  1750 PWs)   bands (ev):

    -3.7464  -3.0430   3.3159   3.8845   6.0841   6.8203   8.3159   9.4318
    20.9971  21.7870  24.1865  25.1245

     occupation numbers 
     1.0000   1.0000   1.0000   1.0000   1.0000   1.0000   1.0000   1.0000
     0.0000   0.0000   0.0000   0.0000

          k = 0.5000 0.0577 0.2296 (  1750 PWs)   bands (ev):

    -3.7464  -3.0430   3.3159   3.8844   6.0841   6.8203   8.3159   9.4318
    20.9971  21.7870  24.1865  25.1245

     occupation numbers 
     1.0000   1.0000   1.0000   1.0000   1.0000   1.0000   1.0000   1.0000
     0.0000   0.0000   0.0000   0.0000

          k =-0.5000-0.0577 0.2296 (  1750 PWs)   bands (ev):

    -3.7464  -3.0430   3.3159   3.8844   6.0841   6.8203   8.3159   9.4318
    20.9971  21.7870  24.1865  25.1245

     occupation numbers 
     1.0000   1.0000   1.0000   1.0000   1.0000   1.0000   1.0000   1.0000
     0.0000   0.0000   0.0000   0.0000

          k = 0.3000-0.4041 0.2296 (  1750 PWs)   bands (ev):

    -3.7464  -3.0430   3.3159   3.8845   6.0841   6.8203   8.3159   9.4318
    20.9971  21.7870  24.1865  25.1245

     occupation numbers 
     1.0000   1.0000   1.0000   1.0000   1.0000   1.0000   1.0000   1.0000
     0.0000   0.0000   0.0000   0.0000

          k =-0.3000-0.4041-0.2296 (  1750 PWs)   bands (ev):

    -3.7464  -3.0430   3.3159   3.8844   6.0841   6.8203   8.3159   9.4318
    20.9971  21.7870  24.1865  25.1245

     occupation numbers 
     1.0000   1.0000   1.0000   1.0000   1.0000   1.0000   1.0000   1.0000
     0.0000   0.0000   0.0000   0.0000

          k = 0.5000-0.0577-0.2296 (  1750 PWs)   bands (ev):

    -3.7464  -3.0430   3.3159   3.8845   6.0841   6.8203   8.3159   9.4318
    20.9971  21.7870  24.1865  25.1245

     occupation numbers 
     1.0000   1.0000   1.0000   1.0000   1.0000   1.0000   1.0000   1.0000
     0.0000   0.0000   0.0000   0.0000

          k =-0.5000 0.0577-0.2296 (  1750 PWs)   bands (ev):

    -3.7464  -3.0430   3.3159   3.8845   6.0841   6.8203   8.3159   9.4318
    20.9971  21.7870  24.1865  25.1245

     occupation numbers 
     1.0000   1.0000   1.0000   1.0000   1.0000   1.0000   1.0000   1.0000
     0.0000   0.0000   0.0000   0.0000

          k = 0.3000 0.4041-0.2296 (  1750 PWs)   bands (ev):

    -3.7464  -3.0430   3.3159   3.8844   6.0842   6.8203   8.3159   9.4318
    20.9971  21.7870  24.1865  25.1245

     occupation numbers 
     1.0000   1.0000   1.0000   1.0000   1.0000   1.0000   1.0000   1.0000
     0.0000   0.0000   0.0000   0.0000

          k =-0.4000 0.4619 0.0000 (  1752 PWs)   bands (ev):

    -3.3598  -2.4170   2.8704   4.6529   5.5237   6.1533   7.7779   8.2441
    18.7313  24.4082  25.1326  27.1069

     occupation numbers 
     1.0000   1.0000   1.0000   1.0000   1.0000   1.0000   1.0000   1.0000
     0.0000   0.0000   0.0000   0.0000

          k = 0.6000 0.1155 0.0000 (  1752 PWs)   bands (ev):

    -3.3598  -2.4170   2.8704   4.6529   5.5237   6.1534   7.7779   8.2441
    18.7314  24.4082  25.1326  27.3427

     occupation numbers 
     1.0000   1.0000   1.0000   1.0000   1.0000   1.0000   1.0000   1.0000
     0.0000   0.0000   0.0000   0.0000

          k =-0.2000-0.5774 0.1148 (  1749 PWs)   bands (ev):

    -3.2413  -2.4523   2.6733   4.0103   5.2856   7.2419   7.4747   8.7387
    19.4518  23.7268  23.8798  25.8391

     occupation numbers 
     1.0000   1.0000   1.0000   1.0000   1.0000   1.0000   1.0000   1.0000
     0.0000   0.0000   0.0000   0.0000

          k =-0.4000 0.4619 0.1148 (  1749 PWs)   bands (ev):

    -3.2413  -2.4523   2.6733   4.0104   5.2856   7.2419   7.4747   8.7387
    19.4518  23.7268  23.8798  25.8391

     occupation numbers 
     1.0000   1.0000   1.0000   1.0000   1.0000   1.0000   1.0000   1.0000
     0.0000   0.0000   0.0000   0.0000

          k = 0.6000 0.1155 0.1148 (  1749 PWs)   bands (ev):

    -3.2413  -2.4523   2.6733   4.0103   5.2856   7.2419   7.4747   8.7387
    19.4518  23.7268  23.8798  25.8391

     occupation numbers 
     1.0000   1.0000   1.0000   1.0000   1.0000   1.0000   1.0000   1.0000
     0.0000   0.0000   0.0000   0.0000

          k =-0.6000-0.1155 0.1148 (  1749 PWs)   bands (ev):

    -3.2413  -2.4523   2.6733   4.0103   5.2856   7.2419   7.4747   8.7387
    19.4518  23.7268  23.8798  25.8391

     occupation numbers 
     1.0000   1.0000   1.0000   1.0000   1.0000   1.0000   1.0000   1.0000
     0.0000   0.0000   0.0000   0.0000

          k = 0.4000-0.4619 0.1148 (  1749 PWs)   bands (ev):

    -3.2413  -2.4523   2.6733   4.0104   5.2856   7.2419   7.4747   8.7387
    19.4518  23.7268  23.8798  25.8391

     occupation numbers 
     1.0000   1.0000   1.0000   1.0000   1.0000   1.0000   1.0000   1.0000
     0.0000   0.0000   0.0000   0.0000

          k =-0.2000-0.5774 0.2296 (  1752 PWs)   bands (ev):

    -2.9407  -2.6219   2.5622   3.0518   5.6873   6.5528   8.6936   9.3206
    20.6326  21.9701  23.5145  24.9704

     occupation numbers 
     1.0000   1.0000   1.0000   1.0000   1.0000   1.0000   1.0000   1.0000
     0.0000   0.0000   0.0000   0.0000

          k =-0.4000 0.4619 0.2296 (  1752 PWs)   bands (ev):

    -2.9407  -2.6219   2.5622   3.0518   5.6872   6.5527   8.6935   9.3206
    20.6326  21.9701  23.5145  24.9704

     occupation numbers 
     1.0000   1.0000   1.0000   1.0000   1.0000   1.0000   1.0000   1.0000
     0.0000   0.0000   0.0000   0.0000

          k = 0.6000 0.1155 0.2296 (  1752 PWs)   bands (ev):

    -2.9407  -2.6219   2.5622   3.0518   5.6873   6.5528   8.6936   9.3206
    20.6326  21.9701  23.5145  24.9704

     occupation numbers 
     1.0000   1.0000   1.0000   1.0000   1.0000   1.0000   1.0000   1.0000
     0.0000   0.0000   0.0000   0.0000

          k =-0.6000-0.1155 0.2296 (  1752 PWs)   bands (ev):

    -2.9407  -2.6219   2.5622   3.0518   5.6873   6.5528   8.6936   9.3206
    20.6326  21.9701  23.5145  24.9704

     occupation numbers 
     1.0000   1.0000   1.0000   1.0000   1.0000   1.0000   1.0000   1.0000
     0.0000   0.0000   0.0000   0.0000

          k = 0.4000-0.4619 0.2296 (  1752 PWs)   bands (ev):

    -2.9407  -2.6219   2.5622   3.0518   5.6872   6.5527   8.6935   9.3206
    20.6326  21.9701  23.5145  24.9704

     occupation numbers 
     1.0000   1.0000   1.0000   1.0000   1.0000   1.0000   1.0000   1.0000
     0.0000   0.0000   0.0000   0.0000

          k =-0.3000 0.5196 0.0000 (  1738 PWs)   bands (ev):

    -3.1569  -2.2256   2.9854   4.5439   5.5673   6.3287   6.8963   7.8347
    18.0453  25.5348  26.8506  26.9583

     occupation numbers 
     1.0000   1.0000   1.0000   1.0000   1.0000   1.0000   1.0000   1.0000
     0.0000   0.0000   0.0000   0.0000

          k = 0.6000-0.0000 0.0000 (  1738 PWs)   bands (ev):

    -3.1569  -2.2256   2.9854   4.5439   5.5673   6.3287   6.8963   7.8347
    18.0453  25.5348  26.8506  26.9583

     occupation numbers 
     1.0000   1.0000   1.0000   1.0000   1.0000   1.0000   1.0000   1.0000
     0.0000   0.0000   0.0000   0.0000

          k =-0.3000-0.5196 0.1148 (  1754 PWs)   bands (ev):

    -3.0438  -2.2720   3.1729   3.9288   4.9369   6.2233   7.5033   8.5739
    19.0277  23.7747  24.9575  26.6067

     occupation numbers 
     1.0000   1.0000   1.0000   1.0000   1.0000   1.0000   1.0000   1.0000
     0.0000   0.0000   0.0000   0.0000

          k =-0.3000 0.5196-0.1148 (  1754 PWs)   bands (ev):

    -3.0438  -2.2720   3.1729   3.9288   4.9369   6.2233   7.5033   8.5739
    19.0277  23.7747  24.9576  26.6067

     occupation numbers 
     1.0000   1.0000   1.0000   1.0000   1.0000   1.0000   1.0000   1.0000
     0.0000   0.0000   0.0000   0.0000

          k = 0.3000-0.5196-0.1148 (  1754 PWs)   bands (ev):

    -3.0438  -2.2720   3.1729   3.9288   4.9369   6.2233   7.5033   8.5739
    19.0277  23.7746  24.9576  26.6067

     occupation numbers 
     1.0000   1.0000   1.0000   1.0000   1.0000   1.0000   1.0000   1.0000
     0.0000   0.0000   0.0000   0.0000

          k = 0.6000-0.0000 0.1148 (  1754 PWs)   bands (ev):

    -3.0438  -2.2720   3.1729   3.9288   4.9369   6.2233   7.5033   8.5739
    19.0277  23.7747  24.9576  26.6067

     occupation numbers 
     1.0000   1.0000   1.0000   1.0000   1.0000   1.0000   1.0000   1.0000
     0.0000   0.0000   0.0000   0.0000

          k =-0.6000 0.0000 0.1148 (  1754 PWs)   bands (ev):

    -3.0438  -2.2720   3.1729   3.9288   4.9369   6.2233   7.5033   8.5739
    19.0277  23.7746  24.9576  26.6067

     occupation numbers 
     1.0000   1.0000   1.0000   1.0000   1.0000   1.0000   1.0000   1.0000
     0.0000   0.0000   0.0000   0.0000

          k =-0.3000-0.5196 0.2296 (  1753 PWs)   bands (ev):

    -2.7582  -2.4513   3.4366   3.4436   4.4963   5.2364   8.8508   9.3083
    21.2997  22.1700  23.0509  24.6950

     occupation numbers 
     1.0000   1.0000   1.0000   1.0000   1.0000   1.0000   1.0000   1.0000
     0.0000   0.0000   0.0000   0.0000

          k =-0.3000 0.5196-0.2296 (  1753 PWs)   bands (ev):

    -2.7582  -2.4513   3.4366   3.4436   4.4963   5.2364   8.8508   9.3083
    21.2997  22.1700  23.0509  24.6950

     occupation numbers 
     1.0000   1.0000   1.0000   1.0000   1.0000   1.0000   1.0000   1.0000
     0.0000   0.0000   0.0000   0.0000

          k = 0.3000-0.5196-0.2296 (  1753 PWs)   bands (ev):

    -2.7582  -2.4513   3.4366   3.4436   4.4963   5.2364   8.8508   9.3083
    21.2997  22.1700  23.0509  24.6950

     occupation numbers 
     1.0000   1.0000   1.0000   1.0000   1.0000   1.0000   1.0000   1.0000
     0.0000   0.0000   0.0000   0.0000

          k = 0.6000-0.0000 0.2296 (  1753 PWs)   bands (ev):

    -2.7582  -2.4513   3.4366   3.4436   4.4963   5.2364   8.8508   9.3083
    21.2997  22.1700  23.0509  24.6950

     occupation numbers 
     1.0000   1.0000   1.0000   1.0000   1.0000   1.0000   1.0000   1.0000
     0.0000   0.0000   0.0000   0.0000

          k =-0.6000 0.0000 0.2296 (  1753 PWs)   bands (ev):

    -2.7582  -2.4513   3.4366   3.4436   4.4963   5.2364   8.8508   9.3083
    21.2997  22.1700  23.0509  24.6950

     occupation numbers 
     1.0000   1.0000   1.0000   1.0000   1.0000   1.0000   1.0000   1.0000
     0.0000   0.0000   0.0000   0.0000

     the Fermi energy is    12.9769 ev

!    total energy              =     -54.81766754 Ry
     estimated scf accuracy    <          6.3E-11 Ry
     smearing contrib. (-TS)   =       0.00020759 Ry
     internal energy E=F+TS    =     -54.81787513 Ry

     The total energy is F=E-TS. E is the sum of the following terms:
     one-electron contribution =      11.56074048 Ry
     hartree contribution      =       6.91475764 Ry
     xc contribution           =     -19.06876662 Ry
     ewald contribution        =     -54.22460664 Ry

     convergence has been achieved in  12 iterations

     Forces acting on atoms (cartesian axes, Ry/au):

     atom    1 type  1   force =    -0.00000166   -0.00000040   -0.00956497
     atom    2 type  1   force =    -0.00000813    0.00000404   -0.00956505
     atom    3 type  2   force =     0.00000757   -0.00000334    0.00956493
     atom    4 type  2   force =     0.00000223   -0.00000030    0.00956509
     The non-local contrib.  to forces
     atom    1 type  1   force =     0.00000242   -0.00000149   -0.08345379
     atom    2 type  1   force =    -0.00000397    0.00000205   -0.08345374
     atom    3 type  2   force =    -0.00000151    0.00000042   -0.08387363
     atom    4 type  2   force =    -0.00000253    0.00000110   -0.08387367
     The ionic contribution  to forces
     atom    1 type  1   force =     0.00001093   -0.00000631   -0.53892945
     atom    2 type  1   force =    -0.00001093    0.00000631   -0.53892945
     atom    3 type  2   force =     0.00001135   -0.00000655    0.53892945
     atom    4 type  2   force =    -0.00001135    0.00000655    0.53892945
     The local contribution  to forces
     atom    1 type  1   force =    -0.00000915    0.00000579    0.60758271
     atom    2 type  1   force =     0.00001384   -0.00000756    0.60758282
     atom    3 type  2   force =    -0.00000857    0.00000515   -0.44464142
     atom    4 type  2   force =     0.00000955   -0.00000549   -0.44464137
     The core correction contribution to forces
     atom    1 type  1   force =    -0.00001222    0.00000398    0.00519369
     atom    2 type  1   force =    -0.00001343    0.00000559    0.00519363
     atom    3 type  2   force =    -0.00000003    0.00000003   -0.00089283
     atom    4 type  2   force =     0.00000019   -0.00000009   -0.00089282
     The Hubbard contrib.    to forces
     atom    1 type  1   force =     0.00000000    0.00000000    0.00000000
     atom    2 type  1   force =     0.00000000    0.00000000    0.00000000
     atom    3 type  2   force =     0.00000000    0.00000000    0.00000000
     atom    4 type  2   force =     0.00000000    0.00000000    0.00000000
     The SCF correction term to forces
     atom    1 type  1   force =    -0.00000000    0.00000000   -0.00000036
     atom    2 type  1   force =     0.00000000    0.00000000   -0.00000055
     atom    3 type  2   force =    -0.00000003   -0.00000002    0.00000111
     atom    4 type  2   force =     0.00000002   -0.00000001    0.00000126

     Total force =     0.019130     Total SCF correction =     0.000002


     Computing stress (Cartesian axis) and pressure

          total   stress  (Ry/bohr**3)                   (kbar)     P=      458.11
   0.00450178   0.00000002  -0.00000003          662.23        0.00       -0.00
   0.00000002   0.00450180   0.00000001            0.00      662.24        0.00
  -0.00000003   0.00000001   0.00033900           -0.00        0.00       49.87

     kinetic stress (kbar)  25848.20     -0.00     -0.00
                               -0.00  25848.19      0.00
                               -0.00      0.00  25154.28

     local   stress (kbar)  -1323.07     -0.06     -0.00
                               -0.06  -1323.14      0.00
                               -0.00      0.00   1207.08

     nonloc. stress (kbar)  -3389.19      0.00      0.00
                                0.00  -3389.19     -0.00
                                0.00     -0.00  -3240.85

     hartree stress (kbar)   2543.02      0.01      0.00
                                0.01   2543.03     -0.00
                                0.00     -0.00   1909.15

     exc-cor stress (kbar)  -1432.14      0.00     -0.00
                                0.00  -1432.14      0.00
                               -0.00      0.00  -1440.56

     corecor stress (kbar)  -3957.90     -0.00     -0.00
                               -0.00  -3957.90      0.00
                               -0.00      0.00  -3937.06

     ewald   stress (kbar) -17626.68      0.06      0.00
                                0.06 -17626.62      0.00
                                0.00      0.00 -19602.16

     hubbard stress (kbar)      0.00      0.00      0.00
                                0.00      0.00      0.00
                                0.00      0.00      0.00

     DFT-D   stress (kbar)      0.00      0.00      0.00
                                0.00      0.00      0.00
                                0.00      0.00      0.00

     XDM     stress (kbar)      0.00      0.00      0.00
                                0.00      0.00      0.00
                                0.00      0.00      0.00

     dft-nl  stress (kbar)      0.00      0.00      0.00
                                0.00      0.00      0.00
                                0.00      0.00      0.00

     TS-vdW  stress (kbar)      0.00      0.00      0.00
                                0.00      0.00      0.00
                                0.00      0.00      0.00



     init_run     :      0.45s CPU      1.38s WALL (       1 calls)
     electrons    :     12.56s CPU     13.84s WALL (       1 calls)
     forces       :      0.09s CPU      0.09s WALL (       1 calls)
     stress       :      0.26s CPU      0.26s WALL (       1 calls)

     Called by init_run:
     wfcinit      :      0.38s CPU      0.86s WALL (       1 calls)
     wfcinit:atom :      0.01s CPU      0.01s WALL (     252 calls)
     wfcinit:wfcr :      0.35s CPU      0.82s WALL (     252 calls)
     potinit      :      0.02s CPU      0.06s WALL (       1 calls)
     hinit0       :      0.04s CPU      0.33s WALL (       1 calls)

     Called by electrons:
     c_bands      :     10.94s CPU     11.86s WALL (      12 calls)
     sum_band     :      1.55s CPU      1.70s WALL (      12 calls)
     v_of_rho     :      0.03s CPU      0.06s WALL (      13 calls)
     v_h          :      0.00s CPU      0.00s WALL (      13 calls)
     v_xc         :      0.03s CPU      0.05s WALL (      15 calls)
     newd         :      0.02s CPU      0.10s WALL (      13 calls)
     mix_rho      :      0.01s CPU      0.15s WALL (      12 calls)

     Called by c_bands:
     init_us_2    :      0.25s CPU      0.26s WALL (    6804 calls)
     cegterg      :     10.51s CPU     11.41s WALL (    3024 calls)

     Called by sum_band:
     sum_band:wei :      0.01s CPU      0.01s WALL (      12 calls)
     sum_band:loo :      1.51s CPU      1.60s WALL (      12 calls)
     sum_band:buf :      0.03s CPU      0.03s WALL (    3024 calls)
     sum_band:ini :      0.09s CPU      0.10s WALL (    3024 calls)
     sum_band:cal :      0.09s CPU      0.09s WALL (    3024 calls)
     sum_band:bec :      0.01s CPU      0.01s WALL (    3024 calls)
     addusdens    :      0.02s CPU      0.08s WALL (      12 calls)
     addusd:skk   :      0.00s CPU      0.00s WALL (      12 calls)
     addusd:dgemm :      0.01s CPU      0.07s WALL (      12 calls)
     addusd:qvan2 :      0.01s CPU      0.01s WALL (      12 calls)

     Called by *egterg:
     cdiaghg      :      1.60s CPU      2.31s WALL (   12873 calls)
     cegterg:over :      0.40s CPU      0.46s WALL (    9849 calls)
     cegterg:upda :      0.10s CPU      0.10s WALL (    9849 calls)
     cegterg:last :      0.16s CPU      0.17s WALL (    7037 calls)
     h_psi        :      8.08s CPU      8.63s WALL (   13125 calls)
     s_psi        :      0.15s CPU      0.16s WALL (   13125 calls)
     g_psi        :      0.03s CPU      0.04s WALL (    9849 calls)

     Called by h_psi:
     h_psi:calbec :      0.34s CPU      0.42s WALL (   13125 calls)
     vloc_psi     :      7.51s CPU      7.97s WALL (   13125 calls)
     add_vuspsi   :      0.18s CPU      0.19s WALL (   13125 calls)

     General routines
     calbec       :      0.45s CPU      0.53s WALL (   17409 calls)
     fft          :      0.02s CPU      0.27s WALL (     192 calls)
     ffts         :      0.00s CPU      0.01s WALL (      25 calls)
     fftw         :      8.20s CPU      8.71s WALL (  247380 calls)
     interpolate  :      0.00s CPU      0.01s WALL (      13 calls)

     Parallel routines
     fft_scatt_xy :      0.78s CPU      0.82s WALL (  247597 calls)
     fft_scatt_yz :      2.41s CPU      2.56s WALL (  247597 calls)

     PWSCF        :     13.43s CPU     16.98s WALL


   This run was terminated on:  21:20: 1  28Sep2022            

=------------------------------------------------------------------------------=
   JOB DONE.
=------------------------------------------------------------------------------=
Note: The following floating-point exceptions are signalling: IEEE_UNDERFLOW_FLAG IEEE_DENORMAL
