
     Program PWSCF v.6.7MaX starts on 28Sep2022 at 21:21:42 

     This program is part of the open-source Quantum ESPRESSO suite
     for quantum simulation of materials; please cite
         "P. Giannozzi et al., J. Phys.:Condens. Matter 21 395502 (2009);
         "P. Giannozzi et al., J. Phys.:Condens. Matter 29 465901 (2017);
          URL http://www.quantum-espresso.org", 
     in publications or presentations arising from this work. More details at
     http://www.quantum-espresso.org/quote

     Parallel version (MPI), running on    16 processors

     MPI processes distributed on     1 nodes
     R & G space division:  proc/nbgrp/npool/nimage =      16
     Reading input from scale_3d-05.in

     Current dimensions of program PWSCF are:
     Max number of different atomic species (ntypx) = 10
     Max number of k-points (npk) =  40000
     Max angular momentum in pseudopotentials (lmaxx) =  3
     Message from routine read_pp_mesh:
     mesh size missing, using the one in header

     Subspace diagonalization in iterative solution of the eigenvalue problem:
     a serial algorithm will be used


     Parallelization info
     --------------------
     sticks:   dense  smooth     PW     G-vecs:    dense   smooth      PW
     Min          48      35     10                 1812     1124     182
     Max          49      40     11                 1818     1125     189
     Sum         769     571    163                29023    17993    2949



     bravais-lattice index     =            0
     lattice parameter (alat)  =       5.0675  a.u.
     unit-cell volume          =     186.5198 (a.u.)^3
     number of atoms/cell      =            4
     number of atomic types    =            2
     number of electrons       =        16.00
     number of Kohn-Sham states=           12
     kinetic-energy cutoff     =      80.0000  Ry
     charge density cutoff     =     440.0000  Ry
     scf convergence threshold =      2.0E-10
     mixing beta               =       0.4000
     number of iterations used =            8  plain     mixing
     Exchange-correlation= PBE
                           (   1   4   3   4   0   0   0)

     celldm(1)=   5.067480  celldm(2)=   0.000000  celldm(3)=   0.000000
     celldm(4)=   0.000000  celldm(5)=   0.000000  celldm(6)=   0.000000

     crystal axes: (cart. coord. in units of alat)
               a(1) = (   1.000000   0.000000   0.000000 )  
               a(2) = (  -0.500000   0.866025   0.000000 )  
               a(3) = (   0.000000   0.000000   1.655077 )  

     reciprocal axes: (cart. coord. in units 2 pi/alat)
               b(1) = (  1.000000  0.577350 -0.000000 )  
               b(2) = (  0.000000  1.154701  0.000000 )  
               b(3) = (  0.000000 -0.000000  0.604202 )  


     PseudoPot. # 1 for B  read from file:
     /opt/QEpot/SSSP_precision_pseudos/B_pbe_v1.01.uspp.F.UPF
     MD5 check sum: d081ebb89d0c768e112975f650467a00
     Pseudo is Ultrasoft + core correction, Zval =  3.0
     Generated by new atomic code, or converted to UPF format
     Using radial grid of  781 points,  4 beta functions with: 
                l(1) =   0
                l(2) =   0
                l(3) =   1
                l(4) =   1
     Q(r) pseudized with  8 coefficients,  rinner =    1.100   1.100   1.100


     PseudoPot. # 2 for N  read from file:
     /opt/QEpot/SSSP_precision_pseudos/N.oncvpsp.upf
     MD5 check sum: 563d65bfb082928f0c9eb97172f6c357
     Pseudo is Norm-conserving + core correction, Zval =  5.0
     Generated using ONCVPSP code by D. R. Hamann
     Using radial grid of 1058 points,  4 beta functions with: 
                l(1) =   0
                l(2) =   0
                l(3) =   1
                l(4) =   1

     atomic species   valence    mass     pseudopotential
        B              3.00    10.81000     B ( 1.00)
        N              5.00    14.00700     N ( 1.00)

     No symmetry found


                                    s                        frac. trans.

      isym =  1     identity                                     

 cryst.   s( 1) = (     1          0          0      )
                  (     0          1          0      )
                  (     0          0          1      )

 cart.    s( 1) = (  1.0000000  0.0000000  0.0000000 )
                  (  0.0000000  1.0000000  0.0000000 )
                  (  0.0000000  0.0000000  1.0000000 )


   Cartesian axes

     site n.     atom                  positions (alat units)
         1           B   tau(   1) = (   0.0020188   0.5778046   0.8281551  )
         2           B   tau(   2) = (   0.5020198   0.2891289   0.0006169  )
         3           N   tau(   3) = (   0.0020188   0.5778046   0.2084150  )
         4           N   tau(   4) = (   0.5020198   0.2891289   1.0359533  )

   Crystallographic axes

     site n.     atom                  positions (cryst. coord.)
         1           B   tau(   1) = (  0.3356145  0.6671913  0.5003727  )
         2           B   tau(   2) = (  0.6689485  0.3338573  0.0003727  )
         3           N   tau(   3) = (  0.3356145  0.6671913  0.1259247  )
         4           N   tau(   4) = (  0.6689485  0.3338573  0.6259247  )

     number of k points=   252  Marzari-Vanderbilt smearing, width (Ry)=  0.0220
                       cart. coord. in units 2pi/alat
        k(    1) = (   0.0000000   0.0000000   0.0000000), wk =   0.0040000
        k(    2) = (   0.0000000   0.0000000   0.1208403), wk =   0.0080000
        k(    3) = (   0.0000000   0.0000000   0.2416807), wk =   0.0080000
        k(    4) = (   0.0000000   0.1154701   0.0000000), wk =   0.0080000
        k(    5) = (   0.0000000   0.1154701   0.1208403), wk =   0.0080000
        k(    6) = (   0.0000000   0.1154701   0.2416807), wk =   0.0080000
        k(    7) = (   0.0000000   0.2309401   0.0000000), wk =   0.0080000
        k(    8) = (   0.0000000   0.2309401   0.1208403), wk =   0.0080000
        k(    9) = (   0.0000000   0.2309401   0.2416807), wk =   0.0080000
        k(   10) = (   0.0000000   0.3464102   0.0000000), wk =   0.0080000
        k(   11) = (   0.0000000   0.3464102   0.1208403), wk =   0.0080000
        k(   12) = (   0.0000000   0.3464102   0.2416807), wk =   0.0080000
        k(   13) = (   0.0000000   0.4618802   0.0000000), wk =   0.0080000
        k(   14) = (   0.0000000   0.4618802   0.1208403), wk =   0.0080000
        k(   15) = (   0.0000000   0.4618802   0.2416807), wk =   0.0080000
        k(   16) = (   0.0000000  -0.5773503   0.0000000), wk =   0.0040000
        k(   17) = (   0.0000000  -0.5773503   0.1208403), wk =   0.0080000
        k(   18) = (   0.0000000  -0.5773503   0.2416807), wk =   0.0080000
        k(   19) = (   0.1000000   0.1732051   0.0000000), wk =   0.0080000
        k(   20) = (   0.1000000   0.1732051   0.1208403), wk =   0.0080000
        k(   21) = (   0.1000000   0.1732051   0.2416807), wk =   0.0080000
        k(   22) = (   0.1000000   0.2886751   0.0000000), wk =   0.0080000
        k(   23) = (   0.1000000   0.2886751   0.1208403), wk =   0.0080000
        k(   24) = (   0.1000000   0.2886751   0.2416807), wk =   0.0080000
        k(   25) = (   0.1000000   0.4041452   0.0000000), wk =   0.0080000
        k(   26) = (   0.1000000   0.4041452   0.1208403), wk =   0.0080000
        k(   27) = (   0.1000000   0.4041452   0.2416807), wk =   0.0080000
        k(   28) = (   0.1000000   0.5196152   0.0000000), wk =   0.0080000
        k(   29) = (   0.1000000   0.5196152   0.1208403), wk =   0.0080000
        k(   30) = (   0.1000000   0.5196152   0.2416807), wk =   0.0080000
        k(   31) = (   0.2000000   0.3464102   0.0000000), wk =   0.0080000
        k(   32) = (   0.2000000   0.3464102   0.1208403), wk =   0.0080000
        k(   33) = (   0.2000000   0.3464102   0.2416807), wk =   0.0080000
        k(   34) = (   0.2000000   0.4618802   0.0000000), wk =   0.0080000
        k(   35) = (   0.2000000   0.4618802   0.1208403), wk =   0.0080000
        k(   36) = (   0.2000000   0.4618802   0.2416807), wk =   0.0080000
        k(   37) = (   0.2000000   0.5773503   0.0000000), wk =   0.0080000
        k(   38) = (   0.2000000   0.5773503   0.1208403), wk =   0.0080000
        k(   39) = (   0.2000000   0.5773503   0.2416807), wk =   0.0080000
        k(   40) = (   0.3000000   0.5196152   0.0000000), wk =   0.0080000
        k(   41) = (   0.3000000   0.5196152   0.1208403), wk =   0.0080000
        k(   42) = (   0.3000000   0.5196152   0.2416807), wk =   0.0080000
        k(   43) = (  -0.1000000   0.0577350   0.0000000), wk =   0.0080000
        k(   44) = (   0.1000000   0.0577350   0.0000000), wk =   0.0080000
        k(   45) = (   0.0000000  -0.1154701   0.1208403), wk =   0.0080000
        k(   46) = (  -0.1000000   0.0577350   0.1208403), wk =   0.0080000
        k(   47) = (   0.1000000   0.0577350   0.1208403), wk =   0.0080000
        k(   48) = (  -0.1000000  -0.0577350   0.1208403), wk =   0.0080000
        k(   49) = (   0.1000000  -0.0577350   0.1208403), wk =   0.0080000
        k(   50) = (   0.0000000  -0.1154701   0.2416807), wk =   0.0080000
        k(   51) = (  -0.1000000   0.0577350   0.2416807), wk =   0.0080000
        k(   52) = (   0.1000000   0.0577350   0.2416807), wk =   0.0080000
        k(   53) = (  -0.1000000  -0.0577350   0.2416807), wk =   0.0080000
        k(   54) = (   0.1000000  -0.0577350   0.2416807), wk =   0.0080000
        k(   55) = (  -0.2000000   0.1154701   0.0000000), wk =   0.0080000
        k(   56) = (   0.2000000   0.1154701   0.0000000), wk =   0.0080000
        k(   57) = (   0.0000000  -0.2309401   0.1208403), wk =   0.0080000
        k(   58) = (  -0.2000000   0.1154701   0.1208403), wk =   0.0080000
        k(   59) = (   0.2000000   0.1154701   0.1208403), wk =   0.0080000
        k(   60) = (  -0.2000000  -0.1154701   0.1208403), wk =   0.0080000
        k(   61) = (   0.2000000  -0.1154701   0.1208403), wk =   0.0080000
        k(   62) = (   0.0000000  -0.2309401   0.2416807), wk =   0.0080000
        k(   63) = (  -0.2000000   0.1154701   0.2416807), wk =   0.0080000
        k(   64) = (   0.2000000   0.1154701   0.2416807), wk =   0.0080000
        k(   65) = (  -0.2000000  -0.1154701   0.2416807), wk =   0.0080000
        k(   66) = (   0.2000000  -0.1154701   0.2416807), wk =   0.0080000
        k(   67) = (  -0.3000000   0.1732051   0.0000000), wk =   0.0080000
        k(   68) = (   0.3000000   0.1732051   0.0000000), wk =   0.0080000
        k(   69) = (   0.0000000  -0.3464102   0.1208403), wk =   0.0080000
        k(   70) = (  -0.3000000   0.1732051   0.1208403), wk =   0.0080000
        k(   71) = (   0.3000000   0.1732051   0.1208403), wk =   0.0080000
        k(   72) = (  -0.3000000  -0.1732051   0.1208403), wk =   0.0080000
        k(   73) = (   0.3000000  -0.1732051   0.1208403), wk =   0.0080000
        k(   74) = (   0.0000000  -0.3464102   0.2416807), wk =   0.0080000
        k(   75) = (  -0.3000000   0.1732051   0.2416807), wk =   0.0080000
        k(   76) = (   0.3000000   0.1732051   0.2416807), wk =   0.0080000
        k(   77) = (  -0.3000000  -0.1732051   0.2416807), wk =   0.0080000
        k(   78) = (   0.3000000  -0.1732051   0.2416807), wk =   0.0080000
        k(   79) = (  -0.4000000   0.2309401   0.0000000), wk =   0.0080000
        k(   80) = (   0.4000000   0.2309401   0.0000000), wk =   0.0080000
        k(   81) = (   0.0000000  -0.4618802   0.1208403), wk =   0.0080000
        k(   82) = (  -0.4000000   0.2309401   0.1208403), wk =   0.0080000
        k(   83) = (   0.4000000   0.2309401   0.1208403), wk =   0.0080000
        k(   84) = (  -0.4000000  -0.2309401   0.1208403), wk =   0.0080000
        k(   85) = (   0.4000000  -0.2309401   0.1208403), wk =   0.0080000
        k(   86) = (   0.0000000  -0.4618802   0.2416807), wk =   0.0080000
        k(   87) = (  -0.4000000   0.2309401   0.2416807), wk =   0.0080000
        k(   88) = (   0.4000000   0.2309401   0.2416807), wk =   0.0080000
        k(   89) = (  -0.4000000  -0.2309401   0.2416807), wk =   0.0080000
        k(   90) = (   0.4000000  -0.2309401   0.2416807), wk =   0.0080000
        k(   91) = (   0.5000000  -0.2886751   0.0000000), wk =   0.0040000
        k(   92) = (  -0.5000000  -0.2886751   0.0000000), wk =   0.0040000
        k(   93) = (   0.5000000  -0.2886751   0.1208403), wk =   0.0080000
        k(   94) = (  -0.5000000  -0.2886751   0.1208403), wk =   0.0080000
        k(   95) = (   0.5000000  -0.2886751   0.2416807), wk =   0.0080000
        k(   96) = (  -0.5000000  -0.2886751   0.2416807), wk =   0.0080000
        k(   97) = (  -0.1000000   0.1732051   0.0000000), wk =   0.0080000
        k(   98) = (   0.2000000   0.0000000   0.0000000), wk =   0.0080000
        k(   99) = (  -0.1000000  -0.1732051   0.1208403), wk =   0.0080000
        k(  100) = (  -0.1000000   0.1732051  -0.1208403), wk =   0.0080000
        k(  101) = (   0.1000000  -0.1732051  -0.1208403), wk =   0.0080000
        k(  102) = (   0.2000000   0.0000000   0.1208403), wk =   0.0080000
        k(  103) = (  -0.2000000   0.0000000   0.1208403), wk =   0.0080000
        k(  104) = (  -0.1000000  -0.1732051   0.2416807), wk =   0.0080000
        k(  105) = (  -0.1000000   0.1732051  -0.2416807), wk =   0.0080000
        k(  106) = (   0.1000000  -0.1732051  -0.2416807), wk =   0.0080000
        k(  107) = (   0.2000000   0.0000000   0.2416807), wk =   0.0080000
        k(  108) = (  -0.2000000   0.0000000   0.2416807), wk =   0.0080000
        k(  109) = (  -0.1000000   0.2886751   0.0000000), wk =   0.0080000
        k(  110) = (  -0.2000000   0.2309401   0.0000000), wk =   0.0080000
        k(  111) = (   0.3000000   0.0577350   0.0000000), wk =   0.0080000
        k(  112) = (  -0.2000000  -0.2309401   0.0000000), wk =   0.0080000
        k(  113) = (   0.3000000  -0.0577350   0.0000000), wk =   0.0080000
        k(  114) = (  -0.1000000  -0.2886751   0.1208403), wk =   0.0080000
        k(  115) = (  -0.1000000   0.2886751  -0.1208403), wk =   0.0080000
        k(  116) = (   0.1000000  -0.2886751  -0.1208403), wk =   0.0080000
        k(  117) = (  -0.2000000   0.2309401   0.1208403), wk =   0.0080000
        k(  118) = (   0.3000000   0.0577350   0.1208403), wk =   0.0080000
        k(  119) = (  -0.3000000  -0.0577350   0.1208403), wk =   0.0080000
        k(  120) = (   0.2000000  -0.2309401   0.1208403), wk =   0.0080000
        k(  121) = (  -0.2000000  -0.2309401  -0.1208403), wk =   0.0080000
        k(  122) = (   0.3000000  -0.0577350  -0.1208403), wk =   0.0080000
        k(  123) = (  -0.3000000   0.0577350  -0.1208403), wk =   0.0080000
        k(  124) = (   0.2000000   0.2309401  -0.1208403), wk =   0.0080000
        k(  125) = (  -0.1000000  -0.2886751   0.2416807), wk =   0.0080000
        k(  126) = (  -0.1000000   0.2886751  -0.2416807), wk =   0.0080000
        k(  127) = (   0.1000000  -0.2886751  -0.2416807), wk =   0.0080000
        k(  128) = (  -0.2000000   0.2309401   0.2416807), wk =   0.0080000
        k(  129) = (   0.3000000   0.0577350   0.2416807), wk =   0.0080000
        k(  130) = (  -0.3000000  -0.0577350   0.2416807), wk =   0.0080000
        k(  131) = (   0.2000000  -0.2309401   0.2416807), wk =   0.0080000
        k(  132) = (  -0.2000000  -0.2309401  -0.2416807), wk =   0.0080000
        k(  133) = (   0.3000000  -0.0577350  -0.2416807), wk =   0.0080000
        k(  134) = (  -0.3000000   0.0577350  -0.2416807), wk =   0.0080000
        k(  135) = (   0.2000000   0.2309401  -0.2416807), wk =   0.0080000
        k(  136) = (  -0.1000000   0.4041452   0.0000000), wk =   0.0080000
        k(  137) = (  -0.3000000   0.2886751   0.0000000), wk =   0.0080000
        k(  138) = (   0.4000000   0.1154701   0.0000000), wk =   0.0080000
        k(  139) = (  -0.3000000  -0.2886751   0.0000000), wk =   0.0080000
        k(  140) = (   0.4000000  -0.1154701   0.0000000), wk =   0.0080000
        k(  141) = (  -0.1000000  -0.4041452   0.1208403), wk =   0.0080000
        k(  142) = (  -0.1000000   0.4041452  -0.1208403), wk =   0.0080000
        k(  143) = (   0.1000000  -0.4041452  -0.1208403), wk =   0.0080000
        k(  144) = (  -0.3000000   0.2886751   0.1208403), wk =   0.0080000
        k(  145) = (   0.4000000   0.1154701   0.1208403), wk =   0.0080000
        k(  146) = (  -0.4000000  -0.1154701   0.1208403), wk =   0.0080000
        k(  147) = (   0.3000000  -0.2886751   0.1208403), wk =   0.0080000
        k(  148) = (  -0.3000000  -0.2886751  -0.1208403), wk =   0.0080000
        k(  149) = (   0.4000000  -0.1154701  -0.1208403), wk =   0.0080000
        k(  150) = (  -0.4000000   0.1154701  -0.1208403), wk =   0.0080000
        k(  151) = (   0.3000000   0.2886751  -0.1208403), wk =   0.0080000
        k(  152) = (  -0.1000000  -0.4041452   0.2416807), wk =   0.0080000
        k(  153) = (  -0.1000000   0.4041452  -0.2416807), wk =   0.0080000
        k(  154) = (   0.1000000  -0.4041452  -0.2416807), wk =   0.0080000
        k(  155) = (  -0.3000000   0.2886751   0.2416807), wk =   0.0080000
        k(  156) = (   0.4000000   0.1154701   0.2416807), wk =   0.0080000
        k(  157) = (  -0.4000000  -0.1154701   0.2416807), wk =   0.0080000
        k(  158) = (   0.3000000  -0.2886751   0.2416807), wk =   0.0080000
        k(  159) = (  -0.3000000  -0.2886751  -0.2416807), wk =   0.0080000
        k(  160) = (   0.4000000  -0.1154701  -0.2416807), wk =   0.0080000
        k(  161) = (  -0.4000000   0.1154701  -0.2416807), wk =   0.0080000
        k(  162) = (   0.3000000   0.2886751  -0.2416807), wk =   0.0080000
        k(  163) = (  -0.1000000   0.5196152   0.0000000), wk =   0.0080000
        k(  164) = (  -0.4000000   0.3464102   0.0000000), wk =   0.0080000
        k(  165) = (   0.5000000   0.1732051   0.0000000), wk =   0.0080000
        k(  166) = (  -0.4000000  -0.3464102   0.0000000), wk =   0.0080000
        k(  167) = (   0.5000000  -0.1732051   0.0000000), wk =   0.0080000
        k(  168) = (  -0.1000000  -0.5196152   0.1208403), wk =   0.0080000
        k(  169) = (  -0.1000000   0.5196152  -0.1208403), wk =   0.0080000
        k(  170) = (   0.1000000  -0.5196152  -0.1208403), wk =   0.0080000
        k(  171) = (  -0.4000000   0.3464102   0.1208403), wk =   0.0080000
        k(  172) = (   0.5000000   0.1732051   0.1208403), wk =   0.0080000
        k(  173) = (  -0.5000000  -0.1732051   0.1208403), wk =   0.0080000
        k(  174) = (   0.4000000  -0.3464102   0.1208403), wk =   0.0080000
        k(  175) = (  -0.4000000  -0.3464102  -0.1208403), wk =   0.0080000
        k(  176) = (   0.5000000  -0.1732051  -0.1208403), wk =   0.0080000
        k(  177) = (  -0.5000000   0.1732051  -0.1208403), wk =   0.0080000
        k(  178) = (   0.4000000   0.3464102  -0.1208403), wk =   0.0080000
        k(  179) = (  -0.1000000  -0.5196152   0.2416807), wk =   0.0080000
        k(  180) = (  -0.1000000   0.5196152  -0.2416807), wk =   0.0080000
        k(  181) = (   0.1000000  -0.5196152  -0.2416807), wk =   0.0080000
        k(  182) = (  -0.4000000   0.3464102   0.2416807), wk =   0.0080000
        k(  183) = (   0.5000000   0.1732051   0.2416807), wk =   0.0080000
        k(  184) = (  -0.5000000  -0.1732051   0.2416807), wk =   0.0080000
        k(  185) = (   0.4000000  -0.3464102   0.2416807), wk =   0.0080000
        k(  186) = (  -0.4000000  -0.3464102  -0.2416807), wk =   0.0080000
        k(  187) = (   0.5000000  -0.1732051  -0.2416807), wk =   0.0080000
        k(  188) = (  -0.5000000   0.1732051  -0.2416807), wk =   0.0080000
        k(  189) = (   0.4000000   0.3464102  -0.2416807), wk =   0.0080000
        k(  190) = (  -0.2000000   0.3464102   0.0000000), wk =   0.0080000
        k(  191) = (   0.4000000   0.0000000   0.0000000), wk =   0.0080000
        k(  192) = (  -0.2000000  -0.3464102   0.1208403), wk =   0.0080000
        k(  193) = (  -0.2000000   0.3464102  -0.1208403), wk =   0.0080000
        k(  194) = (   0.2000000  -0.3464102  -0.1208403), wk =   0.0080000
        k(  195) = (   0.4000000   0.0000000   0.1208403), wk =   0.0080000
        k(  196) = (  -0.4000000   0.0000000   0.1208403), wk =   0.0080000
        k(  197) = (  -0.2000000  -0.3464102   0.2416807), wk =   0.0080000
        k(  198) = (  -0.2000000   0.3464102  -0.2416807), wk =   0.0080000
        k(  199) = (   0.2000000  -0.3464102  -0.2416807), wk =   0.0080000
        k(  200) = (   0.4000000   0.0000000   0.2416807), wk =   0.0080000
        k(  201) = (  -0.4000000   0.0000000   0.2416807), wk =   0.0080000
        k(  202) = (  -0.2000000   0.4618802   0.0000000), wk =   0.0080000
        k(  203) = (  -0.3000000   0.4041452   0.0000000), wk =   0.0080000
        k(  204) = (   0.5000000   0.0577350   0.0000000), wk =   0.0080000
        k(  205) = (  -0.3000000  -0.4041452   0.0000000), wk =   0.0080000
        k(  206) = (   0.5000000  -0.0577350   0.0000000), wk =   0.0080000
        k(  207) = (  -0.2000000  -0.4618802   0.1208403), wk =   0.0080000
        k(  208) = (  -0.2000000   0.4618802  -0.1208403), wk =   0.0080000
        k(  209) = (   0.2000000  -0.4618802  -0.1208403), wk =   0.0080000
        k(  210) = (  -0.3000000   0.4041452   0.1208403), wk =   0.0080000
        k(  211) = (   0.5000000   0.0577350   0.1208403), wk =   0.0080000
        k(  212) = (  -0.5000000  -0.0577350   0.1208403), wk =   0.0080000
        k(  213) = (   0.3000000  -0.4041452   0.1208403), wk =   0.0080000
        k(  214) = (  -0.3000000  -0.4041452  -0.1208403), wk =   0.0080000
        k(  215) = (   0.5000000  -0.0577350  -0.1208403), wk =   0.0080000
        k(  216) = (  -0.5000000   0.0577350  -0.1208403), wk =   0.0080000
        k(  217) = (   0.3000000   0.4041452  -0.1208403), wk =   0.0080000
        k(  218) = (  -0.2000000  -0.4618802   0.2416807), wk =   0.0080000
        k(  219) = (  -0.2000000   0.4618802  -0.2416807), wk =   0.0080000
        k(  220) = (   0.2000000  -0.4618802  -0.2416807), wk =   0.0080000
        k(  221) = (  -0.3000000   0.4041452   0.2416807), wk =   0.0080000
        k(  222) = (   0.5000000   0.0577350   0.2416807), wk =   0.0080000
        k(  223) = (  -0.5000000  -0.0577350   0.2416807), wk =   0.0080000
        k(  224) = (   0.3000000  -0.4041452   0.2416807), wk =   0.0080000
        k(  225) = (  -0.3000000  -0.4041452  -0.2416807), wk =   0.0080000
        k(  226) = (   0.5000000  -0.0577350  -0.2416807), wk =   0.0080000
        k(  227) = (  -0.5000000   0.0577350  -0.2416807), wk =   0.0080000
        k(  228) = (   0.3000000   0.4041452  -0.2416807), wk =   0.0080000
        k(  229) = (  -0.4000000   0.4618802   0.0000000), wk =   0.0080000
        k(  230) = (   0.6000000   0.1154701   0.0000000), wk =   0.0080000
        k(  231) = (  -0.2000000  -0.5773503   0.1208403), wk =   0.0080000
        k(  232) = (  -0.4000000   0.4618802   0.1208403), wk =   0.0080000
        k(  233) = (   0.6000000   0.1154701   0.1208403), wk =   0.0080000
        k(  234) = (  -0.6000000  -0.1154701   0.1208403), wk =   0.0080000
        k(  235) = (   0.4000000  -0.4618802   0.1208403), wk =   0.0080000
        k(  236) = (  -0.2000000  -0.5773503   0.2416807), wk =   0.0080000
        k(  237) = (  -0.4000000   0.4618802   0.2416807), wk =   0.0080000
        k(  238) = (   0.6000000   0.1154701   0.2416807), wk =   0.0080000
        k(  239) = (  -0.6000000  -0.1154701   0.2416807), wk =   0.0080000
        k(  240) = (   0.4000000  -0.4618802   0.2416807), wk =   0.0080000
        k(  241) = (  -0.3000000   0.5196152   0.0000000), wk =   0.0080000
        k(  242) = (   0.6000000   0.0000000   0.0000000), wk =   0.0080000
        k(  243) = (  -0.3000000  -0.5196152   0.1208403), wk =   0.0080000
        k(  244) = (  -0.3000000   0.5196152  -0.1208403), wk =   0.0080000
        k(  245) = (   0.3000000  -0.5196152  -0.1208403), wk =   0.0080000
        k(  246) = (   0.6000000   0.0000000   0.1208403), wk =   0.0080000
        k(  247) = (  -0.6000000  -0.0000000   0.1208403), wk =   0.0080000
        k(  248) = (  -0.3000000  -0.5196152   0.2416807), wk =   0.0080000
        k(  249) = (  -0.3000000   0.5196152  -0.2416807), wk =   0.0080000
        k(  250) = (   0.3000000  -0.5196152  -0.2416807), wk =   0.0080000
        k(  251) = (   0.6000000   0.0000000   0.2416807), wk =   0.0080000
        k(  252) = (  -0.6000000  -0.0000000   0.2416807), wk =   0.0080000

                       cryst. coord.
        k(    1) = (   0.0000000   0.0000000   0.0000000), wk =   0.0040000
        k(    2) = (   0.0000000   0.0000000   0.2000000), wk =   0.0080000
        k(    3) = (   0.0000000   0.0000000   0.4000000), wk =   0.0080000
        k(    4) = (   0.0000000   0.1000000   0.0000000), wk =   0.0080000
        k(    5) = (   0.0000000   0.1000000   0.2000000), wk =   0.0080000
        k(    6) = (   0.0000000   0.1000000   0.4000000), wk =   0.0080000
        k(    7) = (   0.0000000   0.2000000   0.0000000), wk =   0.0080000
        k(    8) = (   0.0000000   0.2000000   0.2000000), wk =   0.0080000
        k(    9) = (   0.0000000   0.2000000   0.4000000), wk =   0.0080000
        k(   10) = (   0.0000000   0.3000000   0.0000000), wk =   0.0080000
        k(   11) = (   0.0000000   0.3000000   0.2000000), wk =   0.0080000
        k(   12) = (   0.0000000   0.3000000   0.4000000), wk =   0.0080000
        k(   13) = (   0.0000000   0.4000000   0.0000000), wk =   0.0080000
        k(   14) = (   0.0000000   0.4000000   0.2000000), wk =   0.0080000
        k(   15) = (   0.0000000   0.4000000   0.4000000), wk =   0.0080000
        k(   16) = (   0.0000000  -0.5000000   0.0000000), wk =   0.0040000
        k(   17) = (   0.0000000  -0.5000000   0.2000000), wk =   0.0080000
        k(   18) = (   0.0000000  -0.5000000   0.4000000), wk =   0.0080000
        k(   19) = (   0.1000000   0.1000000   0.0000000), wk =   0.0080000
        k(   20) = (   0.1000000   0.1000000   0.2000000), wk =   0.0080000
        k(   21) = (   0.1000000   0.1000000   0.4000000), wk =   0.0080000
        k(   22) = (   0.1000000   0.2000000   0.0000000), wk =   0.0080000
        k(   23) = (   0.1000000   0.2000000   0.2000000), wk =   0.0080000
        k(   24) = (   0.1000000   0.2000000   0.4000000), wk =   0.0080000
        k(   25) = (   0.1000000   0.3000000   0.0000000), wk =   0.0080000
        k(   26) = (   0.1000000   0.3000000   0.2000000), wk =   0.0080000
        k(   27) = (   0.1000000   0.3000000   0.4000000), wk =   0.0080000
        k(   28) = (   0.1000000   0.4000000   0.0000000), wk =   0.0080000
        k(   29) = (   0.1000000   0.4000000   0.2000000), wk =   0.0080000
        k(   30) = (   0.1000000   0.4000000   0.4000000), wk =   0.0080000
        k(   31) = (   0.2000000   0.2000000   0.0000000), wk =   0.0080000
        k(   32) = (   0.2000000   0.2000000   0.2000000), wk =   0.0080000
        k(   33) = (   0.2000000   0.2000000   0.4000000), wk =   0.0080000
        k(   34) = (   0.2000000   0.3000000   0.0000000), wk =   0.0080000
        k(   35) = (   0.2000000   0.3000000   0.2000000), wk =   0.0080000
        k(   36) = (   0.2000000   0.3000000   0.4000000), wk =   0.0080000
        k(   37) = (   0.2000000   0.4000000   0.0000000), wk =   0.0080000
        k(   38) = (   0.2000000   0.4000000   0.2000000), wk =   0.0080000
        k(   39) = (   0.2000000   0.4000000   0.4000000), wk =   0.0080000
        k(   40) = (   0.3000000   0.3000000   0.0000000), wk =   0.0080000
        k(   41) = (   0.3000000   0.3000000   0.2000000), wk =   0.0080000
        k(   42) = (   0.3000000   0.3000000   0.4000000), wk =   0.0080000
        k(   43) = (  -0.1000000   0.1000000   0.0000000), wk =   0.0080000
        k(   44) = (   0.1000000   0.0000000   0.0000000), wk =   0.0080000
        k(   45) = (   0.0000000  -0.1000000   0.2000000), wk =   0.0080000
        k(   46) = (  -0.1000000   0.1000000   0.2000000), wk =   0.0080000
        k(   47) = (   0.1000000   0.0000000   0.2000000), wk =   0.0080000
        k(   48) = (  -0.1000000   0.0000000   0.2000000), wk =   0.0080000
        k(   49) = (   0.1000000  -0.1000000   0.2000000), wk =   0.0080000
        k(   50) = (   0.0000000  -0.1000000   0.4000000), wk =   0.0080000
        k(   51) = (  -0.1000000   0.1000000   0.4000000), wk =   0.0080000
        k(   52) = (   0.1000000   0.0000000   0.4000000), wk =   0.0080000
        k(   53) = (  -0.1000000   0.0000000   0.4000000), wk =   0.0080000
        k(   54) = (   0.1000000  -0.1000000   0.4000000), wk =   0.0080000
        k(   55) = (  -0.2000000   0.2000000   0.0000000), wk =   0.0080000
        k(   56) = (   0.2000000   0.0000000   0.0000000), wk =   0.0080000
        k(   57) = (   0.0000000  -0.2000000   0.2000000), wk =   0.0080000
        k(   58) = (  -0.2000000   0.2000000   0.2000000), wk =   0.0080000
        k(   59) = (   0.2000000   0.0000000   0.2000000), wk =   0.0080000
        k(   60) = (  -0.2000000   0.0000000   0.2000000), wk =   0.0080000
        k(   61) = (   0.2000000  -0.2000000   0.2000000), wk =   0.0080000
        k(   62) = (   0.0000000  -0.2000000   0.4000000), wk =   0.0080000
        k(   63) = (  -0.2000000   0.2000000   0.4000000), wk =   0.0080000
        k(   64) = (   0.2000000   0.0000000   0.4000000), wk =   0.0080000
        k(   65) = (  -0.2000000   0.0000000   0.4000000), wk =   0.0080000
        k(   66) = (   0.2000000  -0.2000000   0.4000000), wk =   0.0080000
        k(   67) = (  -0.3000000   0.3000000   0.0000000), wk =   0.0080000
        k(   68) = (   0.3000000   0.0000000   0.0000000), wk =   0.0080000
        k(   69) = (   0.0000000  -0.3000000   0.2000000), wk =   0.0080000
        k(   70) = (  -0.3000000   0.3000000   0.2000000), wk =   0.0080000
        k(   71) = (   0.3000000   0.0000000   0.2000000), wk =   0.0080000
        k(   72) = (  -0.3000000   0.0000000   0.2000000), wk =   0.0080000
        k(   73) = (   0.3000000  -0.3000000   0.2000000), wk =   0.0080000
        k(   74) = (   0.0000000  -0.3000000   0.4000000), wk =   0.0080000
        k(   75) = (  -0.3000000   0.3000000   0.4000000), wk =   0.0080000
        k(   76) = (   0.3000000   0.0000000   0.4000000), wk =   0.0080000
        k(   77) = (  -0.3000000   0.0000000   0.4000000), wk =   0.0080000
        k(   78) = (   0.3000000  -0.3000000   0.4000000), wk =   0.0080000
        k(   79) = (  -0.4000000   0.4000000   0.0000000), wk =   0.0080000
        k(   80) = (   0.4000000   0.0000000   0.0000000), wk =   0.0080000
        k(   81) = (   0.0000000  -0.4000000   0.2000000), wk =   0.0080000
        k(   82) = (  -0.4000000   0.4000000   0.2000000), wk =   0.0080000
        k(   83) = (   0.4000000   0.0000000   0.2000000), wk =   0.0080000
        k(   84) = (  -0.4000000   0.0000000   0.2000000), wk =   0.0080000
        k(   85) = (   0.4000000  -0.4000000   0.2000000), wk =   0.0080000
        k(   86) = (   0.0000000  -0.4000000   0.4000000), wk =   0.0080000
        k(   87) = (  -0.4000000   0.4000000   0.4000000), wk =   0.0080000
        k(   88) = (   0.4000000   0.0000000   0.4000000), wk =   0.0080000
        k(   89) = (  -0.4000000   0.0000000   0.4000000), wk =   0.0080000
        k(   90) = (   0.4000000  -0.4000000   0.4000000), wk =   0.0080000
        k(   91) = (   0.5000000  -0.5000000   0.0000000), wk =   0.0040000
        k(   92) = (  -0.5000000   0.0000000   0.0000000), wk =   0.0040000
        k(   93) = (   0.5000000  -0.5000000   0.2000000), wk =   0.0080000
        k(   94) = (  -0.5000000   0.0000000   0.2000000), wk =   0.0080000
        k(   95) = (   0.5000000  -0.5000000   0.4000000), wk =   0.0080000
        k(   96) = (  -0.5000000   0.0000000   0.4000000), wk =   0.0080000
        k(   97) = (  -0.1000000   0.2000000   0.0000000), wk =   0.0080000
        k(   98) = (   0.2000000  -0.1000000   0.0000000), wk =   0.0080000
        k(   99) = (  -0.1000000  -0.1000000   0.2000000), wk =   0.0080000
        k(  100) = (  -0.1000000   0.2000000  -0.2000000), wk =   0.0080000
        k(  101) = (   0.1000000  -0.2000000  -0.2000000), wk =   0.0080000
        k(  102) = (   0.2000000  -0.1000000   0.2000000), wk =   0.0080000
        k(  103) = (  -0.2000000   0.1000000   0.2000000), wk =   0.0080000
        k(  104) = (  -0.1000000  -0.1000000   0.4000000), wk =   0.0080000
        k(  105) = (  -0.1000000   0.2000000  -0.4000000), wk =   0.0080000
        k(  106) = (   0.1000000  -0.2000000  -0.4000000), wk =   0.0080000
        k(  107) = (   0.2000000  -0.1000000   0.4000000), wk =   0.0080000
        k(  108) = (  -0.2000000   0.1000000   0.4000000), wk =   0.0080000
        k(  109) = (  -0.1000000   0.3000000   0.0000000), wk =   0.0080000
        k(  110) = (  -0.2000000   0.3000000   0.0000000), wk =   0.0080000
        k(  111) = (   0.3000000  -0.1000000   0.0000000), wk =   0.0080000
        k(  112) = (  -0.2000000  -0.1000000   0.0000000), wk =   0.0080000
        k(  113) = (   0.3000000  -0.2000000   0.0000000), wk =   0.0080000
        k(  114) = (  -0.1000000  -0.2000000   0.2000000), wk =   0.0080000
        k(  115) = (  -0.1000000   0.3000000  -0.2000000), wk =   0.0080000
        k(  116) = (   0.1000000  -0.3000000  -0.2000000), wk =   0.0080000
        k(  117) = (  -0.2000000   0.3000000   0.2000000), wk =   0.0080000
        k(  118) = (   0.3000000  -0.1000000   0.2000000), wk =   0.0080000
        k(  119) = (  -0.3000000   0.1000000   0.2000000), wk =   0.0080000
        k(  120) = (   0.2000000  -0.3000000   0.2000000), wk =   0.0080000
        k(  121) = (  -0.2000000  -0.1000000  -0.2000000), wk =   0.0080000
        k(  122) = (   0.3000000  -0.2000000  -0.2000000), wk =   0.0080000
        k(  123) = (  -0.3000000   0.2000000  -0.2000000), wk =   0.0080000
        k(  124) = (   0.2000000   0.1000000  -0.2000000), wk =   0.0080000
        k(  125) = (  -0.1000000  -0.2000000   0.4000000), wk =   0.0080000
        k(  126) = (  -0.1000000   0.3000000  -0.4000000), wk =   0.0080000
        k(  127) = (   0.1000000  -0.3000000  -0.4000000), wk =   0.0080000
        k(  128) = (  -0.2000000   0.3000000   0.4000000), wk =   0.0080000
        k(  129) = (   0.3000000  -0.1000000   0.4000000), wk =   0.0080000
        k(  130) = (  -0.3000000   0.1000000   0.4000000), wk =   0.0080000
        k(  131) = (   0.2000000  -0.3000000   0.4000000), wk =   0.0080000
        k(  132) = (  -0.2000000  -0.1000000  -0.4000000), wk =   0.0080000
        k(  133) = (   0.3000000  -0.2000000  -0.4000000), wk =   0.0080000
        k(  134) = (  -0.3000000   0.2000000  -0.4000000), wk =   0.0080000
        k(  135) = (   0.2000000   0.1000000  -0.4000000), wk =   0.0080000
        k(  136) = (  -0.1000000   0.4000000   0.0000000), wk =   0.0080000
        k(  137) = (  -0.3000000   0.4000000   0.0000000), wk =   0.0080000
        k(  138) = (   0.4000000  -0.1000000   0.0000000), wk =   0.0080000
        k(  139) = (  -0.3000000  -0.1000000   0.0000000), wk =   0.0080000
        k(  140) = (   0.4000000  -0.3000000   0.0000000), wk =   0.0080000
        k(  141) = (  -0.1000000  -0.3000000   0.2000000), wk =   0.0080000
        k(  142) = (  -0.1000000   0.4000000  -0.2000000), wk =   0.0080000
        k(  143) = (   0.1000000  -0.4000000  -0.2000000), wk =   0.0080000
        k(  144) = (  -0.3000000   0.4000000   0.2000000), wk =   0.0080000
        k(  145) = (   0.4000000  -0.1000000   0.2000000), wk =   0.0080000
        k(  146) = (  -0.4000000   0.1000000   0.2000000), wk =   0.0080000
        k(  147) = (   0.3000000  -0.4000000   0.2000000), wk =   0.0080000
        k(  148) = (  -0.3000000  -0.1000000  -0.2000000), wk =   0.0080000
        k(  149) = (   0.4000000  -0.3000000  -0.2000000), wk =   0.0080000
        k(  150) = (  -0.4000000   0.3000000  -0.2000000), wk =   0.0080000
        k(  151) = (   0.3000000   0.1000000  -0.2000000), wk =   0.0080000
        k(  152) = (  -0.1000000  -0.3000000   0.4000000), wk =   0.0080000
        k(  153) = (  -0.1000000   0.4000000  -0.4000000), wk =   0.0080000
        k(  154) = (   0.1000000  -0.4000000  -0.4000000), wk =   0.0080000
        k(  155) = (  -0.3000000   0.4000000   0.4000000), wk =   0.0080000
        k(  156) = (   0.4000000  -0.1000000   0.4000000), wk =   0.0080000
        k(  157) = (  -0.4000000   0.1000000   0.4000000), wk =   0.0080000
        k(  158) = (   0.3000000  -0.4000000   0.4000000), wk =   0.0080000
        k(  159) = (  -0.3000000  -0.1000000  -0.4000000), wk =   0.0080000
        k(  160) = (   0.4000000  -0.3000000  -0.4000000), wk =   0.0080000
        k(  161) = (  -0.4000000   0.3000000  -0.4000000), wk =   0.0080000
        k(  162) = (   0.3000000   0.1000000  -0.4000000), wk =   0.0080000
        k(  163) = (  -0.1000000   0.5000000   0.0000000), wk =   0.0080000
        k(  164) = (  -0.4000000   0.5000000   0.0000000), wk =   0.0080000
        k(  165) = (   0.5000000  -0.1000000   0.0000000), wk =   0.0080000
        k(  166) = (  -0.4000000  -0.1000000   0.0000000), wk =   0.0080000
        k(  167) = (   0.5000000  -0.4000000   0.0000000), wk =   0.0080000
        k(  168) = (  -0.1000000  -0.4000000   0.2000000), wk =   0.0080000
        k(  169) = (  -0.1000000   0.5000000  -0.2000000), wk =   0.0080000
        k(  170) = (   0.1000000  -0.5000000  -0.2000000), wk =   0.0080000
        k(  171) = (  -0.4000000   0.5000000   0.2000000), wk =   0.0080000
        k(  172) = (   0.5000000  -0.1000000   0.2000000), wk =   0.0080000
        k(  173) = (  -0.5000000   0.1000000   0.2000000), wk =   0.0080000
        k(  174) = (   0.4000000  -0.5000000   0.2000000), wk =   0.0080000
        k(  175) = (  -0.4000000  -0.1000000  -0.2000000), wk =   0.0080000
        k(  176) = (   0.5000000  -0.4000000  -0.2000000), wk =   0.0080000
        k(  177) = (  -0.5000000   0.4000000  -0.2000000), wk =   0.0080000
        k(  178) = (   0.4000000   0.1000000  -0.2000000), wk =   0.0080000
        k(  179) = (  -0.1000000  -0.4000000   0.4000000), wk =   0.0080000
        k(  180) = (  -0.1000000   0.5000000  -0.4000000), wk =   0.0080000
        k(  181) = (   0.1000000  -0.5000000  -0.4000000), wk =   0.0080000
        k(  182) = (  -0.4000000   0.5000000   0.4000000), wk =   0.0080000
        k(  183) = (   0.5000000  -0.1000000   0.4000000), wk =   0.0080000
        k(  184) = (  -0.5000000   0.1000000   0.4000000), wk =   0.0080000
        k(  185) = (   0.4000000  -0.5000000   0.4000000), wk =   0.0080000
        k(  186) = (  -0.4000000  -0.1000000  -0.4000000), wk =   0.0080000
        k(  187) = (   0.5000000  -0.4000000  -0.4000000), wk =   0.0080000
        k(  188) = (  -0.5000000   0.4000000  -0.4000000), wk =   0.0080000
        k(  189) = (   0.4000000   0.1000000  -0.4000000), wk =   0.0080000
        k(  190) = (  -0.2000000   0.4000000   0.0000000), wk =   0.0080000
        k(  191) = (   0.4000000  -0.2000000   0.0000000), wk =   0.0080000
        k(  192) = (  -0.2000000  -0.2000000   0.2000000), wk =   0.0080000
        k(  193) = (  -0.2000000   0.4000000  -0.2000000), wk =   0.0080000
        k(  194) = (   0.2000000  -0.4000000  -0.2000000), wk =   0.0080000
        k(  195) = (   0.4000000  -0.2000000   0.2000000), wk =   0.0080000
        k(  196) = (  -0.4000000   0.2000000   0.2000000), wk =   0.0080000
        k(  197) = (  -0.2000000  -0.2000000   0.4000000), wk =   0.0080000
        k(  198) = (  -0.2000000   0.4000000  -0.4000000), wk =   0.0080000
        k(  199) = (   0.2000000  -0.4000000  -0.4000000), wk =   0.0080000
        k(  200) = (   0.4000000  -0.2000000   0.4000000), wk =   0.0080000
        k(  201) = (  -0.4000000   0.2000000   0.4000000), wk =   0.0080000
        k(  202) = (  -0.2000000   0.5000000   0.0000000), wk =   0.0080000
        k(  203) = (  -0.3000000   0.5000000   0.0000000), wk =   0.0080000
        k(  204) = (   0.5000000  -0.2000000   0.0000000), wk =   0.0080000
        k(  205) = (  -0.3000000  -0.2000000   0.0000000), wk =   0.0080000
        k(  206) = (   0.5000000  -0.3000000   0.0000000), wk =   0.0080000
        k(  207) = (  -0.2000000  -0.3000000   0.2000000), wk =   0.0080000
        k(  208) = (  -0.2000000   0.5000000  -0.2000000), wk =   0.0080000
        k(  209) = (   0.2000000  -0.5000000  -0.2000000), wk =   0.0080000
        k(  210) = (  -0.3000000   0.5000000   0.2000000), wk =   0.0080000
        k(  211) = (   0.5000000  -0.2000000   0.2000000), wk =   0.0080000
        k(  212) = (  -0.5000000   0.2000000   0.2000000), wk =   0.0080000
        k(  213) = (   0.3000000  -0.5000000   0.2000000), wk =   0.0080000
        k(  214) = (  -0.3000000  -0.2000000  -0.2000000), wk =   0.0080000
        k(  215) = (   0.5000000  -0.3000000  -0.2000000), wk =   0.0080000
        k(  216) = (  -0.5000000   0.3000000  -0.2000000), wk =   0.0080000
        k(  217) = (   0.3000000   0.2000000  -0.2000000), wk =   0.0080000
        k(  218) = (  -0.2000000  -0.3000000   0.4000000), wk =   0.0080000
        k(  219) = (  -0.2000000   0.5000000  -0.4000000), wk =   0.0080000
        k(  220) = (   0.2000000  -0.5000000  -0.4000000), wk =   0.0080000
        k(  221) = (  -0.3000000   0.5000000   0.4000000), wk =   0.0080000
        k(  222) = (   0.5000000  -0.2000000   0.4000000), wk =   0.0080000
        k(  223) = (  -0.5000000   0.2000000   0.4000000), wk =   0.0080000
        k(  224) = (   0.3000000  -0.5000000   0.4000000), wk =   0.0080000
        k(  225) = (  -0.3000000  -0.2000000  -0.4000000), wk =   0.0080000
        k(  226) = (   0.5000000  -0.3000000  -0.4000000), wk =   0.0080000
        k(  227) = (  -0.5000000   0.3000000  -0.4000000), wk =   0.0080000
        k(  228) = (   0.3000000   0.2000000  -0.4000000), wk =   0.0080000
        k(  229) = (  -0.4000000   0.6000000   0.0000000), wk =   0.0080000
        k(  230) = (   0.6000000  -0.2000000   0.0000000), wk =   0.0080000
        k(  231) = (  -0.2000000  -0.4000000   0.2000000), wk =   0.0080000
        k(  232) = (  -0.4000000   0.6000000   0.2000000), wk =   0.0080000
        k(  233) = (   0.6000000  -0.2000000   0.2000000), wk =   0.0080000
        k(  234) = (  -0.6000000   0.2000000   0.2000000), wk =   0.0080000
        k(  235) = (   0.4000000  -0.6000000   0.2000000), wk =   0.0080000
        k(  236) = (  -0.2000000  -0.4000000   0.4000000), wk =   0.0080000
        k(  237) = (  -0.4000000   0.6000000   0.4000000), wk =   0.0080000
        k(  238) = (   0.6000000  -0.2000000   0.4000000), wk =   0.0080000
        k(  239) = (  -0.6000000   0.2000000   0.4000000), wk =   0.0080000
        k(  240) = (   0.4000000  -0.6000000   0.4000000), wk =   0.0080000
        k(  241) = (  -0.3000000   0.6000000   0.0000000), wk =   0.0080000
        k(  242) = (   0.6000000  -0.3000000   0.0000000), wk =   0.0080000
        k(  243) = (  -0.3000000  -0.3000000   0.2000000), wk =   0.0080000
        k(  244) = (  -0.3000000   0.6000000  -0.2000000), wk =   0.0080000
        k(  245) = (   0.3000000  -0.6000000  -0.2000000), wk =   0.0080000
        k(  246) = (   0.6000000  -0.3000000   0.2000000), wk =   0.0080000
        k(  247) = (  -0.6000000   0.3000000   0.2000000), wk =   0.0080000
        k(  248) = (  -0.3000000  -0.3000000   0.4000000), wk =   0.0080000
        k(  249) = (  -0.3000000   0.6000000  -0.4000000), wk =   0.0080000
        k(  250) = (   0.3000000  -0.6000000  -0.4000000), wk =   0.0080000
        k(  251) = (   0.6000000  -0.3000000   0.4000000), wk =   0.0080000
        k(  252) = (  -0.6000000   0.3000000   0.4000000), wk =   0.0080000

     Dense  grid:    29023 G-vectors     FFT dimensions: (  36,  36,  60)

     Smooth grid:    17993 G-vectors     FFT dimensions: (  30,  30,  48)

     Dynamical RAM for                 wfc:       0.03 MB

     Dynamical RAM for     wfc (w. buffer):       6.49 MB

     Dynamical RAM for           str. fact:       0.06 MB

     Dynamical RAM for           local pot:       0.00 MB

     Dynamical RAM for          nlocal pot:       0.07 MB

     Dynamical RAM for                qrad:       0.96 MB

     Dynamical RAM for          rho,v,vnew:       0.20 MB

     Dynamical RAM for               rhoin:       0.07 MB

     Dynamical RAM for            rho*nmix:       0.44 MB

     Dynamical RAM for           G-vectors:       0.11 MB

     Dynamical RAM for          h,s,v(r/c):       0.03 MB

     Dynamical RAM for          <psi|beta>:       0.01 MB

     Dynamical RAM for                 psi:       0.05 MB

     Dynamical RAM for                hpsi:       0.05 MB

     Dynamical RAM for                spsi:       0.05 MB

     Dynamical RAM for      wfcinit/wfcrot:       0.07 MB

     Dynamical RAM for           addusdens:       1.25 MB

     Dynamical RAM for          addusforce:       1.32 MB

     Dynamical RAM for         addusstress:       1.39 MB

     Estimated static dynamical RAM per process >       8.68 MB

     Estimated max dynamical RAM per process >      10.06 MB

     Estimated total dynamical RAM >     161.04 MB

     Check: negative core charge=   -0.000011

     Initial potential from superposition of free atoms

     starting charge   15.99942, renormalised to   16.00000
     Starting wfcs are   16 randomized atomic wfcs

     total cpu time spent up to now is        0.9 secs

     Self-consistent Calculation

     iteration #  1     ecut=    80.00 Ry     beta= 0.40
     Davidson diagonalization with overlap
     ethr =  1.00E-02,  avg # of iterations =  2.6

     total cpu time spent up to now is        2.4 secs

     total energy              =     -54.74737572 Ry
     estimated scf accuracy    <       0.38348765 Ry

     iteration #  2     ecut=    80.00 Ry     beta= 0.40
     Davidson diagonalization with overlap
     ethr =  2.40E-03,  avg # of iterations =  2.0

     total cpu time spent up to now is        3.6 secs

     total energy              =     -54.80584800 Ry
     estimated scf accuracy    <       0.02938916 Ry

     iteration #  3     ecut=    80.00 Ry     beta= 0.40
     Davidson diagonalization with overlap
     ethr =  1.84E-04,  avg # of iterations =  4.3

     total cpu time spent up to now is        4.8 secs

     total energy              =     -54.80706345 Ry
     estimated scf accuracy    <       0.00970208 Ry

     iteration #  4     ecut=    80.00 Ry     beta= 0.40
     Davidson diagonalization with overlap
     ethr =  6.06E-05,  avg # of iterations =  3.4

     total cpu time spent up to now is        5.9 secs

     total energy              =     -54.80818902 Ry
     estimated scf accuracy    <       0.00045532 Ry

     iteration #  5     ecut=    80.00 Ry     beta= 0.40
     Davidson diagonalization with overlap
     c_bands:  1 eigenvalues not converged
     c_bands:  1 eigenvalues not converged
     c_bands:  1 eigenvalues not converged
     c_bands:  1 eigenvalues not converged
     c_bands:  1 eigenvalues not converged
     c_bands:  1 eigenvalues not converged
     ethr =  2.85E-06,  avg # of iterations =  8.0

     total cpu time spent up to now is        7.9 secs

     total energy              =     -54.80829479 Ry
     estimated scf accuracy    <       0.00037463 Ry

     iteration #  6     ecut=    80.00 Ry     beta= 0.40
     Davidson diagonalization with overlap
     ethr =  2.34E-06,  avg # of iterations =  2.2

     total cpu time spent up to now is        9.0 secs

     total energy              =     -54.80817474 Ry
     estimated scf accuracy    <       0.00045780 Ry

     iteration #  7     ecut=    80.00 Ry     beta= 0.40
     Davidson diagonalization with overlap
     ethr =  2.34E-06,  avg # of iterations =  2.0

     total cpu time spent up to now is       10.2 secs

     total energy              =     -54.80840462 Ry
     estimated scf accuracy    <       0.00051998 Ry

     iteration #  8     ecut=    80.00 Ry     beta= 0.40
     Davidson diagonalization with overlap
     ethr =  2.34E-06,  avg # of iterations =  1.0

     total cpu time spent up to now is       11.1 secs

     total energy              =     -54.80822263 Ry
     estimated scf accuracy    <       0.00053618 Ry

     iteration #  9     ecut=    80.00 Ry     beta= 0.40
     Davidson diagonalization with overlap
     ethr =  2.34E-06,  avg # of iterations =  1.0

     total cpu time spent up to now is       12.0 secs

     total energy              =     -54.80822335 Ry
     estimated scf accuracy    <       0.00012241 Ry

     iteration # 10     ecut=    80.00 Ry     beta= 0.40
     Davidson diagonalization with overlap
     ethr =  7.65E-07,  avg # of iterations =  1.0

     total cpu time spent up to now is       12.9 secs

     total energy              =     -54.80820643 Ry
     estimated scf accuracy    <       0.00005792 Ry

     iteration # 11     ecut=    80.00 Ry     beta= 0.40
     Davidson diagonalization with overlap
     ethr =  3.62E-07,  avg # of iterations =  2.0

     total cpu time spent up to now is       13.9 secs

     total energy              =     -54.80821376 Ry
     estimated scf accuracy    <       0.00000630 Ry

     iteration # 12     ecut=    80.00 Ry     beta= 0.40
     Davidson diagonalization with overlap
     ethr =  3.94E-08,  avg # of iterations =  3.8

     total cpu time spent up to now is       15.3 secs

     total energy              =     -54.80821426 Ry
     estimated scf accuracy    <       0.00000240 Ry

     iteration # 13     ecut=    80.00 Ry     beta= 0.40
     Davidson diagonalization with overlap
     ethr =  1.50E-08,  avg # of iterations =  3.0

     total cpu time spent up to now is       16.5 secs

     total energy              =     -54.80821485 Ry
     estimated scf accuracy    <       0.00000004 Ry

     iteration # 14     ecut=    80.00 Ry     beta= 0.40
     Davidson diagonalization with overlap
     ethr =  2.57E-10,  avg # of iterations =  5.5

     total cpu time spent up to now is       18.3 secs

     total energy              =     -54.80821481 Ry
     estimated scf accuracy    <       0.00000032 Ry

     iteration # 15     ecut=    80.00 Ry     beta= 0.40
     Davidson diagonalization with overlap
     ethr =  2.57E-10,  avg # of iterations =  3.1

     total cpu time spent up to now is       19.6 secs

     total energy              =     -54.80821486 Ry
     estimated scf accuracy    <          5.4E-09 Ry

     iteration # 16     ecut=    80.00 Ry     beta= 0.40
     Davidson diagonalization with overlap
     ethr =  3.35E-11,  avg # of iterations =  2.0

     total cpu time spent up to now is       20.6 secs

     total energy              =     -54.80821486 Ry
     estimated scf accuracy    <          8.3E-09 Ry

     iteration # 17     ecut=    80.00 Ry     beta= 0.40
     Davidson diagonalization with overlap
     ethr =  3.35E-11,  avg # of iterations =  2.8

     total cpu time spent up to now is       21.8 secs

     total energy              =     -54.80821486 Ry
     estimated scf accuracy    <          6.2E-10 Ry

     iteration # 18     ecut=    80.00 Ry     beta= 0.40
     Davidson diagonalization with overlap
     ethr =  3.90E-12,  avg # of iterations =  2.0

     total cpu time spent up to now is       23.0 secs

     End of self-consistent calculation

          k = 0.0000 0.0000 0.0000 (  2249 PWs)   bands (ev):

    -9.7469  -6.2980  -0.5828   7.1264   7.1264   8.7037   8.9275   8.9275
    16.4337  16.7027  16.7238  16.7239

     occupation numbers 
     1.0000   1.0000   1.0000   1.0000   1.0000   0.9642   0.4632   0.4631
     0.0000   0.0000   0.0000   0.0000

          k = 0.0000 0.0000 0.1208 (  2244 PWs)   bands (ev):

    -9.5380  -6.8860   0.3812   7.2704   7.2705   7.5647   8.7182   8.7182
    16.7548  16.9745  16.9746  17.0862

     occupation numbers 
     1.0000   1.0000   1.0000   1.0000   1.0000   1.0000   0.9412   0.9411
     0.0000   0.0000   0.0000   0.0000

          k = 0.0000 0.0000 0.2417 (  2244 PWs)   bands (ev):

    -8.9263  -7.9747   2.5565   5.1528   7.6696   7.6696   8.2171   8.2171
    16.9087  17.1325  17.6440  17.6440

     occupation numbers 
     1.0000   1.0000   1.0000   1.0000   1.0000   1.0000   1.0120   1.0120
     0.0000   0.0000   0.0000   0.0000

          k = 0.0000 0.1155 0.0000 (  2247 PWs)   bands (ev):

    -9.5567  -6.1572  -0.3919   6.2472   6.7973   8.1642   8.5233   8.7350
    16.1947  16.9024  17.0772  17.4517

     occupation numbers 
     1.0000   1.0000   1.0000   1.0000   1.0000   1.0065   1.0832   0.9120
     0.0000   0.0000   0.0000   0.0000

          k = 0.0000 0.1155 0.1208 (  2256 PWs)   bands (ev):

    -9.3495  -6.7312   0.5446   6.4047   6.9494   7.3093   8.1481   8.5048
    16.3412  17.3007  17.3588  17.6650

     occupation numbers 
     1.0000   1.0000   1.0000   1.0000   1.0000   1.0000   1.0054   1.0818
     0.0000   0.0000   0.0000   0.0000

          k = 0.0000 0.1155 0.2417 (  2263 PWs)   bands (ev):

    -8.7433  -7.8023   2.6542   5.1270   6.8645   7.3732   7.5071   7.9602
    16.9530  17.4396  17.7816  18.0896

     occupation numbers 
     1.0000   1.0000   1.0000   1.0000   1.0000   1.0000   1.0000   1.0003
     0.0000   0.0000   0.0000   0.0000

          k = 0.0000 0.2309 0.0000 (  2225 PWs)   bands (ev):

    -8.9980  -5.7688   0.1672   4.3143   6.0773   6.4433   7.9767   8.2408
    15.7901  17.3338  17.8414  18.2201

     occupation numbers 
     1.0000   1.0000   1.0000   1.0000   1.0000   1.0000   1.0004   1.0154
     0.0000   0.0000   0.0000   0.0000

          k = 0.0000 0.2309 0.1208 (  2253 PWs)   bands (ev):

    -8.7966  -6.2951   0.9920   4.5276   5.9074   6.2428   7.5855   7.9757
    15.6761  17.4097  18.2074  18.3088

     occupation numbers 
     1.0000   1.0000   1.0000   1.0000   1.0000   1.0000   1.0000   1.0004
     0.0000   0.0000   0.0000   0.0000

          k = 0.0000 0.2309 0.2417 (  2258 PWs)   bands (ev):

    -8.2092  -7.3051   2.7865   4.5602   5.2689   6.4011   6.7070   7.3589
    16.1078  16.9814  18.5583  19.1171

     occupation numbers 
     1.0000   1.0000   1.0000   1.0000   1.0000   1.0000   1.0000   1.0000
     0.0000   0.0000   0.0000   0.0000

          k = 0.0000 0.3464 0.0000 (  2254 PWs)   bands (ev):

    -8.1159  -5.2705   1.0363   2.3023   4.5118   5.3590   7.0735   7.6817
    15.4137  17.3805  18.2858  18.4512

     occupation numbers 
     1.0000   1.0000   1.0000   1.0000   1.0000   1.0000   1.0000   1.0000
     0.0000   0.0000   0.0000   0.0000

          k = 0.0000 0.3464 0.1208 (  2248 PWs)   bands (ev):

    -7.9274  -5.6937   1.3453   2.8792   4.0040   5.5339   7.0590   7.3917
    15.2184  16.7672  18.4630  18.9307

     occupation numbers 
     1.0000   1.0000   1.0000   1.0000   1.0000   1.0000   1.0000   1.0000
     0.0000   0.0000   0.0000   0.0000

          k = 0.0000 0.3464 0.2417 (  2251 PWs)   bands (ev):

    -7.3829  -6.5641   2.0133   2.8982   4.5531   6.0265   6.2185   6.7239
    15.3477  16.1721  18.4229  19.4463

     occupation numbers 
     1.0000   1.0000   1.0000   1.0000   1.0000   1.0000   1.0000   1.0000
     0.0000   0.0000   0.0000   0.0000

          k = 0.0000 0.4619 0.0000 (  2260 PWs)   bands (ev):

    -7.0425  -5.0110   0.8733   2.0797   2.8990   4.8644   5.9504   7.2718
    15.1902  16.7140  18.6999  18.7001

     occupation numbers 
     1.0000   1.0000   1.0000   1.0000   1.0000   1.0000   1.0000   1.0000
     0.0000   0.0000   0.0000   0.0000

          k = 0.0000 0.4619 0.1208 (  2263 PWs)   bands (ev):

    -6.8830  -5.2431   0.5284   2.1403   3.2856   5.0444   6.3130   6.9685
    15.0819  15.9468  18.7478  19.2671

     occupation numbers 
     1.0000   1.0000   1.0000   1.0000   1.0000   1.0000   1.0000   1.0000
     0.0000   0.0000   0.0000   0.0000

          k = 0.0000 0.4619 0.2417 (  2258 PWs)   bands (ev):

    -6.4357  -5.8127   0.5844   1.2297   4.9385   5.5519   6.2213   6.2735
    14.9005  15.4978  18.0887  18.7638

     occupation numbers 
     1.0000   1.0000   1.0000   1.0000   1.0000   1.0000   1.0000   1.0000
     0.0000   0.0000   0.0000   0.0000

          k = 0.0000-0.5774 0.0000 (  2240 PWs)   bands (ev):

    -6.3319  -5.1761   0.5008   1.9860   2.8878   4.6906   5.2470   7.1241
    15.1280  16.4056  18.7250  18.7480

     occupation numbers 
     1.0000   1.0000   1.0000   1.0000   1.0000   1.0000   1.0000   1.0000
     0.0000   0.0000   0.0000   0.0000

          k = 0.0000-0.5774 0.1208 (  2252 PWs)   bands (ev):

    -6.2108  -5.2547   0.1385   1.3757   3.7475   4.8721   5.8056   6.8167
    15.2220  15.4454  19.0045  19.3453

     occupation numbers 
     1.0000   1.0000   1.0000   1.0000   1.0000   1.0000   1.0000   1.0000
     0.0000   0.0000   0.0000   0.0000

          k = 0.0000-0.5774 0.2417 (  2254 PWs)   bands (ev):

    -5.8920  -5.5136  -0.0314   0.4532   5.2414   5.3843   6.1134   6.1577
    14.7952  15.1907  18.1395  18.2195

     occupation numbers 
     1.0000   1.0000   1.0000   1.0000   1.0000   1.0000   1.0000   1.0000
     0.0000   0.0000   0.0000   0.0000

          k = 0.1000 0.1732 0.0000 (  2237 PWs)   bands (ev):

    -9.1821  -5.8917  -0.0166   5.0469   5.9375   7.1970   8.1730   8.2359
    16.3313  16.9916  17.3593  18.4665

     occupation numbers 
     1.0000   1.0000   1.0000   1.0000   1.0000   1.0000   1.0073   1.0146
     0.0000   0.0000   0.0000   0.0000

          k = 0.1000 0.1732 0.1208 (  2253 PWs)   bands (ev):

    -8.9785  -6.4349   0.8530   5.2369   5.9937   6.6857   7.7671   7.9744
    16.2261  17.2161  17.8742  18.5182

     occupation numbers 
     1.0000   1.0000   1.0000   1.0000   1.0000   1.0000   1.0000   1.0004
     0.0000   0.0000   0.0000   0.0000

          k = 0.1000 0.1732 0.2417 (  2263 PWs)   bands (ev):

    -8.3844  -7.4670   2.7855   4.8727   5.7911   6.5098   6.9413   7.3766
    16.8199  17.6385  17.9615  18.0050

     occupation numbers 
     1.0000   1.0000   1.0000   1.0000   1.0000   1.0000   1.0000   1.0000
     0.0000   0.0000   0.0000   0.0000

          k = 0.1000 0.2887 0.0000 (  2251 PWs)   bands (ev):

    -8.4591  -5.4381   0.7027   3.2752   4.7022   5.8192   7.4773   7.5198
    16.2291  17.3709  17.9918  18.6398

     occupation numbers 
     1.0000   1.0000   1.0000   1.0000   1.0000   1.0000   1.0000   1.0000
     0.0000   0.0000   0.0000   0.0000

          k = 0.1000 0.2887 0.1208 (  2246 PWs)   bands (ev):

    -8.2648  -5.9079   1.3364   3.5954   4.5675   5.5799   7.1754   7.3930
    15.9694  17.4391  18.0700  18.8226

     occupation numbers 
     1.0000   1.0000   1.0000   1.0000   1.0000   1.0000   1.0000   1.0000
     0.0000   0.0000   0.0000   0.0000

          k = 0.1000 0.2887 0.2417 (  2255 PWs)   bands (ev):

    -7.7007  -6.8426   2.5672   3.6859   4.7190   5.7515   6.3547   6.6258
    16.2043  17.1076  18.3874  18.8958

     occupation numbers 
     1.0000   1.0000   1.0000   1.0000   1.0000   1.0000   1.0000   1.0000
     0.0000   0.0000   0.0000   0.0000

          k = 0.1000 0.4041 0.0000 (  2250 PWs)   bands (ev):

    -7.4652  -5.0246   1.4736   1.7999   3.4527   4.6580   6.4667   6.9372
    15.9436  16.9413  18.6390  18.8339

     occupation numbers 
     1.0000   1.0000   1.0000   1.0000   1.0000   1.0000   1.0000   1.0000
     0.0000   0.0000   0.0000   0.0000

          k = 0.1000 0.4041 0.1208 (  2246 PWs)   bands (ev):

    -7.2910  -5.3488   1.1029   2.6861   3.2685   4.7174   6.4999   6.8125
    15.6965  16.8547  18.2856  19.1646

     occupation numbers 
     1.0000   1.0000   1.0000   1.0000   1.0000   1.0000   1.0000   1.0000
     0.0000   0.0000   0.0000   0.0000

          k = 0.1000 0.4041 0.2417 (  2251 PWs)   bands (ev):

    -6.7941  -6.0703   1.3233   2.0289   4.6324   5.2407   5.8118   6.4488
    15.6122  16.3979  18.4174  19.2402

     occupation numbers 
     1.0000   1.0000   1.0000   1.0000   1.0000   1.0000   1.0000   1.0000
     0.0000   0.0000   0.0000   0.0000

          k = 0.1000 0.5196 0.0000 (  2260 PWs)   bands (ev):

    -6.4496  -5.0469   0.6968   2.2237   2.8488   4.1548   5.4150   6.6198
    15.8860  16.2372  18.7778  19.2970

     occupation numbers 
     1.0000   1.0000   1.0000   1.0000   1.0000   1.0000   1.0000   1.0000
     0.0000   0.0000   0.0000   0.0000

          k = 0.1000 0.5196 0.1208 (  2254 PWs)   bands (ev):

    -6.3175  -5.1660   0.3593   1.6732   3.5776   4.4301   5.8536   6.3649
    15.6227  16.2289  18.6380  19.3469

     occupation numbers 
     1.0000   1.0000   1.0000   1.0000   1.0000   1.0000   1.0000   1.0000
     0.0000   0.0000   0.0000   0.0000

          k = 0.1000 0.5196 0.2417 (  2254 PWs)   bands (ev):

    -5.9613  -5.5118   0.2523   0.7698   4.5350   5.3181   5.5547   6.3699
    15.3000  15.9469  18.3274  18.7679

     occupation numbers 
     1.0000   1.0000   1.0000   1.0000   1.0000   1.0000   1.0000   1.0000
     0.0000   0.0000   0.0000   0.0000

          k = 0.2000 0.3464 0.0000 (  2245 PWs)   bands (ev):

    -7.6153  -5.0410   1.5087   2.4308   3.0501   4.8329   6.4024   6.6971
    16.2560  17.6784  18.5932  19.2954

     occupation numbers 
     1.0000   1.0000   1.0000   1.0000   1.0000   1.0000   1.0000   1.0000
     0.0000   0.0000   0.0000   0.0000

          k = 0.2000 0.3464 0.1208 (  2244 PWs)   bands (ev):

    -7.4367  -5.3983   1.4860   3.0072   3.2579   4.4626   6.0541   6.9118
    16.7366  16.8365  18.7791  19.2937

     occupation numbers 
     1.0000   1.0000   1.0000   1.0000   1.0000   1.0000   1.0000   1.0000
     0.0000   0.0000   0.0000   0.0000

          k = 0.2000 0.3464 0.2417 (  2249 PWs)   bands (ev):

    -6.9247  -6.1698   1.8438   2.5157   4.4922   4.7163   5.4566   6.4770
    16.4960  17.1329  18.9502  18.9886

     occupation numbers 
     1.0000   1.0000   1.0000   1.0000   1.0000   1.0000   1.0000   1.0000
     0.0000   0.0000   0.0000   0.0000

          k = 0.2000 0.4619 0.0000 (  2263 PWs)   bands (ev):

    -6.6010  -4.8818   1.3522   2.2220   2.7653   3.6379   5.5957   5.7365
    15.3383  18.2474  19.3472  20.0720

     occupation numbers 
     1.0000   1.0000   1.0000   1.0000   1.0000   1.0000   1.0000   1.0000
     0.0000   0.0000   0.0000   0.0000

          k = 0.2000 0.4619 0.1208 (  2254 PWs)   bands (ev):

    -6.4563  -5.0605   1.0036   1.9924   3.2550   3.8659   5.2258   6.2364
    15.8897  17.6219  18.7044  20.0189

     occupation numbers 
     1.0000   1.0000   1.0000   1.0000   1.0000   1.0000   1.0000   1.0000
     0.0000   0.0000   0.0000   0.0000

          k = 0.2000 0.4619 0.2417 (  2256 PWs)   bands (ev):

    -6.0572  -5.5219   0.9289   1.3987   3.5185   4.2635   5.5103   6.4576
    16.3171  16.9689  18.7938  19.2944

     occupation numbers 
     1.0000   1.0000   1.0000   1.0000   1.0000   1.0000   1.0000   1.0000
     0.0000   0.0000   0.0000   0.0000

          k = 0.2000 0.5774 0.0000 (  2266 PWs)   bands (ev):

    -5.9187  -5.0770   0.9055   2.3421   2.8805   3.4509   4.9524   5.4173
    14.9721  18.2599  19.8151  20.2112

     occupation numbers 
     1.0000   1.0000   1.0000   1.0000   1.0000   1.0000   1.0000   1.0000
     0.0000   0.0000   0.0000   0.0000

          k = 0.2000 0.5774 0.1208 (  2264 PWs)   bands (ev):

    -5.8193  -5.1232   0.6657   1.7280   2.7372   4.4497   4.8552   5.7540
    15.5475  18.1861  18.4158  19.7573

     occupation numbers 
     1.0000   1.0000   1.0000   1.0000   1.0000   1.0000   1.0000   1.0000
     0.0000   0.0000   0.0000   0.0000

          k = 0.2000 0.5774 0.2417 (  2254 PWs)   bands (ev):

    -5.5671  -5.2915   0.4905   0.8774   3.1771   4.0028   5.7988   6.3568
    16.1396  17.0327  18.5246  19.1304

     occupation numbers 
     1.0000   1.0000   1.0000   1.0000   1.0000   1.0000   1.0000   1.0000
     0.0000   0.0000   0.0000   0.0000

          k = 0.3000 0.5196 0.0000 (  2259 PWs)   bands (ev):

    -5.7306  -5.0498   1.2163   2.0361   2.7902   3.6839   4.5930   4.8254
    14.4969  20.0984  20.5334  20.8331

     occupation numbers 
     1.0000   1.0000   1.0000   1.0000   1.0000   1.0000   1.0000   1.0000
     0.0000   0.0000   0.0000   0.0000

          k = 0.3000 0.5196 0.1208 (  2264 PWs)   bands (ev):

    -5.6432  -5.0815   1.3328   1.4467   2.2561   4.0861   4.6858   5.5590
    15.3249  18.4898  19.4252  20.5618

     occupation numbers 
     1.0000   1.0000   1.0000   1.0000   1.0000   1.0000   1.0000   1.0000
     0.0000   0.0000   0.0000   0.0000

          k = 0.3000 0.5196 0.2417 (  2265 PWs)   bands (ev):

    -5.4280  -5.2062   0.9839   1.1321   2.3171   3.1718   5.9415   6.3246
    16.9974  17.0927  17.9563  19.6534

     occupation numbers 
     1.0000   1.0000   1.0000   1.0000   1.0000   1.0000   1.0000   1.0000
     0.0000   0.0000   0.0000   0.0000

          k =-0.1000 0.0577 0.0000 (  2247 PWs)   bands (ev):

    -9.5567  -6.1572  -0.3919   6.2472   6.7972   8.1642   8.5233   8.7349
    16.1947  16.9024  17.0773  17.4517

     occupation numbers 
     1.0000   1.0000   1.0000   1.0000   1.0000   1.0065   1.0832   0.9120
     0.0000   0.0000   0.0000   0.0000

          k = 0.1000 0.0577 0.0000 (  2247 PWs)   bands (ev):

    -9.5567  -6.1572  -0.3919   6.2472   6.7973   8.1642   8.5233   8.7350
    16.1947  16.9024  17.0772  17.4517

     occupation numbers 
     1.0000   1.0000   1.0000   1.0000   1.0000   1.0065   1.0832   0.9120
     0.0000   0.0000   0.0000   0.0000

          k = 0.0000-0.1155 0.1208 (  2256 PWs)   bands (ev):

    -9.3495  -6.7312   0.5446   6.4047   6.9494   7.3093   8.1481   8.5048
    16.3412  17.3007  17.3588  17.6650

     occupation numbers 
     1.0000   1.0000   1.0000   1.0000   1.0000   1.0000   1.0054   1.0818
     0.0000   0.0000   0.0000   0.0000

          k =-0.1000 0.0577 0.1208 (  2256 PWs)   bands (ev):

    -9.3495  -6.7312   0.5446   6.4048   6.9494   7.3093   8.1481   8.5048
    16.3412  17.3007  17.3588  17.6650

     occupation numbers 
     1.0000   1.0000   1.0000   1.0000   1.0000   1.0000   1.0054   1.0818
     0.0000   0.0000   0.0000   0.0000

          k = 0.1000 0.0577 0.1208 (  2256 PWs)   bands (ev):

    -9.3495  -6.7312   0.5446   6.4047   6.9494   7.3093   8.1481   8.5048
    16.3412  17.3007  17.3588  17.6650

     occupation numbers 
     1.0000   1.0000   1.0000   1.0000   1.0000   1.0000   1.0054   1.0818
     0.0000   0.0000   0.0000   0.0000

          k =-0.1000-0.0577 0.1208 (  2256 PWs)   bands (ev):

    -9.3495  -6.7312   0.5446   6.4047   6.9494   7.3093   8.1481   8.5048
    16.3412  17.3007  17.3588  17.6650

     occupation numbers 
     1.0000   1.0000   1.0000   1.0000   1.0000   1.0000   1.0054   1.0818
     0.0000   0.0000   0.0000   0.0000

          k = 0.1000-0.0577 0.1208 (  2256 PWs)   bands (ev):

    -9.3495  -6.7312   0.5446   6.4048   6.9494   7.3093   8.1481   8.5048
    16.3412  17.3007  17.3588  17.6650

     occupation numbers 
     1.0000   1.0000   1.0000   1.0000   1.0000   1.0000   1.0054   1.0818
     0.0000   0.0000   0.0000   0.0000

          k = 0.0000-0.1155 0.2417 (  2263 PWs)   bands (ev):

    -8.7433  -7.8023   2.6542   5.1270   6.8645   7.3732   7.5071   7.9602
    16.9530  17.4395  17.7815  18.0895

     occupation numbers 
     1.0000   1.0000   1.0000   1.0000   1.0000   1.0000   1.0000   1.0003
     0.0000   0.0000   0.0000   0.0000

          k =-0.1000 0.0577 0.2417 (  2263 PWs)   bands (ev):

    -8.7433  -7.8023   2.6542   5.1270   6.8645   7.3732   7.5071   7.9601
    16.9530  17.4396  17.7815  18.0896

     occupation numbers 
     1.0000   1.0000   1.0000   1.0000   1.0000   1.0000   1.0000   1.0003
     0.0000   0.0000   0.0000   0.0000

          k = 0.1000 0.0577 0.2417 (  2263 PWs)   bands (ev):

    -8.7433  -7.8023   2.6542   5.1270   6.8645   7.3732   7.5071   7.9602
    16.9530  17.4396  17.7816  18.0897

     occupation numbers 
     1.0000   1.0000   1.0000   1.0000   1.0000   1.0000   1.0000   1.0003
     0.0000   0.0000   0.0000   0.0000

          k =-0.1000-0.0577 0.2417 (  2263 PWs)   bands (ev):

    -8.7433  -7.8023   2.6542   5.1270   6.8645   7.3732   7.5071   7.9602
    16.9530  17.4396  17.7815  18.0895

     occupation numbers 
     1.0000   1.0000   1.0000   1.0000   1.0000   1.0000   1.0000   1.0003
     0.0000   0.0000   0.0000   0.0000

          k = 0.1000-0.0577 0.2417 (  2263 PWs)   bands (ev):

    -8.7433  -7.8023   2.6542   5.1270   6.8645   7.3732   7.5071   7.9601
    16.9530  17.4396  17.7815  18.0897

     occupation numbers 
     1.0000   1.0000   1.0000   1.0000   1.0000   1.0000   1.0000   1.0003
     0.0000   0.0000   0.0000   0.0000

          k =-0.2000 0.1155 0.0000 (  2225 PWs)   bands (ev):

    -8.9980  -5.7688   0.1672   4.3144   6.0773   6.4433   7.9767   8.2408
    15.7901  17.3338  17.8414  18.2201

     occupation numbers 
     1.0000   1.0000   1.0000   1.0000   1.0000   1.0000   1.0004   1.0154
     0.0000   0.0000   0.0000   0.0000

          k = 0.2000 0.1155 0.0000 (  2225 PWs)   bands (ev):

    -8.9980  -5.7688   0.1672   4.3143   6.0773   6.4433   7.9767   8.2408
    15.7901  17.3338  17.8414  18.2201

     occupation numbers 
     1.0000   1.0000   1.0000   1.0000   1.0000   1.0000   1.0004   1.0154
     0.0000   0.0000   0.0000   0.0000

          k = 0.0000-0.2309 0.1208 (  2253 PWs)   bands (ev):

    -8.7966  -6.2951   0.9920   4.5276   5.9074   6.2428   7.5855   7.9757
    15.6761  17.4097  18.2074  18.3088

     occupation numbers 
     1.0000   1.0000   1.0000   1.0000   1.0000   1.0000   1.0000   1.0004
     0.0000   0.0000   0.0000   0.0000

          k =-0.2000 0.1155 0.1208 (  2253 PWs)   bands (ev):

    -8.7966  -6.2951   0.9920   4.5277   5.9074   6.2428   7.5855   7.9756
    15.6761  17.4096  18.2074  18.3088

     occupation numbers 
     1.0000   1.0000   1.0000   1.0000   1.0000   1.0000   1.0000   1.0004
     0.0000   0.0000   0.0000   0.0000

          k = 0.2000 0.1155 0.1208 (  2253 PWs)   bands (ev):

    -8.7966  -6.2951   0.9920   4.5276   5.9074   6.2428   7.5855   7.9757
    15.6761  17.4097  18.2074  18.3088

     occupation numbers 
     1.0000   1.0000   1.0000   1.0000   1.0000   1.0000   1.0000   1.0004
     0.0000   0.0000   0.0000   0.0000

          k =-0.2000-0.1155 0.1208 (  2253 PWs)   bands (ev):

    -8.7966  -6.2951   0.9920   4.5276   5.9074   6.2428   7.5855   7.9757
    15.6761  17.4097  18.2074  18.3088

     occupation numbers 
     1.0000   1.0000   1.0000   1.0000   1.0000   1.0000   1.0000   1.0004
     0.0000   0.0000   0.0000   0.0000

          k = 0.2000-0.1155 0.1208 (  2253 PWs)   bands (ev):

    -8.7966  -6.2951   0.9920   4.5277   5.9074   6.2428   7.5855   7.9756
    15.6761  17.4096  18.2074  18.3088

     occupation numbers 
     1.0000   1.0000   1.0000   1.0000   1.0000   1.0000   1.0000   1.0004
     0.0000   0.0000   0.0000   0.0000

          k = 0.0000-0.2309 0.2417 (  2258 PWs)   bands (ev):

    -8.2092  -7.3051   2.7865   4.5602   5.2689   6.4011   6.7070   7.3589
    16.1078  16.9814  18.5583  19.1156

     occupation numbers 
     1.0000   1.0000   1.0000   1.0000   1.0000   1.0000   1.0000   1.0000
     0.0000   0.0000   0.0000   0.0000

          k =-0.2000 0.1155 0.2417 (  2258 PWs)   bands (ev):

    -8.2092  -7.3051   2.7865   4.5603   5.2689   6.4011   6.7070   7.3588
    16.1078  16.9813  18.5583  19.1154

     occupation numbers 
     1.0000   1.0000   1.0000   1.0000   1.0000   1.0000   1.0000   1.0000
     0.0000   0.0000   0.0000   0.0000

          k = 0.2000 0.1155 0.2417 (  2258 PWs)   bands (ev):

    -8.2092  -7.3051   2.7865   4.5602   5.2689   6.4011   6.7070   7.3589
    16.1078  16.9814  18.5585  19.1160

     occupation numbers 
     1.0000   1.0000   1.0000   1.0000   1.0000   1.0000   1.0000   1.0000
     0.0000   0.0000   0.0000   0.0000

          k =-0.2000-0.1155 0.2417 (  2258 PWs)   bands (ev):

    -8.2092  -7.3051   2.7865   4.5602   5.2689   6.4011   6.7070   7.3589
    16.1078  16.9814  18.5584  19.1161

     occupation numbers 
     1.0000   1.0000   1.0000   1.0000   1.0000   1.0000   1.0000   1.0000
     0.0000   0.0000   0.0000   0.0000

          k = 0.2000-0.1155 0.2417 (  2258 PWs)   bands (ev):

    -8.2092  -7.3051   2.7865   4.5603   5.2689   6.4011   6.7070   7.3588
    16.1078  16.9813  18.5584  19.1181

     occupation numbers 
     1.0000   1.0000   1.0000   1.0000   1.0000   1.0000   1.0000   1.0000
     0.0000   0.0000   0.0000   0.0000

          k =-0.3000 0.1732 0.0000 (  2254 PWs)   bands (ev):

    -8.1159  -5.2705   1.0363   2.3023   4.5118   5.3590   7.0735   7.6816
    15.4137  17.3805  18.2858  18.4512

     occupation numbers 
     1.0000   1.0000   1.0000   1.0000   1.0000   1.0000   1.0000   1.0000
     0.0000   0.0000   0.0000   0.0000

          k = 0.3000 0.1732 0.0000 (  2254 PWs)   bands (ev):

    -8.1159  -5.2705   1.0363   2.3023   4.5118   5.3590   7.0735   7.6817
    15.4137  17.3805  18.2858  18.4512

     occupation numbers 
     1.0000   1.0000   1.0000   1.0000   1.0000   1.0000   1.0000   1.0000
     0.0000   0.0000   0.0000   0.0000

          k = 0.0000-0.3464 0.1208 (  2248 PWs)   bands (ev):

    -7.9274  -5.6937   1.3453   2.8792   4.0040   5.5339   7.0590   7.3917
    15.2184  16.7672  18.4630  18.9307

     occupation numbers 
     1.0000   1.0000   1.0000   1.0000   1.0000   1.0000   1.0000   1.0000
     0.0000   0.0000   0.0000   0.0000

          k =-0.3000 0.1732 0.1208 (  2248 PWs)   bands (ev):

    -7.9274  -5.6937   1.3453   2.8792   4.0040   5.5339   7.0590   7.3916
    15.2184  16.7672  18.4630  18.9307

     occupation numbers 
     1.0000   1.0000   1.0000   1.0000   1.0000   1.0000   1.0000   1.0000
     0.0000   0.0000   0.0000   0.0000

          k = 0.3000 0.1732 0.1208 (  2248 PWs)   bands (ev):

    -7.9274  -5.6937   1.3453   2.8792   4.0040   5.5339   7.0590   7.3917
    15.2184  16.7672  18.4630  18.9307

     occupation numbers 
     1.0000   1.0000   1.0000   1.0000   1.0000   1.0000   1.0000   1.0000
     0.0000   0.0000   0.0000   0.0000

          k =-0.3000-0.1732 0.1208 (  2248 PWs)   bands (ev):

    -7.9274  -5.6937   1.3453   2.8792   4.0040   5.5339   7.0590   7.3917
    15.2184  16.7672  18.4630  18.9307

     occupation numbers 
     1.0000   1.0000   1.0000   1.0000   1.0000   1.0000   1.0000   1.0000
     0.0000   0.0000   0.0000   0.0000

          k = 0.3000-0.1732 0.1208 (  2248 PWs)   bands (ev):

    -7.9274  -5.6937   1.3453   2.8792   4.0040   5.5339   7.0590   7.3916
    15.2184  16.7672  18.4630  18.9307

     occupation numbers 
     1.0000   1.0000   1.0000   1.0000   1.0000   1.0000   1.0000   1.0000
     0.0000   0.0000   0.0000   0.0000

          k = 0.0000-0.3464 0.2417 (  2251 PWs)   bands (ev):

    -7.3829  -6.5641   2.0133   2.8982   4.5531   6.0265   6.2185   6.7239
    15.3477  16.1721  18.4229  19.4463

     occupation numbers 
     1.0000   1.0000   1.0000   1.0000   1.0000   1.0000   1.0000   1.0000
     0.0000   0.0000   0.0000   0.0000

          k =-0.3000 0.1732 0.2417 (  2251 PWs)   bands (ev):

    -7.3829  -6.5641   2.0133   2.8982   4.5531   6.0264   6.2185   6.7239
    15.3477  16.1721  18.4229  19.4464

     occupation numbers 
     1.0000   1.0000   1.0000   1.0000   1.0000   1.0000   1.0000   1.0000
     0.0000   0.0000   0.0000   0.0000

          k = 0.3000 0.1732 0.2417 (  2251 PWs)   bands (ev):

    -7.3829  -6.5641   2.0133   2.8982   4.5531   6.0265   6.2185   6.7239
    15.3477  16.1721  18.4229  19.4464

     occupation numbers 
     1.0000   1.0000   1.0000   1.0000   1.0000   1.0000   1.0000   1.0000
     0.0000   0.0000   0.0000   0.0000

          k =-0.3000-0.1732 0.2417 (  2251 PWs)   bands (ev):

    -7.3829  -6.5641   2.0133   2.8982   4.5531   6.0265   6.2185   6.7239
    15.3477  16.1721  18.4229  19.4464

     occupation numbers 
     1.0000   1.0000   1.0000   1.0000   1.0000   1.0000   1.0000   1.0000
     0.0000   0.0000   0.0000   0.0000

          k = 0.3000-0.1732 0.2417 (  2251 PWs)   bands (ev):

    -7.3829  -6.5641   2.0133   2.8982   4.5531   6.0264   6.2185   6.7239
    15.3477  16.1721  18.4229  19.4464

     occupation numbers 
     1.0000   1.0000   1.0000   1.0000   1.0000   1.0000   1.0000   1.0000
     0.0000   0.0000   0.0000   0.0000

          k =-0.4000 0.2309 0.0000 (  2260 PWs)   bands (ev):

    -7.0425  -5.0110   0.8733   2.0797   2.8990   4.8644   5.9505   7.2718
    15.1902  16.7140  18.6999  18.7001

     occupation numbers 
     1.0000   1.0000   1.0000   1.0000   1.0000   1.0000   1.0000   1.0000
     0.0000   0.0000   0.0000   0.0000

          k = 0.4000 0.2309 0.0000 (  2260 PWs)   bands (ev):

    -7.0425  -5.0110   0.8733   2.0797   2.8990   4.8644   5.9504   7.2718
    15.1902  16.7140  18.6999  18.7001

     occupation numbers 
     1.0000   1.0000   1.0000   1.0000   1.0000   1.0000   1.0000   1.0000
     0.0000   0.0000   0.0000   0.0000

          k = 0.0000-0.4619 0.1208 (  2263 PWs)   bands (ev):

    -6.8830  -5.2431   0.5284   2.1403   3.2856   5.0444   6.3130   6.9685
    15.0819  15.9468  18.7478  19.2671

     occupation numbers 
     1.0000   1.0000   1.0000   1.0000   1.0000   1.0000   1.0000   1.0000
     0.0000   0.0000   0.0000   0.0000

          k =-0.4000 0.2309 0.1208 (  2263 PWs)   bands (ev):

    -6.8830  -5.2431   0.5284   2.1404   3.2856   5.0443   6.3130   6.9685
    15.0819  15.9468  18.7478  19.2671

     occupation numbers 
     1.0000   1.0000   1.0000   1.0000   1.0000   1.0000   1.0000   1.0000
     0.0000   0.0000   0.0000   0.0000

          k = 0.4000 0.2309 0.1208 (  2263 PWs)   bands (ev):

    -6.8830  -5.2431   0.5284   2.1403   3.2856   5.0444   6.3130   6.9685
    15.0819  15.9468  18.7478  19.2671

     occupation numbers 
     1.0000   1.0000   1.0000   1.0000   1.0000   1.0000   1.0000   1.0000
     0.0000   0.0000   0.0000   0.0000

          k =-0.4000-0.2309 0.1208 (  2263 PWs)   bands (ev):

    -6.8830  -5.2431   0.5284   2.1403   3.2856   5.0444   6.3130   6.9685
    15.0819  15.9468  18.7478  19.2671

     occupation numbers 
     1.0000   1.0000   1.0000   1.0000   1.0000   1.0000   1.0000   1.0000
     0.0000   0.0000   0.0000   0.0000

          k = 0.4000-0.2309 0.1208 (  2263 PWs)   bands (ev):

    -6.8830  -5.2431   0.5284   2.1404   3.2856   5.0443   6.3130   6.9685
    15.0819  15.9468  18.7478  19.2671

     occupation numbers 
     1.0000   1.0000   1.0000   1.0000   1.0000   1.0000   1.0000   1.0000
     0.0000   0.0000   0.0000   0.0000

          k = 0.0000-0.4619 0.2417 (  2258 PWs)   bands (ev):

    -6.4357  -5.8127   0.5844   1.2297   4.9385   5.5519   6.2213   6.2735
    14.9005  15.4978  18.0887  18.7638

     occupation numbers 
     1.0000   1.0000   1.0000   1.0000   1.0000   1.0000   1.0000   1.0000
     0.0000   0.0000   0.0000   0.0000

          k =-0.4000 0.2309 0.2417 (  2258 PWs)   bands (ev):

    -6.4357  -5.8127   0.5844   1.2298   4.9384   5.5519   6.2213   6.2735
    14.9005  15.4978  18.0887  18.7638

     occupation numbers 
     1.0000   1.0000   1.0000   1.0000   1.0000   1.0000   1.0000   1.0000
     0.0000   0.0000   0.0000   0.0000

          k = 0.4000 0.2309 0.2417 (  2258 PWs)   bands (ev):

    -6.4357  -5.8127   0.5844   1.2297   4.9385   5.5519   6.2213   6.2735
    14.9005  15.4978  18.0887  18.7638

     occupation numbers 
     1.0000   1.0000   1.0000   1.0000   1.0000   1.0000   1.0000   1.0000
     0.0000   0.0000   0.0000   0.0000

          k =-0.4000-0.2309 0.2417 (  2258 PWs)   bands (ev):

    -6.4357  -5.8127   0.5844   1.2297   4.9385   5.5519   6.2213   6.2735
    14.9005  15.4978  18.0887  18.7638

     occupation numbers 
     1.0000   1.0000   1.0000   1.0000   1.0000   1.0000   1.0000   1.0000
     0.0000   0.0000   0.0000   0.0000

          k = 0.4000-0.2309 0.2417 (  2258 PWs)   bands (ev):

    -6.4357  -5.8127   0.5844   1.2298   4.9384   5.5519   6.2213   6.2735
    14.9005  15.4978  18.0887  18.7638

     occupation numbers 
     1.0000   1.0000   1.0000   1.0000   1.0000   1.0000   1.0000   1.0000
     0.0000   0.0000   0.0000   0.0000

          k = 0.5000-0.2887 0.0000 (  2240 PWs)   bands (ev):

[...]

          k =-0.2000 0.4619-0.2417 (  2256 PWs)   bands (ev):

    -6.0572  -5.5219   0.9289   1.3987   3.5185   4.2635   5.5103   6.4577
    16.3171  16.9689  18.7938  19.2944

     occupation numbers 
     1.0000   1.0000   1.0000   1.0000   1.0000   1.0000   1.0000   1.0000
     0.0000   0.0000   0.0000   0.0000

          k = 0.2000-0.4619-0.2417 (  2256 PWs)   bands (ev):

    -6.0572  -5.5218   0.9289   1.3987   3.5185   4.2635   5.5103   6.4577
    16.3171  16.9689  18.7938  19.2944

     occupation numbers 
     1.0000   1.0000   1.0000   1.0000   1.0000   1.0000   1.0000   1.0000
     0.0000   0.0000   0.0000   0.0000

          k =-0.3000 0.4041 0.2417 (  2256 PWs)   bands (ev):

    -6.0572  -5.5218   0.9290   1.3987   3.5185   4.2635   5.5103   6.4577
    16.3171  16.9690  18.7938  19.2944

     occupation numbers 
     1.0000   1.0000   1.0000   1.0000   1.0000   1.0000   1.0000   1.0000
     0.0000   0.0000   0.0000   0.0000

          k = 0.5000 0.0577 0.2417 (  2256 PWs)   bands (ev):

    -6.0572  -5.5219   0.9289   1.3987   3.5185   4.2635   5.5103   6.4577
    16.3171  16.9689  18.7938  19.2944

     occupation numbers 
     1.0000   1.0000   1.0000   1.0000   1.0000   1.0000   1.0000   1.0000
     0.0000   0.0000   0.0000   0.0000

          k =-0.5000-0.0577 0.2417 (  2256 PWs)   bands (ev):

    -6.0572  -5.5218   0.9289   1.3987   3.5185   4.2635   5.5103   6.4577
    16.3171  16.9689  18.7938  19.2944

     occupation numbers 
     1.0000   1.0000   1.0000   1.0000   1.0000   1.0000   1.0000   1.0000
     0.0000   0.0000   0.0000   0.0000

          k = 0.3000-0.4041 0.2417 (  2256 PWs)   bands (ev):

    -6.0572  -5.5218   0.9290   1.3987   3.5185   4.2635   5.5103   6.4577
    16.3171  16.9690  18.7938  19.2944

     occupation numbers 
     1.0000   1.0000   1.0000   1.0000   1.0000   1.0000   1.0000   1.0000
     0.0000   0.0000   0.0000   0.0000

          k =-0.3000-0.4041-0.2417 (  2256 PWs)   bands (ev):

    -6.0572  -5.5219   0.9289   1.3987   3.5185   4.2635   5.5103   6.4576
    16.3171  16.9690  18.7938  19.2944

     occupation numbers 
     1.0000   1.0000   1.0000   1.0000   1.0000   1.0000   1.0000   1.0000
     0.0000   0.0000   0.0000   0.0000

          k = 0.5000-0.0577-0.2417 (  2256 PWs)   bands (ev):

    -6.0572  -5.5218   0.9289   1.3987   3.5185   4.2635   5.5103   6.4577
    16.3171  16.9690  18.7938  19.2944

     occupation numbers 
     1.0000   1.0000   1.0000   1.0000   1.0000   1.0000   1.0000   1.0000
     0.0000   0.0000   0.0000   0.0000

          k =-0.5000 0.0577-0.2417 (  2256 PWs)   bands (ev):

    -6.0572  -5.5219   0.9290   1.3987   3.5185   4.2635   5.5103   6.4577
    16.3171  16.9690  18.7938  19.2944

     occupation numbers 
     1.0000   1.0000   1.0000   1.0000   1.0000   1.0000   1.0000   1.0000
     0.0000   0.0000   0.0000   0.0000

          k = 0.3000 0.4041-0.2417 (  2256 PWs)   bands (ev):

    -6.0572  -5.5218   0.9289   1.3987   3.5185   4.2635   5.5103   6.4576
    16.3171  16.9689  18.7938  19.2944

     occupation numbers 
     1.0000   1.0000   1.0000   1.0000   1.0000   1.0000   1.0000   1.0000
     0.0000   0.0000   0.0000   0.0000

          k =-0.4000 0.4619 0.0000 (  2266 PWs)   bands (ev):

    -5.9188  -5.0770   0.9054   2.3421   2.8804   3.4509   4.9524   5.4173
    14.9721  18.2599  19.8151  20.2112

     occupation numbers 
     1.0000   1.0000   1.0000   1.0000   1.0000   1.0000   1.0000   1.0000
     0.0000   0.0000   0.0000   0.0000

          k = 0.6000 0.1155 0.0000 (  2266 PWs)   bands (ev):

    -5.9187  -5.0770   0.9055   2.3421   2.8805   3.4509   4.9524   5.4173
    14.9721  18.2599  19.8151  20.2112

     occupation numbers 
     1.0000   1.0000   1.0000   1.0000   1.0000   1.0000   1.0000   1.0000
     0.0000   0.0000   0.0000   0.0000

          k =-0.2000-0.5774 0.1208 (  2264 PWs)   bands (ev):

    -5.8193  -5.1232   0.6657   1.7280   2.7372   4.4497   4.8552   5.7540
    15.5475  18.1861  18.4158  19.7573

     occupation numbers 
     1.0000   1.0000   1.0000   1.0000   1.0000   1.0000   1.0000   1.0000
     0.0000   0.0000   0.0000   0.0000

          k =-0.4000 0.4619 0.1208 (  2264 PWs)   bands (ev):

    -5.8193  -5.1232   0.6657   1.7280   2.7372   4.4497   4.8552   5.7540
    15.5474  18.1861  18.4158  19.7573

     occupation numbers 
     1.0000   1.0000   1.0000   1.0000   1.0000   1.0000   1.0000   1.0000
     0.0000   0.0000   0.0000   0.0000

          k = 0.6000 0.1155 0.1208 (  2264 PWs)   bands (ev):

    -5.8193  -5.1232   0.6657   1.7280   2.7372   4.4497   4.8552   5.7540
    15.5475  18.1861  18.4158  19.7573

     occupation numbers 
     1.0000   1.0000   1.0000   1.0000   1.0000   1.0000   1.0000   1.0000
     0.0000   0.0000   0.0000   0.0000

          k =-0.6000-0.1155 0.1208 (  2264 PWs)   bands (ev):

    -5.8193  -5.1232   0.6657   1.7280   2.7372   4.4497   4.8552   5.7540
    15.5475  18.1861  18.4158  19.7573

     occupation numbers 
     1.0000   1.0000   1.0000   1.0000   1.0000   1.0000   1.0000   1.0000
     0.0000   0.0000   0.0000   0.0000

          k = 0.4000-0.4619 0.1208 (  2264 PWs)   bands (ev):

    -5.8193  -5.1232   0.6657   1.7280   2.7372   4.4497   4.8552   5.7540
    15.5474  18.1861  18.4158  19.7573

     occupation numbers 
     1.0000   1.0000   1.0000   1.0000   1.0000   1.0000   1.0000   1.0000
     0.0000   0.0000   0.0000   0.0000

          k =-0.2000-0.5774 0.2417 (  2254 PWs)   bands (ev):

    -5.5671  -5.2915   0.4905   0.8774   3.1771   4.0028   5.7988   6.3568
    16.1396  17.0327  18.5246  19.1304

     occupation numbers 
     1.0000   1.0000   1.0000   1.0000   1.0000   1.0000   1.0000   1.0000
     0.0000   0.0000   0.0000   0.0000

          k =-0.4000 0.4619 0.2417 (  2254 PWs)   bands (ev):

    -5.5671  -5.2915   0.4905   0.8774   3.1771   4.0028   5.7988   6.3568
    16.1396  17.0327  18.5246  19.1304

     occupation numbers 
     1.0000   1.0000   1.0000   1.0000   1.0000   1.0000   1.0000   1.0000
     0.0000   0.0000   0.0000   0.0000

          k = 0.6000 0.1155 0.2417 (  2254 PWs)   bands (ev):

    -5.5671  -5.2915   0.4905   0.8774   3.1771   4.0028   5.7988   6.3568
    16.1396  17.0327  18.5246  19.1304

     occupation numbers 
     1.0000   1.0000   1.0000   1.0000   1.0000   1.0000   1.0000   1.0000
     0.0000   0.0000   0.0000   0.0000

          k =-0.6000-0.1155 0.2417 (  2254 PWs)   bands (ev):

    -5.5671  -5.2915   0.4905   0.8774   3.1771   4.0028   5.7988   6.3568
    16.1396  17.0327  18.5246  19.1304

     occupation numbers 
     1.0000   1.0000   1.0000   1.0000   1.0000   1.0000   1.0000   1.0000
     0.0000   0.0000   0.0000   0.0000

          k = 0.4000-0.4619 0.2417 (  2254 PWs)   bands (ev):

    -5.5671  -5.2915   0.4905   0.8774   3.1771   4.0028   5.7988   6.3568
    16.1396  17.0327  18.5246  19.1304

     occupation numbers 
     1.0000   1.0000   1.0000   1.0000   1.0000   1.0000   1.0000   1.0000
     0.0000   0.0000   0.0000   0.0000

          k =-0.3000 0.5196 0.0000 (  2259 PWs)   bands (ev):

    -5.7306  -5.0498   1.2163   2.0361   2.7902   3.6839   4.5930   4.8255
    14.4969  20.0984  20.5333  20.8328

     occupation numbers 
     1.0000   1.0000   1.0000   1.0000   1.0000   1.0000   1.0000   1.0000
     0.0000   0.0000   0.0000   0.0000

          k = 0.6000 0.0000 0.0000 (  2259 PWs)   bands (ev):

    -5.7306  -5.0498   1.2163   2.0361   2.7902   3.6839   4.5930   4.8255
    14.4969  20.0984  20.5334  20.8343

     occupation numbers 
     1.0000   1.0000   1.0000   1.0000   1.0000   1.0000   1.0000   1.0000
     0.0000   0.0000   0.0000   0.0000

          k =-0.3000-0.5196 0.1208 (  2264 PWs)   bands (ev):

    -5.6432  -5.0815   1.3328   1.4466   2.2561   4.0861   4.6858   5.5590
    15.3249  18.4898  19.4252  20.5618

     occupation numbers 
     1.0000   1.0000   1.0000   1.0000   1.0000   1.0000   1.0000   1.0000
     0.0000   0.0000   0.0000   0.0000

          k =-0.3000 0.5196-0.1208 (  2264 PWs)   bands (ev):

    -5.6432  -5.0815   1.3328   1.4467   2.2561   4.0861   4.6858   5.5590
    15.3249  18.4898  19.4252  20.5615

     occupation numbers 
     1.0000   1.0000   1.0000   1.0000   1.0000   1.0000   1.0000   1.0000
     0.0000   0.0000   0.0000   0.0000

          k = 0.3000-0.5196-0.1208 (  2264 PWs)   bands (ev):

    -5.6432  -5.0815   1.3328   1.4467   2.2561   4.0861   4.6858   5.5590
    15.3249  18.4898  19.4252  20.5616

     occupation numbers 
     1.0000   1.0000   1.0000   1.0000   1.0000   1.0000   1.0000   1.0000
     0.0000   0.0000   0.0000   0.0000

          k = 0.6000 0.0000 0.1208 (  2264 PWs)   bands (ev):

    -5.6432  -5.0815   1.3328   1.4467   2.2561   4.0861   4.6858   5.5590
    15.3249  18.4898  19.4252  20.5616

     occupation numbers 
     1.0000   1.0000   1.0000   1.0000   1.0000   1.0000   1.0000   1.0000
     0.0000   0.0000   0.0000   0.0000

          k =-0.6000-0.0000 0.1208 (  2264 PWs)   bands (ev):

    -5.6432  -5.0815   1.3328   1.4467   2.2561   4.0861   4.6858   5.5590
    15.3249  18.4898  19.4252  20.5616

     occupation numbers 
     1.0000   1.0000   1.0000   1.0000   1.0000   1.0000   1.0000   1.0000
     0.0000   0.0000   0.0000   0.0000

          k =-0.3000-0.5196 0.2417 (  2265 PWs)   bands (ev):

    -5.4280  -5.2062   0.9839   1.1321   2.3171   3.1718   5.9415   6.3246
    16.9974  17.0927  17.9563  19.6534

     occupation numbers 
     1.0000   1.0000   1.0000   1.0000   1.0000   1.0000   1.0000   1.0000
     0.0000   0.0000   0.0000   0.0000

          k =-0.3000 0.5196-0.2417 (  2265 PWs)   bands (ev):

    -5.4280  -5.2062   0.9839   1.1321   2.3171   3.1718   5.9415   6.3246
    16.9974  17.0927  17.9563  19.6534

     occupation numbers 
     1.0000   1.0000   1.0000   1.0000   1.0000   1.0000   1.0000   1.0000
     0.0000   0.0000   0.0000   0.0000

          k = 0.3000-0.5196-0.2417 (  2265 PWs)   bands (ev):

    -5.4280  -5.2062   0.9839   1.1321   2.3171   3.1718   5.9415   6.3246
    16.9974  17.0927  17.9563  19.6534

     occupation numbers 
     1.0000   1.0000   1.0000   1.0000   1.0000   1.0000   1.0000   1.0000
     0.0000   0.0000   0.0000   0.0000

          k = 0.6000 0.0000 0.2417 (  2265 PWs)   bands (ev):

    -5.4280  -5.2062   0.9839   1.1321   2.3171   3.1718   5.9415   6.3246
    16.9974  17.0927  17.9563  19.6534

     occupation numbers 
     1.0000   1.0000   1.0000   1.0000   1.0000   1.0000   1.0000   1.0000
     0.0000   0.0000   0.0000   0.0000

          k =-0.6000-0.0000 0.2417 (  2265 PWs)   bands (ev):

    -5.4280  -5.2062   0.9839   1.1321   2.3171   3.1718   5.9415   6.3246
    16.9974  17.0927  17.9563  19.6534

     occupation numbers 
     1.0000   1.0000   1.0000   1.0000   1.0000   1.0000   1.0000   1.0000
     0.0000   0.0000   0.0000   0.0000

     the Fermi energy is     8.9542 ev

!    total energy              =     -54.80821486 Ry
     estimated scf accuracy    <          4.1E-11 Ry
     smearing contrib. (-TS)   =       0.00035650 Ry
     internal energy E=F+TS    =     -54.80857136 Ry

     The total energy is F=E-TS. E is the sum of the following terms:
     one-electron contribution =       5.60511095 Ry
     hartree contribution      =       7.83890789 Ry
     xc contribution           =     -18.31996651 Ry
     ewald contribution        =     -49.93262370 Ry

     convergence has been achieved in  18 iterations

     Forces acting on atoms (cartesian axes, Ry/au):

     atom    1 type  1   force =    -0.00000420   -0.00000102    0.00390494
     atom    2 type  1   force =    -0.00000744   -0.00000161    0.00390479
     atom    3 type  2   force =     0.00000705    0.00000060   -0.00390482
     atom    4 type  2   force =     0.00000459    0.00000203   -0.00390491
     The non-local contrib.  to forces
     atom    1 type  1   force =    -0.00000040   -0.00000152   -0.00970707
     atom    2 type  1   force =    -0.00000569    0.00000016   -0.00970669
     atom    3 type  2   force =    -0.00000275   -0.00000005   -0.02027543
     atom    4 type  2   force =    -0.00000090   -0.00000075   -0.02027585
     The ionic contribution  to forces
     atom    1 type  1   force =     0.00000938   -0.00000542   -0.12578719
     atom    2 type  1   force =    -0.00000938    0.00000542   -0.12578719
     atom    3 type  2   force =     0.00000985   -0.00000569    0.12578719
     atom    4 type  2   force =    -0.00000985    0.00000569    0.12578719
     The local contribution  to forces
     atom    1 type  1   force =    -0.00000720    0.00000638    0.13878052
     atom    2 type  1   force =     0.00001412   -0.00000486    0.13878186
     atom    3 type  2   force =    -0.00000686    0.00000478   -0.10953716
     atom    4 type  2   force =     0.00000826   -0.00000443   -0.10953944
     The core correction contribution to forces
     atom    1 type  1   force =    -0.00001286   -0.00000203    0.00062079
     atom    2 type  1   force =    -0.00001341   -0.00000388    0.00062076
     atom    3 type  2   force =     0.00000003    0.00000004    0.00012555
     atom    4 type  2   force =     0.00000008   -0.00000001    0.00012555
     The Hubbard contrib.    to forces
     atom    1 type  1   force =     0.00000000    0.00000000    0.00000000
     atom    2 type  1   force =     0.00000000    0.00000000    0.00000000
     atom    3 type  2   force =     0.00000000    0.00000000    0.00000000
     atom    4 type  2   force =     0.00000000    0.00000000    0.00000000
     The SCF correction term to forces
     atom    1 type  1   force =    -0.00000001    0.00000001    0.00000108
     atom    2 type  1   force =     0.00000003   -0.00000000   -0.00000075
     atom    3 type  2   force =    -0.00000011   -0.00000003   -0.00000177
     atom    4 type  2   force =     0.00000010   -0.00000001    0.00000083

     Total force =     0.007810     Total SCF correction =     0.000002


     Computing stress (Cartesian axis) and pressure

          total   stress  (Ry/bohr**3)                   (kbar)     P=     -420.27
  -0.00283294  -0.00000001  -0.00000002         -416.74       -0.00       -0.00
  -0.00000001  -0.00283294  -0.00000000           -0.00     -416.74       -0.00
  -0.00000002  -0.00000000  -0.00290487           -0.00       -0.00     -427.32

     kinetic stress (kbar)  18571.88     -0.00     -0.00
                               -0.00  18571.88     -0.00
                               -0.00     -0.00  18511.50

     local   stress (kbar)  -1557.47     -0.05     -0.00
                               -0.05  -1557.53     -0.00
                               -0.00     -0.00  -1847.85

     nonloc. stress (kbar)  -2262.89      0.00      0.00
                                0.00  -2262.89      0.00
                                0.00      0.00  -2239.29

     hartree stress (kbar)   2025.51      0.01      0.00
                                0.01   2025.52      0.00
                                0.00      0.00   2131.40

     exc-cor stress (kbar)   -957.13      0.00     -0.00
                                0.00   -957.13     -0.00
                               -0.00     -0.00   -956.05

     corecor stress (kbar)  -3040.75     -0.00     -0.00
                               -0.00  -3040.75     -0.00
                               -0.00     -0.00  -3037.72

     ewald   stress (kbar) -13195.89      0.04      0.00
                                0.04 -13195.84      0.00
                                0.00      0.00 -12989.31

     hubbard stress (kbar)      0.00      0.00      0.00
                                0.00      0.00      0.00
                                0.00      0.00      0.00

     DFT-D   stress (kbar)      0.00      0.00      0.00
                                0.00      0.00      0.00
                                0.00      0.00      0.00

     XDM     stress (kbar)      0.00      0.00      0.00
                                0.00      0.00      0.00
                                0.00      0.00      0.00

     dft-nl  stress (kbar)      0.00      0.00      0.00
                                0.00      0.00      0.00
                                0.00      0.00      0.00

     TS-vdW  stress (kbar)      0.00      0.00      0.00
                                0.00      0.00      0.00
                                0.00      0.00      0.00



     init_run     :      0.56s CPU      0.71s WALL (       1 calls)
     electrons    :     20.47s CPU     22.06s WALL (       1 calls)
     forces       :      0.12s CPU      0.12s WALL (       1 calls)
     stress       :      0.36s CPU      0.36s WALL (       1 calls)

     Called by init_run:
     wfcinit      :      0.48s CPU      0.56s WALL (       1 calls)
     wfcinit:atom :      0.01s CPU      0.01s WALL (     252 calls)
     wfcinit:wfcr :      0.43s CPU      0.52s WALL (     252 calls)
     potinit      :      0.02s CPU      0.03s WALL (       1 calls)
     hinit0       :      0.05s CPU      0.09s WALL (       1 calls)

     Called by electrons:
     c_bands      :     17.56s CPU     18.93s WALL (      18 calls)
     sum_band     :      2.75s CPU      2.93s WALL (      18 calls)
     v_of_rho     :      0.06s CPU      0.07s WALL (      19 calls)
     v_h          :      0.00s CPU      0.00s WALL (      19 calls)
     v_xc         :      0.07s CPU      0.07s WALL (      21 calls)
     newd         :      0.04s CPU      0.05s WALL (      19 calls)
     mix_rho      :      0.01s CPU      0.02s WALL (      18 calls)

     Called by c_bands:
     init_us_2    :      0.44s CPU      0.47s WALL (    9828 calls)
     cegterg      :     16.72s CPU     18.04s WALL (    4536 calls)

     Called by sum_band:
     sum_band:wei :      0.02s CPU      0.02s WALL (      18 calls)
     sum_band:loo :      2.68s CPU      2.86s WALL (      18 calls)
     sum_band:buf :      0.05s CPU      0.05s WALL (    4536 calls)
     sum_band:ini :      0.18s CPU      0.19s WALL (    4536 calls)
     sum_band:cal :      0.18s CPU      0.19s WALL (    4536 calls)
     sum_band:bec :      0.01s CPU      0.01s WALL (    4536 calls)
     addusdens    :      0.04s CPU      0.04s WALL (      18 calls)
     addusd:skk   :      0.00s CPU      0.00s WALL (      18 calls)
     addusd:dgemm :      0.02s CPU      0.02s WALL (      18 calls)
     addusd:qvan2 :      0.01s CPU      0.02s WALL (      18 calls)

     Called by *egterg:
     cdiaghg      :      2.20s CPU      2.58s WALL (   17561 calls)
     cegterg:over :      0.68s CPU      0.74s WALL (   13025 calls)
     cegterg:upda :      0.19s CPU      0.20s WALL (   13025 calls)
     cegterg:last :      0.27s CPU      0.29s WALL (    9425 calls)
     h_psi        :     12.92s CPU     13.81s WALL (   17813 calls)
     s_psi        :      0.27s CPU      0.30s WALL (   17813 calls)
     g_psi        :      0.06s CPU      0.06s WALL (   13025 calls)

     Called by h_psi:
     h_psi:calbec :      0.69s CPU      0.75s WALL (   17813 calls)
     vloc_psi     :     11.81s CPU     12.61s WALL (   17813 calls)
     add_vuspsi   :      0.32s CPU      0.35s WALL (   17813 calls)

     General routines
     calbec       :      0.89s CPU      0.97s WALL (   23609 calls)
     fft          :      0.04s CPU      0.07s WALL (     270 calls)
     ffts         :      0.00s CPU      0.00s WALL (      37 calls)
     fftw         :     12.84s CPU     13.74s WALL (  353884 calls)
     interpolate  :      0.00s CPU      0.01s WALL (      19 calls)

     Parallel routines
     fft_scatt_xy :      1.36s CPU      1.41s WALL (  354191 calls)
     fft_scatt_yz :      4.99s CPU      5.34s WALL (  354191 calls)

     PWSCF        :     21.60s CPU     23.48s WALL


   This run was terminated on:  21:22: 6  28Sep2022            

=------------------------------------------------------------------------------=
   JOB DONE.
=------------------------------------------------------------------------------=
Note: The following floating-point exceptions are signalling: IEEE_UNDERFLOW_FLAG IEEE_DENORMAL
