
     Program PWSCF v.6.7MaX starts on 28Sep2022 at 21:20:42 

     This program is part of the open-source Quantum ESPRESSO suite
     for quantum simulation of materials; please cite
         "P. Giannozzi et al., J. Phys.:Condens. Matter 21 395502 (2009);
         "P. Giannozzi et al., J. Phys.:Condens. Matter 29 465901 (2017);
          URL http://www.quantum-espresso.org", 
     in publications or presentations arising from this work. More details at
     http://www.quantum-espresso.org/quote

     Parallel version (MPI), running on    16 processors

     MPI processes distributed on     1 nodes
     R & G space division:  proc/nbgrp/npool/nimage =      16
     Reading input from scale_2dab-04.in

     Current dimensions of program PWSCF are:
     Max number of different atomic species (ntypx) = 10
     Max number of k-points (npk) =  40000
     Max angular momentum in pseudopotentials (lmaxx) =  3
     Message from routine read_pp_mesh:
     mesh size missing, using the one in header

     Subspace diagonalization in iterative solution of the eigenvalue problem:
     a serial algorithm will be used


     Parallelization info
     --------------------
     sticks:   dense  smooth     PW     G-vecs:    dense   smooth      PW
     Min          46      34     10                 1674     1038     168
     Max          47      36     11                 1683     1043     173
     Sum         745     559    163                26861    16623    2719



     bravais-lattice index     =            0
     lattice parameter (alat)  =       4.9870  a.u.
     unit-cell volume          =     172.0433 (a.u.)^3
     number of atoms/cell      =            4
     number of atomic types    =            2
     number of electrons       =        16.00
     number of Kohn-Sham states=           12
     kinetic-energy cutoff     =      80.0000  Ry
     charge density cutoff     =     440.0000  Ry
     scf convergence threshold =      2.0E-10
     mixing beta               =       0.4000
     number of iterations used =            8  plain     mixing
     Exchange-correlation= PBE
                           (   1   4   3   4   0   0   0)

     celldm(1)=   4.987044  celldm(2)=   0.000000  celldm(3)=   0.000000
     celldm(4)=   0.000000  celldm(5)=   0.000000  celldm(6)=   0.000000

     crystal axes: (cart. coord. in units of alat)
               a(1) = (   1.000000   0.000000   0.000000 )  
               a(2) = (  -0.500000   0.866025   0.000000 )  
               a(3) = (   0.000000   0.000000   1.601687 )  

     reciprocal axes: (cart. coord. in units 2 pi/alat)
               b(1) = (  1.000000  0.577350 -0.000000 )  
               b(2) = (  0.000000  1.154701  0.000000 )  
               b(3) = (  0.000000 -0.000000  0.624342 )  


     PseudoPot. # 1 for B  read from file:
     /opt/QEpot/SSSP_precision_pseudos/B_pbe_v1.01.uspp.F.UPF
     MD5 check sum: d081ebb89d0c768e112975f650467a00
     Pseudo is Ultrasoft + core correction, Zval =  3.0
     Generated by new atomic code, or converted to UPF format
     Using radial grid of  781 points,  4 beta functions with: 
                l(1) =   0
                l(2) =   0
                l(3) =   1
                l(4) =   1
     Q(r) pseudized with  8 coefficients,  rinner =    1.100   1.100   1.100


     PseudoPot. # 2 for N  read from file:
     /opt/QEpot/SSSP_precision_pseudos/N.oncvpsp.upf
     MD5 check sum: 563d65bfb082928f0c9eb97172f6c357
     Pseudo is Norm-conserving + core correction, Zval =  5.0
     Generated using ONCVPSP code by D. R. Hamann
     Using radial grid of 1058 points,  4 beta functions with: 
                l(1) =   0
                l(2) =   0
                l(3) =   1
                l(4) =   1

     atomic species   valence    mass     pseudopotential
        B              3.00    10.81000     B ( 1.00)
        N              5.00    14.00700     N ( 1.00)

     No symmetry found


                                    s                        frac. trans.

      isym =  1     identity                                     

 cryst.   s( 1) = (     1          0          0      )
                  (     0          1          0      )
                  (     0          0          1      )

 cart.    s( 1) = (  1.0000000  0.0000000  0.0000000 )
                  (  0.0000000  1.0000000  0.0000000 )
                  (  0.0000000  0.0000000  1.0000000 )


   Cartesian axes

     site n.     atom                  positions (alat units)
         1           B   tau(   1) = (  -0.0002811   0.5752020   0.8030171  )
         2           B   tau(   2) = (   0.4997199   0.2865263   0.0021736  )
         3           N   tau(   3) = (  -0.0002811   0.5752020   0.2032686  )
         4           N   tau(   4) = (   0.4997199   0.2865263   1.0041121  )

   Crystallographic axes

     site n.     atom                  positions (cryst. coord.)
         1           B   tau(   1) = (  0.3318119  0.6641861  0.5013571  )
         2           B   tau(   2) = (  0.6651459  0.3308521  0.0013571  )
         3           N   tau(   3) = (  0.3318119  0.6641861  0.1269091  )
         4           N   tau(   4) = (  0.6651459  0.3308521  0.6269091  )

     number of k points=   252  Marzari-Vanderbilt smearing, width (Ry)=  0.0220
                       cart. coord. in units 2pi/alat
        k(    1) = (   0.0000000   0.0000000   0.0000000), wk =   0.0040000
        k(    2) = (   0.0000000   0.0000000   0.1248683), wk =   0.0080000
        k(    3) = (   0.0000000   0.0000000   0.2497367), wk =   0.0080000
        k(    4) = (   0.0000000   0.1154701   0.0000000), wk =   0.0080000
        k(    5) = (   0.0000000   0.1154701   0.1248683), wk =   0.0080000
        k(    6) = (   0.0000000   0.1154701   0.2497367), wk =   0.0080000
        k(    7) = (   0.0000000   0.2309401   0.0000000), wk =   0.0080000
        k(    8) = (   0.0000000   0.2309401   0.1248683), wk =   0.0080000
        k(    9) = (   0.0000000   0.2309401   0.2497367), wk =   0.0080000
        k(   10) = (   0.0000000   0.3464102   0.0000000), wk =   0.0080000
        k(   11) = (   0.0000000   0.3464102   0.1248683), wk =   0.0080000
        k(   12) = (   0.0000000   0.3464102   0.2497367), wk =   0.0080000
        k(   13) = (   0.0000000   0.4618802   0.0000000), wk =   0.0080000
        k(   14) = (   0.0000000   0.4618802   0.1248683), wk =   0.0080000
        k(   15) = (   0.0000000   0.4618802   0.2497367), wk =   0.0080000
        k(   16) = (   0.0000000  -0.5773503   0.0000000), wk =   0.0040000
        k(   17) = (   0.0000000  -0.5773503   0.1248683), wk =   0.0080000
        k(   18) = (   0.0000000  -0.5773503   0.2497367), wk =   0.0080000
        k(   19) = (   0.1000000   0.1732051   0.0000000), wk =   0.0080000
        k(   20) = (   0.1000000   0.1732051   0.1248683), wk =   0.0080000
        k(   21) = (   0.1000000   0.1732051   0.2497367), wk =   0.0080000
        k(   22) = (   0.1000000   0.2886751   0.0000000), wk =   0.0080000
        k(   23) = (   0.1000000   0.2886751   0.1248683), wk =   0.0080000
        k(   24) = (   0.1000000   0.2886751   0.2497367), wk =   0.0080000
        k(   25) = (   0.1000000   0.4041452   0.0000000), wk =   0.0080000
        k(   26) = (   0.1000000   0.4041452   0.1248683), wk =   0.0080000
        k(   27) = (   0.1000000   0.4041452   0.2497367), wk =   0.0080000
        k(   28) = (   0.1000000   0.5196152   0.0000000), wk =   0.0080000
        k(   29) = (   0.1000000   0.5196152   0.1248683), wk =   0.0080000
        k(   30) = (   0.1000000   0.5196152   0.2497367), wk =   0.0080000
        k(   31) = (   0.2000000   0.3464102   0.0000000), wk =   0.0080000
        k(   32) = (   0.2000000   0.3464102   0.1248683), wk =   0.0080000
        k(   33) = (   0.2000000   0.3464102   0.2497367), wk =   0.0080000
        k(   34) = (   0.2000000   0.4618802   0.0000000), wk =   0.0080000
        k(   35) = (   0.2000000   0.4618802   0.1248683), wk =   0.0080000
        k(   36) = (   0.2000000   0.4618802   0.2497367), wk =   0.0080000
        k(   37) = (   0.2000000   0.5773503   0.0000000), wk =   0.0080000
        k(   38) = (   0.2000000   0.5773503   0.1248683), wk =   0.0080000
        k(   39) = (   0.2000000   0.5773503   0.2497367), wk =   0.0080000
        k(   40) = (   0.3000000   0.5196152   0.0000000), wk =   0.0080000
        k(   41) = (   0.3000000   0.5196152   0.1248683), wk =   0.0080000
        k(   42) = (   0.3000000   0.5196152   0.2497367), wk =   0.0080000
        k(   43) = (  -0.1000000   0.0577350   0.0000000), wk =   0.0080000
        k(   44) = (   0.1000000   0.0577350   0.0000000), wk =   0.0080000
        k(   45) = (   0.0000000  -0.1154701   0.1248683), wk =   0.0080000
        k(   46) = (  -0.1000000   0.0577350   0.1248683), wk =   0.0080000
        k(   47) = (   0.1000000   0.0577350   0.1248683), wk =   0.0080000
        k(   48) = (  -0.1000000  -0.0577350   0.1248683), wk =   0.0080000
        k(   49) = (   0.1000000  -0.0577350   0.1248683), wk =   0.0080000
        k(   50) = (   0.0000000  -0.1154701   0.2497367), wk =   0.0080000
        k(   51) = (  -0.1000000   0.0577350   0.2497367), wk =   0.0080000
        k(   52) = (   0.1000000   0.0577350   0.2497367), wk =   0.0080000
        k(   53) = (  -0.1000000  -0.0577350   0.2497367), wk =   0.0080000
        k(   54) = (   0.1000000  -0.0577350   0.2497367), wk =   0.0080000
        k(   55) = (  -0.2000000   0.1154701   0.0000000), wk =   0.0080000
        k(   56) = (   0.2000000   0.1154701   0.0000000), wk =   0.0080000
        k(   57) = (   0.0000000  -0.2309401   0.1248683), wk =   0.0080000
        k(   58) = (  -0.2000000   0.1154701   0.1248683), wk =   0.0080000
        k(   59) = (   0.2000000   0.1154701   0.1248683), wk =   0.0080000
        k(   60) = (  -0.2000000  -0.1154701   0.1248683), wk =   0.0080000
        k(   61) = (   0.2000000  -0.1154701   0.1248683), wk =   0.0080000
        k(   62) = (   0.0000000  -0.2309401   0.2497367), wk =   0.0080000
        k(   63) = (  -0.2000000   0.1154701   0.2497367), wk =   0.0080000
        k(   64) = (   0.2000000   0.1154701   0.2497367), wk =   0.0080000
        k(   65) = (  -0.2000000  -0.1154701   0.2497367), wk =   0.0080000
        k(   66) = (   0.2000000  -0.1154701   0.2497367), wk =   0.0080000
        k(   67) = (  -0.3000000   0.1732051   0.0000000), wk =   0.0080000
        k(   68) = (   0.3000000   0.1732051   0.0000000), wk =   0.0080000
        k(   69) = (   0.0000000  -0.3464102   0.1248683), wk =   0.0080000
        k(   70) = (  -0.3000000   0.1732051   0.1248683), wk =   0.0080000
        k(   71) = (   0.3000000   0.1732051   0.1248683), wk =   0.0080000
        k(   72) = (  -0.3000000  -0.1732051   0.1248683), wk =   0.0080000
        k(   73) = (   0.3000000  -0.1732051   0.1248683), wk =   0.0080000
        k(   74) = (   0.0000000  -0.3464102   0.2497367), wk =   0.0080000
        k(   75) = (  -0.3000000   0.1732051   0.2497367), wk =   0.0080000
        k(   76) = (   0.3000000   0.1732051   0.2497367), wk =   0.0080000
        k(   77) = (  -0.3000000  -0.1732051   0.2497367), wk =   0.0080000
        k(   78) = (   0.3000000  -0.1732051   0.2497367), wk =   0.0080000
        k(   79) = (  -0.4000000   0.2309401   0.0000000), wk =   0.0080000
        k(   80) = (   0.4000000   0.2309401   0.0000000), wk =   0.0080000
        k(   81) = (   0.0000000  -0.4618802   0.1248683), wk =   0.0080000
        k(   82) = (  -0.4000000   0.2309401   0.1248683), wk =   0.0080000
        k(   83) = (   0.4000000   0.2309401   0.1248683), wk =   0.0080000
        k(   84) = (  -0.4000000  -0.2309401   0.1248683), wk =   0.0080000
        k(   85) = (   0.4000000  -0.2309401   0.1248683), wk =   0.0080000
        k(   86) = (   0.0000000  -0.4618802   0.2497367), wk =   0.0080000
        k(   87) = (  -0.4000000   0.2309401   0.2497367), wk =   0.0080000
        k(   88) = (   0.4000000   0.2309401   0.2497367), wk =   0.0080000
        k(   89) = (  -0.4000000  -0.2309401   0.2497367), wk =   0.0080000
        k(   90) = (   0.4000000  -0.2309401   0.2497367), wk =   0.0080000
        k(   91) = (   0.5000000  -0.2886751   0.0000000), wk =   0.0040000
        k(   92) = (  -0.5000000  -0.2886751   0.0000000), wk =   0.0040000
        k(   93) = (   0.5000000  -0.2886751   0.1248683), wk =   0.0080000
        k(   94) = (  -0.5000000  -0.2886751   0.1248683), wk =   0.0080000
        k(   95) = (   0.5000000  -0.2886751   0.2497367), wk =   0.0080000
        k(   96) = (  -0.5000000  -0.2886751   0.2497367), wk =   0.0080000
        k(   97) = (  -0.1000000   0.1732051   0.0000000), wk =   0.0080000
        k(   98) = (   0.2000000   0.0000000   0.0000000), wk =   0.0080000
        k(   99) = (  -0.1000000  -0.1732051   0.1248683), wk =   0.0080000
        k(  100) = (  -0.1000000   0.1732051  -0.1248683), wk =   0.0080000
        k(  101) = (   0.1000000  -0.1732051  -0.1248683), wk =   0.0080000
        k(  102) = (   0.2000000   0.0000000   0.1248683), wk =   0.0080000
        k(  103) = (  -0.2000000   0.0000000   0.1248683), wk =   0.0080000
        k(  104) = (  -0.1000000  -0.1732051   0.2497367), wk =   0.0080000
        k(  105) = (  -0.1000000   0.1732051  -0.2497367), wk =   0.0080000
        k(  106) = (   0.1000000  -0.1732051  -0.2497367), wk =   0.0080000
        k(  107) = (   0.2000000   0.0000000   0.2497367), wk =   0.0080000
        k(  108) = (  -0.2000000   0.0000000   0.2497367), wk =   0.0080000
        k(  109) = (  -0.1000000   0.2886751   0.0000000), wk =   0.0080000
        k(  110) = (  -0.2000000   0.2309401   0.0000000), wk =   0.0080000
        k(  111) = (   0.3000000   0.0577350   0.0000000), wk =   0.0080000
        k(  112) = (  -0.2000000  -0.2309401   0.0000000), wk =   0.0080000
        k(  113) = (   0.3000000  -0.0577350   0.0000000), wk =   0.0080000
        k(  114) = (  -0.1000000  -0.2886751   0.1248683), wk =   0.0080000
        k(  115) = (  -0.1000000   0.2886751  -0.1248683), wk =   0.0080000
        k(  116) = (   0.1000000  -0.2886751  -0.1248683), wk =   0.0080000
        k(  117) = (  -0.2000000   0.2309401   0.1248683), wk =   0.0080000
        k(  118) = (   0.3000000   0.0577350   0.1248683), wk =   0.0080000
        k(  119) = (  -0.3000000  -0.0577350   0.1248683), wk =   0.0080000
        k(  120) = (   0.2000000  -0.2309401   0.1248683), wk =   0.0080000
        k(  121) = (  -0.2000000  -0.2309401  -0.1248683), wk =   0.0080000
        k(  122) = (   0.3000000  -0.0577350  -0.1248683), wk =   0.0080000
        k(  123) = (  -0.3000000   0.0577350  -0.1248683), wk =   0.0080000
        k(  124) = (   0.2000000   0.2309401  -0.1248683), wk =   0.0080000
        k(  125) = (  -0.1000000  -0.2886751   0.2497367), wk =   0.0080000
        k(  126) = (  -0.1000000   0.2886751  -0.2497367), wk =   0.0080000
        k(  127) = (   0.1000000  -0.2886751  -0.2497367), wk =   0.0080000
        k(  128) = (  -0.2000000   0.2309401   0.2497367), wk =   0.0080000
        k(  129) = (   0.3000000   0.0577350   0.2497367), wk =   0.0080000
        k(  130) = (  -0.3000000  -0.0577350   0.2497367), wk =   0.0080000
        k(  131) = (   0.2000000  -0.2309401   0.2497367), wk =   0.0080000
        k(  132) = (  -0.2000000  -0.2309401  -0.2497367), wk =   0.0080000
        k(  133) = (   0.3000000  -0.0577350  -0.2497367), wk =   0.0080000
        k(  134) = (  -0.3000000   0.0577350  -0.2497367), wk =   0.0080000
        k(  135) = (   0.2000000   0.2309401  -0.2497367), wk =   0.0080000
        k(  136) = (  -0.1000000   0.4041452   0.0000000), wk =   0.0080000
        k(  137) = (  -0.3000000   0.2886751   0.0000000), wk =   0.0080000
        k(  138) = (   0.4000000   0.1154701   0.0000000), wk =   0.0080000
        k(  139) = (  -0.3000000  -0.2886751   0.0000000), wk =   0.0080000
        k(  140) = (   0.4000000  -0.1154701   0.0000000), wk =   0.0080000
        k(  141) = (  -0.1000000  -0.4041452   0.1248683), wk =   0.0080000
        k(  142) = (  -0.1000000   0.4041452  -0.1248683), wk =   0.0080000
        k(  143) = (   0.1000000  -0.4041452  -0.1248683), wk =   0.0080000
        k(  144) = (  -0.3000000   0.2886751   0.1248683), wk =   0.0080000
        k(  145) = (   0.4000000   0.1154701   0.1248683), wk =   0.0080000
        k(  146) = (  -0.4000000  -0.1154701   0.1248683), wk =   0.0080000
        k(  147) = (   0.3000000  -0.2886751   0.1248683), wk =   0.0080000
        k(  148) = (  -0.3000000  -0.2886751  -0.1248683), wk =   0.0080000
        k(  149) = (   0.4000000  -0.1154701  -0.1248683), wk =   0.0080000
        k(  150) = (  -0.4000000   0.1154701  -0.1248683), wk =   0.0080000
        k(  151) = (   0.3000000   0.2886751  -0.1248683), wk =   0.0080000
        k(  152) = (  -0.1000000  -0.4041452   0.2497367), wk =   0.0080000
        k(  153) = (  -0.1000000   0.4041452  -0.2497367), wk =   0.0080000
        k(  154) = (   0.1000000  -0.4041452  -0.2497367), wk =   0.0080000
        k(  155) = (  -0.3000000   0.2886751   0.2497367), wk =   0.0080000
        k(  156) = (   0.4000000   0.1154701   0.2497367), wk =   0.0080000
        k(  157) = (  -0.4000000  -0.1154701   0.2497367), wk =   0.0080000
        k(  158) = (   0.3000000  -0.2886751   0.2497367), wk =   0.0080000
        k(  159) = (  -0.3000000  -0.2886751  -0.2497367), wk =   0.0080000
        k(  160) = (   0.4000000  -0.1154701  -0.2497367), wk =   0.0080000
        k(  161) = (  -0.4000000   0.1154701  -0.2497367), wk =   0.0080000
        k(  162) = (   0.3000000   0.2886751  -0.2497367), wk =   0.0080000
        k(  163) = (  -0.1000000   0.5196152   0.0000000), wk =   0.0080000
        k(  164) = (  -0.4000000   0.3464102   0.0000000), wk =   0.0080000
        k(  165) = (   0.5000000   0.1732051   0.0000000), wk =   0.0080000
        k(  166) = (  -0.4000000  -0.3464102   0.0000000), wk =   0.0080000
        k(  167) = (   0.5000000  -0.1732051   0.0000000), wk =   0.0080000
        k(  168) = (  -0.1000000  -0.5196152   0.1248683), wk =   0.0080000
        k(  169) = (  -0.1000000   0.5196152  -0.1248683), wk =   0.0080000
        k(  170) = (   0.1000000  -0.5196152  -0.1248683), wk =   0.0080000
        k(  171) = (  -0.4000000   0.3464102   0.1248683), wk =   0.0080000
        k(  172) = (   0.5000000   0.1732051   0.1248683), wk =   0.0080000
        k(  173) = (  -0.5000000  -0.1732051   0.1248683), wk =   0.0080000
        k(  174) = (   0.4000000  -0.3464102   0.1248683), wk =   0.0080000
        k(  175) = (  -0.4000000  -0.3464102  -0.1248683), wk =   0.0080000
        k(  176) = (   0.5000000  -0.1732051  -0.1248683), wk =   0.0080000
        k(  177) = (  -0.5000000   0.1732051  -0.1248683), wk =   0.0080000
        k(  178) = (   0.4000000   0.3464102  -0.1248683), wk =   0.0080000
        k(  179) = (  -0.1000000  -0.5196152   0.2497367), wk =   0.0080000
        k(  180) = (  -0.1000000   0.5196152  -0.2497367), wk =   0.0080000
        k(  181) = (   0.1000000  -0.5196152  -0.2497367), wk =   0.0080000
        k(  182) = (  -0.4000000   0.3464102   0.2497367), wk =   0.0080000
        k(  183) = (   0.5000000   0.1732051   0.2497367), wk =   0.0080000
        k(  184) = (  -0.5000000  -0.1732051   0.2497367), wk =   0.0080000
        k(  185) = (   0.4000000  -0.3464102   0.2497367), wk =   0.0080000
        k(  186) = (  -0.4000000  -0.3464102  -0.2497367), wk =   0.0080000
        k(  187) = (   0.5000000  -0.1732051  -0.2497367), wk =   0.0080000
        k(  188) = (  -0.5000000   0.1732051  -0.2497367), wk =   0.0080000
        k(  189) = (   0.4000000   0.3464102  -0.2497367), wk =   0.0080000
        k(  190) = (  -0.2000000   0.3464102   0.0000000), wk =   0.0080000
        k(  191) = (   0.4000000   0.0000000   0.0000000), wk =   0.0080000
        k(  192) = (  -0.2000000  -0.3464102   0.1248683), wk =   0.0080000
        k(  193) = (  -0.2000000   0.3464102  -0.1248683), wk =   0.0080000
        k(  194) = (   0.2000000  -0.3464102  -0.1248683), wk =   0.0080000
        k(  195) = (   0.4000000   0.0000000   0.1248683), wk =   0.0080000
        k(  196) = (  -0.4000000   0.0000000   0.1248683), wk =   0.0080000
        k(  197) = (  -0.2000000  -0.3464102   0.2497367), wk =   0.0080000
        k(  198) = (  -0.2000000   0.3464102  -0.2497367), wk =   0.0080000
        k(  199) = (   0.2000000  -0.3464102  -0.2497367), wk =   0.0080000
        k(  200) = (   0.4000000   0.0000000   0.2497367), wk =   0.0080000
        k(  201) = (  -0.4000000   0.0000000   0.2497367), wk =   0.0080000
        k(  202) = (  -0.2000000   0.4618802   0.0000000), wk =   0.0080000
        k(  203) = (  -0.3000000   0.4041452   0.0000000), wk =   0.0080000
        k(  204) = (   0.5000000   0.0577350   0.0000000), wk =   0.0080000
        k(  205) = (  -0.3000000  -0.4041452   0.0000000), wk =   0.0080000
        k(  206) = (   0.5000000  -0.0577350   0.0000000), wk =   0.0080000
        k(  207) = (  -0.2000000  -0.4618802   0.1248683), wk =   0.0080000
        k(  208) = (  -0.2000000   0.4618802  -0.1248683), wk =   0.0080000
        k(  209) = (   0.2000000  -0.4618802  -0.1248683), wk =   0.0080000
        k(  210) = (  -0.3000000   0.4041452   0.1248683), wk =   0.0080000
        k(  211) = (   0.5000000   0.0577350   0.1248683), wk =   0.0080000
        k(  212) = (  -0.5000000  -0.0577350   0.1248683), wk =   0.0080000
        k(  213) = (   0.3000000  -0.4041452   0.1248683), wk =   0.0080000
        k(  214) = (  -0.3000000  -0.4041452  -0.1248683), wk =   0.0080000
        k(  215) = (   0.5000000  -0.0577350  -0.1248683), wk =   0.0080000
        k(  216) = (  -0.5000000   0.0577350  -0.1248683), wk =   0.0080000
        k(  217) = (   0.3000000   0.4041452  -0.1248683), wk =   0.0080000
        k(  218) = (  -0.2000000  -0.4618802   0.2497367), wk =   0.0080000
        k(  219) = (  -0.2000000   0.4618802  -0.2497367), wk =   0.0080000
        k(  220) = (   0.2000000  -0.4618802  -0.2497367), wk =   0.0080000
        k(  221) = (  -0.3000000   0.4041452   0.2497367), wk =   0.0080000
        k(  222) = (   0.5000000   0.0577350   0.2497367), wk =   0.0080000
        k(  223) = (  -0.5000000  -0.0577350   0.2497367), wk =   0.0080000
        k(  224) = (   0.3000000  -0.4041452   0.2497367), wk =   0.0080000
        k(  225) = (  -0.3000000  -0.4041452  -0.2497367), wk =   0.0080000
        k(  226) = (   0.5000000  -0.0577350  -0.2497367), wk =   0.0080000
        k(  227) = (  -0.5000000   0.0577350  -0.2497367), wk =   0.0080000
        k(  228) = (   0.3000000   0.4041452  -0.2497367), wk =   0.0080000
        k(  229) = (  -0.4000000   0.4618802   0.0000000), wk =   0.0080000
        k(  230) = (   0.6000000   0.1154701   0.0000000), wk =   0.0080000
        k(  231) = (  -0.2000000  -0.5773503   0.1248683), wk =   0.0080000
        k(  232) = (  -0.4000000   0.4618802   0.1248683), wk =   0.0080000
        k(  233) = (   0.6000000   0.1154701   0.1248683), wk =   0.0080000
        k(  234) = (  -0.6000000  -0.1154701   0.1248683), wk =   0.0080000
        k(  235) = (   0.4000000  -0.4618802   0.1248683), wk =   0.0080000
        k(  236) = (  -0.2000000  -0.5773503   0.2497367), wk =   0.0080000
        k(  237) = (  -0.4000000   0.4618802   0.2497367), wk =   0.0080000
        k(  238) = (   0.6000000   0.1154701   0.2497367), wk =   0.0080000
        k(  239) = (  -0.6000000  -0.1154701   0.2497367), wk =   0.0080000
        k(  240) = (   0.4000000  -0.4618802   0.2497367), wk =   0.0080000
        k(  241) = (  -0.3000000   0.5196152   0.0000000), wk =   0.0080000
        k(  242) = (   0.6000000  -0.0000000   0.0000000), wk =   0.0080000
        k(  243) = (  -0.3000000  -0.5196152   0.1248683), wk =   0.0080000
        k(  244) = (  -0.3000000   0.5196152  -0.1248683), wk =   0.0080000
        k(  245) = (   0.3000000  -0.5196152  -0.1248683), wk =   0.0080000
        k(  246) = (   0.6000000  -0.0000000   0.1248683), wk =   0.0080000
        k(  247) = (  -0.6000000   0.0000000   0.1248683), wk =   0.0080000
        k(  248) = (  -0.3000000  -0.5196152   0.2497367), wk =   0.0080000
        k(  249) = (  -0.3000000   0.5196152  -0.2497367), wk =   0.0080000
        k(  250) = (   0.3000000  -0.5196152  -0.2497367), wk =   0.0080000
        k(  251) = (   0.6000000  -0.0000000   0.2497367), wk =   0.0080000
        k(  252) = (  -0.6000000   0.0000000   0.2497367), wk =   0.0080000

                       cryst. coord.
        k(    1) = (   0.0000000   0.0000000   0.0000000), wk =   0.0040000
        k(    2) = (   0.0000000   0.0000000   0.2000000), wk =   0.0080000
        k(    3) = (   0.0000000   0.0000000   0.4000000), wk =   0.0080000
        k(    4) = (   0.0000000   0.1000000   0.0000000), wk =   0.0080000
        k(    5) = (   0.0000000   0.1000000   0.2000000), wk =   0.0080000
        k(    6) = (   0.0000000   0.1000000   0.4000000), wk =   0.0080000
        k(    7) = (   0.0000000   0.2000000   0.0000000), wk =   0.0080000
        k(    8) = (   0.0000000   0.2000000   0.2000000), wk =   0.0080000
        k(    9) = (   0.0000000   0.2000000   0.4000000), wk =   0.0080000
        k(   10) = (   0.0000000   0.3000000   0.0000000), wk =   0.0080000
        k(   11) = (   0.0000000   0.3000000   0.2000000), wk =   0.0080000
        k(   12) = (   0.0000000   0.3000000   0.4000000), wk =   0.0080000
        k(   13) = (   0.0000000   0.4000000   0.0000000), wk =   0.0080000
        k(   14) = (   0.0000000   0.4000000   0.2000000), wk =   0.0080000
        k(   15) = (   0.0000000   0.4000000   0.4000000), wk =   0.0080000
        k(   16) = (   0.0000000  -0.5000000   0.0000000), wk =   0.0040000
        k(   17) = (   0.0000000  -0.5000000   0.2000000), wk =   0.0080000
        k(   18) = (   0.0000000  -0.5000000   0.4000000), wk =   0.0080000
        k(   19) = (   0.1000000   0.1000000   0.0000000), wk =   0.0080000
        k(   20) = (   0.1000000   0.1000000   0.2000000), wk =   0.0080000
        k(   21) = (   0.1000000   0.1000000   0.4000000), wk =   0.0080000
        k(   22) = (   0.1000000   0.2000000   0.0000000), wk =   0.0080000
        k(   23) = (   0.1000000   0.2000000   0.2000000), wk =   0.0080000
        k(   24) = (   0.1000000   0.2000000   0.4000000), wk =   0.0080000
        k(   25) = (   0.1000000   0.3000000   0.0000000), wk =   0.0080000
        k(   26) = (   0.1000000   0.3000000   0.2000000), wk =   0.0080000
        k(   27) = (   0.1000000   0.3000000   0.4000000), wk =   0.0080000
        k(   28) = (   0.1000000   0.4000000   0.0000000), wk =   0.0080000
        k(   29) = (   0.1000000   0.4000000   0.2000000), wk =   0.0080000
        k(   30) = (   0.1000000   0.4000000   0.4000000), wk =   0.0080000
        k(   31) = (   0.2000000   0.2000000   0.0000000), wk =   0.0080000
        k(   32) = (   0.2000000   0.2000000   0.2000000), wk =   0.0080000
        k(   33) = (   0.2000000   0.2000000   0.4000000), wk =   0.0080000
        k(   34) = (   0.2000000   0.3000000   0.0000000), wk =   0.0080000
        k(   35) = (   0.2000000   0.3000000   0.2000000), wk =   0.0080000
        k(   36) = (   0.2000000   0.3000000   0.4000000), wk =   0.0080000
        k(   37) = (   0.2000000   0.4000000   0.0000000), wk =   0.0080000
        k(   38) = (   0.2000000   0.4000000   0.2000000), wk =   0.0080000
        k(   39) = (   0.2000000   0.4000000   0.4000000), wk =   0.0080000
        k(   40) = (   0.3000000   0.3000000   0.0000000), wk =   0.0080000
        k(   41) = (   0.3000000   0.3000000   0.2000000), wk =   0.0080000
        k(   42) = (   0.3000000   0.3000000   0.4000000), wk =   0.0080000
        k(   43) = (  -0.1000000   0.1000000   0.0000000), wk =   0.0080000
        k(   44) = (   0.1000000  -0.0000000   0.0000000), wk =   0.0080000
        k(   45) = (   0.0000000  -0.1000000   0.2000000), wk =   0.0080000
        k(   46) = (  -0.1000000   0.1000000   0.2000000), wk =   0.0080000
        k(   47) = (   0.1000000  -0.0000000   0.2000000), wk =   0.0080000
        k(   48) = (  -0.1000000   0.0000000   0.2000000), wk =   0.0080000
        k(   49) = (   0.1000000  -0.1000000   0.2000000), wk =   0.0080000
        k(   50) = (   0.0000000  -0.1000000   0.4000000), wk =   0.0080000
        k(   51) = (  -0.1000000   0.1000000   0.4000000), wk =   0.0080000
        k(   52) = (   0.1000000  -0.0000000   0.4000000), wk =   0.0080000
        k(   53) = (  -0.1000000   0.0000000   0.4000000), wk =   0.0080000
        k(   54) = (   0.1000000  -0.1000000   0.4000000), wk =   0.0080000
        k(   55) = (  -0.2000000   0.2000000   0.0000000), wk =   0.0080000
        k(   56) = (   0.2000000  -0.0000000   0.0000000), wk =   0.0080000
        k(   57) = (   0.0000000  -0.2000000   0.2000000), wk =   0.0080000
        k(   58) = (  -0.2000000   0.2000000   0.2000000), wk =   0.0080000
        k(   59) = (   0.2000000  -0.0000000   0.2000000), wk =   0.0080000
        k(   60) = (  -0.2000000   0.0000000   0.2000000), wk =   0.0080000
        k(   61) = (   0.2000000  -0.2000000   0.2000000), wk =   0.0080000
        k(   62) = (   0.0000000  -0.2000000   0.4000000), wk =   0.0080000
        k(   63) = (  -0.2000000   0.2000000   0.4000000), wk =   0.0080000
        k(   64) = (   0.2000000  -0.0000000   0.4000000), wk =   0.0080000
        k(   65) = (  -0.2000000   0.0000000   0.4000000), wk =   0.0080000
        k(   66) = (   0.2000000  -0.2000000   0.4000000), wk =   0.0080000
        k(   67) = (  -0.3000000   0.3000000   0.0000000), wk =   0.0080000
        k(   68) = (   0.3000000   0.0000000   0.0000000), wk =   0.0080000
        k(   69) = (   0.0000000  -0.3000000   0.2000000), wk =   0.0080000
        k(   70) = (  -0.3000000   0.3000000   0.2000000), wk =   0.0080000
        k(   71) = (   0.3000000   0.0000000   0.2000000), wk =   0.0080000
        k(   72) = (  -0.3000000   0.0000000   0.2000000), wk =   0.0080000
        k(   73) = (   0.3000000  -0.3000000   0.2000000), wk =   0.0080000
        k(   74) = (   0.0000000  -0.3000000   0.4000000), wk =   0.0080000
        k(   75) = (  -0.3000000   0.3000000   0.4000000), wk =   0.0080000
        k(   76) = (   0.3000000   0.0000000   0.4000000), wk =   0.0080000
        k(   77) = (  -0.3000000   0.0000000   0.4000000), wk =   0.0080000
        k(   78) = (   0.3000000  -0.3000000   0.4000000), wk =   0.0080000
        k(   79) = (  -0.4000000   0.4000000   0.0000000), wk =   0.0080000
        k(   80) = (   0.4000000  -0.0000000   0.0000000), wk =   0.0080000
        k(   81) = (   0.0000000  -0.4000000   0.2000000), wk =   0.0080000
        k(   82) = (  -0.4000000   0.4000000   0.2000000), wk =   0.0080000
        k(   83) = (   0.4000000  -0.0000000   0.2000000), wk =   0.0080000
        k(   84) = (  -0.4000000   0.0000000   0.2000000), wk =   0.0080000
        k(   85) = (   0.4000000  -0.4000000   0.2000000), wk =   0.0080000
        k(   86) = (   0.0000000  -0.4000000   0.4000000), wk =   0.0080000
        k(   87) = (  -0.4000000   0.4000000   0.4000000), wk =   0.0080000
        k(   88) = (   0.4000000  -0.0000000   0.4000000), wk =   0.0080000
        k(   89) = (  -0.4000000   0.0000000   0.4000000), wk =   0.0080000
        k(   90) = (   0.4000000  -0.4000000   0.4000000), wk =   0.0080000
        k(   91) = (   0.5000000  -0.5000000   0.0000000), wk =   0.0040000
        k(   92) = (  -0.5000000   0.0000000   0.0000000), wk =   0.0040000
        k(   93) = (   0.5000000  -0.5000000   0.2000000), wk =   0.0080000
        k(   94) = (  -0.5000000   0.0000000   0.2000000), wk =   0.0080000
        k(   95) = (   0.5000000  -0.5000000   0.4000000), wk =   0.0080000
        k(   96) = (  -0.5000000   0.0000000   0.4000000), wk =   0.0080000
        k(   97) = (  -0.1000000   0.2000000   0.0000000), wk =   0.0080000
        k(   98) = (   0.2000000  -0.1000000   0.0000000), wk =   0.0080000
        k(   99) = (  -0.1000000  -0.1000000   0.2000000), wk =   0.0080000
        k(  100) = (  -0.1000000   0.2000000  -0.2000000), wk =   0.0080000
        k(  101) = (   0.1000000  -0.2000000  -0.2000000), wk =   0.0080000
        k(  102) = (   0.2000000  -0.1000000   0.2000000), wk =   0.0080000
        k(  103) = (  -0.2000000   0.1000000   0.2000000), wk =   0.0080000
        k(  104) = (  -0.1000000  -0.1000000   0.4000000), wk =   0.0080000
        k(  105) = (  -0.1000000   0.2000000  -0.4000000), wk =   0.0080000
        k(  106) = (   0.1000000  -0.2000000  -0.4000000), wk =   0.0080000
        k(  107) = (   0.2000000  -0.1000000   0.4000000), wk =   0.0080000
        k(  108) = (  -0.2000000   0.1000000   0.4000000), wk =   0.0080000
        k(  109) = (  -0.1000000   0.3000000   0.0000000), wk =   0.0080000
        k(  110) = (  -0.2000000   0.3000000   0.0000000), wk =   0.0080000
        k(  111) = (   0.3000000  -0.1000000   0.0000000), wk =   0.0080000
        k(  112) = (  -0.2000000  -0.1000000   0.0000000), wk =   0.0080000
        k(  113) = (   0.3000000  -0.2000000   0.0000000), wk =   0.0080000
        k(  114) = (  -0.1000000  -0.2000000   0.2000000), wk =   0.0080000
        k(  115) = (  -0.1000000   0.3000000  -0.2000000), wk =   0.0080000
        k(  116) = (   0.1000000  -0.3000000  -0.2000000), wk =   0.0080000
        k(  117) = (  -0.2000000   0.3000000   0.2000000), wk =   0.0080000
        k(  118) = (   0.3000000  -0.1000000   0.2000000), wk =   0.0080000
        k(  119) = (  -0.3000000   0.1000000   0.2000000), wk =   0.0080000
        k(  120) = (   0.2000000  -0.3000000   0.2000000), wk =   0.0080000
        k(  121) = (  -0.2000000  -0.1000000  -0.2000000), wk =   0.0080000
        k(  122) = (   0.3000000  -0.2000000  -0.2000000), wk =   0.0080000
        k(  123) = (  -0.3000000   0.2000000  -0.2000000), wk =   0.0080000
        k(  124) = (   0.2000000   0.1000000  -0.2000000), wk =   0.0080000
        k(  125) = (  -0.1000000  -0.2000000   0.4000000), wk =   0.0080000
        k(  126) = (  -0.1000000   0.3000000  -0.4000000), wk =   0.0080000
        k(  127) = (   0.1000000  -0.3000000  -0.4000000), wk =   0.0080000
        k(  128) = (  -0.2000000   0.3000000   0.4000000), wk =   0.0080000
        k(  129) = (   0.3000000  -0.1000000   0.4000000), wk =   0.0080000
        k(  130) = (  -0.3000000   0.1000000   0.4000000), wk =   0.0080000
        k(  131) = (   0.2000000  -0.3000000   0.4000000), wk =   0.0080000
        k(  132) = (  -0.2000000  -0.1000000  -0.4000000), wk =   0.0080000
        k(  133) = (   0.3000000  -0.2000000  -0.4000000), wk =   0.0080000
        k(  134) = (  -0.3000000   0.2000000  -0.4000000), wk =   0.0080000
        k(  135) = (   0.2000000   0.1000000  -0.4000000), wk =   0.0080000
        k(  136) = (  -0.1000000   0.4000000   0.0000000), wk =   0.0080000
        k(  137) = (  -0.3000000   0.4000000   0.0000000), wk =   0.0080000
        k(  138) = (   0.4000000  -0.1000000   0.0000000), wk =   0.0080000
        k(  139) = (  -0.3000000  -0.1000000   0.0000000), wk =   0.0080000
        k(  140) = (   0.4000000  -0.3000000   0.0000000), wk =   0.0080000
        k(  141) = (  -0.1000000  -0.3000000   0.2000000), wk =   0.0080000
        k(  142) = (  -0.1000000   0.4000000  -0.2000000), wk =   0.0080000
        k(  143) = (   0.1000000  -0.4000000  -0.2000000), wk =   0.0080000
        k(  144) = (  -0.3000000   0.4000000   0.2000000), wk =   0.0080000
        k(  145) = (   0.4000000  -0.1000000   0.2000000), wk =   0.0080000
        k(  146) = (  -0.4000000   0.1000000   0.2000000), wk =   0.0080000
        k(  147) = (   0.3000000  -0.4000000   0.2000000), wk =   0.0080000
        k(  148) = (  -0.3000000  -0.1000000  -0.2000000), wk =   0.0080000
        k(  149) = (   0.4000000  -0.3000000  -0.2000000), wk =   0.0080000
        k(  150) = (  -0.4000000   0.3000000  -0.2000000), wk =   0.0080000
        k(  151) = (   0.3000000   0.1000000  -0.2000000), wk =   0.0080000
        k(  152) = (  -0.1000000  -0.3000000   0.4000000), wk =   0.0080000
        k(  153) = (  -0.1000000   0.4000000  -0.4000000), wk =   0.0080000
        k(  154) = (   0.1000000  -0.4000000  -0.4000000), wk =   0.0080000
        k(  155) = (  -0.3000000   0.4000000   0.4000000), wk =   0.0080000
        k(  156) = (   0.4000000  -0.1000000   0.4000000), wk =   0.0080000
        k(  157) = (  -0.4000000   0.1000000   0.4000000), wk =   0.0080000
        k(  158) = (   0.3000000  -0.4000000   0.4000000), wk =   0.0080000
        k(  159) = (  -0.3000000  -0.1000000  -0.4000000), wk =   0.0080000
        k(  160) = (   0.4000000  -0.3000000  -0.4000000), wk =   0.0080000
        k(  161) = (  -0.4000000   0.3000000  -0.4000000), wk =   0.0080000
        k(  162) = (   0.3000000   0.1000000  -0.4000000), wk =   0.0080000
        k(  163) = (  -0.1000000   0.5000000   0.0000000), wk =   0.0080000
        k(  164) = (  -0.4000000   0.5000000   0.0000000), wk =   0.0080000
        k(  165) = (   0.5000000  -0.1000000   0.0000000), wk =   0.0080000
        k(  166) = (  -0.4000000  -0.1000000   0.0000000), wk =   0.0080000
        k(  167) = (   0.5000000  -0.4000000   0.0000000), wk =   0.0080000
        k(  168) = (  -0.1000000  -0.4000000   0.2000000), wk =   0.0080000
        k(  169) = (  -0.1000000   0.5000000  -0.2000000), wk =   0.0080000
        k(  170) = (   0.1000000  -0.5000000  -0.2000000), wk =   0.0080000
        k(  171) = (  -0.4000000   0.5000000   0.2000000), wk =   0.0080000
        k(  172) = (   0.5000000  -0.1000000   0.2000000), wk =   0.0080000
        k(  173) = (  -0.5000000   0.1000000   0.2000000), wk =   0.0080000
        k(  174) = (   0.4000000  -0.5000000   0.2000000), wk =   0.0080000
        k(  175) = (  -0.4000000  -0.1000000  -0.2000000), wk =   0.0080000
        k(  176) = (   0.5000000  -0.4000000  -0.2000000), wk =   0.0080000
        k(  177) = (  -0.5000000   0.4000000  -0.2000000), wk =   0.0080000
        k(  178) = (   0.4000000   0.1000000  -0.2000000), wk =   0.0080000
        k(  179) = (  -0.1000000  -0.4000000   0.4000000), wk =   0.0080000
        k(  180) = (  -0.1000000   0.5000000  -0.4000000), wk =   0.0080000
        k(  181) = (   0.1000000  -0.5000000  -0.4000000), wk =   0.0080000
        k(  182) = (  -0.4000000   0.5000000   0.4000000), wk =   0.0080000
        k(  183) = (   0.5000000  -0.1000000   0.4000000), wk =   0.0080000
        k(  184) = (  -0.5000000   0.1000000   0.4000000), wk =   0.0080000
        k(  185) = (   0.4000000  -0.5000000   0.4000000), wk =   0.0080000
        k(  186) = (  -0.4000000  -0.1000000  -0.4000000), wk =   0.0080000
        k(  187) = (   0.5000000  -0.4000000  -0.4000000), wk =   0.0080000
        k(  188) = (  -0.5000000   0.4000000  -0.4000000), wk =   0.0080000
        k(  189) = (   0.4000000   0.1000000  -0.4000000), wk =   0.0080000
        k(  190) = (  -0.2000000   0.4000000   0.0000000), wk =   0.0080000
        k(  191) = (   0.4000000  -0.2000000   0.0000000), wk =   0.0080000
        k(  192) = (  -0.2000000  -0.2000000   0.2000000), wk =   0.0080000
        k(  193) = (  -0.2000000   0.4000000  -0.2000000), wk =   0.0080000
        k(  194) = (   0.2000000  -0.4000000  -0.2000000), wk =   0.0080000
        k(  195) = (   0.4000000  -0.2000000   0.2000000), wk =   0.0080000
        k(  196) = (  -0.4000000   0.2000000   0.2000000), wk =   0.0080000
        k(  197) = (  -0.2000000  -0.2000000   0.4000000), wk =   0.0080000
        k(  198) = (  -0.2000000   0.4000000  -0.4000000), wk =   0.0080000
        k(  199) = (   0.2000000  -0.4000000  -0.4000000), wk =   0.0080000
        k(  200) = (   0.4000000  -0.2000000   0.4000000), wk =   0.0080000
        k(  201) = (  -0.4000000   0.2000000   0.4000000), wk =   0.0080000
        k(  202) = (  -0.2000000   0.5000000   0.0000000), wk =   0.0080000
        k(  203) = (  -0.3000000   0.5000000   0.0000000), wk =   0.0080000
        k(  204) = (   0.5000000  -0.2000000   0.0000000), wk =   0.0080000
        k(  205) = (  -0.3000000  -0.2000000   0.0000000), wk =   0.0080000
        k(  206) = (   0.5000000  -0.3000000   0.0000000), wk =   0.0080000
        k(  207) = (  -0.2000000  -0.3000000   0.2000000), wk =   0.0080000
        k(  208) = (  -0.2000000   0.5000000  -0.2000000), wk =   0.0080000
        k(  209) = (   0.2000000  -0.5000000  -0.2000000), wk =   0.0080000
        k(  210) = (  -0.3000000   0.5000000   0.2000000), wk =   0.0080000
        k(  211) = (   0.5000000  -0.2000000   0.2000000), wk =   0.0080000
        k(  212) = (  -0.5000000   0.2000000   0.2000000), wk =   0.0080000
        k(  213) = (   0.3000000  -0.5000000   0.2000000), wk =   0.0080000
        k(  214) = (  -0.3000000  -0.2000000  -0.2000000), wk =   0.0080000
        k(  215) = (   0.5000000  -0.3000000  -0.2000000), wk =   0.0080000
        k(  216) = (  -0.5000000   0.3000000  -0.2000000), wk =   0.0080000
        k(  217) = (   0.3000000   0.2000000  -0.2000000), wk =   0.0080000
        k(  218) = (  -0.2000000  -0.3000000   0.4000000), wk =   0.0080000
        k(  219) = (  -0.2000000   0.5000000  -0.4000000), wk =   0.0080000
        k(  220) = (   0.2000000  -0.5000000  -0.4000000), wk =   0.0080000
        k(  221) = (  -0.3000000   0.5000000   0.4000000), wk =   0.0080000
        k(  222) = (   0.5000000  -0.2000000   0.4000000), wk =   0.0080000
        k(  223) = (  -0.5000000   0.2000000   0.4000000), wk =   0.0080000
        k(  224) = (   0.3000000  -0.5000000   0.4000000), wk =   0.0080000
        k(  225) = (  -0.3000000  -0.2000000  -0.4000000), wk =   0.0080000
        k(  226) = (   0.5000000  -0.3000000  -0.4000000), wk =   0.0080000
        k(  227) = (  -0.5000000   0.3000000  -0.4000000), wk =   0.0080000
        k(  228) = (   0.3000000   0.2000000  -0.4000000), wk =   0.0080000
        k(  229) = (  -0.4000000   0.6000000   0.0000000), wk =   0.0080000
        k(  230) = (   0.6000000  -0.2000000   0.0000000), wk =   0.0080000
        k(  231) = (  -0.2000000  -0.4000000   0.2000000), wk =   0.0080000
        k(  232) = (  -0.4000000   0.6000000   0.2000000), wk =   0.0080000
        k(  233) = (   0.6000000  -0.2000000   0.2000000), wk =   0.0080000
        k(  234) = (  -0.6000000   0.2000000   0.2000000), wk =   0.0080000
        k(  235) = (   0.4000000  -0.6000000   0.2000000), wk =   0.0080000
        k(  236) = (  -0.2000000  -0.4000000   0.4000000), wk =   0.0080000
        k(  237) = (  -0.4000000   0.6000000   0.4000000), wk =   0.0080000
        k(  238) = (   0.6000000  -0.2000000   0.4000000), wk =   0.0080000
        k(  239) = (  -0.6000000   0.2000000   0.4000000), wk =   0.0080000
        k(  240) = (   0.4000000  -0.6000000   0.4000000), wk =   0.0080000
        k(  241) = (  -0.3000000   0.6000000   0.0000000), wk =   0.0080000
        k(  242) = (   0.6000000  -0.3000000   0.0000000), wk =   0.0080000
        k(  243) = (  -0.3000000  -0.3000000   0.2000000), wk =   0.0080000
        k(  244) = (  -0.3000000   0.6000000  -0.2000000), wk =   0.0080000
        k(  245) = (   0.3000000  -0.6000000  -0.2000000), wk =   0.0080000
        k(  246) = (   0.6000000  -0.3000000   0.2000000), wk =   0.0080000
        k(  247) = (  -0.6000000   0.3000000   0.2000000), wk =   0.0080000
        k(  248) = (  -0.3000000  -0.3000000   0.4000000), wk =   0.0080000
        k(  249) = (  -0.3000000   0.6000000  -0.4000000), wk =   0.0080000
        k(  250) = (   0.3000000  -0.6000000  -0.4000000), wk =   0.0080000
        k(  251) = (   0.6000000  -0.3000000   0.4000000), wk =   0.0080000
        k(  252) = (  -0.6000000   0.3000000   0.4000000), wk =   0.0080000

     Dense  grid:    26861 G-vectors     FFT dimensions: (  36,  36,  54)

     Smooth grid:    16623 G-vectors     FFT dimensions: (  30,  30,  45)

     Dynamical RAM for                 wfc:       0.02 MB

     Dynamical RAM for     wfc (w. buffer):       5.98 MB

     Dynamical RAM for           str. fact:       0.05 MB

     Dynamical RAM for           local pot:       0.00 MB

     Dynamical RAM for          nlocal pot:       0.06 MB

     Dynamical RAM for                qrad:       0.96 MB

     Dynamical RAM for          rho,v,vnew:       0.20 MB

     Dynamical RAM for               rhoin:       0.07 MB

     Dynamical RAM for            rho*nmix:       0.41 MB

     Dynamical RAM for           G-vectors:       0.10 MB

     Dynamical RAM for          h,s,v(r/c):       0.03 MB

     Dynamical RAM for          <psi|beta>:       0.01 MB

     Dynamical RAM for                 psi:       0.05 MB

     Dynamical RAM for                hpsi:       0.05 MB

     Dynamical RAM for                spsi:       0.05 MB

     Dynamical RAM for      wfcinit/wfcrot:       0.07 MB

     Dynamical RAM for           addusdens:       1.15 MB

     Dynamical RAM for          addusforce:       1.22 MB

     Dynamical RAM for         addusstress:       1.28 MB

     Estimated static dynamical RAM per process >       8.10 MB

     Estimated max dynamical RAM per process >       9.38 MB

     Estimated total dynamical RAM >     150.06 MB

     Check: negative core charge=   -0.000011

     Initial potential from superposition of free atoms

     starting charge   15.99942, renormalised to   16.00000
     Starting wfcs are   16 randomized atomic wfcs

     total cpu time spent up to now is        1.0 secs

     Self-consistent Calculation

     iteration #  1     ecut=    80.00 Ry     beta= 0.40
     Davidson diagonalization with overlap
     ethr =  1.00E-02,  avg # of iterations =  2.8

     total cpu time spent up to now is        2.3 secs

     total energy              =     -54.78301136 Ry
     estimated scf accuracy    <       0.40428064 Ry

     iteration #  2     ecut=    80.00 Ry     beta= 0.40
     Davidson diagonalization with overlap
     ethr =  2.53E-03,  avg # of iterations =  2.0

     total cpu time spent up to now is        3.5 secs

     total energy              =     -54.83426184 Ry
     estimated scf accuracy    <       0.03470833 Ry

     iteration #  3     ecut=    80.00 Ry     beta= 0.40
     Davidson diagonalization with overlap
     ethr =  2.17E-04,  avg # of iterations =  4.1

     total cpu time spent up to now is        4.7 secs

     total energy              =     -54.83612632 Ry
     estimated scf accuracy    <       0.01002338 Ry

     iteration #  4     ecut=    80.00 Ry     beta= 0.40
     Davidson diagonalization with overlap
     ethr =  6.26E-05,  avg # of iterations =  3.9

     total cpu time spent up to now is        5.9 secs

     total energy              =     -54.83726028 Ry
     estimated scf accuracy    <       0.00030765 Ry

     iteration #  5     ecut=    80.00 Ry     beta= 0.40
     Davidson diagonalization with overlap
     c_bands:  1 eigenvalues not converged
     c_bands:  1 eigenvalues not converged
     c_bands:  1 eigenvalues not converged
     c_bands:  1 eigenvalues not converged
     c_bands:  1 eigenvalues not converged
     c_bands:  1 eigenvalues not converged
     c_bands:  1 eigenvalues not converged
     c_bands:  1 eigenvalues not converged
     c_bands:  1 eigenvalues not converged
     c_bands:  1 eigenvalues not converged
     c_bands:  1 eigenvalues not converged
     c_bands:  1 eigenvalues not converged
     c_bands:  1 eigenvalues not converged
     ethr =  1.92E-06,  avg # of iterations =  9.8

     total cpu time spent up to now is        8.1 secs

     total energy              =     -54.83768025 Ry
     estimated scf accuracy    <       0.00011699 Ry

     iteration #  6     ecut=    80.00 Ry     beta= 0.40
     Davidson diagonalization with overlap
     c_bands:  1 eigenvalues not converged
     c_bands:  1 eigenvalues not converged
     c_bands:  1 eigenvalues not converged
     c_bands:  1 eigenvalues not converged
     ethr =  7.31E-07,  avg # of iterations =  3.8

     total cpu time spent up to now is        9.6 secs

     total energy              =     -54.83725843 Ry
     estimated scf accuracy    <       0.00131610 Ry

     iteration #  7     ecut=    80.00 Ry     beta= 0.40
     Davidson diagonalization with overlap
     ethr =  7.31E-07,  avg # of iterations =  3.4

     total cpu time spent up to now is       11.0 secs

     total energy              =     -54.83739278 Ry
     estimated scf accuracy    <       0.00002234 Ry

     iteration #  8     ecut=    80.00 Ry     beta= 0.40
     Davidson diagonalization with overlap
     ethr =  1.40E-07,  avg # of iterations =  2.5

     total cpu time spent up to now is       12.1 secs

     total energy              =     -54.83739752 Ry
     estimated scf accuracy    <       0.00000189 Ry

     iteration #  9     ecut=    80.00 Ry     beta= 0.40
     Davidson diagonalization with overlap
     ethr =  1.18E-08,  avg # of iterations =  3.7

     total cpu time spent up to now is       13.4 secs

     total energy              =     -54.83739797 Ry
     estimated scf accuracy    <       0.00000040 Ry

     iteration # 10     ecut=    80.00 Ry     beta= 0.40
     Davidson diagonalization with overlap
     ethr =  2.50E-09,  avg # of iterations =  3.5

     total cpu time spent up to now is       14.7 secs

     total energy              =     -54.83739809 Ry
     estimated scf accuracy    <       0.00000001 Ry

     iteration # 11     ecut=    80.00 Ry     beta= 0.40
     Davidson diagonalization with overlap
     ethr =  7.67E-11,  avg # of iterations =  4.3

     total cpu time spent up to now is       16.2 secs

     total energy              =     -54.83739810 Ry
     estimated scf accuracy    <          4.4E-09 Ry

     iteration # 12     ecut=    80.00 Ry     beta= 0.40
     Davidson diagonalization with overlap
     ethr =  2.78E-11,  avg # of iterations =  2.5

     total cpu time spent up to now is       17.4 secs

     total energy              =     -54.83739810 Ry
     estimated scf accuracy    <          1.4E-09 Ry

     iteration # 13     ecut=    80.00 Ry     beta= 0.40
     Davidson diagonalization with overlap
     ethr =  8.56E-12,  avg # of iterations =  1.3

     total cpu time spent up to now is       18.3 secs

     total energy              =     -54.83739810 Ry
     estimated scf accuracy    <          9.9E-10 Ry

     iteration # 14     ecut=    80.00 Ry     beta= 0.40
     Davidson diagonalization with overlap
     ethr =  6.17E-12,  avg # of iterations =  1.0

     total cpu time spent up to now is       19.2 secs

     total energy              =     -54.83739810 Ry
     estimated scf accuracy    <          3.3E-10 Ry

     iteration # 15     ecut=    80.00 Ry     beta= 0.40
     Davidson diagonalization with overlap
     ethr =  2.08E-12,  avg # of iterations =  2.0

     total cpu time spent up to now is       20.2 secs

     End of self-consistent calculation

          k = 0.0000 0.0000 0.0000 (  2069 PWs)   bands (ev):

    -9.4124  -5.3415  -0.0304   7.9093   7.9094   9.9057  10.0982  10.0982
    17.9561  17.9562  18.1949  19.3389

     occupation numbers 
     1.0000   1.0000   1.0000   1.0000   1.0000   0.9159   0.4684   0.4683
     0.0000   0.0000   0.0000   0.0000

          k = 0.0000 0.0000 0.1249 (  2075 PWs)   bands (ev):

    -9.1766  -6.0896   1.1193   8.0813   8.0814   8.8262   9.8384   9.8384
    18.2394  18.2395  18.2412  18.9897

     occupation numbers 
     1.0000   1.0000   1.0000   1.0000   1.0000   1.0000   1.0146   1.0146
     0.0000   0.0000   0.0000   0.0000

          k = 0.0000 0.0000 0.2497 (  2080 PWs)   bands (ev):

    -8.4828  -7.3878   3.5684   6.3655   8.5603   8.5603   9.2234   9.2234
    18.3898  18.6521  19.0019  19.0020

     occupation numbers 
     1.0000   1.0000   1.0000   1.0000   1.0000   1.0000   1.0014   1.0014
     0.0000   0.0000   0.0000   0.0000

          k = 0.0000 0.1155 0.0000 (  2067 PWs)   bands (ev):

    -9.2135  -5.1990   0.1663   7.0073   7.5562   9.3227   9.6992   9.9110
    17.6796  18.3339  18.9174  19.5566

     occupation numbers 
     1.0000   1.0000   1.0000   1.0000   1.0000   1.0055   1.0833   0.9061
     0.0000   0.0000   0.0000   0.0000

          k = 0.0000 0.1155 0.1249 (  2063 PWs)   bands (ev):

    -8.9795  -5.9289   1.2816   7.1959   7.7374   8.4718   9.3273   9.6240
    17.8155  18.6563  18.9380  19.4155

     occupation numbers 
     1.0000   1.0000   1.0000   1.0000   1.0000   1.0000   1.0058   1.0707
     0.0000   0.0000   0.0000   0.0000

          k = 0.0000 0.1155 0.2497 (  2056 PWs)   bands (ev):

    -8.2912  -7.2073   3.6515   6.2921   7.7456   8.2445   8.5301   8.9545
    18.3936  18.9437  19.2800  19.4931

     occupation numbers 
     1.0000   1.0000   1.0000   1.0000   1.0000   1.0000   1.0000   1.0000
     0.0000   0.0000   0.0000   0.0000

          k = 0.0000 0.2309 0.0000 (  2086 PWs)   bands (ev):

    -8.6280  -4.8096   0.7439   5.0176   6.7891   7.5964   9.0353   9.4155
    17.1631  19.1631  19.7014  20.2603

     occupation numbers 
     1.0000   1.0000   1.0000   1.0000   1.0000   1.0000   1.0001   1.0157
     0.0000   0.0000   0.0000   0.0000

          k = 0.0000 0.2309 0.1249 (  2082 PWs)   bands (ev):

    -8.3998  -5.4771   1.7181   5.2740   6.9507   6.9852   8.7594   9.0833
    17.1468  19.1789  19.5909  20.2852

     occupation numbers 
     1.0000   1.0000   1.0000   1.0000   1.0000   1.0000   1.0000   1.0001
     0.0000   0.0000   0.0000   0.0000

          k = 0.0000 0.2309 0.2497 (  2058 PWs)   bands (ev):

    -7.7309  -6.6860   3.6955   5.5053   6.1773   7.5382   7.5407   8.3245
    17.5716  18.4631  20.3342  20.6384

     occupation numbers 
     1.0000   1.0000   1.0000   1.0000   1.0000   1.0000   1.0000   1.0000
     0.0000   0.0000   0.0000   0.0000

          k = 0.0000 0.3464 0.0000 (  2074 PWs)   bands (ev):

    -7.6977  -4.3316   1.6550   2.9502   5.6261   6.0290   7.9971   8.8440
    16.7001  19.1116  19.8323  21.0987

     occupation numbers 
     1.0000   1.0000   1.0000   1.0000   1.0000   1.0000   1.0000   1.0000
     0.0000   0.0000   0.0000   0.0000

          k = 0.0000 0.3464 0.1249 (  2074 PWs)   bands (ev):

    -7.4828  -4.8612   1.9810   3.6624   4.9799   6.2355   8.1211   8.4801
    16.6457  18.4022  20.4008  20.6388

     occupation numbers 
     1.0000   1.0000   1.0000   1.0000   1.0000   1.0000   1.0000   1.0000
     0.0000   0.0000   0.0000   0.0000

          k = 0.0000 0.3464 0.2497 (  2070 PWs)   bands (ev):

    -6.8585  -5.9057   2.7026   3.7016   5.5759   6.8202   7.3697   7.6593
    16.8473  17.6566  20.3711  21.4633

     occupation numbers 
     1.0000   1.0000   1.0000   1.0000   1.0000   1.0000   1.0000   1.0000
     0.0000   0.0000   0.0000   0.0000

          k = 0.0000 0.4619 0.0000 (  2068 PWs)   bands (ev):

    -6.5483  -4.1681   1.5812   2.7440   3.9293   5.5076   6.7551   8.4219
    16.3993  18.3548  20.1034  20.9465

     occupation numbers 
     1.0000   1.0000   1.0000   1.0000   1.0000   1.0000   1.0000   1.0000
     0.0000   0.0000   0.0000   0.0000

          k = 0.0000 0.4619 0.1249 (  2075 PWs)   bands (ev):

    -6.3637  -4.4388   1.1127   3.0236   4.1359   5.7196   7.2774   8.0414
    16.4339  17.5508  20.7800  20.8404

     occupation numbers 
     1.0000   1.0000   1.0000   1.0000   1.0000   1.0000   1.0000   1.0000
     0.0000   0.0000   0.0000   0.0000

          k = 0.0000 0.4619 0.2497 (  2080 PWs)   bands (ev):

    -5.8431  -5.1109   1.1711   1.9330   5.9744   6.3211   7.1880   7.3201
    16.4660  16.9757  20.0412  20.8295

     occupation numbers 
     1.0000   1.0000   1.0000   1.0000   1.0000   1.0000   1.0000   1.0000
     0.0000   0.0000   0.0000   0.0000

          k = 0.0000-0.5774 0.0000 (  2080 PWs)   bands (ev):

    -5.7609  -4.4535   1.2649   3.0049   3.5715   5.3246   5.9889   8.2695
    16.2975  18.0444  20.1548  20.8067

     occupation numbers 
     1.0000   1.0000   1.0000   1.0000   1.0000   1.0000   1.0000   1.0000
     0.0000   0.0000   0.0000   0.0000

          k = 0.0000-0.5774 0.1249 (  2084 PWs)   bands (ev):

    -5.6183  -4.5258   0.7670   2.2127   4.5994   5.5383   6.7271   7.8838
    16.4344  17.1500  20.8681  20.9833

     occupation numbers 
     1.0000   1.0000   1.0000   1.0000   1.0000   1.0000   1.0000   1.0000
     0.0000   0.0000   0.0000   0.0000

          k = 0.0000-0.5774 0.2497 (  2084 PWs)   bands (ev):

    -5.2421  -4.8028   0.5265   1.0953   6.1450   6.2737   7.0204   7.2310
    16.4544  16.6039  20.0964  20.2549

     occupation numbers 
     1.0000   1.0000   1.0000   1.0000   1.0000   1.0000   1.0000   1.0000
     0.0000   0.0000   0.0000   0.0000

          k = 0.1000 0.1732 0.0000 (  2067 PWs)   bands (ev):

    -8.8211  -4.9318   0.5538   5.7801   6.6686   8.3487   9.2640   9.4035
    17.8663  18.2964  19.9147  19.9857

     occupation numbers 
     1.0000   1.0000   1.0000   1.0000   1.0000   1.0000   1.0025   1.0139
     0.0000   0.0000   0.0000   0.0000

          k = 0.1000 0.1732 0.1249 (  2078 PWs)   bands (ev):

    -8.5908  -5.6218   1.5850   6.0067   6.7955   7.6978   8.9640   9.0760
    17.8483  18.5631  19.7447  20.0521

     occupation numbers 
     1.0000   1.0000   1.0000   1.0000   1.0000   1.0000   1.0000   1.0001
     0.0000   0.0000   0.0000   0.0000

          k = 0.1000 0.1732 0.2497 (  2058 PWs)   bands (ev):

    -7.9149  -6.8559   3.7367   5.8993   6.6792   7.4389   7.9530   8.3402
    18.4004  19.0699  19.4720  19.5205

     occupation numbers 
     1.0000   1.0000   1.0000   1.0000   1.0000   1.0000   1.0000   1.0000
     0.0000   0.0000   0.0000   0.0000

          k = 0.1000 0.2887 0.0000 (  2082 PWs)   bands (ev):

    -8.0608  -4.4855   1.3018   3.9584   5.4589   6.8755   8.4471   8.6732
    17.6001  18.8850  20.0913  20.7654

     occupation numbers 
     1.0000   1.0000   1.0000   1.0000   1.0000   1.0000   1.0000   1.0000
     0.0000   0.0000   0.0000   0.0000

          k = 0.1000 0.2887 0.1249 (  2076 PWs)   bands (ev):

    -7.8399  -5.0782   2.0334   4.3492   5.4302   6.4234   8.2480   8.5108
    17.5423  19.1006  19.6299  20.6702

     occupation numbers 
     1.0000   1.0000   1.0000   1.0000   1.0000   1.0000   1.0000   1.0000
     0.0000   0.0000   0.0000   0.0000

          k = 0.1000 0.2887 0.2497 (  2074 PWs)   bands (ev):

    -7.1952  -6.1996   3.3486   4.5358   5.6913   6.5780   7.3787   7.6725
    17.8144  18.6728  20.0016  20.5030

     occupation numbers 
     1.0000   1.0000   1.0000   1.0000   1.0000   1.0000   1.0000   1.0000
     0.0000   0.0000   0.0000   0.0000

          k = 0.1000 0.4041 0.0000 (  2076 PWs)   bands (ev):

    -7.0053  -4.1235   2.2470   2.3336   4.3751   5.4653   7.3127   8.0807
    17.2529  18.3671  20.3398  21.6286

     occupation numbers 
     1.0000   1.0000   1.0000   1.0000   1.0000   1.0000   1.0000   1.0000
     0.0000   0.0000   0.0000   0.0000

          k = 0.1000 0.4041 0.1249 (  2080 PWs)   bands (ev):

    -6.8052  -4.5195   1.6953   3.5225   4.1511   5.4261   7.5099   7.8706
    17.2121  18.3778  20.0863  21.0963

     occupation numbers 
     1.0000   1.0000   1.0000   1.0000   1.0000   1.0000   1.0000   1.0000
     0.0000   0.0000   0.0000   0.0000

          k = 0.1000 0.4041 0.2497 (  2083 PWs)   bands (ev):

    -6.2310  -5.3834   1.9565   2.7799   5.5261   6.1164   6.7378   7.5710
    17.2680  17.9632  20.2834  21.1079

     occupation numbers 
     1.0000   1.0000   1.0000   1.0000   1.0000   1.0000   1.0000   1.0000
     0.0000   0.0000   0.0000   0.0000

          k = 0.1000 0.5196 0.0000 (  2083 PWs)   bands (ev):

    -5.8997  -4.2789   1.4306   3.1828   3.5825   4.8052   6.1673   7.7565
    17.1916  17.5818  20.4533  21.7494

     occupation numbers 
     1.0000   1.0000   1.0000   1.0000   1.0000   1.0000   1.0000   1.0000
     0.0000   0.0000   0.0000   0.0000

          k = 0.1000 0.5196 0.1249 (  2085 PWs)   bands (ev):

    -5.7444  -4.4044   0.9741   2.5235   4.3463   5.1691   6.7739   7.4275
    17.1836  17.5911  20.3509  21.5015

     occupation numbers 
     1.0000   1.0000   1.0000   1.0000   1.0000   1.0000   1.0000   1.0000
     0.0000   0.0000   0.0000   0.0000

          k = 0.1000 0.5196 0.2497 (  2084 PWs)   bands (ev):

    -5.3243  -4.7958   0.8222   1.4340   5.2875   6.2031   6.5641   7.4640
    17.0295  17.4857  20.2775  20.6859

     occupation numbers 
     1.0000   1.0000   1.0000   1.0000   1.0000   1.0000   1.0000   1.0000
     0.0000   0.0000   0.0000   0.0000

          k = 0.2000 0.3464 0.0000 (  2077 PWs)   bands (ev):

    -7.1667  -4.1201   2.1774   3.1019   3.7094   5.8895   7.5174   7.5656
    17.5579  19.2324  20.7837  21.1518

     occupation numbers 
     1.0000   1.0000   1.0000   1.0000   1.0000   1.0000   1.0000   1.0000
     0.0000   0.0000   0.0000   0.0000

          k = 0.2000 0.3464 0.1249 (  2080 PWs)   bands (ev):

    -6.9620  -4.5623   2.1203   3.7386   4.0879   5.3041   7.0838   7.9556
    18.1579  18.8095  20.4612  20.8069

     occupation numbers 
     1.0000   1.0000   1.0000   1.0000   1.0000   1.0000   1.0000   1.0000
     0.0000   0.0000   0.0000   0.0000

          k = 0.2000 0.3464 0.2497 (  2070 PWs)   bands (ev):

    -6.3717  -5.4888   2.5239   3.2850   5.2144   5.6467   6.4302   7.6334
    18.4357  18.8579  20.4035  20.5783

     occupation numbers 
     1.0000   1.0000   1.0000   1.0000   1.0000   1.0000   1.0000   1.0000
     0.0000   0.0000   0.0000   0.0000

          k = 0.2000 0.4619 0.0000 (  2083 PWs)   bands (ev):

    -6.0740  -4.0517   2.0470   3.0241   3.3490   4.6118   6.4527   6.7539
    16.6091  19.6634  21.6518  22.3152

     occupation numbers 
     1.0000   1.0000   1.0000   1.0000   1.0000   1.0000   1.0000   1.0000
     0.0000   0.0000   0.0000   0.0000

          k = 0.2000 0.4619 0.1249 (  2082 PWs)   bands (ev):

    -5.9049  -4.2584   1.6266   2.7244   3.9981   4.7210   6.2179   7.2216
    17.3346  19.5266  20.4561  22.0210

     occupation numbers 
     1.0000   1.0000   1.0000   1.0000   1.0000   1.0000   1.0000   1.0000
     0.0000   0.0000   0.0000   0.0000

          k = 0.2000 0.4619 0.2497 (  2086 PWs)   bands (ev):

    -5.4358  -4.8024   1.5407   2.0973   4.1884   5.0620   6.5859   7.5797
    18.2264  18.8806  20.5256  21.2187

     occupation numbers 
     1.0000   1.0000   1.0000   1.0000   1.0000   1.0000   1.0000   1.0000
     0.0000   0.0000   0.0000   0.0000

          k = 0.2000 0.5774 0.0000 (  2083 PWs)   bands (ev):

    -5.3134  -4.3487   1.5660   3.3711   3.6422   4.0906   5.6781   6.5078
    16.2318  19.6052  21.9393  22.7646

     occupation numbers 
     1.0000   1.0000   1.0000   1.0000   1.0000   1.0000   1.0000   1.0000
     0.0000   0.0000   0.0000   0.0000

          k = 0.2000 0.5774 0.1249 (  2082 PWs)   bands (ev):

    -5.1938  -4.3892   1.2914   2.5645   3.3395   5.3464   5.7874   6.7350
    16.9910  19.6365  20.6264  22.1951

     occupation numbers 
     1.0000   1.0000   1.0000   1.0000   1.0000   1.0000   1.0000   1.0000
     0.0000   0.0000   0.0000   0.0000

          k = 0.2000 0.5774 0.2497 (  2089 PWs)   bands (ev):

    -4.8907  -4.5674   1.0748   1.5329   3.8278   4.7919   6.8737   7.4611
    18.0323  18.9893  20.4596  20.9127

     occupation numbers 
     1.0000   1.0000   1.0000   1.0000   1.0000   1.0000   1.0000   1.0000
     0.0000   0.0000   0.0000   0.0000

          k = 0.3000 0.5196 0.0000 (  2091 PWs)   bands (ev):

    -5.1115  -4.3141   1.6939   2.9742   3.8076   4.3467   5.5492   5.6424
    15.7105  22.1270  22.4640  22.8966

     occupation numbers 
     1.0000   1.0000   1.0000   1.0000   1.0000   1.0000   1.0000   1.0000
     0.0000   0.0000   0.0000   0.0000

          k = 0.3000 0.5196 0.1249 (  2088 PWs)   bands (ev):

    -5.0044  -4.3418   1.8728   2.1762   3.0348   4.9987   5.6169   6.5000
    16.6928  20.9205  21.9082  22.1605

     occupation numbers 
     1.0000   1.0000   1.0000   1.0000   1.0000   1.0000   1.0000   1.0000
     0.0000   0.0000   0.0000   0.0000

          k = 0.3000 0.5196 0.2497 (  2085 PWs)   bands (ev):

    -4.7406  -4.4757   1.6112   1.7843   2.9205   3.9154   7.0278   7.4259
    18.8119  19.3258  20.0784  21.4717

     occupation numbers 
     1.0000   1.0000   1.0000   1.0000   1.0000   1.0000   1.0000   1.0000
     0.0000   0.0000   0.0000   0.0000

          k =-0.1000 0.0577 0.0000 (  2067 PWs)   bands (ev):

    -9.2135  -5.1990   0.1663   7.0074   7.5562   9.3228   9.6992   9.9110
    17.6796  18.3339  18.9174  19.5566

     occupation numbers 
     1.0000   1.0000   1.0000   1.0000   1.0000   1.0055   1.0833   0.9062
     0.0000   0.0000   0.0000   0.0000

          k = 0.1000 0.0577 0.0000 (  2067 PWs)   bands (ev):

    -9.2135  -5.1990   0.1663   7.0073   7.5562   9.3227   9.6992   9.9110
    17.6796  18.3339  18.9174  19.5566

     occupation numbers 
     1.0000   1.0000   1.0000   1.0000   1.0000   1.0055   1.0833   0.9061
     0.0000   0.0000   0.0000   0.0000

          k = 0.0000-0.1155 0.1249 (  2063 PWs)   bands (ev):

    -8.9795  -5.9289   1.2816   7.1959   7.7374   8.4718   9.3273   9.6240
    17.8155  18.6563  18.9380  19.4155

     occupation numbers 
     1.0000   1.0000   1.0000   1.0000   1.0000   1.0000   1.0058   1.0707
     0.0000   0.0000   0.0000   0.0000

          k =-0.1000 0.0577 0.1249 (  2063 PWs)   bands (ev):

    -8.9795  -5.9289   1.2816   7.1959   7.7373   8.4718   9.3273   9.6239
    17.8155  18.6564  18.9380  19.4155

     occupation numbers 
     1.0000   1.0000   1.0000   1.0000   1.0000   1.0000   1.0058   1.0707
     0.0000   0.0000   0.0000   0.0000

          k = 0.1000 0.0577 0.1249 (  2063 PWs)   bands (ev):

    -8.9795  -5.9289   1.2816   7.1959   7.7374   8.4718   9.3273   9.6240
    17.8155  18.6563  18.9380  19.4155

     occupation numbers 
     1.0000   1.0000   1.0000   1.0000   1.0000   1.0000   1.0058   1.0707
     0.0000   0.0000   0.0000   0.0000

          k =-0.1000-0.0577 0.1249 (  2063 PWs)   bands (ev):

    -8.9795  -5.9289   1.2816   7.1959   7.7374   8.4718   9.3273   9.6240
    17.8155  18.6563  18.9380  19.4155

     occupation numbers 
     1.0000   1.0000   1.0000   1.0000   1.0000   1.0000   1.0058   1.0707
     0.0000   0.0000   0.0000   0.0000

          k = 0.1000-0.0577 0.1249 (  2063 PWs)   bands (ev):

    -8.9795  -5.9289   1.2816   7.1959   7.7373   8.4718   9.3273   9.6239
    17.8155  18.6564  18.9380  19.4155

     occupation numbers 
     1.0000   1.0000   1.0000   1.0000   1.0000   1.0000   1.0058   1.0707
     0.0000   0.0000   0.0000   0.0000

          k = 0.0000-0.1155 0.2497 (  2056 PWs)   bands (ev):

    -8.2912  -7.2073   3.6515   6.2921   7.7456   8.2445   8.5301   8.9545
    18.3936  18.9437  19.2800  19.4932

     occupation numbers 
     1.0000   1.0000   1.0000   1.0000   1.0000   1.0000   1.0000   1.0000
     0.0000   0.0000   0.0000   0.0000

          k =-0.1000 0.0577 0.2497 (  2056 PWs)   bands (ev):

    -8.2912  -7.2073   3.6515   6.2921   7.7456   8.2445   8.5301   8.9545
    18.3936  18.9437  19.2799  19.4932

     occupation numbers 
     1.0000   1.0000   1.0000   1.0000   1.0000   1.0000   1.0000   1.0000
     0.0000   0.0000   0.0000   0.0000

          k = 0.1000 0.0577 0.2497 (  2056 PWs)   bands (ev):

    -8.2912  -7.2073   3.6515   6.2921   7.7456   8.2445   8.5301   8.9545
    18.3936  18.9437  19.2800  19.4932

     occupation numbers 
     1.0000   1.0000   1.0000   1.0000   1.0000   1.0000   1.0000   1.0000
     0.0000   0.0000   0.0000   0.0000

          k =-0.1000-0.0577 0.2497 (  2056 PWs)   bands (ev):

    -8.2912  -7.2073   3.6515   6.2921   7.7456   8.2445   8.5301   8.9545
    18.3936  18.9437  19.2800  19.4932

     occupation numbers 
     1.0000   1.0000   1.0000   1.0000   1.0000   1.0000   1.0000   1.0000
     0.0000   0.0000   0.0000   0.0000

          k = 0.1000-0.0577 0.2497 (  2056 PWs)   bands (ev):

    -8.2912  -7.2073   3.6515   6.2921   7.7456   8.2445   8.5301   8.9545
    18.3936  18.9437  19.2799  19.4932

     occupation numbers 
     1.0000   1.0000   1.0000   1.0000   1.0000   1.0000   1.0000   1.0000
     0.0000   0.0000   0.0000   0.0000

          k =-0.2000 0.1155 0.0000 (  2086 PWs)   bands (ev):

    -8.6280  -4.8096   0.7439   5.0176   6.7891   7.5964   9.0353   9.4155
    17.1631  19.1631  19.7014  20.2604

     occupation numbers 
     1.0000   1.0000   1.0000   1.0000   1.0000   1.0000   1.0001   1.0157
     0.0000   0.0000   0.0000   0.0000

          k = 0.2000 0.1155 0.0000 (  2086 PWs)   bands (ev):

    -8.6280  -4.8096   0.7439   5.0176   6.7891   7.5964   9.0353   9.4155
    17.1631  19.1631  19.7014  20.2603

     occupation numbers 
     1.0000   1.0000   1.0000   1.0000   1.0000   1.0000   1.0001   1.0157
     0.0000   0.0000   0.0000   0.0000

          k = 0.0000-0.2309 0.1249 (  2082 PWs)   bands (ev):

    -8.3998  -5.4771   1.7181   5.2740   6.9507   6.9852   8.7594   9.0833
    17.1468  19.1789  19.5909  20.2852

     occupation numbers 
     1.0000   1.0000   1.0000   1.0000   1.0000   1.0000   1.0000   1.0001
     0.0000   0.0000   0.0000   0.0000

          k =-0.2000 0.1155 0.1249 (  2082 PWs)   bands (ev):

    -8.3998  -5.4771   1.7181   5.2740   6.9507   6.9852   8.7594   9.0832
    17.1468  19.1789  19.5910  20.2852

     occupation numbers 
     1.0000   1.0000   1.0000   1.0000   1.0000   1.0000   1.0000   1.0001
     0.0000   0.0000   0.0000   0.0000

          k = 0.2000 0.1155 0.1249 (  2082 PWs)   bands (ev):

    -8.3998  -5.4771   1.7181   5.2740   6.9507   6.9852   8.7594   9.0833
    17.1468  19.1789  19.5909  20.2852

     occupation numbers 
     1.0000   1.0000   1.0000   1.0000   1.0000   1.0000   1.0000   1.0001
     0.0000   0.0000   0.0000   0.0000

          k =-0.2000-0.1155 0.1249 (  2082 PWs)   bands (ev):

    -8.3998  -5.4771   1.7181   5.2740   6.9507   6.9852   8.7594   9.0833
    17.1468  19.1789  19.5909  20.2852

     occupation numbers 
     1.0000   1.0000   1.0000   1.0000   1.0000   1.0000   1.0000   1.0001
     0.0000   0.0000   0.0000   0.0000

          k = 0.2000-0.1155 0.1249 (  2082 PWs)   bands (ev):

    -8.3998  -5.4771   1.7181   5.2740   6.9507   6.9852   8.7594   9.0832
    17.1468  19.1789  19.5910  20.2852

     occupation numbers 
     1.0000   1.0000   1.0000   1.0000   1.0000   1.0000   1.0000   1.0001
     0.0000   0.0000   0.0000   0.0000

          k = 0.0000-0.2309 0.2497 (  2058 PWs)   bands (ev):

    -7.7309  -6.6860   3.6955   5.5053   6.1773   7.5382   7.5407   8.3245
    17.5716  18.4631  20.3342  20.6384

     occupation numbers 
     1.0000   1.0000   1.0000   1.0000   1.0000   1.0000   1.0000   1.0000
     0.0000   0.0000   0.0000   0.0000

          k =-0.2000 0.1155 0.2497 (  2058 PWs)   bands (ev):

    -7.7309  -6.6860   3.6955   5.5053   6.1773   7.5382   7.5407   8.3245
    17.5716  18.4631  20.3342  20.6385

     occupation numbers 
     1.0000   1.0000   1.0000   1.0000   1.0000   1.0000   1.0000   1.0000
     0.0000   0.0000   0.0000   0.0000

          k = 0.2000 0.1155 0.2497 (  2058 PWs)   bands (ev):

    -7.7309  -6.6860   3.6955   5.5053   6.1773   7.5382   7.5407   8.3245
    17.5716  18.4631  20.3342  20.6384

     occupation numbers 
     1.0000   1.0000   1.0000   1.0000   1.0000   1.0000   1.0000   1.0000
     0.0000   0.0000   0.0000   0.0000

          k =-0.2000-0.1155 0.2497 (  2058 PWs)   bands (ev):

    -7.7309  -6.6860   3.6955   5.5053   6.1773   7.5382   7.5407   8.3245
    17.5716  18.4631  20.3342  20.6384

     occupation numbers 
     1.0000   1.0000   1.0000   1.0000   1.0000   1.0000   1.0000   1.0000
     0.0000   0.0000   0.0000   0.0000

          k = 0.2000-0.1155 0.2497 (  2058 PWs)   bands (ev):

    -7.7309  -6.6860   3.6955   5.5053   6.1773   7.5382   7.5407   8.3245
    17.5716  18.4631  20.3342  20.6385

     occupation numbers 
     1.0000   1.0000   1.0000   1.0000   1.0000   1.0000   1.0000   1.0000
     0.0000   0.0000   0.0000   0.0000

          k =-0.3000 0.1732 0.0000 (  2074 PWs)   bands (ev):

    -7.6977  -4.3316   1.6550   2.9502   5.6262   6.0290   7.9971   8.8440
    16.7001  19.1116  19.8323  21.0987

     occupation numbers 
     1.0000   1.0000   1.0000   1.0000   1.0000   1.0000   1.0000   1.0000
     0.0000   0.0000   0.0000   0.0000

          k = 0.3000 0.1732 0.0000 (  2074 PWs)   bands (ev):

    -7.6977  -4.3316   1.6550   2.9502   5.6261   6.0290   7.9971   8.8440
    16.7001  19.1116  19.8323  21.0987

     occupation numbers 
     1.0000   1.0000   1.0000   1.0000   1.0000   1.0000   1.0000   1.0000
     0.0000   0.0000   0.0000   0.0000

          k = 0.0000-0.3464 0.1249 (  2074 PWs)   bands (ev):

    -7.4828  -4.8612   1.9810   3.6624   4.9799   6.2355   8.1211   8.4801
    16.6457  18.4022  20.4008  20.6388

     occupation numbers 
     1.0000   1.0000   1.0000   1.0000   1.0000   1.0000   1.0000   1.0000
     0.0000   0.0000   0.0000   0.0000

          k =-0.3000 0.1732 0.1249 (  2074 PWs)   bands (ev):

    -7.4828  -4.8612   1.9810   3.6624   4.9800   6.2354   8.1211   8.4801
    16.6457  18.4022  20.4008  20.6388

     occupation numbers 
     1.0000   1.0000   1.0000   1.0000   1.0000   1.0000   1.0000   1.0000
     0.0000   0.0000   0.0000   0.0000

          k = 0.3000 0.1732 0.1249 (  2074 PWs)   bands (ev):

    -7.4828  -4.8612   1.9810   3.6624   4.9799   6.2355   8.1211   8.4801
    16.6457  18.4022  20.4008  20.6388

     occupation numbers 
     1.0000   1.0000   1.0000   1.0000   1.0000   1.0000   1.0000   1.0000
     0.0000   0.0000   0.0000   0.0000

          k =-0.3000-0.1732 0.1249 (  2074 PWs)   bands (ev):

    -7.4828  -4.8612   1.9810   3.6624   4.9799   6.2355   8.1211   8.4801
    16.6457  18.4022  20.4008  20.6388

     occupation numbers 
     1.0000   1.0000   1.0000   1.0000   1.0000   1.0000   1.0000   1.0000
     0.0000   0.0000   0.0000   0.0000

          k = 0.3000-0.1732 0.1249 (  2074 PWs)   bands (ev):

    -7.4828  -4.8612   1.9810   3.6624   4.9800   6.2354   8.1211   8.4801
    16.6457  18.4022  20.4008  20.6388

     occupation numbers 
     1.0000   1.0000   1.0000   1.0000   1.0000   1.0000   1.0000   1.0000
     0.0000   0.0000   0.0000   0.0000

          k = 0.0000-0.3464 0.2497 (  2070 PWs)   bands (ev):

    -6.8585  -5.9057   2.7026   3.7016   5.5759   6.8202   7.3697   7.6593
    16.8473  17.6566  20.3711  21.4632

     occupation numbers 
     1.0000   1.0000   1.0000   1.0000   1.0000   1.0000   1.0000   1.0000
     0.0000   0.0000   0.0000   0.0000

          k =-0.3000 0.1732 0.2497 (  2070 PWs)   bands (ev):

    -6.8585  -5.9057   2.7026   3.7016   5.5759   6.8202   7.3697   7.6593
    16.8473  17.6565  20.3711  21.4632

     occupation numbers 
     1.0000   1.0000   1.0000   1.0000   1.0000   1.0000   1.0000   1.0000
     0.0000   0.0000   0.0000   0.0000

          k = 0.3000 0.1732 0.2497 (  2070 PWs)   bands (ev):

    -6.8585  -5.9057   2.7026   3.7016   5.5759   6.8202   7.3697   7.6593
    16.8473  17.6566  20.3711  21.4632

     occupation numbers 
     1.0000   1.0000   1.0000   1.0000   1.0000   1.0000   1.0000   1.0000
     0.0000   0.0000   0.0000   0.0000

          k =-0.3000-0.1732 0.2497 (  2070 PWs)   bands (ev):

    -6.8585  -5.9057   2.7026   3.7016   5.5759   6.8202   7.3697   7.6593
    16.8473  17.6566  20.3711  21.4632

     occupation numbers 
     1.0000   1.0000   1.0000   1.0000   1.0000   1.0000   1.0000   1.0000
     0.0000   0.0000   0.0000   0.0000

          k = 0.3000-0.1732 0.2497 (  2070 PWs)   bands (ev):

    -6.8585  -5.9057   2.7026   3.7016   5.5759   6.8202   7.3697   7.6593
    16.8473  17.6565  20.3711  21.4634

     occupation numbers 
     1.0000   1.0000   1.0000   1.0000   1.0000   1.0000   1.0000   1.0000
     0.0000   0.0000   0.0000   0.0000

          k =-0.4000 0.2309 0.0000 (  2068 PWs)   bands (ev):

    -6.5483  -4.1681   1.5812   2.7439   3.9293   5.5076   6.7551   8.4219
    16.3993  18.3548  20.1034  20.9465

     occupation numbers 
     1.0000   1.0000   1.0000   1.0000   1.0000   1.0000   1.0000   1.0000
     0.0000   0.0000   0.0000   0.0000

          k = 0.4000 0.2309 0.0000 (  2068 PWs)   bands (ev):

    -6.5483  -4.1681   1.5812   2.7440   3.9293   5.5076   6.7551   8.4219
    16.3993  18.3548  20.1034  20.9465

     occupation numbers 
     1.0000   1.0000   1.0000   1.0000   1.0000   1.0000   1.0000   1.0000
     0.0000   0.0000   0.0000   0.0000

          k = 0.0000-0.4619 0.1249 (  2075 PWs)   bands (ev):

    -6.3637  -4.4388   1.1127   3.0236   4.1359   5.7196   7.2774   8.0414
    16.4339  17.5508  20.7800  20.8404

     occupation numbers 
     1.0000   1.0000   1.0000   1.0000   1.0000   1.0000   1.0000   1.0000
     0.0000   0.0000   0.0000   0.0000

          k =-0.4000 0.2309 0.1249 (  2075 PWs)   bands (ev):

    -6.3637  -4.4387   1.1127   3.0236   4.1359   5.7195   7.2774   8.0414
    16.4339  17.5508  20.7800  20.8404

     occupation numbers 
     1.0000   1.0000   1.0000   1.0000   1.0000   1.0000   1.0000   1.0000
     0.0000   0.0000   0.0000   0.0000

          k = 0.4000 0.2309 0.1249 (  2075 PWs)   bands (ev):

    -6.3637  -4.4388   1.1127   3.0236   4.1359   5.7196   7.2774   8.0414
    16.4339  17.5508  20.7800  20.8404

     occupation numbers 
     1.0000   1.0000   1.0000   1.0000   1.0000   1.0000   1.0000   1.0000
     0.0000   0.0000   0.0000   0.0000

          k =-0.4000-0.2309 0.1249 (  2075 PWs)   bands (ev):

    -6.3637  -4.4388   1.1127   3.0236   4.1359   5.7196   7.2774   8.0414
    16.4339  17.5508  20.7800  20.8404

     occupation numbers 
     1.0000   1.0000   1.0000   1.0000   1.0000   1.0000   1.0000   1.0000
     0.0000   0.0000   0.0000   0.0000

          k = 0.4000-0.2309 0.1249 (  2075 PWs)   bands (ev):

    -6.3637  -4.4387   1.1127   3.0236   4.1359   5.7195   7.2774   8.0414
    16.4339  17.5508  20.7800  20.8404

     occupation numbers 
     1.0000   1.0000   1.0000   1.0000   1.0000   1.0000   1.0000   1.0000
     0.0000   0.0000   0.0000   0.0000

          k = 0.0000-0.4619 0.2497 (  2080 PWs)   bands (ev):

    -5.8431  -5.1109   1.1711   1.9330   5.9744   6.3211   7.1880   7.3201
    16.4660  16.9757  20.0412  20.8295

     occupation numbers 
     1.0000   1.0000   1.0000   1.0000   1.0000   1.0000   1.0000   1.0000
     0.0000   0.0000   0.0000   0.0000

          k =-0.4000 0.2309 0.2497 (  2080 PWs)   bands (ev):

    -5.8431  -5.1109   1.1712   1.9330   5.9744   6.3210   7.1879   7.3201
    16.4660  16.9757  20.0412  20.8295

     occupation numbers 
     1.0000   1.0000   1.0000   1.0000   1.0000   1.0000   1.0000   1.0000
     0.0000   0.0000   0.0000   0.0000

          k = 0.4000 0.2309 0.2497 (  2080 PWs)   bands (ev):

    -5.8431  -5.1109   1.1711   1.9330   5.9744   6.3211   7.1880   7.3201
    16.4660  16.9757  20.0412  20.8295

     occupation numbers 
     1.0000   1.0000   1.0000   1.0000   1.0000   1.0000   1.0000   1.0000
     0.0000   0.0000   0.0000   0.0000

          k =-0.4000-0.2309 0.2497 (  2080 PWs)   bands (ev):

    -5.8431  -5.1109   1.1711   1.9330   5.9744   6.3211   7.1880   7.3201
    16.4660  16.9757  20.0412  20.8295

     occupation numbers 
     1.0000   1.0000   1.0000   1.0000   1.0000   1.0000   1.0000   1.0000
     0.0000   0.0000   0.0000   0.0000

          k = 0.4000-0.2309 0.2497 (  2080 PWs)   bands (ev):

    -5.8431  -5.1109   1.1712   1.9330   5.9744   6.3210   7.1879   7.3201
    16.4660  16.9757  20.0412  20.8295

     occupation numbers 
     1.0000   1.0000   1.0000   1.0000   1.0000   1.0000   1.0000   1.0000
     0.0000   0.0000   0.0000   0.0000

          k = 0.5000-0.2887 0.0000 (  2080 PWs)   bands (ev):

    -5.7609  -4.4535   1.2649   3.0049   3.5715   5.3246   5.9889   8.2695
    16.2974  18.0443  20.1548  20.8066

     occupation numbers 
     1.0000   1.0000   1.0000   1.0000   1.0000   1.0000   1.0000   1.0000
     0.0000   0.0000   0.0000   0.0000

          k =-0.5000-0.2887 0.0000 (  2080 PWs)   bands (ev):

    -5.7609  -4.4535   1.2649   3.0049   3.5715   5.3246   5.9889   8.2695
    16.2975  18.0444  20.1548  20.8067

     occupation numbers 
[...]

          k =-0.2000 0.4619-0.2497 (  2086 PWs)   bands (ev):

    -5.4359  -4.8024   1.5407   2.0974   4.1884   5.0620   6.5859   7.5797
    18.2264  18.8806  20.5256  21.2187

     occupation numbers 
     1.0000   1.0000   1.0000   1.0000   1.0000   1.0000   1.0000   1.0000
     0.0000   0.0000   0.0000   0.0000

          k = 0.2000-0.4619-0.2497 (  2086 PWs)   bands (ev):

    -5.4359  -4.8024   1.5407   2.0974   4.1884   5.0620   6.5859   7.5797
    18.2264  18.8806  20.5256  21.2188

     occupation numbers 
     1.0000   1.0000   1.0000   1.0000   1.0000   1.0000   1.0000   1.0000
     0.0000   0.0000   0.0000   0.0000

          k =-0.3000 0.4041 0.2497 (  2086 PWs)   bands (ev):

    -5.4359  -4.8024   1.5407   2.0974   4.1883   5.0620   6.5859   7.5797
    18.2264  18.8806  20.5256  21.2187

     occupation numbers 
     1.0000   1.0000   1.0000   1.0000   1.0000   1.0000   1.0000   1.0000
     0.0000   0.0000   0.0000   0.0000

          k = 0.5000 0.0577 0.2497 (  2086 PWs)   bands (ev):

    -5.4359  -4.8024   1.5407   2.0974   4.1884   5.0620   6.5859   7.5797
    18.2264  18.8806  20.5256  21.2187

     occupation numbers 
     1.0000   1.0000   1.0000   1.0000   1.0000   1.0000   1.0000   1.0000
     0.0000   0.0000   0.0000   0.0000

          k =-0.5000-0.0577 0.2497 (  2086 PWs)   bands (ev):

    -5.4359  -4.8024   1.5407   2.0974   4.1884   5.0620   6.5859   7.5797
    18.2264  18.8806  20.5256  21.2187

     occupation numbers 
     1.0000   1.0000   1.0000   1.0000   1.0000   1.0000   1.0000   1.0000
     0.0000   0.0000   0.0000   0.0000

          k = 0.3000-0.4041 0.2497 (  2086 PWs)   bands (ev):

    -5.4359  -4.8024   1.5407   2.0974   4.1883   5.0620   6.5859   7.5797
    18.2264  18.8806  20.5256  21.2187

     occupation numbers 
     1.0000   1.0000   1.0000   1.0000   1.0000   1.0000   1.0000   1.0000
     0.0000   0.0000   0.0000   0.0000

          k =-0.3000-0.4041-0.2497 (  2086 PWs)   bands (ev):

    -5.4358  -4.8024   1.5407   2.0973   4.1884   5.0620   6.5859   7.5797
    18.2264  18.8806  20.5256  21.2187

     occupation numbers 
     1.0000   1.0000   1.0000   1.0000   1.0000   1.0000   1.0000   1.0000
     0.0000   0.0000   0.0000   0.0000

          k = 0.5000-0.0577-0.2497 (  2086 PWs)   bands (ev):

    -5.4359  -4.8024   1.5407   2.0974   4.1883   5.0620   6.5859   7.5797
    18.2264  18.8806  20.5256  21.2187

     occupation numbers 
     1.0000   1.0000   1.0000   1.0000   1.0000   1.0000   1.0000   1.0000
     0.0000   0.0000   0.0000   0.0000

          k =-0.5000 0.0577-0.2497 (  2086 PWs)   bands (ev):

    -5.4359  -4.8024   1.5407   2.0974   4.1883   5.0620   6.5859   7.5797
    18.2264  18.8806  20.5256  21.2187

     occupation numbers 
     1.0000   1.0000   1.0000   1.0000   1.0000   1.0000   1.0000   1.0000
     0.0000   0.0000   0.0000   0.0000

          k = 0.3000 0.4041-0.2497 (  2086 PWs)   bands (ev):

    -5.4358  -4.8024   1.5407   2.0973   4.1884   5.0620   6.5859   7.5797
    18.2264  18.8806  20.5256  21.2188

     occupation numbers 
     1.0000   1.0000   1.0000   1.0000   1.0000   1.0000   1.0000   1.0000
     0.0000   0.0000   0.0000   0.0000

          k =-0.4000 0.4619 0.0000 (  2083 PWs)   bands (ev):

    -5.3134  -4.3487   1.5660   3.3711   3.6421   4.0906   5.6782   6.5078
    16.2318  19.6052  21.9393  22.7645

     occupation numbers 
     1.0000   1.0000   1.0000   1.0000   1.0000   1.0000   1.0000   1.0000
     0.0000   0.0000   0.0000   0.0000

          k = 0.6000 0.1155 0.0000 (  2083 PWs)   bands (ev):

    -5.3134  -4.3487   1.5660   3.3711   3.6422   4.0906   5.6781   6.5078
    16.2318  19.6052  21.9393  22.7645

     occupation numbers 
     1.0000   1.0000   1.0000   1.0000   1.0000   1.0000   1.0000   1.0000
     0.0000   0.0000   0.0000   0.0000

          k =-0.2000-0.5774 0.1249 (  2082 PWs)   bands (ev):

    -5.1938  -4.3892   1.2914   2.5645   3.3395   5.3464   5.7874   6.7350
    16.9910  19.6365  20.6264  22.1951

     occupation numbers 
     1.0000   1.0000   1.0000   1.0000   1.0000   1.0000   1.0000   1.0000
     0.0000   0.0000   0.0000   0.0000

          k =-0.4000 0.4619 0.1249 (  2082 PWs)   bands (ev):

    -5.1938  -4.3892   1.2914   2.5646   3.3395   5.3464   5.7873   6.7351
    16.9910  19.6365  20.6264  22.1952

     occupation numbers 
     1.0000   1.0000   1.0000   1.0000   1.0000   1.0000   1.0000   1.0000
     0.0000   0.0000   0.0000   0.0000

          k = 0.6000 0.1155 0.1249 (  2082 PWs)   bands (ev):

    -5.1938  -4.3892   1.2914   2.5645   3.3395   5.3464   5.7874   6.7350
    16.9910  19.6365  20.6264  22.1951

     occupation numbers 
     1.0000   1.0000   1.0000   1.0000   1.0000   1.0000   1.0000   1.0000
     0.0000   0.0000   0.0000   0.0000

          k =-0.6000-0.1155 0.1249 (  2082 PWs)   bands (ev):

    -5.1938  -4.3892   1.2914   2.5645   3.3395   5.3464   5.7874   6.7350
    16.9910  19.6365  20.6264  22.1951

     occupation numbers 
     1.0000   1.0000   1.0000   1.0000   1.0000   1.0000   1.0000   1.0000
     0.0000   0.0000   0.0000   0.0000

          k = 0.4000-0.4619 0.1249 (  2082 PWs)   bands (ev):

    -5.1938  -4.3892   1.2914   2.5646   3.3395   5.3464   5.7873   6.7351
    16.9910  19.6365  20.6264  22.1951

     occupation numbers 
     1.0000   1.0000   1.0000   1.0000   1.0000   1.0000   1.0000   1.0000
     0.0000   0.0000   0.0000   0.0000

          k =-0.2000-0.5774 0.2497 (  2089 PWs)   bands (ev):

    -4.8907  -4.5674   1.0748   1.5329   3.8278   4.7919   6.8737   7.4611
    18.0323  18.9893  20.4596  20.9127

     occupation numbers 
     1.0000   1.0000   1.0000   1.0000   1.0000   1.0000   1.0000   1.0000
     0.0000   0.0000   0.0000   0.0000

          k =-0.4000 0.4619 0.2497 (  2089 PWs)   bands (ev):

    -4.8907  -4.5674   1.0748   1.5329   3.8278   4.7919   6.8737   7.4611
    18.0323  18.9893  20.4596  20.9127

     occupation numbers 
     1.0000   1.0000   1.0000   1.0000   1.0000   1.0000   1.0000   1.0000
     0.0000   0.0000   0.0000   0.0000

          k = 0.6000 0.1155 0.2497 (  2089 PWs)   bands (ev):

    -4.8907  -4.5674   1.0748   1.5329   3.8278   4.7919   6.8737   7.4611
    18.0323  18.9893  20.4596  20.9127

     occupation numbers 
     1.0000   1.0000   1.0000   1.0000   1.0000   1.0000   1.0000   1.0000
     0.0000   0.0000   0.0000   0.0000

          k =-0.6000-0.1155 0.2497 (  2089 PWs)   bands (ev):

    -4.8907  -4.5674   1.0748   1.5329   3.8278   4.7919   6.8737   7.4611
    18.0323  18.9893  20.4596  20.9127

     occupation numbers 
     1.0000   1.0000   1.0000   1.0000   1.0000   1.0000   1.0000   1.0000
     0.0000   0.0000   0.0000   0.0000

          k = 0.4000-0.4619 0.2497 (  2089 PWs)   bands (ev):

    -4.8907  -4.5674   1.0748   1.5329   3.8278   4.7919   6.8737   7.4611
    18.0323  18.9893  20.4596  20.9127

     occupation numbers 
     1.0000   1.0000   1.0000   1.0000   1.0000   1.0000   1.0000   1.0000
     0.0000   0.0000   0.0000   0.0000

          k =-0.3000 0.5196 0.0000 (  2091 PWs)   bands (ev):

    -5.1115  -4.3140   1.6939   2.9742   3.8077   4.3467   5.5492   5.6424
    15.7105  22.1269  22.4641  22.8966

     occupation numbers 
     1.0000   1.0000   1.0000   1.0000   1.0000   1.0000   1.0000   1.0000
     0.0000   0.0000   0.0000   0.0000

          k = 0.6000-0.0000 0.0000 (  2091 PWs)   bands (ev):

    -5.1115  -4.3140   1.6939   2.9742   3.8077   4.3467   5.5492   5.6424
    15.7105  22.1269  22.4641  22.8965

     occupation numbers 
     1.0000   1.0000   1.0000   1.0000   1.0000   1.0000   1.0000   1.0000
     0.0000   0.0000   0.0000   0.0000

          k =-0.3000-0.5196 0.1249 (  2088 PWs)   bands (ev):

    -5.0044  -4.3418   1.8728   2.1762   3.0348   4.9987   5.6169   6.5000
    16.6928  20.9205  21.9082  22.1604

     occupation numbers 
     1.0000   1.0000   1.0000   1.0000   1.0000   1.0000   1.0000   1.0000
     0.0000   0.0000   0.0000   0.0000

          k =-0.3000 0.5196-0.1249 (  2088 PWs)   bands (ev):

    -5.0044  -4.3418   1.8728   2.1762   3.0348   4.9987   5.6169   6.5000
    16.6928  20.9205  21.9082  22.1604

     occupation numbers 
     1.0000   1.0000   1.0000   1.0000   1.0000   1.0000   1.0000   1.0000
     0.0000   0.0000   0.0000   0.0000

          k = 0.3000-0.5196-0.1249 (  2088 PWs)   bands (ev):

    -5.0044  -4.3418   1.8728   2.1762   3.0348   4.9987   5.6169   6.5000
    16.6928  20.9205  21.9082  22.1604

     occupation numbers 
     1.0000   1.0000   1.0000   1.0000   1.0000   1.0000   1.0000   1.0000
     0.0000   0.0000   0.0000   0.0000

          k = 0.6000-0.0000 0.1249 (  2088 PWs)   bands (ev):

    -5.0044  -4.3418   1.8728   2.1762   3.0348   4.9987   5.6169   6.5000
    16.6928  20.9205  21.9082  22.1604

     occupation numbers 
     1.0000   1.0000   1.0000   1.0000   1.0000   1.0000   1.0000   1.0000
     0.0000   0.0000   0.0000   0.0000

          k =-0.6000 0.0000 0.1249 (  2088 PWs)   bands (ev):

    -5.0044  -4.3418   1.8728   2.1762   3.0348   4.9987   5.6169   6.5000
    16.6928  20.9205  21.9082  22.1604

     occupation numbers 
     1.0000   1.0000   1.0000   1.0000   1.0000   1.0000   1.0000   1.0000
     0.0000   0.0000   0.0000   0.0000

          k =-0.3000-0.5196 0.2497 (  2085 PWs)   bands (ev):

    -4.7406  -4.4757   1.6112   1.7843   2.9205   3.9154   7.0278   7.4259
    18.8119  19.3258  20.0784  21.4717

     occupation numbers 
     1.0000   1.0000   1.0000   1.0000   1.0000   1.0000   1.0000   1.0000
     0.0000   0.0000   0.0000   0.0000

          k =-0.3000 0.5196-0.2497 (  2085 PWs)   bands (ev):

    -4.7406  -4.4757   1.6112   1.7843   2.9205   3.9154   7.0277   7.4259
    18.8119  19.3258  20.0784  21.4717

     occupation numbers 
     1.0000   1.0000   1.0000   1.0000   1.0000   1.0000   1.0000   1.0000
     0.0000   0.0000   0.0000   0.0000

          k = 0.3000-0.5196-0.2497 (  2085 PWs)   bands (ev):

    -4.7406  -4.4757   1.6112   1.7843   2.9205   3.9154   7.0277   7.4259
    18.8119  19.3258  20.0784  21.4717

     occupation numbers 
     1.0000   1.0000   1.0000   1.0000   1.0000   1.0000   1.0000   1.0000
     0.0000   0.0000   0.0000   0.0000

          k = 0.6000-0.0000 0.2497 (  2085 PWs)   bands (ev):

    -4.7406  -4.4757   1.6112   1.7843   2.9205   3.9154   7.0277   7.4259
    18.8119  19.3258  20.0784  21.4717

     occupation numbers 
     1.0000   1.0000   1.0000   1.0000   1.0000   1.0000   1.0000   1.0000
     0.0000   0.0000   0.0000   0.0000

          k =-0.6000 0.0000 0.2497 (  2085 PWs)   bands (ev):

    -4.7406  -4.4757   1.6112   1.7843   2.9205   3.9154   7.0277   7.4259
    18.8119  19.3258  20.0784  21.4717

     occupation numbers 
     1.0000   1.0000   1.0000   1.0000   1.0000   1.0000   1.0000   1.0000
     0.0000   0.0000   0.0000   0.0000

     the Fermi energy is    10.1270 ev

!    total energy              =     -54.83739810 Ry
     estimated scf accuracy    <          6.5E-12 Ry
     smearing contrib. (-TS)   =       0.00033322 Ry
     internal energy E=F+TS    =     -54.83773132 Ry

     The total energy is F=E-TS. E is the sum of the following terms:
     one-electron contribution =       7.44202529 Ry
     hartree contribution      =       7.54871787 Ry
     xc contribution           =     -18.55351610 Ry
     ewald contribution        =     -51.27495839 Ry

     convergence has been achieved in  15 iterations

     Forces acting on atoms (cartesian axes, Ry/au):

     atom    1 type  1   force =     0.00000181    0.00000268    0.00013710
     atom    2 type  1   force =    -0.00000096    0.00000409    0.00013709
     atom    3 type  2   force =     0.00000105   -0.00000429   -0.00013707
     atom    4 type  2   force =    -0.00000191   -0.00000249   -0.00013711
     The non-local contrib.  to forces
     atom    1 type  1   force =     0.00000311    0.00000115    0.02946036
     atom    2 type  1   force =    -0.00000231    0.00000500    0.02946031
     atom    3 type  2   force =    -0.00000038    0.00000249    0.02982172
     atom    4 type  2   force =     0.00000095    0.00000173    0.02982167
     The ionic contribution  to forces
     atom    1 type  1   force =     0.00000997   -0.00000576    0.08982475
     atom    2 type  1   force =    -0.00000997    0.00000576    0.08982475
     atom    3 type  2   force =     0.00001056   -0.00000609   -0.08982475
     atom    4 type  2   force =    -0.00001056    0.00000609   -0.08982475
     The local contribution  to forces
     atom    1 type  1   force =    -0.00001143    0.00000373   -0.11734798
     atom    2 type  1   force =     0.00001070   -0.00000935   -0.11734797
     atom    3 type  2   force =    -0.00000845    0.00000388    0.06003534
     atom    4 type  2   force =     0.00000828   -0.00000564    0.06003524
     The core correction contribution to forces
     atom    1 type  1   force =     0.00000077    0.00000808   -0.00183384
     atom    2 type  1   force =     0.00000123    0.00000722   -0.00183384
     atom    3 type  2   force =    -0.00000006   -0.00000005   -0.00020337
     atom    4 type  2   force =     0.00000004   -0.00000010   -0.00020337
     The Hubbard contrib.    to forces
     atom    1 type  1   force =     0.00000000    0.00000000    0.00000000
     atom    2 type  1   force =     0.00000000    0.00000000    0.00000000
     atom    3 type  2   force =     0.00000000    0.00000000    0.00000000
     atom    4 type  2   force =     0.00000000    0.00000000    0.00000000
     The SCF correction term to forces
     atom    1 type  1   force =    -0.00000000    0.00000001   -0.00000002
     atom    2 type  1   force =     0.00000000   -0.00000001    0.00000001
     atom    3 type  2   force =    -0.00000003    0.00000002    0.00000016
     atom    4 type  2   force =    -0.00000001   -0.00000004    0.00000027

     Total force =     0.000274     Total SCF correction =     0.000000


     Computing stress (Cartesian axis) and pressure

          total   stress  (Ry/bohr**3)                   (kbar)     P=     -218.91
  -0.00206728  -0.00000000   0.00000000         -304.11       -0.00        0.00
  -0.00000000  -0.00206730   0.00000002           -0.00     -304.11        0.00
   0.00000000   0.00000002  -0.00032985            0.00        0.00      -48.52

     kinetic stress (kbar)  20513.56     -0.01      0.00
                               -0.01  20513.55      0.00
                                0.00      0.00  20714.91

     local   stress (kbar)   -763.96     -0.05      0.00
                               -0.05   -764.02      0.00
                                0.00      0.00  -2566.34

     nonloc. stress (kbar)  -2563.34      0.00     -0.00
                                0.00  -2563.34     -0.00
                               -0.00     -0.00  -2587.97

     hartree stress (kbar)   1986.35      0.01     -0.00
                                0.01   1986.37     -0.00
                               -0.00     -0.00   2481.79

     exc-cor stress (kbar)  -1094.73      0.00      0.00
                                0.00  -1094.73      0.00
                                0.00      0.00  -1088.14

     corecor stress (kbar)  -3306.43     -0.00      0.00
                               -0.00  -3306.43      0.00
                                0.00      0.00  -3311.37

     ewald   stress (kbar) -15075.56      0.05     -0.00
                                0.05 -15075.51      0.00
                               -0.00      0.00 -13691.41

     hubbard stress (kbar)      0.00      0.00      0.00
                                0.00      0.00      0.00
                                0.00      0.00      0.00

     DFT-D   stress (kbar)      0.00      0.00      0.00
                                0.00      0.00      0.00
                                0.00      0.00      0.00

     XDM     stress (kbar)      0.00      0.00      0.00
                                0.00      0.00      0.00
                                0.00      0.00      0.00

     dft-nl  stress (kbar)      0.00      0.00      0.00
                                0.00      0.00      0.00
                                0.00      0.00      0.00

     TS-vdW  stress (kbar)      0.00      0.00      0.00
                                0.00      0.00      0.00
                                0.00      0.00      0.00



     init_run     :      0.54s CPU      0.76s WALL (       1 calls)
     electrons    :     17.82s CPU     19.25s WALL (       1 calls)
     forces       :      0.12s CPU      0.12s WALL (       1 calls)
     stress       :      0.33s CPU      0.34s WALL (       1 calls)

     Called by init_run:
     wfcinit      :      0.45s CPU      0.60s WALL (       1 calls)
     wfcinit:atom :      0.01s CPU      0.01s WALL (     252 calls)
     wfcinit:wfcr :      0.41s CPU      0.55s WALL (     252 calls)
     potinit      :      0.02s CPU      0.03s WALL (       1 calls)
     hinit0       :      0.05s CPU      0.10s WALL (       1 calls)

     Called by electrons:
     c_bands      :     15.47s CPU     16.71s WALL (      15 calls)
     sum_band     :      2.26s CPU      2.43s WALL (      15 calls)
     v_of_rho     :      0.05s CPU      0.06s WALL (      16 calls)
     v_h          :      0.00s CPU      0.00s WALL (      16 calls)
     v_xc         :      0.05s CPU      0.06s WALL (      18 calls)
     newd         :      0.03s CPU      0.05s WALL (      16 calls)
     mix_rho      :      0.01s CPU      0.01s WALL (      15 calls)

     Called by c_bands:
     init_us_2    :      0.35s CPU      0.38s WALL (    8316 calls)
     cegterg      :     14.80s CPU     15.99s WALL (    3780 calls)

     Called by sum_band:
     sum_band:wei :      0.02s CPU      0.02s WALL (      15 calls)
     sum_band:loo :      2.20s CPU      2.37s WALL (      15 calls)
     sum_band:buf :      0.04s CPU      0.04s WALL (    3780 calls)
     sum_band:ini :      0.13s CPU      0.14s WALL (    3780 calls)
     sum_band:cal :      0.14s CPU      0.15s WALL (    3780 calls)
     sum_band:bec :      0.01s CPU      0.01s WALL (    3780 calls)
     addusdens    :      0.03s CPU      0.03s WALL (      15 calls)
     addusd:skk   :      0.00s CPU      0.00s WALL (      15 calls)
     addusd:dgemm :      0.01s CPU      0.01s WALL (      15 calls)
     addusd:qvan2 :      0.01s CPU      0.01s WALL (      15 calls)

     Called by *egterg:
     cdiaghg      :      2.12s CPU      2.53s WALL (   16557 calls)
     cegterg:over :      0.62s CPU      0.67s WALL (   12777 calls)
     cegterg:upda :      0.17s CPU      0.18s WALL (   12777 calls)
     cegterg:last :      0.24s CPU      0.26s WALL (    8594 calls)
     h_psi        :     11.31s CPU     12.11s WALL (   16809 calls)
     s_psi        :      0.23s CPU      0.24s WALL (   16809 calls)
     g_psi        :      0.05s CPU      0.05s WALL (   12777 calls)

     Called by h_psi:
     h_psi:calbec :      0.56s CPU      0.61s WALL (   16809 calls)
     vloc_psi     :     10.39s CPU     11.11s WALL (   16809 calls)
     add_vuspsi   :      0.27s CPU      0.30s WALL (   16809 calls)

     General routines
     calbec       :      0.72s CPU      0.79s WALL (   21849 calls)
     fft          :      0.03s CPU      0.07s WALL (     231 calls)
     ffts         :      0.00s CPU      0.00s WALL (      31 calls)
     fftw         :     11.19s CPU     12.00s WALL (  310118 calls)
     interpolate  :      0.00s CPU      0.00s WALL (      16 calls)

     Parallel routines
     fft_scatt_xy :      1.19s CPU      1.24s WALL (  310380 calls)
     fft_scatt_yz :      4.05s CPU      4.36s WALL (  310380 calls)

     PWSCF        :     18.92s CPU     20.72s WALL


   This run was terminated on:  21:21: 3  28Sep2022            

=------------------------------------------------------------------------------=
   JOB DONE.
=------------------------------------------------------------------------------=
Note: The following floating-point exceptions are signalling: IEEE_UNDERFLOW_FLAG IEEE_DENORMAL
