
     Program PWSCF v.6.7MaX starts on 28Sep2022 at 21:19:42 

     This program is part of the open-source Quantum ESPRESSO suite
     for quantum simulation of materials; please cite
         "P. Giannozzi et al., J. Phys.:Condens. Matter 21 395502 (2009);
         "P. Giannozzi et al., J. Phys.:Condens. Matter 29 465901 (2017);
          URL http://www.quantum-espresso.org", 
     in publications or presentations arising from this work. More details at
     http://www.quantum-espresso.org/quote

     Parallel version (MPI), running on    16 processors

     MPI processes distributed on     1 nodes
     R & G space division:  proc/nbgrp/npool/nimage =      16
     Reading input from scale_1da-04.in

     Current dimensions of program PWSCF are:
     Max number of different atomic species (ntypx) = 10
     Max number of k-points (npk) =  40000
     Max angular momentum in pseudopotentials (lmaxx) =  3
     Message from routine read_pp_mesh:
     mesh size missing, using the one in header

     Subspace diagonalization in iterative solution of the eigenvalue problem:
     a serial algorithm will be used


     Parallelization info
     --------------------
     sticks:   dense  smooth     PW     G-vecs:    dense   smooth      PW
     Min          45      33     10                 1623     1005     186
     Max          46      34     11                 1628     1009     193
     Sum         731     529    173                25999    16113    3027



     bravais-lattice index     =            0
     lattice parameter (alat)  =       4.9870  a.u.
     unit-cell volume          =     166.4936 (a.u.)^3
     number of atoms/cell      =            4
     number of atomic types    =            2
     number of electrons       =        16.00
     number of Kohn-Sham states=           12
     kinetic-energy cutoff     =      80.0000  Ry
     charge density cutoff     =     440.0000  Ry
     scf convergence threshold =      2.0E-10
     mixing beta               =       0.4000
     number of iterations used =            8  plain     mixing
     Exchange-correlation= PBE
                           (   1   4   3   4   0   0   0)

     celldm(1)=   4.987044  celldm(2)=   0.000000  celldm(3)=   0.000000
     celldm(4)=   0.000000  celldm(5)=   0.000000  celldm(6)=   0.000000

     crystal axes: (cart. coord. in units of alat)
               a(1) = (   1.000000   0.000000   0.000000 )  
               a(2) = (  -0.483871   0.838089   0.000000 )  
               a(3) = (   0.000000   0.000000   1.601687 )  

     reciprocal axes: (cart. coord. in units 2 pi/alat)
               b(1) = (  1.000000  0.577350 -0.000000 )  
               b(2) = (  0.000000  1.193191  0.000000 )  
               b(3) = (  0.000000 -0.000000  0.624342 )  


     PseudoPot. # 1 for B  read from file:
     /opt/QEpot/SSSP_precision_pseudos/B_pbe_v1.01.uspp.F.UPF
     MD5 check sum: d081ebb89d0c768e112975f650467a00
     Pseudo is Ultrasoft + core correction, Zval =  3.0
     Generated by new atomic code, or converted to UPF format
     Using radial grid of  781 points,  4 beta functions with: 
                l(1) =   0
                l(2) =   0
                l(3) =   1
                l(4) =   1
     Q(r) pseudized with  8 coefficients,  rinner =    1.100   1.100   1.100


     PseudoPot. # 2 for N  read from file:
     /opt/QEpot/SSSP_precision_pseudos/N.oncvpsp.upf
     MD5 check sum: 563d65bfb082928f0c9eb97172f6c357
     Pseudo is Norm-conserving + core correction, Zval =  5.0
     Generated using ONCVPSP code by D. R. Hamann
     Using radial grid of 1058 points,  4 beta functions with: 
                l(1) =   0
                l(2) =   0
                l(3) =   1
                l(4) =   1

     atomic species   valence    mass     pseudopotential
        B              3.00    10.81000     B ( 1.00)
        N              5.00    14.00700     N ( 1.00)

     No symmetry found


                                    s                        frac. trans.

      isym =  1     identity                                     

 cryst.   s( 1) = (     1          0          0      )
                  (     0          1          0      )
                  (     0          0          1      )

 cart.    s( 1) = (  1.0000000  0.0000000  0.0000000 )
                  (  0.0000000  1.0000000  0.0000000 )
                  (  0.0000000  0.0000000  1.0000000 )


   Cartesian axes

     site n.     atom                  positions (alat units)
         1           B   tau(   1) = (   0.0068672   0.5595346   0.7986354  )
         2           B   tau(   2) = (   0.5014919   0.2801710   1.5994789  )
         3           N   tau(   3) = (   0.0068672   0.5595346   0.1988869  )
         4           N   tau(   4) = (   0.5014919   0.2801710   0.9997304  )

   Crystallographic axes

     site n.     atom                  positions (cryst. coord.)
         1           B   tau(   1) = (  0.3299147  0.6676314  0.4986214  )
         2           B   tau(   2) = (  0.6632487  0.3342974  0.9986214  )
         3           N   tau(   3) = (  0.3299147  0.6676314  0.1241734  )
         4           N   tau(   4) = (  0.6632487  0.3342974  0.6241734  )

     number of k points=   252  Marzari-Vanderbilt smearing, width (Ry)=  0.0220
                       cart. coord. in units 2pi/alat
        k(    1) = (   0.0000000   0.0000000   0.0000000), wk =   0.0040000
        k(    2) = (   0.0000000   0.0000000   0.1248683), wk =   0.0080000
        k(    3) = (   0.0000000   0.0000000   0.2497367), wk =   0.0080000
        k(    4) = (   0.0000000   0.1193191   0.0000000), wk =   0.0080000
        k(    5) = (   0.0000000   0.1193191   0.1248683), wk =   0.0080000
        k(    6) = (   0.0000000   0.1193191   0.2497367), wk =   0.0080000
        k(    7) = (   0.0000000   0.2386381   0.0000000), wk =   0.0080000
        k(    8) = (   0.0000000   0.2386381   0.1248683), wk =   0.0080000
        k(    9) = (   0.0000000   0.2386381   0.2497367), wk =   0.0080000
        k(   10) = (   0.0000000   0.3579572   0.0000000), wk =   0.0080000
        k(   11) = (   0.0000000   0.3579572   0.1248683), wk =   0.0080000
        k(   12) = (   0.0000000   0.3579572   0.2497367), wk =   0.0080000
        k(   13) = (   0.0000000   0.4772762   0.0000000), wk =   0.0080000
        k(   14) = (   0.0000000   0.4772762   0.1248683), wk =   0.0080000
        k(   15) = (   0.0000000   0.4772762   0.2497367), wk =   0.0080000
        k(   16) = (   0.0000000  -0.5965953   0.0000000), wk =   0.0040000
        k(   17) = (   0.0000000  -0.5965953   0.1248683), wk =   0.0080000
        k(   18) = (   0.0000000  -0.5965953   0.2497367), wk =   0.0080000
        k(   19) = (   0.1000000   0.0577350   0.0000000), wk =   0.0080000
        k(   20) = (   0.1000000   0.0577350   0.1248683), wk =   0.0080000
        k(   21) = (   0.1000000   0.0577350   0.2497367), wk =   0.0080000
        k(   22) = (   0.1000000   0.1770541   0.0000000), wk =   0.0080000
        k(   23) = (   0.1000000   0.1770541   0.1248683), wk =   0.0080000
        k(   24) = (   0.1000000   0.1770541   0.2497367), wk =   0.0080000
        k(   25) = (   0.1000000   0.2963731   0.0000000), wk =   0.0080000
        k(   26) = (   0.1000000   0.2963731   0.1248683), wk =   0.0080000
        k(   27) = (   0.1000000   0.2963731   0.2497367), wk =   0.0080000
        k(   28) = (   0.1000000   0.4156922   0.0000000), wk =   0.0080000
        k(   29) = (   0.1000000   0.4156922   0.1248683), wk =   0.0080000
        k(   30) = (   0.1000000   0.4156922   0.2497367), wk =   0.0080000
        k(   31) = (   0.1000000   0.5350112   0.0000000), wk =   0.0080000
        k(   32) = (   0.1000000   0.5350112   0.1248683), wk =   0.0080000
        k(   33) = (   0.1000000   0.5350112   0.2497367), wk =   0.0080000
        k(   34) = (   0.1000000  -0.5388603   0.0000000), wk =   0.0080000
        k(   35) = (   0.1000000  -0.5388603   0.1248683), wk =   0.0080000
        k(   36) = (   0.1000000  -0.5388603   0.2497367), wk =   0.0080000
        k(   37) = (   0.1000000  -0.4195412   0.0000000), wk =   0.0080000
        k(   38) = (   0.1000000  -0.4195412   0.1248683), wk =   0.0080000
        k(   39) = (   0.1000000  -0.4195412   0.2497367), wk =   0.0080000
        k(   40) = (   0.1000000  -0.3002221   0.0000000), wk =   0.0080000
        k(   41) = (   0.1000000  -0.3002221   0.1248683), wk =   0.0080000
        k(   42) = (   0.1000000  -0.3002221   0.2497367), wk =   0.0080000
        k(   43) = (   0.1000000  -0.1809031   0.0000000), wk =   0.0080000
        k(   44) = (   0.1000000  -0.1809031   0.1248683), wk =   0.0080000
        k(   45) = (   0.1000000  -0.1809031   0.2497367), wk =   0.0080000
        k(   46) = (   0.1000000  -0.0615840   0.0000000), wk =   0.0080000
        k(   47) = (   0.1000000  -0.0615840   0.1248683), wk =   0.0080000
        k(   48) = (   0.1000000  -0.0615840   0.2497367), wk =   0.0080000
        k(   49) = (   0.2000000   0.1154701   0.0000000), wk =   0.0080000
        k(   50) = (   0.2000000   0.1154701   0.1248683), wk =   0.0080000
        k(   51) = (   0.2000000   0.1154701   0.2497367), wk =   0.0080000
        k(   52) = (   0.2000000   0.2347891   0.0000000), wk =   0.0080000
        k(   53) = (   0.2000000   0.2347891   0.1248683), wk =   0.0080000
        k(   54) = (   0.2000000   0.2347891   0.2497367), wk =   0.0080000
        k(   55) = (   0.2000000   0.3541082   0.0000000), wk =   0.0080000
        k(   56) = (   0.2000000   0.3541082   0.1248683), wk =   0.0080000
        k(   57) = (   0.2000000   0.3541082   0.2497367), wk =   0.0080000
        k(   58) = (   0.2000000   0.4734272   0.0000000), wk =   0.0080000
        k(   59) = (   0.2000000   0.4734272   0.1248683), wk =   0.0080000
        k(   60) = (   0.2000000   0.4734272   0.2497367), wk =   0.0080000
        k(   61) = (   0.2000000   0.5927463   0.0000000), wk =   0.0080000
        k(   62) = (   0.2000000   0.5927463   0.1248683), wk =   0.0080000
        k(   63) = (   0.2000000   0.5927463   0.2497367), wk =   0.0080000
        k(   64) = (   0.2000000  -0.4811252   0.0000000), wk =   0.0080000
        k(   65) = (   0.2000000  -0.4811252   0.1248683), wk =   0.0080000
        k(   66) = (   0.2000000  -0.4811252   0.2497367), wk =   0.0080000
        k(   67) = (   0.2000000  -0.3618062   0.0000000), wk =   0.0080000
        k(   68) = (   0.2000000  -0.3618062   0.1248683), wk =   0.0080000
        k(   69) = (   0.2000000  -0.3618062   0.2497367), wk =   0.0080000
        k(   70) = (   0.2000000  -0.2424871   0.0000000), wk =   0.0080000
        k(   71) = (   0.2000000  -0.2424871   0.1248683), wk =   0.0080000
        k(   72) = (   0.2000000  -0.2424871   0.2497367), wk =   0.0080000
        k(   73) = (   0.2000000  -0.1231681   0.0000000), wk =   0.0080000
        k(   74) = (   0.2000000  -0.1231681   0.1248683), wk =   0.0080000
        k(   75) = (   0.2000000  -0.1231681   0.2497367), wk =   0.0080000
        k(   76) = (   0.2000000  -0.0038490   0.0000000), wk =   0.0080000
        k(   77) = (   0.2000000  -0.0038490   0.1248683), wk =   0.0080000
        k(   78) = (   0.2000000  -0.0038490   0.2497367), wk =   0.0080000
        k(   79) = (   0.3000000   0.1732051   0.0000000), wk =   0.0080000
        k(   80) = (   0.3000000   0.1732051   0.1248683), wk =   0.0080000
        k(   81) = (   0.3000000   0.1732051   0.2497367), wk =   0.0080000
        k(   82) = (   0.3000000   0.2925241   0.0000000), wk =   0.0080000
        k(   83) = (   0.3000000   0.2925241   0.1248683), wk =   0.0080000
        k(   84) = (   0.3000000   0.2925241   0.2497367), wk =   0.0080000
        k(   85) = (   0.3000000   0.4118432   0.0000000), wk =   0.0080000
        k(   86) = (   0.3000000   0.4118432   0.1248683), wk =   0.0080000
        k(   87) = (   0.3000000   0.4118432   0.2497367), wk =   0.0080000
        k(   88) = (   0.3000000   0.5311622   0.0000000), wk =   0.0080000
        k(   89) = (   0.3000000   0.5311622   0.1248683), wk =   0.0080000
        k(   90) = (   0.3000000   0.5311622   0.2497367), wk =   0.0080000
        k(   91) = (   0.3000000   0.6504813   0.0000000), wk =   0.0080000
        k(   92) = (   0.3000000   0.6504813   0.1248683), wk =   0.0080000
        k(   93) = (   0.3000000   0.6504813   0.2497367), wk =   0.0080000
        k(   94) = (   0.3000000  -0.4233902   0.0000000), wk =   0.0080000
        k(   95) = (   0.3000000  -0.4233902   0.1248683), wk =   0.0080000
        k(   96) = (   0.3000000  -0.4233902   0.2497367), wk =   0.0080000
        k(   97) = (   0.3000000  -0.3040711   0.0000000), wk =   0.0080000
        k(   98) = (   0.3000000  -0.3040711   0.1248683), wk =   0.0080000
        k(   99) = (   0.3000000  -0.3040711   0.2497367), wk =   0.0080000
        k(  100) = (   0.3000000  -0.1847521   0.0000000), wk =   0.0080000
        k(  101) = (   0.3000000  -0.1847521   0.1248683), wk =   0.0080000
        k(  102) = (   0.3000000  -0.1847521   0.2497367), wk =   0.0080000
        k(  103) = (   0.3000000  -0.0654330   0.0000000), wk =   0.0080000
        k(  104) = (   0.3000000  -0.0654330   0.1248683), wk =   0.0080000
        k(  105) = (   0.3000000  -0.0654330   0.2497367), wk =   0.0080000
        k(  106) = (   0.3000000   0.0538860   0.0000000), wk =   0.0080000
        k(  107) = (   0.3000000   0.0538860   0.1248683), wk =   0.0080000
        k(  108) = (   0.3000000   0.0538860   0.2497367), wk =   0.0080000
        k(  109) = (   0.4000000   0.2309401   0.0000000), wk =   0.0080000
        k(  110) = (   0.4000000   0.2309401   0.1248683), wk =   0.0080000
        k(  111) = (   0.4000000   0.2309401   0.2497367), wk =   0.0080000
        k(  112) = (   0.4000000   0.3502592   0.0000000), wk =   0.0080000
        k(  113) = (   0.4000000   0.3502592   0.1248683), wk =   0.0080000
        k(  114) = (   0.4000000   0.3502592   0.2497367), wk =   0.0080000
        k(  115) = (   0.4000000   0.4695782   0.0000000), wk =   0.0080000
        k(  116) = (   0.4000000   0.4695782   0.1248683), wk =   0.0080000
        k(  117) = (   0.4000000   0.4695782   0.2497367), wk =   0.0080000
        k(  118) = (   0.4000000   0.5888973   0.0000000), wk =   0.0080000
        k(  119) = (   0.4000000   0.5888973   0.1248683), wk =   0.0080000
        k(  120) = (   0.4000000   0.5888973   0.2497367), wk =   0.0080000
        k(  121) = (   0.4000000   0.7082163   0.0000000), wk =   0.0080000
        k(  122) = (   0.4000000   0.7082163   0.1248683), wk =   0.0080000
        k(  123) = (   0.4000000   0.7082163   0.2497367), wk =   0.0080000
        k(  124) = (   0.4000000  -0.3656552   0.0000000), wk =   0.0080000
        k(  125) = (   0.4000000  -0.3656552   0.1248683), wk =   0.0080000
        k(  126) = (   0.4000000  -0.3656552   0.2497367), wk =   0.0080000
        k(  127) = (   0.4000000  -0.2463361   0.0000000), wk =   0.0080000
        k(  128) = (   0.4000000  -0.2463361   0.1248683), wk =   0.0080000
        k(  129) = (   0.4000000  -0.2463361   0.2497367), wk =   0.0080000
        k(  130) = (   0.4000000  -0.1270171   0.0000000), wk =   0.0080000
        k(  131) = (   0.4000000  -0.1270171   0.1248683), wk =   0.0080000
        k(  132) = (   0.4000000  -0.1270171   0.2497367), wk =   0.0080000
        k(  133) = (   0.4000000  -0.0076980   0.0000000), wk =   0.0080000
        k(  134) = (   0.4000000  -0.0076980   0.1248683), wk =   0.0080000
        k(  135) = (   0.4000000  -0.0076980   0.2497367), wk =   0.0080000
        k(  136) = (   0.4000000   0.1116211   0.0000000), wk =   0.0080000
        k(  137) = (   0.4000000   0.1116211   0.1248683), wk =   0.0080000
        k(  138) = (   0.4000000   0.1116211   0.2497367), wk =   0.0080000
        k(  139) = (  -0.5000000  -0.2886751   0.0000000), wk =   0.0040000
        k(  140) = (  -0.5000000  -0.2886751   0.1248683), wk =   0.0080000
        k(  141) = (  -0.5000000  -0.2886751   0.2497367), wk =   0.0080000
        k(  142) = (  -0.5000000  -0.1693561   0.0000000), wk =   0.0080000
        k(  143) = (  -0.5000000  -0.1693561   0.1248683), wk =   0.0080000
        k(  144) = (  -0.5000000  -0.1693561   0.2497367), wk =   0.0080000
        k(  145) = (  -0.5000000  -0.0500370   0.0000000), wk =   0.0080000
        k(  146) = (  -0.5000000  -0.0500370   0.1248683), wk =   0.0080000
        k(  147) = (  -0.5000000  -0.0500370   0.2497367), wk =   0.0080000
        k(  148) = (  -0.5000000   0.0692820   0.0000000), wk =   0.0080000
        k(  149) = (  -0.5000000   0.0692820   0.1248683), wk =   0.0080000
        k(  150) = (  -0.5000000   0.0692820   0.2497367), wk =   0.0080000
        k(  151) = (  -0.5000000   0.1886011   0.0000000), wk =   0.0080000
        k(  152) = (  -0.5000000   0.1886011   0.1248683), wk =   0.0080000
        k(  153) = (  -0.5000000   0.1886011   0.2497367), wk =   0.0080000
        k(  154) = (  -0.5000000  -0.8852704   0.0000000), wk =   0.0040000
        k(  155) = (  -0.5000000  -0.8852704   0.1248683), wk =   0.0080000
        k(  156) = (  -0.5000000  -0.8852704   0.2497367), wk =   0.0080000
        k(  157) = (   0.0000000  -0.1193191   0.1248683), wk =   0.0080000
        k(  158) = (   0.0000000  -0.1193191   0.2497367), wk =   0.0080000
        k(  159) = (   0.0000000  -0.2386381   0.1248683), wk =   0.0080000
        k(  160) = (   0.0000000  -0.2386381   0.2497367), wk =   0.0080000
        k(  161) = (   0.0000000  -0.3579572   0.1248683), wk =   0.0080000
        k(  162) = (   0.0000000  -0.3579572   0.2497367), wk =   0.0080000
        k(  163) = (   0.0000000  -0.4772762   0.1248683), wk =   0.0080000
        k(  164) = (   0.0000000  -0.4772762   0.2497367), wk =   0.0080000
        k(  165) = (  -0.1000000  -0.0577350   0.1248683), wk =   0.0080000
        k(  166) = (  -0.1000000  -0.0577350   0.2497367), wk =   0.0080000
        k(  167) = (  -0.1000000  -0.1770541   0.1248683), wk =   0.0080000
        k(  168) = (  -0.1000000  -0.1770541   0.2497367), wk =   0.0080000
        k(  169) = (  -0.1000000  -0.2963731   0.1248683), wk =   0.0080000
        k(  170) = (  -0.1000000  -0.2963731   0.2497367), wk =   0.0080000
        k(  171) = (  -0.1000000  -0.4156922   0.1248683), wk =   0.0080000
        k(  172) = (  -0.1000000  -0.4156922   0.2497367), wk =   0.0080000
        k(  173) = (  -0.1000000  -0.5350112   0.1248683), wk =   0.0080000
        k(  174) = (  -0.1000000  -0.5350112   0.2497367), wk =   0.0080000
        k(  175) = (  -0.1000000   0.5388603   0.1248683), wk =   0.0080000
        k(  176) = (  -0.1000000   0.5388603   0.2497367), wk =   0.0080000
        k(  177) = (  -0.1000000   0.4195412   0.1248683), wk =   0.0080000
        k(  178) = (  -0.1000000   0.4195412   0.2497367), wk =   0.0080000
        k(  179) = (  -0.1000000   0.3002221   0.1248683), wk =   0.0080000
        k(  180) = (  -0.1000000   0.3002221   0.2497367), wk =   0.0080000
        k(  181) = (  -0.1000000   0.1809031   0.1248683), wk =   0.0080000
        k(  182) = (  -0.1000000   0.1809031   0.2497367), wk =   0.0080000
        k(  183) = (  -0.1000000   0.0615840   0.1248683), wk =   0.0080000
        k(  184) = (  -0.1000000   0.0615840   0.2497367), wk =   0.0080000
        k(  185) = (  -0.2000000  -0.1154701   0.1248683), wk =   0.0080000
        k(  186) = (  -0.2000000  -0.1154701   0.2497367), wk =   0.0080000
        k(  187) = (  -0.2000000  -0.2347891   0.1248683), wk =   0.0080000
        k(  188) = (  -0.2000000  -0.2347891   0.2497367), wk =   0.0080000
        k(  189) = (  -0.2000000  -0.3541082   0.1248683), wk =   0.0080000
        k(  190) = (  -0.2000000  -0.3541082   0.2497367), wk =   0.0080000
        k(  191) = (  -0.2000000  -0.4734272   0.1248683), wk =   0.0080000
        k(  192) = (  -0.2000000  -0.4734272   0.2497367), wk =   0.0080000
        k(  193) = (  -0.2000000  -0.5927463   0.1248683), wk =   0.0080000
        k(  194) = (  -0.2000000  -0.5927463   0.2497367), wk =   0.0080000
        k(  195) = (  -0.2000000   0.4811252   0.1248683), wk =   0.0080000
        k(  196) = (  -0.2000000   0.4811252   0.2497367), wk =   0.0080000
        k(  197) = (  -0.2000000   0.3618062   0.1248683), wk =   0.0080000
        k(  198) = (  -0.2000000   0.3618062   0.2497367), wk =   0.0080000
        k(  199) = (  -0.2000000   0.2424871   0.1248683), wk =   0.0080000
        k(  200) = (  -0.2000000   0.2424871   0.2497367), wk =   0.0080000
        k(  201) = (  -0.2000000   0.1231681   0.1248683), wk =   0.0080000
        k(  202) = (  -0.2000000   0.1231681   0.2497367), wk =   0.0080000
        k(  203) = (  -0.2000000   0.0038490   0.1248683), wk =   0.0080000
        k(  204) = (  -0.2000000   0.0038490   0.2497367), wk =   0.0080000
        k(  205) = (  -0.3000000  -0.1732051   0.1248683), wk =   0.0080000
        k(  206) = (  -0.3000000  -0.1732051   0.2497367), wk =   0.0080000
        k(  207) = (  -0.3000000  -0.2925241   0.1248683), wk =   0.0080000
        k(  208) = (  -0.3000000  -0.2925241   0.2497367), wk =   0.0080000
        k(  209) = (  -0.3000000  -0.4118432   0.1248683), wk =   0.0080000
        k(  210) = (  -0.3000000  -0.4118432   0.2497367), wk =   0.0080000
        k(  211) = (  -0.3000000  -0.5311622   0.1248683), wk =   0.0080000
        k(  212) = (  -0.3000000  -0.5311622   0.2497367), wk =   0.0080000
        k(  213) = (  -0.3000000  -0.6504813   0.1248683), wk =   0.0080000
        k(  214) = (  -0.3000000  -0.6504813   0.2497367), wk =   0.0080000
        k(  215) = (  -0.3000000   0.4233902   0.1248683), wk =   0.0080000
        k(  216) = (  -0.3000000   0.4233902   0.2497367), wk =   0.0080000
        k(  217) = (  -0.3000000   0.3040711   0.1248683), wk =   0.0080000
        k(  218) = (  -0.3000000   0.3040711   0.2497367), wk =   0.0080000
        k(  219) = (  -0.3000000   0.1847521   0.1248683), wk =   0.0080000
        k(  220) = (  -0.3000000   0.1847521   0.2497367), wk =   0.0080000
        k(  221) = (  -0.3000000   0.0654330   0.1248683), wk =   0.0080000
        k(  222) = (  -0.3000000   0.0654330   0.2497367), wk =   0.0080000
        k(  223) = (  -0.3000000  -0.0538860   0.1248683), wk =   0.0080000
        k(  224) = (  -0.3000000  -0.0538860   0.2497367), wk =   0.0080000
        k(  225) = (  -0.4000000  -0.2309401   0.1248683), wk =   0.0080000
        k(  226) = (  -0.4000000  -0.2309401   0.2497367), wk =   0.0080000
        k(  227) = (  -0.4000000  -0.3502592   0.1248683), wk =   0.0080000
        k(  228) = (  -0.4000000  -0.3502592   0.2497367), wk =   0.0080000
        k(  229) = (  -0.4000000  -0.4695782   0.1248683), wk =   0.0080000
        k(  230) = (  -0.4000000  -0.4695782   0.2497367), wk =   0.0080000
        k(  231) = (  -0.4000000  -0.5888973   0.1248683), wk =   0.0080000
        k(  232) = (  -0.4000000  -0.5888973   0.2497367), wk =   0.0080000
        k(  233) = (  -0.4000000  -0.7082163   0.1248683), wk =   0.0080000
        k(  234) = (  -0.4000000  -0.7082163   0.2497367), wk =   0.0080000
        k(  235) = (  -0.4000000   0.3656552   0.1248683), wk =   0.0080000
        k(  236) = (  -0.4000000   0.3656552   0.2497367), wk =   0.0080000
        k(  237) = (  -0.4000000   0.2463361   0.1248683), wk =   0.0080000
        k(  238) = (  -0.4000000   0.2463361   0.2497367), wk =   0.0080000
        k(  239) = (  -0.4000000   0.1270171   0.1248683), wk =   0.0080000
        k(  240) = (  -0.4000000   0.1270171   0.2497367), wk =   0.0080000
        k(  241) = (  -0.4000000   0.0076980   0.1248683), wk =   0.0080000
        k(  242) = (  -0.4000000   0.0076980   0.2497367), wk =   0.0080000
        k(  243) = (  -0.4000000  -0.1116211   0.1248683), wk =   0.0080000
        k(  244) = (  -0.4000000  -0.1116211   0.2497367), wk =   0.0080000
        k(  245) = (   0.5000000   0.1693561   0.1248683), wk =   0.0080000
        k(  246) = (   0.5000000   0.1693561   0.2497367), wk =   0.0080000
        k(  247) = (   0.5000000   0.0500370   0.1248683), wk =   0.0080000
        k(  248) = (   0.5000000   0.0500370   0.2497367), wk =   0.0080000
        k(  249) = (   0.5000000  -0.0692820   0.1248683), wk =   0.0080000
        k(  250) = (   0.5000000  -0.0692820   0.2497367), wk =   0.0080000
        k(  251) = (   0.5000000  -0.1886011   0.1248683), wk =   0.0080000
        k(  252) = (   0.5000000  -0.1886011   0.2497367), wk =   0.0080000

                       cryst. coord.
        k(    1) = (   0.0000000   0.0000000   0.0000000), wk =   0.0040000
        k(    2) = (   0.0000000   0.0000000   0.2000000), wk =   0.0080000
        k(    3) = (   0.0000000   0.0000000   0.4000000), wk =   0.0080000
        k(    4) = (   0.0000000   0.1000000   0.0000000), wk =   0.0080000
        k(    5) = (   0.0000000   0.1000000   0.2000000), wk =   0.0080000
        k(    6) = (   0.0000000   0.1000000   0.4000000), wk =   0.0080000
        k(    7) = (   0.0000000   0.2000000   0.0000000), wk =   0.0080000
        k(    8) = (   0.0000000   0.2000000   0.2000000), wk =   0.0080000
        k(    9) = (   0.0000000   0.2000000   0.4000000), wk =   0.0080000
        k(   10) = (   0.0000000   0.3000000   0.0000000), wk =   0.0080000
        k(   11) = (   0.0000000   0.3000000   0.2000000), wk =   0.0080000
        k(   12) = (   0.0000000   0.3000000   0.4000000), wk =   0.0080000
        k(   13) = (   0.0000000   0.4000000   0.0000000), wk =   0.0080000
        k(   14) = (   0.0000000   0.4000000   0.2000000), wk =   0.0080000
        k(   15) = (   0.0000000   0.4000000   0.4000000), wk =   0.0080000
        k(   16) = (   0.0000000  -0.5000000   0.0000000), wk =   0.0040000
        k(   17) = (   0.0000000  -0.5000000   0.2000000), wk =   0.0080000
        k(   18) = (   0.0000000  -0.5000000   0.4000000), wk =   0.0080000
        k(   19) = (   0.1000000   0.0000000   0.0000000), wk =   0.0080000
        k(   20) = (   0.1000000   0.0000000   0.2000000), wk =   0.0080000
        k(   21) = (   0.1000000   0.0000000   0.4000000), wk =   0.0080000
        k(   22) = (   0.1000000   0.1000000   0.0000000), wk =   0.0080000
        k(   23) = (   0.1000000   0.1000000   0.2000000), wk =   0.0080000
        k(   24) = (   0.1000000   0.1000000   0.4000000), wk =   0.0080000
        k(   25) = (   0.1000000   0.2000000   0.0000000), wk =   0.0080000
        k(   26) = (   0.1000000   0.2000000   0.2000000), wk =   0.0080000
        k(   27) = (   0.1000000   0.2000000   0.4000000), wk =   0.0080000
        k(   28) = (   0.1000000   0.3000000   0.0000000), wk =   0.0080000
        k(   29) = (   0.1000000   0.3000000   0.2000000), wk =   0.0080000
        k(   30) = (   0.1000000   0.3000000   0.4000000), wk =   0.0080000
        k(   31) = (   0.1000000   0.4000000   0.0000000), wk =   0.0080000
        k(   32) = (   0.1000000   0.4000000   0.2000000), wk =   0.0080000
        k(   33) = (   0.1000000   0.4000000   0.4000000), wk =   0.0080000
        k(   34) = (   0.1000000  -0.5000000   0.0000000), wk =   0.0080000
        k(   35) = (   0.1000000  -0.5000000   0.2000000), wk =   0.0080000
        k(   36) = (   0.1000000  -0.5000000   0.4000000), wk =   0.0080000
        k(   37) = (   0.1000000  -0.4000000   0.0000000), wk =   0.0080000
        k(   38) = (   0.1000000  -0.4000000   0.2000000), wk =   0.0080000
        k(   39) = (   0.1000000  -0.4000000   0.4000000), wk =   0.0080000
        k(   40) = (   0.1000000  -0.3000000   0.0000000), wk =   0.0080000
        k(   41) = (   0.1000000  -0.3000000   0.2000000), wk =   0.0080000
        k(   42) = (   0.1000000  -0.3000000   0.4000000), wk =   0.0080000
        k(   43) = (   0.1000000  -0.2000000   0.0000000), wk =   0.0080000
        k(   44) = (   0.1000000  -0.2000000   0.2000000), wk =   0.0080000
        k(   45) = (   0.1000000  -0.2000000   0.4000000), wk =   0.0080000
        k(   46) = (   0.1000000  -0.1000000   0.0000000), wk =   0.0080000
        k(   47) = (   0.1000000  -0.1000000   0.2000000), wk =   0.0080000
        k(   48) = (   0.1000000  -0.1000000   0.4000000), wk =   0.0080000
        k(   49) = (   0.2000000   0.0000000   0.0000000), wk =   0.0080000
        k(   50) = (   0.2000000   0.0000000   0.2000000), wk =   0.0080000
        k(   51) = (   0.2000000   0.0000000   0.4000000), wk =   0.0080000
        k(   52) = (   0.2000000   0.1000000   0.0000000), wk =   0.0080000
        k(   53) = (   0.2000000   0.1000000   0.2000000), wk =   0.0080000
        k(   54) = (   0.2000000   0.1000000   0.4000000), wk =   0.0080000
        k(   55) = (   0.2000000   0.2000000   0.0000000), wk =   0.0080000
        k(   56) = (   0.2000000   0.2000000   0.2000000), wk =   0.0080000
        k(   57) = (   0.2000000   0.2000000   0.4000000), wk =   0.0080000
        k(   58) = (   0.2000000   0.3000000   0.0000000), wk =   0.0080000
        k(   59) = (   0.2000000   0.3000000   0.2000000), wk =   0.0080000
        k(   60) = (   0.2000000   0.3000000   0.4000000), wk =   0.0080000
        k(   61) = (   0.2000000   0.4000000   0.0000000), wk =   0.0080000
        k(   62) = (   0.2000000   0.4000000   0.2000000), wk =   0.0080000
        k(   63) = (   0.2000000   0.4000000   0.4000000), wk =   0.0080000
        k(   64) = (   0.2000000  -0.5000000   0.0000000), wk =   0.0080000
        k(   65) = (   0.2000000  -0.5000000   0.2000000), wk =   0.0080000
        k(   66) = (   0.2000000  -0.5000000   0.4000000), wk =   0.0080000
        k(   67) = (   0.2000000  -0.4000000   0.0000000), wk =   0.0080000
        k(   68) = (   0.2000000  -0.4000000   0.2000000), wk =   0.0080000
        k(   69) = (   0.2000000  -0.4000000   0.4000000), wk =   0.0080000
        k(   70) = (   0.2000000  -0.3000000   0.0000000), wk =   0.0080000
        k(   71) = (   0.2000000  -0.3000000   0.2000000), wk =   0.0080000
        k(   72) = (   0.2000000  -0.3000000   0.4000000), wk =   0.0080000
        k(   73) = (   0.2000000  -0.2000000   0.0000000), wk =   0.0080000
        k(   74) = (   0.2000000  -0.2000000   0.2000000), wk =   0.0080000
        k(   75) = (   0.2000000  -0.2000000   0.4000000), wk =   0.0080000
        k(   76) = (   0.2000000  -0.1000000   0.0000000), wk =   0.0080000
        k(   77) = (   0.2000000  -0.1000000   0.2000000), wk =   0.0080000
        k(   78) = (   0.2000000  -0.1000000   0.4000000), wk =   0.0080000
        k(   79) = (   0.3000000   0.0000000   0.0000000), wk =   0.0080000
        k(   80) = (   0.3000000   0.0000000   0.2000000), wk =   0.0080000
        k(   81) = (   0.3000000   0.0000000   0.4000000), wk =   0.0080000
        k(   82) = (   0.3000000   0.1000000   0.0000000), wk =   0.0080000
        k(   83) = (   0.3000000   0.1000000   0.2000000), wk =   0.0080000
        k(   84) = (   0.3000000   0.1000000   0.4000000), wk =   0.0080000
        k(   85) = (   0.3000000   0.2000000   0.0000000), wk =   0.0080000
        k(   86) = (   0.3000000   0.2000000   0.2000000), wk =   0.0080000
        k(   87) = (   0.3000000   0.2000000   0.4000000), wk =   0.0080000
        k(   88) = (   0.3000000   0.3000000   0.0000000), wk =   0.0080000
        k(   89) = (   0.3000000   0.3000000   0.2000000), wk =   0.0080000
        k(   90) = (   0.3000000   0.3000000   0.4000000), wk =   0.0080000
        k(   91) = (   0.3000000   0.4000000   0.0000000), wk =   0.0080000
        k(   92) = (   0.3000000   0.4000000   0.2000000), wk =   0.0080000
        k(   93) = (   0.3000000   0.4000000   0.4000000), wk =   0.0080000
        k(   94) = (   0.3000000  -0.5000000   0.0000000), wk =   0.0080000
        k(   95) = (   0.3000000  -0.5000000   0.2000000), wk =   0.0080000
        k(   96) = (   0.3000000  -0.5000000   0.4000000), wk =   0.0080000
        k(   97) = (   0.3000000  -0.4000000   0.0000000), wk =   0.0080000
        k(   98) = (   0.3000000  -0.4000000   0.2000000), wk =   0.0080000
        k(   99) = (   0.3000000  -0.4000000   0.4000000), wk =   0.0080000
        k(  100) = (   0.3000000  -0.3000000   0.0000000), wk =   0.0080000
        k(  101) = (   0.3000000  -0.3000000   0.2000000), wk =   0.0080000
        k(  102) = (   0.3000000  -0.3000000   0.4000000), wk =   0.0080000
        k(  103) = (   0.3000000  -0.2000000   0.0000000), wk =   0.0080000
        k(  104) = (   0.3000000  -0.2000000   0.2000000), wk =   0.0080000
        k(  105) = (   0.3000000  -0.2000000   0.4000000), wk =   0.0080000
        k(  106) = (   0.3000000  -0.1000000   0.0000000), wk =   0.0080000
        k(  107) = (   0.3000000  -0.1000000   0.2000000), wk =   0.0080000
        k(  108) = (   0.3000000  -0.1000000   0.4000000), wk =   0.0080000
        k(  109) = (   0.4000000   0.0000000   0.0000000), wk =   0.0080000
        k(  110) = (   0.4000000   0.0000000   0.2000000), wk =   0.0080000
        k(  111) = (   0.4000000   0.0000000   0.4000000), wk =   0.0080000
        k(  112) = (   0.4000000   0.1000000   0.0000000), wk =   0.0080000
        k(  113) = (   0.4000000   0.1000000   0.2000000), wk =   0.0080000
        k(  114) = (   0.4000000   0.1000000   0.4000000), wk =   0.0080000
        k(  115) = (   0.4000000   0.2000000   0.0000000), wk =   0.0080000
        k(  116) = (   0.4000000   0.2000000   0.2000000), wk =   0.0080000
        k(  117) = (   0.4000000   0.2000000   0.4000000), wk =   0.0080000
        k(  118) = (   0.4000000   0.3000000   0.0000000), wk =   0.0080000
        k(  119) = (   0.4000000   0.3000000   0.2000000), wk =   0.0080000
        k(  120) = (   0.4000000   0.3000000   0.4000000), wk =   0.0080000
        k(  121) = (   0.4000000   0.4000000   0.0000000), wk =   0.0080000
        k(  122) = (   0.4000000   0.4000000   0.2000000), wk =   0.0080000
        k(  123) = (   0.4000000   0.4000000   0.4000000), wk =   0.0080000
        k(  124) = (   0.4000000  -0.5000000   0.0000000), wk =   0.0080000
        k(  125) = (   0.4000000  -0.5000000   0.2000000), wk =   0.0080000
        k(  126) = (   0.4000000  -0.5000000   0.4000000), wk =   0.0080000
        k(  127) = (   0.4000000  -0.4000000   0.0000000), wk =   0.0080000
        k(  128) = (   0.4000000  -0.4000000   0.2000000), wk =   0.0080000
        k(  129) = (   0.4000000  -0.4000000   0.4000000), wk =   0.0080000
        k(  130) = (   0.4000000  -0.3000000   0.0000000), wk =   0.0080000
        k(  131) = (   0.4000000  -0.3000000   0.2000000), wk =   0.0080000
        k(  132) = (   0.4000000  -0.3000000   0.4000000), wk =   0.0080000
        k(  133) = (   0.4000000  -0.2000000   0.0000000), wk =   0.0080000
        k(  134) = (   0.4000000  -0.2000000   0.2000000), wk =   0.0080000
        k(  135) = (   0.4000000  -0.2000000   0.4000000), wk =   0.0080000
        k(  136) = (   0.4000000  -0.1000000   0.0000000), wk =   0.0080000
        k(  137) = (   0.4000000  -0.1000000   0.2000000), wk =   0.0080000
        k(  138) = (   0.4000000  -0.1000000   0.4000000), wk =   0.0080000
        k(  139) = (  -0.5000000   0.0000000   0.0000000), wk =   0.0040000
        k(  140) = (  -0.5000000   0.0000000   0.2000000), wk =   0.0080000
        k(  141) = (  -0.5000000   0.0000000   0.4000000), wk =   0.0080000
        k(  142) = (  -0.5000000   0.1000000   0.0000000), wk =   0.0080000
        k(  143) = (  -0.5000000   0.1000000   0.2000000), wk =   0.0080000
        k(  144) = (  -0.5000000   0.1000000   0.4000000), wk =   0.0080000
        k(  145) = (  -0.5000000   0.2000000   0.0000000), wk =   0.0080000
        k(  146) = (  -0.5000000   0.2000000   0.2000000), wk =   0.0080000
        k(  147) = (  -0.5000000   0.2000000   0.4000000), wk =   0.0080000
        k(  148) = (  -0.5000000   0.3000000   0.0000000), wk =   0.0080000
        k(  149) = (  -0.5000000   0.3000000   0.2000000), wk =   0.0080000
        k(  150) = (  -0.5000000   0.3000000   0.4000000), wk =   0.0080000
        k(  151) = (  -0.5000000   0.4000000   0.0000000), wk =   0.0080000
        k(  152) = (  -0.5000000   0.4000000   0.2000000), wk =   0.0080000
        k(  153) = (  -0.5000000   0.4000000   0.4000000), wk =   0.0080000
        k(  154) = (  -0.5000000  -0.5000000   0.0000000), wk =   0.0040000
        k(  155) = (  -0.5000000  -0.5000000   0.2000000), wk =   0.0080000
        k(  156) = (  -0.5000000  -0.5000000   0.4000000), wk =   0.0080000
        k(  157) = (   0.0000000  -0.1000000   0.2000000), wk =   0.0080000
        k(  158) = (   0.0000000  -0.1000000   0.4000000), wk =   0.0080000
        k(  159) = (   0.0000000  -0.2000000   0.2000000), wk =   0.0080000
        k(  160) = (   0.0000000  -0.2000000   0.4000000), wk =   0.0080000
        k(  161) = (   0.0000000  -0.3000000   0.2000000), wk =   0.0080000
        k(  162) = (   0.0000000  -0.3000000   0.4000000), wk =   0.0080000
        k(  163) = (   0.0000000  -0.4000000   0.2000000), wk =   0.0080000
        k(  164) = (   0.0000000  -0.4000000   0.4000000), wk =   0.0080000
        k(  165) = (  -0.1000000   0.0000000   0.2000000), wk =   0.0080000
        k(  166) = (  -0.1000000   0.0000000   0.4000000), wk =   0.0080000
        k(  167) = (  -0.1000000  -0.1000000   0.2000000), wk =   0.0080000
        k(  168) = (  -0.1000000  -0.1000000   0.4000000), wk =   0.0080000
        k(  169) = (  -0.1000000  -0.2000000   0.2000000), wk =   0.0080000
        k(  170) = (  -0.1000000  -0.2000000   0.4000000), wk =   0.0080000
        k(  171) = (  -0.1000000  -0.3000000   0.2000000), wk =   0.0080000
        k(  172) = (  -0.1000000  -0.3000000   0.4000000), wk =   0.0080000
        k(  173) = (  -0.1000000  -0.4000000   0.2000000), wk =   0.0080000
        k(  174) = (  -0.1000000  -0.4000000   0.4000000), wk =   0.0080000
        k(  175) = (  -0.1000000   0.5000000   0.2000000), wk =   0.0080000
        k(  176) = (  -0.1000000   0.5000000   0.4000000), wk =   0.0080000
        k(  177) = (  -0.1000000   0.4000000   0.2000000), wk =   0.0080000
        k(  178) = (  -0.1000000   0.4000000   0.4000000), wk =   0.0080000
        k(  179) = (  -0.1000000   0.3000000   0.2000000), wk =   0.0080000
        k(  180) = (  -0.1000000   0.3000000   0.4000000), wk =   0.0080000
        k(  181) = (  -0.1000000   0.2000000   0.2000000), wk =   0.0080000
        k(  182) = (  -0.1000000   0.2000000   0.4000000), wk =   0.0080000
        k(  183) = (  -0.1000000   0.1000000   0.2000000), wk =   0.0080000
        k(  184) = (  -0.1000000   0.1000000   0.4000000), wk =   0.0080000
        k(  185) = (  -0.2000000   0.0000000   0.2000000), wk =   0.0080000
        k(  186) = (  -0.2000000   0.0000000   0.4000000), wk =   0.0080000
        k(  187) = (  -0.2000000  -0.1000000   0.2000000), wk =   0.0080000
        k(  188) = (  -0.2000000  -0.1000000   0.4000000), wk =   0.0080000
        k(  189) = (  -0.2000000  -0.2000000   0.2000000), wk =   0.0080000
        k(  190) = (  -0.2000000  -0.2000000   0.4000000), wk =   0.0080000
        k(  191) = (  -0.2000000  -0.3000000   0.2000000), wk =   0.0080000
        k(  192) = (  -0.2000000  -0.3000000   0.4000000), wk =   0.0080000
        k(  193) = (  -0.2000000  -0.4000000   0.2000000), wk =   0.0080000
        k(  194) = (  -0.2000000  -0.4000000   0.4000000), wk =   0.0080000
        k(  195) = (  -0.2000000   0.5000000   0.2000000), wk =   0.0080000
        k(  196) = (  -0.2000000   0.5000000   0.4000000), wk =   0.0080000
        k(  197) = (  -0.2000000   0.4000000   0.2000000), wk =   0.0080000
        k(  198) = (  -0.2000000   0.4000000   0.4000000), wk =   0.0080000
        k(  199) = (  -0.2000000   0.3000000   0.2000000), wk =   0.0080000
        k(  200) = (  -0.2000000   0.3000000   0.4000000), wk =   0.0080000
        k(  201) = (  -0.2000000   0.2000000   0.2000000), wk =   0.0080000
        k(  202) = (  -0.2000000   0.2000000   0.4000000), wk =   0.0080000
        k(  203) = (  -0.2000000   0.1000000   0.2000000), wk =   0.0080000
        k(  204) = (  -0.2000000   0.1000000   0.4000000), wk =   0.0080000
        k(  205) = (  -0.3000000   0.0000000   0.2000000), wk =   0.0080000
        k(  206) = (  -0.3000000   0.0000000   0.4000000), wk =   0.0080000
        k(  207) = (  -0.3000000  -0.1000000   0.2000000), wk =   0.0080000
        k(  208) = (  -0.3000000  -0.1000000   0.4000000), wk =   0.0080000
        k(  209) = (  -0.3000000  -0.2000000   0.2000000), wk =   0.0080000
        k(  210) = (  -0.3000000  -0.2000000   0.4000000), wk =   0.0080000
        k(  211) = (  -0.3000000  -0.3000000   0.2000000), wk =   0.0080000
        k(  212) = (  -0.3000000  -0.3000000   0.4000000), wk =   0.0080000
        k(  213) = (  -0.3000000  -0.4000000   0.2000000), wk =   0.0080000
        k(  214) = (  -0.3000000  -0.4000000   0.4000000), wk =   0.0080000
        k(  215) = (  -0.3000000   0.5000000   0.2000000), wk =   0.0080000
        k(  216) = (  -0.3000000   0.5000000   0.4000000), wk =   0.0080000
        k(  217) = (  -0.3000000   0.4000000   0.2000000), wk =   0.0080000
        k(  218) = (  -0.3000000   0.4000000   0.4000000), wk =   0.0080000
        k(  219) = (  -0.3000000   0.3000000   0.2000000), wk =   0.0080000
        k(  220) = (  -0.3000000   0.3000000   0.4000000), wk =   0.0080000
        k(  221) = (  -0.3000000   0.2000000   0.2000000), wk =   0.0080000
        k(  222) = (  -0.3000000   0.2000000   0.4000000), wk =   0.0080000
        k(  223) = (  -0.3000000   0.1000000   0.2000000), wk =   0.0080000
        k(  224) = (  -0.3000000   0.1000000   0.4000000), wk =   0.0080000
        k(  225) = (  -0.4000000   0.0000000   0.2000000), wk =   0.0080000
        k(  226) = (  -0.4000000   0.0000000   0.4000000), wk =   0.0080000
        k(  227) = (  -0.4000000  -0.1000000   0.2000000), wk =   0.0080000
        k(  228) = (  -0.4000000  -0.1000000   0.4000000), wk =   0.0080000
        k(  229) = (  -0.4000000  -0.2000000   0.2000000), wk =   0.0080000
        k(  230) = (  -0.4000000  -0.2000000   0.4000000), wk =   0.0080000
        k(  231) = (  -0.4000000  -0.3000000   0.2000000), wk =   0.0080000
        k(  232) = (  -0.4000000  -0.3000000   0.4000000), wk =   0.0080000
        k(  233) = (  -0.4000000  -0.4000000   0.2000000), wk =   0.0080000
        k(  234) = (  -0.4000000  -0.4000000   0.4000000), wk =   0.0080000
        k(  235) = (  -0.4000000   0.5000000   0.2000000), wk =   0.0080000
        k(  236) = (  -0.4000000   0.5000000   0.4000000), wk =   0.0080000
        k(  237) = (  -0.4000000   0.4000000   0.2000000), wk =   0.0080000
        k(  238) = (  -0.4000000   0.4000000   0.4000000), wk =   0.0080000
        k(  239) = (  -0.4000000   0.3000000   0.2000000), wk =   0.0080000
        k(  240) = (  -0.4000000   0.3000000   0.4000000), wk =   0.0080000
        k(  241) = (  -0.4000000   0.2000000   0.2000000), wk =   0.0080000
        k(  242) = (  -0.4000000   0.2000000   0.4000000), wk =   0.0080000
        k(  243) = (  -0.4000000   0.1000000   0.2000000), wk =   0.0080000
        k(  244) = (  -0.4000000   0.1000000   0.4000000), wk =   0.0080000
        k(  245) = (   0.5000000  -0.1000000   0.2000000), wk =   0.0080000
        k(  246) = (   0.5000000  -0.1000000   0.4000000), wk =   0.0080000
        k(  247) = (   0.5000000  -0.2000000   0.2000000), wk =   0.0080000
        k(  248) = (   0.5000000  -0.2000000   0.4000000), wk =   0.0080000
        k(  249) = (   0.5000000  -0.3000000   0.2000000), wk =   0.0080000
        k(  250) = (   0.5000000  -0.3000000   0.4000000), wk =   0.0080000
        k(  251) = (   0.5000000  -0.4000000   0.2000000), wk =   0.0080000
        k(  252) = (   0.5000000  -0.4000000   0.4000000), wk =   0.0080000

     Dense  grid:    25999 G-vectors     FFT dimensions: (  36,  36,  54)

     Smooth grid:    16113 G-vectors     FFT dimensions: (  30,  27,  45)

     Dynamical RAM for                 wfc:       0.02 MB

     Dynamical RAM for     wfc (w. buffer):       5.79 MB

     Dynamical RAM for           str. fact:       0.05 MB

     Dynamical RAM for           local pot:       0.00 MB

     Dynamical RAM for          nlocal pot:       0.06 MB

     Dynamical RAM for                qrad:       0.96 MB

     Dynamical RAM for          rho,v,vnew:       0.19 MB

     Dynamical RAM for               rhoin:       0.06 MB

     Dynamical RAM for            rho*nmix:       0.40 MB

     Dynamical RAM for           G-vectors:       0.10 MB

     Dynamical RAM for          h,s,v(r/c):       0.03 MB

     Dynamical RAM for          <psi|beta>:       0.01 MB

     Dynamical RAM for                 psi:       0.05 MB

     Dynamical RAM for                hpsi:       0.05 MB

     Dynamical RAM for                spsi:       0.05 MB

     Dynamical RAM for      wfcinit/wfcrot:       0.07 MB

     Dynamical RAM for           addusdens:       1.12 MB

     Dynamical RAM for          addusforce:       1.18 MB

     Dynamical RAM for         addusstress:       1.24 MB

     Estimated static dynamical RAM per process >       7.89 MB

     Estimated max dynamical RAM per process >       9.13 MB

     Estimated total dynamical RAM >     146.06 MB

     Check: negative core charge=   -0.000011

     Initial potential from superposition of free atoms

     starting charge   15.99942, renormalised to   16.00000
     Starting wfcs are   16 randomized atomic wfcs

     total cpu time spent up to now is        1.0 secs

     Self-consistent Calculation

     iteration #  1     ecut=    80.00 Ry     beta= 0.40
     Davidson diagonalization with overlap
     ethr =  1.00E-02,  avg # of iterations =  2.8

     total cpu time spent up to now is        2.4 secs

     total energy              =     -54.79141805 Ry
     estimated scf accuracy    <       0.41367451 Ry

     iteration #  2     ecut=    80.00 Ry     beta= 0.40
     Davidson diagonalization with overlap
     ethr =  2.59E-03,  avg # of iterations =  1.9

     total cpu time spent up to now is        3.5 secs

     total energy              =     -54.83981149 Ry
     estimated scf accuracy    <       0.03703637 Ry

     iteration #  3     ecut=    80.00 Ry     beta= 0.40
     Davidson diagonalization with overlap
     ethr =  2.31E-04,  avg # of iterations =  4.3

     total cpu time spent up to now is        4.8 secs

     total energy              =     -54.84202750 Ry
     estimated scf accuracy    <       0.01020074 Ry

     iteration #  4     ecut=    80.00 Ry     beta= 0.40
     Davidson diagonalization with overlap
     ethr =  6.38E-05,  avg # of iterations =  3.7

     total cpu time spent up to now is        5.9 secs

     total energy              =     -54.84315457 Ry
     estimated scf accuracy    <       0.00031296 Ry

     iteration #  5     ecut=    80.00 Ry     beta= 0.40
     Davidson diagonalization with overlap
     c_bands:  1 eigenvalues not converged
     c_bands:  1 eigenvalues not converged
     c_bands:  1 eigenvalues not converged
     c_bands:  1 eigenvalues not converged
     c_bands:  1 eigenvalues not converged
     c_bands:  1 eigenvalues not converged
     ethr =  1.96E-06,  avg # of iterations =  9.5

     total cpu time spent up to now is        8.1 secs

     total energy              =     -54.84333750 Ry
     estimated scf accuracy    <       0.00007130 Ry

     iteration #  6     ecut=    80.00 Ry     beta= 0.40
     Davidson diagonalization with overlap
     ethr =  4.46E-07,  avg # of iterations =  2.4

     total cpu time spent up to now is        9.3 secs

     total energy              =     -54.84333453 Ry
     estimated scf accuracy    <       0.00008587 Ry

     iteration #  7     ecut=    80.00 Ry     beta= 0.40
     Davidson diagonalization with overlap
     ethr =  4.46E-07,  avg # of iterations =  2.0

     total cpu time spent up to now is       10.3 secs

     total energy              =     -54.84334601 Ry
     estimated scf accuracy    <       0.00000048 Ry

     iteration #  8     ecut=    80.00 Ry     beta= 0.40
     Davidson diagonalization with overlap
     ethr =  2.99E-09,  avg # of iterations =  6.2

     total cpu time spent up to now is       12.3 secs

     total energy              =     -54.84334680 Ry
     estimated scf accuracy    <       0.00000150 Ry

     iteration #  9     ecut=    80.00 Ry     beta= 0.40
     Davidson diagonalization with overlap
     ethr =  2.99E-09,  avg # of iterations =  2.7

     total cpu time spent up to now is       13.5 secs

     total energy              =     -54.84334721 Ry
     estimated scf accuracy    <       0.00000007 Ry

     iteration # 10     ecut=    80.00 Ry     beta= 0.40
     Davidson diagonalization with overlap
     ethr =  4.56E-10,  avg # of iterations =  1.6

     total cpu time spent up to now is       14.4 secs

     total energy              =     -54.84334721 Ry
     estimated scf accuracy    <       0.00000001 Ry

     iteration # 11     ecut=    80.00 Ry     beta= 0.40
     Davidson diagonalization with overlap
     ethr =  9.05E-11,  avg # of iterations =  2.2

     total cpu time spent up to now is       15.5 secs

     total energy              =     -54.84334721 Ry
     estimated scf accuracy    <          3.6E-10 Ry

     iteration # 12     ecut=    80.00 Ry     beta= 0.40
     Davidson diagonalization with overlap
     ethr =  2.28E-12,  avg # of iterations =  4.1

     total cpu time spent up to now is       17.0 secs

     End of self-consistent calculation

          k = 0.0000 0.0000 0.0000 (  1999 PWs)   bands (ev):

    -9.2675  -5.1818   0.1468   8.3441   8.5804  10.3907  10.5026  10.7105
    18.2352  18.8629  19.5408  19.8068

     occupation numbers 
     1.0000   1.0000   1.0000   1.0000   1.0000   0.9987   0.7978   0.3052
     0.0000   0.0000   0.0000   0.0000

          k = 0.0000 0.0000 0.1249 (  2001 PWs)   bands (ev):

    -9.0313  -5.9342   1.3098   8.5063   8.7397   9.2523  10.2490  10.4597
    18.4576  19.1128  19.6410  19.9208

     occupation numbers 
     1.0000   1.0000   1.0000   1.0000   1.0000   1.0000   1.0832   0.8878
     0.0000   0.0000   0.0000   0.0000

          k = 0.0000 0.0000 0.2497 (  1986 PWs)   bands (ev):

    -8.3358  -7.2377   3.7943   6.6546   8.9954   9.2212   9.6465   9.8644
    18.9652  19.4108  19.7456  20.3691

     occupation numbers 
     1.0000   1.0000   1.0000   1.0000   1.0000   1.0000   1.0002   1.0057
     0.0000   0.0000   0.0000   0.0000

          k = 0.0000 0.1193 0.0000 (  1999 PWs)   bands (ev):

    -9.0527  -5.0207   0.3593   7.6561   7.9683   9.9036  10.1899  10.3044
    18.1997  18.9140  19.7968  20.3180

     occupation numbers 
     1.0000   1.0000   1.0000   1.0000   1.0000   1.0090   1.0772   1.0707
     0.0000   0.0000   0.0000   0.0000

          k = 0.0000 0.1193 0.1249 (  2002 PWs)   bands (ev):

    -8.8181  -5.7559   1.4905   7.8287   8.1477   8.9840   9.8298  10.0228
    18.3388  19.2157  19.8574  20.4080

     occupation numbers 
     1.0000   1.0000   1.0000   1.0000   1.0000   1.0000   1.0036   1.0295
     0.0000   0.0000   0.0000   0.0000

          k = 0.0000 0.1193 0.2497 (  1996 PWs)   bands (ev):

    -8.1280  -7.0405   3.9038   6.6274   8.3759   8.6537   9.1052   9.3596
    18.8769  19.5014  20.0811  20.6807

     occupation numbers 
     1.0000   1.0000   1.0000   1.0000   1.0000   1.0000   1.0000   1.0000
     0.0000   0.0000   0.0000   0.0000

          k = 0.0000 0.2386 0.0000 (  2012 PWs)   bands (ev):

    -8.4187  -4.5740   0.9839   5.6388   7.0816   8.1246   9.5547   9.7123
    17.6023  19.7384  20.1869  20.8834

     occupation numbers 
     1.0000   1.0000   1.0000   1.0000   1.0000   1.0000   1.0000   1.0006
     0.0000   0.0000   0.0000   0.0000

          k = 0.0000 0.2386 0.1249 (  2012 PWs)   bands (ev):

    -8.1898  -5.2498   1.9884   5.8700   7.2743   7.5275   9.1838   9.3809
    17.6024  19.6808  20.1919  20.9981

     occupation numbers 
     1.0000   1.0000   1.0000   1.0000   1.0000   1.0000   1.0000   1.0000
     0.0000   0.0000   0.0000   0.0000

          k = 0.0000 0.2386 0.2497 (  1999 PWs)   bands (ev):

    -7.5184  -6.4682   4.0640   6.0142   6.7148   7.8265   7.9384   8.6214
    18.0352  18.9201  21.0594  21.4456

     occupation numbers 
     1.0000   1.0000   1.0000   1.0000   1.0000   1.0000   1.0000   1.0000
     0.0000   0.0000   0.0000   0.0000

          k = 0.0000 0.3580 0.0000 (  2016 PWs)   bands (ev):

    -7.4062  -3.9982   1.9698   3.4531   6.0581   6.2265   8.5235   9.0478
    17.0327  19.5934  20.4306  21.6058

     occupation numbers 
     1.0000   1.0000   1.0000   1.0000   1.0000   1.0000   1.0000   1.0000
     0.0000   0.0000   0.0000   0.0000

          k = 0.0000 0.3580 0.1249 (  2019 PWs)   bands (ev):

    -7.1903  -4.5409   2.4022   4.0666   5.4657   6.4342   8.5571   8.6892
    16.9983  18.8756  20.9577  21.2163

     occupation numbers 
     1.0000   1.0000   1.0000   1.0000   1.0000   1.0000   1.0000   1.0000
     0.0000   0.0000   0.0000   0.0000

          k = 0.0000 0.3580 0.2497 (  2002 PWs)   bands (ev):

    -6.5623  -5.6012   3.2125   4.2060   5.9231   7.0190   7.7144   7.8705
    17.2276  18.0429  21.0168  22.2010

     occupation numbers 
     1.0000   1.0000   1.0000   1.0000   1.0000   1.0000   1.0000   1.0000
     0.0000   0.0000   0.0000   0.0000

          k = 0.0000 0.4773 0.0000 (  2021 PWs)   bands (ev):

    -6.1354  -3.7408   1.9494   3.1486   4.2579   5.6443   7.2312   8.5645
    16.6573  18.7890  20.6234  21.4674

     occupation numbers 
     1.0000   1.0000   1.0000   1.0000   1.0000   1.0000   1.0000   1.0000
     0.0000   0.0000   0.0000   0.0000

          k = 0.0000 0.4773 0.1249 (  2015 PWs)   bands (ev):

    -5.9506  -4.0156   1.5111   3.3485   4.5611   5.8578   7.6909   8.1855
    16.7085  17.9778  21.2865  21.3773

     occupation numbers 
     1.0000   1.0000   1.0000   1.0000   1.0000   1.0000   1.0000   1.0000
     0.0000   0.0000   0.0000   0.0000

          k = 0.0000 0.4773 0.2497 (  2013 PWs)   bands (ev):

    -5.4290  -4.6938   1.5744   2.3153   6.3490   6.4688   7.3303   7.6963
    16.8007  17.3095  20.5931  21.4540

     occupation numbers 
     1.0000   1.0000   1.0000   1.0000   1.0000   1.0000   1.0000   1.0000
     0.0000   0.0000   0.0000   0.0000

          k = 0.0000-0.5966 0.0000 (  2026 PWs)   bands (ev):

    -5.2076  -4.0733   1.6304   3.1724   4.1378   5.4373   6.3798   8.3911
    16.5279  18.4516  20.6401  21.2627

     occupation numbers 
     1.0000   1.0000   1.0000   1.0000   1.0000   1.0000   1.0000   1.0000
     0.0000   0.0000   0.0000   0.0000

          k = 0.0000-0.5966 0.1249 (  2016 PWs)   bands (ev):

    -5.0733  -4.1217   1.1465   2.4350   5.1107   5.6539   7.0761   8.0064
    16.6672  17.5675  21.3814  21.4663

     occupation numbers 
     1.0000   1.0000   1.0000   1.0000   1.0000   1.0000   1.0000   1.0000
     0.0000   0.0000   0.0000   0.0000

          k = 0.0000-0.5966 0.2497 (  2018 PWs)   bands (ev):

    -4.7255  -4.3396   0.8658   1.3767   6.2618   6.7040   7.1509   7.5960
    16.8285  16.8662  20.6142  20.8213

     occupation numbers 
     1.0000   1.0000   1.0000   1.0000   1.0000   1.0000   1.0000   1.0000
     0.0000   0.0000   0.0000   0.0000

          k = 0.1000 0.0577 0.0000 (  2007 PWs)   bands (ev):

    -9.0682  -5.0360   0.3449   7.3827   8.2434   9.7228  10.1616  10.5204
    18.4487  19.2520  19.7375  20.1731

     occupation numbers 
     1.0000   1.0000   1.0000   1.0000   1.0000   1.0008   1.0703   0.7567
     0.0000   0.0000   0.0000   0.0000

          k = 0.1000 0.0577 0.1249 (  1996 PWs)   bands (ev):

    -8.8336  -5.7711   1.4757   7.5705   8.4152   8.8928   9.7000  10.2460
    18.5713  19.5135  20.0124  20.2292

     occupation numbers 
     1.0000   1.0000   1.0000   1.0000   1.0000   1.0000   1.0005   1.0833
     0.0000   0.0000   0.0000   0.0000

          k = 0.1000 0.0577 0.2497 (  1983 PWs)   bands (ev):

    -8.1434  -7.0558   3.8871   6.6043   8.1160   8.8858   8.9242   9.6025
    19.2721  19.9131  20.0754  20.4134

     occupation numbers 
     1.0000   1.0000   1.0000   1.0000   1.0000   1.0000   1.0000   1.0001
     0.0000   0.0000   0.0000   0.0000

          k = 0.1000 0.1771 0.0000 (  2013 PWs)   bands (ev):

    -8.6517  -4.7392   0.7564   6.2056   7.2172   8.7952   9.7458   9.8892
    18.5283  19.1813  20.1667  21.0622

     occupation numbers 
     1.0000   1.0000   1.0000   1.0000   1.0000   1.0000   1.0011   1.0077
     0.0000   0.0000   0.0000   0.0000

          k = 0.1000 0.1771 0.1249 (  2014 PWs)   bands (ev):

    -8.4207  -5.4362   1.8098   6.4223   7.3313   8.1807   9.3452   9.5829
    18.4888  19.4613  20.3004  20.9726

     occupation numbers 
     1.0000   1.0000   1.0000   1.0000   1.0000   1.0000   1.0000   1.0001
     0.0000   0.0000   0.0000   0.0000

          k = 0.1000 0.1771 0.2497 (  1990 PWs)   bands (ev):

    -7.7425  -6.6787   4.0253   6.3012   7.0744   7.8880   8.3787   8.8679
    19.0348  19.8984  20.2028  20.5517

     occupation numbers 
     1.0000   1.0000   1.0000   1.0000   1.0000   1.0000   1.0000   1.0000
     0.0000   0.0000   0.0000   0.0000

          k = 0.1000 0.2964 0.0000 (  2011 PWs)   bands (ev):

    -7.8343  -4.2208   1.5595   4.5193   5.7213   7.3476   8.9300   8.9608
    18.0821  19.5459  20.7028  21.3832

     occupation numbers 
     1.0000   1.0000   1.0000   1.0000   1.0000   1.0000   1.0000   1.0000
     0.0000   0.0000   0.0000   0.0000

          k = 0.1000 0.2964 0.1249 (  2013 PWs)   bands (ev):

    -7.6123  -4.8253   2.3513   4.8625   5.7652   6.8585   8.5439   8.9072
    18.0323  19.6785  20.3200  21.3819

     occupation numbers 
     1.0000   1.0000   1.0000   1.0000   1.0000   1.0000   1.0000   1.0000
     0.0000   0.0000   0.0000   0.0000

          k = 0.1000 0.2964 0.2497 (  2008 PWs)   bands (ev):

    -6.9640  -5.9607   3.8084   5.0427   6.0811   6.8483   7.7116   7.9564
    18.3060  19.1349  20.8893  21.4825

     occupation numbers 
     1.0000   1.0000   1.0000   1.0000   1.0000   1.0000   1.0000   1.0000
     0.0000   0.0000   0.0000   0.0000

          k = 0.1000 0.4157 0.0000 (  2013 PWs)   bands (ev):

    -6.6848  -3.7479   2.6377   2.7395   4.6388   5.7587   7.8111   8.2348
    17.6216  18.8267  20.8605  22.1553

     occupation numbers 
     1.0000   1.0000   1.0000   1.0000   1.0000   1.0000   1.0000   1.0000
     0.0000   0.0000   0.0000   0.0000

          k = 0.1000 0.4157 0.1249 (  2014 PWs)   bands (ev):

    -6.4833  -4.1596   2.1550   3.8660   4.5516   5.6368   7.7363   8.2248
    17.6078  18.8336  20.5876  21.6993

     occupation numbers 
     1.0000   1.0000   1.0000   1.0000   1.0000   1.0000   1.0000   1.0000
     0.0000   0.0000   0.0000   0.0000

          k = 0.1000 0.4157 0.2497 (  2006 PWs)   bands (ev):

    -5.9041  -5.0448   2.4435   3.2470   5.7819   6.3643   6.9170   7.9030
    17.6927  18.3557  20.8883  21.8878

     occupation numbers 
     1.0000   1.0000   1.0000   1.0000   1.0000   1.0000   1.0000   1.0000
     0.0000   0.0000   0.0000   0.0000

          k = 0.1000 0.5350 0.0000 (  2021 PWs)   bands (ev):

    -5.4321  -3.8599   1.7859   3.4267   4.0628   4.9517   6.5850   7.8816
    17.4852  17.9681  20.8442  22.3923

     occupation numbers 
     1.0000   1.0000   1.0000   1.0000   1.0000   1.0000   1.0000   1.0000
     0.0000   0.0000   0.0000   0.0000

          k = 0.1000 0.5350 0.1249 (  2016 PWs)   bands (ev):

    -5.2791  -3.9782   1.3542   2.8032   4.6850   5.4303   7.0780   7.6167
    17.5302  17.9528  20.7773  22.0543

     occupation numbers 
     1.0000   1.0000   1.0000   1.0000   1.0000   1.0000   1.0000   1.0000
     0.0000   0.0000   0.0000   0.0000

          k = 0.1000 0.5350 0.2497 (  2017 PWs)   bands (ev):

    -4.8667  -4.3527   1.1923   1.7706   5.4543   6.3778   6.9057   7.8041
    17.4372  17.7986  20.7936  21.2662

     occupation numbers 
     1.0000   1.0000   1.0000   1.0000   1.0000   1.0000   1.0000   1.0000
     0.0000   0.0000   0.0000   0.0000

          k = 0.1000-0.5389 0.0000 (  2015 PWs)   bands (ev):

    -5.3904  -3.8751   1.7783   3.3993   4.0617   4.9747   6.5769   7.9065
    17.4451  18.0034  20.8010  22.3700

     occupation numbers 
     1.0000   1.0000   1.0000   1.0000   1.0000   1.0000   1.0000   1.0000
     0.0000   0.0000   0.0000   0.0000

          k = 0.1000-0.5389 0.1249 (  2012 PWs)   bands (ev):

    -5.2397  -3.9838   1.3407   2.7528   4.7290   5.4204   7.1121   7.6135
    17.4934  17.9557  20.7788  22.0232

     occupation numbers 
     1.0000   1.0000   1.0000   1.0000   1.0000   1.0000   1.0000   1.0000
     0.0000   0.0000   0.0000   0.0000

          k = 0.1000-0.5389 0.2497 (  2019 PWs)   bands (ev):

    -4.8354  -4.3377   1.1608   1.7253   5.4902   6.3686   6.9564   7.8005
    17.4128  17.7721  20.7926  21.2058

     occupation numbers 
     1.0000   1.0000   1.0000   1.0000   1.0000   1.0000   1.0000   1.0000
     0.0000   0.0000   0.0000   0.0000

          k = 0.1000-0.4195 0.0000 (  2022 PWs)   bands (ev):

    -6.6353  -3.7282   2.6164   2.7370   4.5998   5.7684   7.8131   8.3024
    17.5295  18.9112  20.7002  22.2085

     occupation numbers 
     1.0000   1.0000   1.0000   1.0000   1.0000   1.0000   1.0000   1.0000
     0.0000   0.0000   0.0000   0.0000

          k = 0.1000-0.4195 0.1249 (  2020 PWs)   bands (ev):

    -6.4346  -4.1317   2.1068   3.8567   4.4978   5.6835   7.8328   8.2120
    17.5162  18.8260  20.5834  21.5666

     occupation numbers 
     1.0000   1.0000   1.0000   1.0000   1.0000   1.0000   1.0000   1.0000
     0.0000   0.0000   0.0000   0.0000

          k = 0.1000-0.4195 0.2497 (  2013 PWs)   bands (ev):

    -5.8584  -5.0055   2.3729   3.1693   5.8506   6.3223   7.0587   7.9105
    17.6176  18.2948  20.8235  21.6638

     occupation numbers 
     1.0000   1.0000   1.0000   1.0000   1.0000   1.0000   1.0000   1.0000
     0.0000   0.0000   0.0000   0.0000

          k = 0.1000-0.3002 0.0000 (  2012 PWs)   bands (ev):

    -7.7956  -4.1892   1.5946   4.4303   5.7986   7.2755   8.9633   9.0207
    17.9241  19.5144  20.5430  21.2947

     occupation numbers 
     1.0000   1.0000   1.0000   1.0000   1.0000   1.0000   1.0000   1.0000
     0.0000   0.0000   0.0000   0.0000

          k = 0.1000-0.3002 0.1249 (  2010 PWs)   bands (ev):

    -7.5739  -4.7917   2.3751   4.7827   5.8005   6.8405   8.6225   8.9180
    17.8949  19.6181  20.1642  21.2026

     occupation numbers 
     1.0000   1.0000   1.0000   1.0000   1.0000   1.0000   1.0000   1.0000
     0.0000   0.0000   0.0000   0.0000

          k = 0.1000-0.3002 0.2497 (  1999 PWs)   bands (ev):

    -6.9263  -5.9245   3.7955   5.0069   6.0238   6.8918   7.7995   7.9915
    18.2090  19.0721  20.5593  21.1003

     occupation numbers 
     1.0000   1.0000   1.0000   1.0000   1.0000   1.0000   1.0000   1.0000
     0.0000   0.0000   0.0000   0.0000

          k = 0.1000-0.1809 0.0000 (  1995 PWs)   bands (ev):

    -8.6278  -4.7161   0.7783   6.2705   7.1803   8.7927   9.7828   9.8437
    18.4222  18.6944  20.2168  21.2715

     occupation numbers 
     1.0000   1.0000   1.0000   1.0000   1.0000   1.0000   1.0019   1.0044
     0.0000   0.0000   0.0000   0.0000

          k = 0.1000-0.1809 0.1249 (  2000 PWs)   bands (ev):

    -8.3969  -5.4130   1.8319   6.4848   7.3034   8.1865   9.3716   9.5329
    18.4341  18.9245  20.1945  21.1962

     occupation numbers 
     1.0000   1.0000   1.0000   1.0000   1.0000   1.0000   1.0000   1.0000
     0.0000   0.0000   0.0000   0.0000

          k = 0.1000-0.1809 0.2497 (  2005 PWs)   bands (ev):

    -7.7188  -6.6552   4.0498   6.3360   7.1149   7.8688   8.3851   8.8241
    19.0298  19.4641  19.9090  20.3107

     occupation numbers 
     1.0000   1.0000   1.0000   1.0000   1.0000   1.0000   1.0000   1.0000
     0.0000   0.0000   0.0000   0.0000

          k = 0.1000-0.0616 0.0000 (  1991 PWs)   bands (ev):

    -9.0601  -5.0279   0.3523   7.5434   8.0795   9.8300  10.1805  10.3953
    18.3289  18.9477  19.8127  20.3912

     occupation numbers 
     1.0000   1.0000   1.0000   1.0000   1.0000   1.0036   1.0751   0.9928
     0.0000   0.0000   0.0000   0.0000

          k = 0.1000-0.0616 0.1249 (  1996 PWs)   bands (ev):

    -8.8255  -5.7631   1.4835   7.7263   8.2480   8.9537   9.7747  10.1170
    18.4748  19.1865  19.9665  20.4751

     occupation numbers 
     1.0000   1.0000   1.0000   1.0000   1.0000   1.0000   1.0017   1.0569
     0.0000   0.0000   0.0000   0.0000

          k = 0.1000-0.0616 0.2497 (  1982 PWs)   bands (ev):

    -8.1354  -7.0478   3.8964   6.6187   8.2610   8.7645   9.0194   9.4636
    19.0565  19.6125  19.9875  20.7948

     occupation numbers 
     1.0000   1.0000   1.0000   1.0000   1.0000   1.0000   1.0000   1.0000
     0.0000   0.0000   0.0000   0.0000

          k = 0.2000 0.1155 0.0000 (  2012 PWs)   bands (ev):

    -8.4811  -4.6356   0.9267   5.2863   7.5143   7.9346   9.4847  10.0409
    18.2475  20.0503  20.1418  21.3497

     occupation numbers 
     1.0000   1.0000   1.0000   1.0000   1.0000   1.0000   1.0000   1.0342
     0.0000   0.0000   0.0000   0.0000

          k = 0.2000 0.1155 0.1249 (  2005 PWs)   bands (ev):

    -8.2520  -5.3112   1.9255   5.5401   7.2988   7.7075   9.1290   9.7265
    18.1335  19.9352  20.5380  21.3366

     occupation numbers 
     1.0000   1.0000   1.0000   1.0000   1.0000   1.0000   1.0000   1.0008
     0.0000   0.0000   0.0000   0.0000

          k = 0.2000 0.1155 0.2497 (  1994 PWs)   bands (ev):

    -7.5803  -6.5298   3.9686   5.8529   6.4156   7.7957   8.2463   9.0017
    18.5761  19.5126  21.0622  21.4918

     occupation numbers 
     1.0000   1.0000   1.0000   1.0000   1.0000   1.0000   1.0000   1.0000
     0.0000   0.0000   0.0000   0.0000

          k = 0.2000 0.2348 0.0000 (  2014 PWs)   bands (ev):

    -7.8823  -4.2708   1.5163   4.1700   6.0656   7.2599   8.9097   9.2520
    18.6414  19.6077  20.6242  21.6370

     occupation numbers 
     1.0000   1.0000   1.0000   1.0000   1.0000   1.0000   1.0000   1.0000
     0.0000   0.0000   0.0000   0.0000

          k = 0.2000 0.2348 0.1249 (  2010 PWs)   bands (ev):

    -7.6603  -4.8742   2.2845   4.5489   5.9020   6.9550   8.7562   8.9910
    18.4359  19.7975  20.4837  21.5716

     occupation numbers 
     1.0000   1.0000   1.0000   1.0000   1.0000   1.0000   1.0000   1.0000
     0.0000   0.0000   0.0000   0.0000

          k = 0.2000 0.2348 0.2497 (  2003 PWs)   bands (ev):

    -7.0119  -6.0087   3.6614   4.8765   5.8853   7.1540   7.8196   8.2080
    18.6773  19.6010  20.8218  21.2023

     occupation numbers 
     1.0000   1.0000   1.0000   1.0000   1.0000   1.0000   1.0000   1.0000
     0.0000   0.0000   0.0000   0.0000

          k = 0.2000 0.3541 0.0000 (  2016 PWs)   bands (ev):

    -6.9229  -3.8213   2.4548   3.3772   4.1285   6.2717   7.8679   8.0452
    18.1433  19.9308  21.5573  21.9988

     occupation numbers 
     1.0000   1.0000   1.0000   1.0000   1.0000   1.0000   1.0000   1.0000
     0.0000   0.0000   0.0000   0.0000

          k = 0.2000 0.3541 0.1249 (  2013 PWs)   bands (ev):

    -6.7166  -4.2787   2.4604   4.0607   4.4076   5.7223   7.4522   8.3673
    18.7287  19.4146  21.0737  21.9721

     occupation numbers 
     1.0000   1.0000   1.0000   1.0000   1.0000   1.0000   1.0000   1.0000
     0.0000   0.0000   0.0000   0.0000

          k = 0.2000 0.3541 0.2497 (  2014 PWs)   bands (ev):

    -6.1207  -5.2259   2.9058   3.6713   5.5954   5.9511   6.7997   7.9651
    18.9871  19.4288  21.1921  21.6012

     occupation numbers 
     1.0000   1.0000   1.0000   1.0000   1.0000   1.0000   1.0000   1.0000
     0.0000   0.0000   0.0000   0.0000

          k = 0.2000 0.4734 0.0000 (  2014 PWs)   bands (ev):

    -5.7250  -3.6531   2.4495   3.1854   3.7048   4.9718   6.8508   6.9802
    17.0576  20.0111  22.2110  23.1060

     occupation numbers 
     1.0000   1.0000   1.0000   1.0000   1.0000   1.0000   1.0000   1.0000
     0.0000   0.0000   0.0000   0.0000

          k = 0.2000 0.4734 0.1249 (  2012 PWs)   bands (ev):

    -5.5543  -3.8705   2.0491   2.9514   4.3456   5.0400   6.4140   7.6123
    17.8053  19.8866  20.9592  22.7725

     occupation numbers 
     1.0000   1.0000   1.0000   1.0000   1.0000   1.0000   1.0000   1.0000
     0.0000   0.0000   0.0000   0.0000

          k = 0.2000 0.4734 0.2497 (  2013 PWs)   bands (ev):

    -5.0796  -4.4335   1.9612   2.4766   4.4128   5.2551   6.9138   7.9263
    18.7502  19.2766  21.0528  21.8299

     occupation numbers 
     1.0000   1.0000   1.0000   1.0000   1.0000   1.0000   1.0000   1.0000
     0.0000   0.0000   0.0000   0.0000

          k = 0.2000 0.5927 0.0000 (  2019 PWs)   bands (ev):

    -4.7832  -3.9953   1.8630   3.5515   3.8884   4.6378   6.0126   6.6701
    16.6443  19.8575  22.3716  23.4332

     occupation numbers 
     1.0000   1.0000   1.0000   1.0000   1.0000   1.0000   1.0000   1.0000
     0.0000   0.0000   0.0000   0.0000

          k = 0.2000 0.5927 0.1249 (  2011 PWs)   bands (ev):

    -4.6740  -4.0151   1.6427   2.8009   3.5749   5.8047   5.9688   7.0262
    17.4244  19.8927  21.1263  22.7778

     occupation numbers 
     1.0000   1.0000   1.0000   1.0000   1.0000   1.0000   1.0000   1.0000
     0.0000   0.0000   0.0000   0.0000

          k = 0.2000 0.5927 0.2497 (  2021 PWs)   bands (ev):

    -4.4049  -4.1387   1.4229   1.8278   4.0103   4.9578   7.2799   7.7905
    18.5200  19.3711  20.9101  21.3950

     occupation numbers 
     1.0000   1.0000   1.0000   1.0000   1.0000   1.0000   1.0000   1.0000
     0.0000   0.0000   0.0000   0.0000

          k = 0.2000-0.4811 0.0000 (  2023 PWs)   bands (ev):

    -5.6231  -3.6514   2.3789   3.1962   3.7618   4.9005   6.8672   7.0030
    17.0889  19.9020  22.1209  23.0141

     occupation numbers 
     1.0000   1.0000   1.0000   1.0000   1.0000   1.0000   1.0000   1.0000
     0.0000   0.0000   0.0000   0.0000

          k = 0.2000-0.4811 0.1249 (  2018 PWs)   bands (ev):

    -5.4560  -3.8486   1.9782   2.9098   4.3330   5.0566   6.5159   7.5763
    17.8127  19.8211  20.9063  22.6274

     occupation numbers 
     1.0000   1.0000   1.0000   1.0000   1.0000   1.0000   1.0000   1.0000
     0.0000   0.0000   0.0000   0.0000

          k = 0.2000-0.4811 0.2497 (  2017 PWs)   bands (ev):

    -4.9939  -4.3742   1.8614   2.3629   4.4685   5.2957   6.9797   7.9311
    18.6913  19.2615  20.9597  21.7767

     occupation numbers 
     1.0000   1.0000   1.0000   1.0000   1.0000   1.0000   1.0000   1.0000
     0.0000   0.0000   0.0000   0.0000

          k = 0.2000-0.3618 0.0000 (  2021 PWs)   bands (ev):

    -6.8323  -3.7636   2.5385   3.3350   4.0764   6.2014   7.9101   8.0528
    18.1543  19.6488  21.4024  21.5797

     occupation numbers 
     1.0000   1.0000   1.0000   1.0000   1.0000   1.0000   1.0000   1.0000
     0.0000   0.0000   0.0000   0.0000

          k = 0.2000-0.3618 0.1249 (  2018 PWs)   bands (ev):

    -6.6270  -4.2120   2.4649   4.0609   4.3551   5.6920   7.4989   8.3684
    18.7164  19.2448  20.9323  21.4038

     occupation numbers 
     1.0000   1.0000   1.0000   1.0000   1.0000   1.0000   1.0000   1.0000
     0.0000   0.0000   0.0000   0.0000

          k = 0.2000-0.3618 0.2497 (  2008 PWs)   bands (ev):

    -6.0346  -5.1470   2.8626   3.6065   5.6186   5.9067   6.8847   7.9897
    18.9056  19.3494  20.8859  21.1009

     occupation numbers 
     1.0000   1.0000   1.0000   1.0000   1.0000   1.0000   1.0000   1.0000
     0.0000   0.0000   0.0000   0.0000

          k = 0.2000-0.2425 0.0000 (  2016 PWs)   bands (ev):

    -7.8187  -4.2126   1.5739   4.2707   5.9583   7.2363   8.9624   9.1506
    18.2303  19.4574  20.5096  21.4846

     occupation numbers 
     1.0000   1.0000   1.0000   1.0000   1.0000   1.0000   1.0000   1.0000
     0.0000   0.0000   0.0000   0.0000

          k = 0.2000-0.2425 0.1249 (  2008 PWs)   bands (ev):

    -7.5969  -4.8147   2.3437   4.6396   5.8667   6.8826   8.7427   8.9392
    18.1432  19.6085  20.1975  21.3359

     occupation numbers 
     1.0000   1.0000   1.0000   1.0000   1.0000   1.0000   1.0000   1.0000
     0.0000   0.0000   0.0000   0.0000

          k = 0.2000-0.2425 0.2497 (  2009 PWs)   bands (ev):

    -6.9492  -5.9473   3.7279   4.9321   5.9361   7.0269   7.8562   8.1078
    18.4388  19.3256  20.4349  20.9337

     occupation numbers 
     1.0000   1.0000   1.0000   1.0000   1.0000   1.0000   1.0000   1.0000
     0.0000   0.0000   0.0000   0.0000

          k = 0.2000-0.1232 0.0000 (  2005 PWs)   bands (ev):

    -8.4486  -4.6027   0.9564   5.4795   7.2743   8.0464   9.5279   9.8617
    17.9273  19.7296  20.1626  21.3047

     occupation numbers 
     1.0000   1.0000   1.0000   1.0000   1.0000   1.0000   1.0000   1.0055
     0.0000   0.0000   0.0000   0.0000

          k = 0.2000-0.1232 0.1249 (  2009 PWs)   bands (ev):

    -8.2196  -5.2787   1.9590   5.7217   7.3825   7.5143   9.1613   9.5396
    17.8858  19.7459  20.2161  21.3247

     occupation numbers 
     1.0000   1.0000   1.0000   1.0000   1.0000   1.0000   1.0000   1.0000
     0.0000   0.0000   0.0000   0.0000

          k = 0.2000-0.1232 0.2497 (  1995 PWs)   bands (ev):

    -7.5480  -6.4975   4.0227   5.9494   6.5714   7.8443   8.0458   8.7968
    18.3177  19.1976  20.8672  21.4922

     occupation numbers 
     1.0000   1.0000   1.0000   1.0000   1.0000   1.0000   1.0000   1.0000
     0.0000   0.0000   0.0000   0.0000

          k = 0.2000-0.0038 0.0000 (  2005 PWs)   bands (ev):

    -8.6738  -4.7592   0.7360   6.2464   7.1583   8.8416   9.7258   9.8750
    18.7042  19.4823  20.1618  20.9793

     occupation numbers 
     1.0000   1.0000   1.0000   1.0000   1.0000   1.0000   1.0008   1.0065
     0.0000   0.0000   0.0000   0.0000

          k = 0.2000-0.0038 0.1249 (  2004 PWs)   bands (ev):

    -8.4427  -5.4568   1.7904   6.4642   7.2782   8.1975   9.3555   9.5565
    18.6154  19.8246  20.3723  20.9571

     occupation numbers 
     1.0000   1.0000   1.0000   1.0000   1.0000   1.0000   1.0000   1.0000
     0.0000   0.0000   0.0000   0.0000

          k = 0.2000-0.0038 0.2497 (  1991 PWs)   bands (ev):

    -7.7642  -6.6999   4.0086   6.2935   7.1093   7.8802   8.3774   8.8297
    19.1425  20.0860  20.6084  20.7372

     occupation numbers 
     1.0000   1.0000   1.0000   1.0000   1.0000   1.0000   1.0000   1.0000
     0.0000   0.0000   0.0000   0.0000

          k = 0.3000 0.1732 0.0000 (  2009 PWs)   bands (ev):

    -7.5486  -4.1349   1.8443   3.1343   5.8977   6.7841   8.4235   9.4892
    17.9271  19.7370  20.8625  21.8725

     occupation numbers 
     1.0000   1.0000   1.0000   1.0000   1.0000   1.0000   1.0000   1.0000
     0.0000   0.0000   0.0000   0.0000

          k = 0.3000 0.1732 0.1249 (  2012 PWs)   bands (ev):

    -7.3323  -4.6779   2.2084   3.8446   5.2473   6.9852   8.5005   9.1462
    17.7141  19.2195  21.3243  21.5841

     occupation numbers 
     1.0000   1.0000   1.0000   1.0000   1.0000   1.0000   1.0000   1.0000
     0.0000   0.0000   0.0000   0.0000

          k = 0.3000 0.1732 0.2497 (  2018 PWs)   bands (ev):

    -6.7030  -5.7399   2.9637   3.9839   5.7639   7.5330   7.6652   8.3641
    17.8220  18.6778  21.1429  22.1205

     occupation numbers 
     1.0000   1.0000   1.0000   1.0000   1.0000   1.0000   1.0000   1.0000
     0.0000   0.0000   0.0000   0.0000

          k = 0.3000 0.2925 0.0000 (  2016 PWs)   bands (ev):

    -6.8199  -3.8813   2.3787   2.5580   4.7406   6.0373   7.7414   8.6918
    18.2887  19.2993  21.2162  22.3434

     occupation numbers 
     1.0000   1.0000   1.0000   1.0000   1.0000   1.0000   1.0000   1.0000
     0.0000   0.0000   0.0000   0.0000

          k = 0.3000 0.2925 0.1249 (  2017 PWs)   bands (ev):

    -6.6180  -4.2911   1.8864   3.7841   4.3564   6.0919   8.0041   8.4000
    18.0978  19.3190  20.9511  22.0658

     occupation numbers 
     1.0000   1.0000   1.0000   1.0000   1.0000   1.0000   1.0000   1.0000
     0.0000   0.0000   0.0000   0.0000

          k = 0.3000 0.2925 0.2497 (  2016 PWs)   bands (ev):

    -6.0373  -5.1762   2.1760   3.0275   5.8790   6.6479   7.3510   7.9488
    18.0620  18.9197  21.1442  21.9050

     occupation numbers 
     1.0000   1.0000   1.0000   1.0000   1.0000   1.0000   1.0000   1.0000
     0.0000   0.0000   0.0000   0.0000

          k = 0.3000 0.4118 0.0000 (  2014 PWs)   bands (ev):

    -5.8243  -3.7305   2.1717   3.4757   3.6306   4.9588   6.8717   7.2147
    17.1586  21.0728  22.3079  22.9021

     occupation numbers 
     1.0000   1.0000   1.0000   1.0000   1.0000   1.0000   1.0000   1.0000
     0.0000   0.0000   0.0000   0.0000

          k = 0.3000 0.4118 0.1249 (  2012 PWs)   bands (ev):

    -5.6523  -3.9501   1.7986   3.1127   4.3574   5.0449   6.6629   7.6295
    17.8471  20.4585  21.5329  22.8833

     occupation numbers 
     1.0000   1.0000   1.0000   1.0000   1.0000   1.0000   1.0000   1.0000
     0.0000   0.0000   0.0000   0.0000

          k = 0.3000 0.4118 0.2497 (  2013 PWs)   bands (ev):

    -5.1733  -4.5201   1.7736   2.3806   4.6654   5.5138   6.8965   7.9213
    18.7298  19.5607  21.4844  22.0330

     occupation numbers 
     1.0000   1.0000   1.0000   1.0000   1.0000   1.0000   1.0000   1.0000
     0.0000   0.0000   0.0000   0.0000

          k = 0.3000 0.5312 0.0000 (  2021 PWs)   bands (ev):

    -4.7709  -3.9158   1.9254   3.2695   4.1442   4.7048   5.8559   5.9920
    16.1504  22.6373  23.4057  24.0459

     occupation numbers 
     1.0000   1.0000   1.0000   1.0000   1.0000   1.0000   1.0000   1.0000
     0.0000   0.0000   0.0000   0.0000

          k = 0.3000 0.5312 0.1249 (  2020 PWs)   bands (ev):

    -4.6605  -3.9505   2.0885   2.5292   3.3940   5.2265   5.9461   6.8949
    17.1321  21.4566  22.4398  22.7850

     occupation numbers 
     1.0000   1.0000   1.0000   1.0000   1.0000   1.0000   1.0000   1.0000
     0.0000   0.0000   0.0000   0.0000

          k = 0.3000 0.5312 0.2497 (  2012 PWs)   bands (ev):

    -4.3860  -4.1026   1.9376   2.1264   3.2007   4.1600   7.3554   7.7778
    19.2682  19.8643  20.6344  22.0695

     occupation numbers 
     1.0000   1.0000   1.0000   1.0000   1.0000   1.0000   1.0000   1.0000
     0.0000   0.0000   0.0000   0.0000

          k = 0.3000 0.6505 0.0000 (  2029 PWs)   bands (ev):

    -4.6255  -3.9795   1.9028   3.3057   4.0301   4.8325   5.8641   5.9033
    16.1428  22.5650  23.3449  23.4940

     occupation numbers 
     1.0000   1.0000   1.0000   1.0000   1.0000   1.0000   1.0000   1.0000
     0.0000   0.0000   0.0000   0.0000

          k = 0.3000 0.6505 0.1249 (  2020 PWs)   bands (ev):

    -4.5279  -3.9903   2.0687   2.5458   3.3098   5.2091   6.0778   6.8057
    17.1269  21.4939  22.3787  22.6692

     occupation numbers 
     1.0000   1.0000   1.0000   1.0000   1.0000   1.0000   1.0000   1.0000
     0.0000   0.0000   0.0000   0.0000

          k = 0.3000 0.6505 0.2497 (  2011 PWs)   bands (ev):

    -4.2947  -4.0792   1.9321   2.0435   3.1861   4.1482   7.4212   7.7520
    19.2799  19.8793  20.5701  21.9537

     occupation numbers 
     1.0000   1.0000   1.0000   1.0000   1.0000   1.0000   1.0000   1.0000
     0.0000   0.0000   0.0000   0.0000

          k = 0.3000-0.4234 0.0000 (  2021 PWs)   bands (ev):

    -5.6712  -3.6872   2.2417   3.3522   3.7099   4.8985   6.8618   7.1336
    17.1390  20.4424  22.1598  22.7523

     occupation numbers 
     1.0000   1.0000   1.0000   1.0000   1.0000   1.0000   1.0000   1.0000
     0.0000   0.0000   0.0000   0.0000

          k = 0.3000-0.4234 0.1249 (  2017 PWs)   bands (ev):

    -5.5034  -3.8857   1.8560   2.9876   4.3512   5.0521   6.6313   7.5881
    17.8401  20.1897  21.1150  22.6091

     occupation numbers 
     1.0000   1.0000   1.0000   1.0000   1.0000   1.0000   1.0000   1.0000
     0.0000   0.0000   0.0000   0.0000

          k = 0.3000-0.4234 0.2497 (  2015 PWs)   bands (ev):

    -5.0390  -4.4152   1.7733   2.3207   4.5880   5.4148   6.9734   7.9314
    18.7132  19.4269  21.1831  21.8207

     occupation numbers 
     1.0000   1.0000   1.0000   1.0000   1.0000   1.0000   1.0000   1.0000
     0.0000   0.0000   0.0000   0.0000

          k = 0.3000-0.3041 0.0000 (  2018 PWs)   bands (ev):

[...]

          k =-0.3000 0.1848 0.1249 (  2002 PWs)   bands (ev):

    -7.2582  -4.6052   2.3124   3.9579   5.3623   6.6959   8.5353   8.9118
    17.3788  19.0421  20.9825  21.4645

     occupation numbers 
     1.0000   1.0000   1.0000   1.0000   1.0000   1.0000   1.0000   1.0000
     0.0000   0.0000   0.0000   0.0000

          k =-0.3000 0.1848 0.2497 (  2011 PWs)   bands (ev):

    -6.6294  -5.6670   3.0970   4.1048   5.8389   7.2585   7.6958   8.1145
    17.5519  18.3634  21.0203  22.0672

     occupation numbers 
     1.0000   1.0000   1.0000   1.0000   1.0000   1.0000   1.0000   1.0000
     0.0000   0.0000   0.0000   0.0000

          k =-0.3000 0.0654 0.1249 (  2004 PWs)   bands (ev):

    -7.6703  -4.8776   2.3028   4.8065   5.8342   6.8836   8.5784   8.9184
    18.3821  19.7567  20.4845  21.7555

     occupation numbers 
     1.0000   1.0000   1.0000   1.0000   1.0000   1.0000   1.0000   1.0000
     0.0000   0.0000   0.0000   0.0000

          k =-0.3000 0.0654 0.2497 (  2002 PWs)   bands (ev):

    -7.0210  -6.0159   3.7702   5.0246   6.0422   6.9465   7.6842   8.0060
    18.6014  19.4236  21.0853  21.7494

     occupation numbers 
     1.0000   1.0000   1.0000   1.0000   1.0000   1.0000   1.0000   1.0000
     0.0000   0.0000   0.0000   0.0000

          k =-0.3000-0.0539 0.1249 (  2012 PWs)   bands (ev):

    -7.6953  -4.9034   2.2675   4.6303   5.9149   6.9309   8.6874   8.9665
    18.5349  19.8619  20.6537  21.8076

     occupation numbers 
     1.0000   1.0000   1.0000   1.0000   1.0000   1.0000   1.0000   1.0000
     0.0000   0.0000   0.0000   0.0000

          k =-0.3000-0.0539 0.2497 (  2011 PWs)   bands (ev):

    -7.0460  -6.0411   3.6902   4.9312   5.9311   7.1266   7.7287   8.1445
    18.7484  19.6428  21.1386  21.6345

     occupation numbers 
     1.0000   1.0000   1.0000   1.0000   1.0000   1.0000   1.0000   1.0000
     0.0000   0.0000   0.0000   0.0000

          k =-0.4000-0.2309 0.1249 (  2014 PWs)   bands (ev):

    -6.2132  -4.2242   1.2719   3.2775   4.2989   6.4849   7.6547   8.7216
    17.5748  18.3696  21.6826  21.8586

     occupation numbers 
     1.0000   1.0000   1.0000   1.0000   1.0000   1.0000   1.0000   1.0000
     0.0000   0.0000   0.0000   0.0000

          k =-0.4000-0.2309 0.2497 (  2023 PWs)   bands (ev):

    -5.6818  -4.9278   1.3704   2.1637   6.1888   7.0658   7.6276   7.9106
    17.3320  17.9941  20.8312  21.5263

     occupation numbers 
     1.0000   1.0000   1.0000   1.0000   1.0000   1.0000   1.0000   1.0000
     0.0000   0.0000   0.0000   0.0000

          k =-0.4000-0.3503 0.1249 (  2021 PWs)   bands (ev):

    -5.5701  -4.1489   1.1082   2.7687   4.6315   5.7622   7.1971   8.0256
    17.8765  18.8448  21.3209  22.4675

     occupation numbers 
     1.0000   1.0000   1.0000   1.0000   1.0000   1.0000   1.0000   1.0000
     0.0000   0.0000   0.0000   0.0000

          k =-0.4000-0.3503 0.2497 (  2025 PWs)   bands (ev):

    -5.1338  -4.5749   0.9994   1.6523   5.8718   6.6944   7.0259   7.8358
    17.6984  18.5113  21.1244  21.5367

     occupation numbers 
     1.0000   1.0000   1.0000   1.0000   1.0000   1.0000   1.0000   1.0000
     0.0000   0.0000   0.0000   0.0000

          k =-0.4000-0.4696 0.1249 (  2015 PWs)   bands (ev):

    -5.0031  -4.0456   1.4504   2.8891   3.8151   5.5803   6.2220   7.1883
    17.4808  21.0902  21.3228  22.8924

     occupation numbers 
     1.0000   1.0000   1.0000   1.0000   1.0000   1.0000   1.0000   1.0000
     0.0000   0.0000   0.0000   0.0000

          k =-0.4000-0.4696 0.2497 (  2017 PWs)   bands (ev):

    -4.6656  -4.2827   1.2935   1.8221   4.3195   5.2630   7.1383   7.8193
    18.5208  19.7229  21.1598  22.0470

     occupation numbers 
     1.0000   1.0000   1.0000   1.0000   1.0000   1.0000   1.0000   1.0000
     0.0000   0.0000   0.0000   0.0000

          k =-0.4000-0.5889 0.1249 (  2022 PWs)   bands (ev):

    -4.7649  -3.9272   2.1399   2.4820   3.4733   5.2398   5.8374   6.9663
    17.1390  21.4385  22.5495  23.2580

     occupation numbers 
     1.0000   1.0000   1.0000   1.0000   1.0000   1.0000   1.0000   1.0000
     0.0000   0.0000   0.0000   0.0000

          k =-0.4000-0.5889 0.2497 (  2015 PWs)   bands (ev):

    -4.4612  -4.1283   1.9720   2.1870   3.2060   4.1621   7.3031   7.7977
    19.2865  19.8486  20.6925  22.2282

     occupation numbers 
     1.0000   1.0000   1.0000   1.0000   1.0000   1.0000   1.0000   1.0000
     0.0000   0.0000   0.0000   0.0000

          k =-0.4000-0.7082 0.1249 (  2017 PWs)   bands (ev):

    -4.8393  -4.0196   1.5455   2.8493   3.6907   5.6795   6.0987   7.1163
    17.4558  20.5009  21.2455  22.8168

     occupation numbers 
     1.0000   1.0000   1.0000   1.0000   1.0000   1.0000   1.0000   1.0000
     0.0000   0.0000   0.0000   0.0000

          k =-0.4000-0.7082 0.2497 (  2015 PWs)   bands (ev):

    -4.5325  -4.2030   1.3571   1.8276   4.1596   5.1038   7.2111   7.8113
    18.5442  19.5949  21.0199  21.6803

     occupation numbers 
     1.0000   1.0000   1.0000   1.0000   1.0000   1.0000   1.0000   1.0000
     0.0000   0.0000   0.0000   0.0000

          k =-0.4000 0.3657 0.1249 (  2009 PWs)   bands (ev):

    -5.3807  -4.0620   1.2163   2.7394   4.7301   5.5467   7.1821   7.8154
    17.7722  18.3077  21.0579  22.1795

     occupation numbers 
     1.0000   1.0000   1.0000   1.0000   1.0000   1.0000   1.0000   1.0000
     0.0000   0.0000   0.0000   0.0000

          k =-0.4000 0.3657 0.2497 (  2014 PWs)   bands (ev):

    -4.9637  -4.4422   1.0643   1.6682   5.7078   6.5194   7.0104   7.8179
    17.5879  18.1478  20.9189  21.2977

     occupation numbers 
     1.0000   1.0000   1.0000   1.0000   1.0000   1.0000   1.0000   1.0000
     0.0000   0.0000   0.0000   0.0000

          k =-0.4000 0.2463 0.1249 (  2007 PWs)   bands (ev):

    -6.0757  -4.1136   1.3925   3.3154   4.4290   6.1597   7.6843   8.4509
    17.1740  18.1583  21.4129  21.6193

     occupation numbers 
     1.0000   1.0000   1.0000   1.0000   1.0000   1.0000   1.0000   1.0000
     0.0000   0.0000   0.0000   0.0000

          k =-0.4000 0.2463 0.2497 (  2012 PWs)   bands (ev):

    -5.5492  -4.8045   1.4738   2.2412   6.2641   6.7528   7.5870   7.7108
    17.1114  17.6488  20.6708  21.4538

     occupation numbers 
     1.0000   1.0000   1.0000   1.0000   1.0000   1.0000   1.0000   1.0000
     0.0000   0.0000   0.0000   0.0000

          k =-0.4000 0.1270 0.1249 (  2012 PWs)   bands (ev):

    -6.5910  -4.2449   2.0728   3.8362   4.5184   5.7983   7.8223   8.2842
    17.9764  19.0485  20.7433  22.0226

     occupation numbers 
     1.0000   1.0000   1.0000   1.0000   1.0000   1.0000   1.0000   1.0000
     0.0000   0.0000   0.0000   0.0000

          k =-0.4000 0.1270 0.2497 (  2009 PWs)   bands (ev):

    -6.0081  -5.1415   2.3837   3.2198   5.8005   6.5048   6.9944   7.9148
    17.9835  18.6977  21.0355  22.0584

     occupation numbers 
     1.0000   1.0000   1.0000   1.0000   1.0000   1.0000   1.0000   1.0000
     0.0000   0.0000   0.0000   0.0000

          k =-0.4000 0.0077 0.1249 (  2010 PWs)   bands (ev):

    -6.7973  -4.3357   2.4773   4.1112   4.4100   5.7538   7.3804   8.3767
    18.7618  19.5879  21.3232  22.3984

     occupation numbers 
     1.0000   1.0000   1.0000   1.0000   1.0000   1.0000   1.0000   1.0000
     0.0000   0.0000   0.0000   0.0000

          k =-0.4000 0.0077 0.2497 (  2011 PWs)   bands (ev):

    -6.1980  -5.2957   2.9785   3.7554   5.5696   5.9679   6.6959   7.9460
    19.1092  19.5437  21.5483  21.9565

     occupation numbers 
     1.0000   1.0000   1.0000   1.0000   1.0000   1.0000   1.0000   1.0000
     0.0000   0.0000   0.0000   0.0000

          k =-0.4000-0.1116 0.1249 (  2012 PWs)   bands (ev):

    -6.6613  -4.3144   1.9331   3.7890   4.4139   6.0432   7.9448   8.3839
    18.1449  19.3468  20.9569  22.2645

     occupation numbers 
     1.0000   1.0000   1.0000   1.0000   1.0000   1.0000   1.0000   1.0000
     0.0000   0.0000   0.0000   0.0000

          k =-0.4000-0.1116 0.2497 (  2016 PWs)   bands (ev):

    -6.0778  -5.2105   2.2426   3.1017   5.8417   6.6632   7.2149   7.9412
    18.1169  18.9686  21.2180  22.1041

     occupation numbers 
     1.0000   1.0000   1.0000   1.0000   1.0000   1.0000   1.0000   1.0000
     0.0000   0.0000   0.0000   0.0000

          k = 0.5000 0.1694 0.1249 (  2009 PWs)   bands (ev):

    -5.6016  -4.1461   1.1230   2.8102   4.6032   5.7615   7.1806   8.0141
    17.8815  18.8670  21.3081  22.5209

     occupation numbers 
     1.0000   1.0000   1.0000   1.0000   1.0000   1.0000   1.0000   1.0000
     0.0000   0.0000   0.0000   0.0000

          k = 0.5000 0.1694 0.2497 (  2021 PWs)   bands (ev):

    -5.1595  -4.5884   1.0280   1.6907   5.8388   6.7728   6.9111   7.8390
    17.7166  18.5333  21.1360  21.5744

     occupation numbers 
     1.0000   1.0000   1.0000   1.0000   1.0000   1.0000   1.0000   1.0000
     0.0000   0.0000   0.0000   0.0000

          k = 0.5000 0.0500 0.1249 (  2018 PWs)   bands (ev):

    -5.7371  -3.9691   1.8695   3.1603   4.3555   5.0250   6.5733   7.6645
    17.8441  20.4786  21.6121  23.1371

     occupation numbers 
     1.0000   1.0000   1.0000   1.0000   1.0000   1.0000   1.0000   1.0000
     0.0000   0.0000   0.0000   0.0000

          k = 0.5000 0.0500 0.2497 (  2017 PWs)   bands (ev):

    -5.2474  -4.5719   1.8706   2.4895   4.6061   5.4752   6.8341   7.9182
    18.7846  19.5856  21.5306  22.1340

     occupation numbers 
     1.0000   1.0000   1.0000   1.0000   1.0000   1.0000   1.0000   1.0000
     0.0000   0.0000   0.0000   0.0000

          k = 0.5000-0.0693 0.1249 (  2018 PWs)   bands (ev):

    -5.6864  -3.9266   1.9993   3.0742   4.3626   5.0164   6.4393   7.6592
    17.8289  20.2678  21.2523  23.0458

     occupation numbers 
     1.0000   1.0000   1.0000   1.0000   1.0000   1.0000   1.0000   1.0000
     0.0000   0.0000   0.0000   0.0000

          k = 0.5000-0.0693 0.2497 (  2015 PWs)   bands (ev):

    -5.1987  -4.5264   1.9714   2.5439   4.4721   5.3342   6.8458   7.9235
    18.8258  19.4600  21.3430  21.9619

     occupation numbers 
     1.0000   1.0000   1.0000   1.0000   1.0000   1.0000   1.0000   1.0000
     0.0000   0.0000   0.0000   0.0000

          k = 0.5000-0.1886 0.1249 (  2007 PWs)   bands (ev):

    -5.4513  -4.0538   1.2450   2.8308   4.6582   5.5547   7.1360   7.8035
    17.8036  18.3364  21.0470  22.2604

     occupation numbers 
     1.0000   1.0000   1.0000   1.0000   1.0000   1.0000   1.0000   1.0000
     0.0000   0.0000   0.0000   0.0000

          k = 0.5000-0.1886 0.2497 (  2017 PWs)   bands (ev):

    -5.0205  -4.4708   1.1246   1.7516   5.6382   6.5842   6.8686   7.8248
    17.6296  18.1967  20.9292  21.4002

     occupation numbers 
     1.0000   1.0000   1.0000   1.0000   1.0000   1.0000   1.0000   1.0000
     0.0000   0.0000   0.0000   0.0000

     the Fermi energy is    10.6660 ev

!    total energy              =     -54.84334721 Ry
     estimated scf accuracy    <          1.2E-11 Ry
     smearing contrib. (-TS)   =       0.00030234 Ry
     internal energy E=F+TS    =     -54.84364955 Ry

     The total energy is F=E-TS. E is the sum of the following terms:
     one-electron contribution =       8.23569997 Ry
     hartree contribution      =       7.41556217 Ry
     xc contribution           =     -18.64894257 Ry
     ewald contribution        =     -51.84596912 Ry

     convergence has been achieved in  12 iterations

     Forces acting on atoms (cartesian axes, Ry/au):

     atom    1 type  1   force =     0.00044269   -0.00097821    0.00018756
     atom    2 type  1   force =    -0.00043635    0.00098199    0.00018727
     atom    3 type  2   force =    -0.00131663   -0.00400375   -0.00018736
     atom    4 type  2   force =     0.00131029    0.00399998   -0.00018747
     The non-local contrib.  to forces
     atom    1 type  1   force =    -0.01646366   -0.02877576    0.00873148
     atom    2 type  1   force =     0.01647205    0.02877623    0.00873113
     atom    3 type  2   force =     0.01839388    0.02902519    0.00751169
     atom    4 type  2   force =    -0.01838756   -0.02902560    0.00751145
     The ionic contribution  to forces
     atom    1 type  1   force =    -0.10628688   -0.17659997   -0.02233771
     atom    2 type  1   force =     0.10628688    0.17659997   -0.02233771
     atom    3 type  2   force =    -0.11574707   -0.19163976    0.02233771
     atom    4 type  2   force =     0.11574707    0.19163976    0.02233771
     The local contribution  to forces
     atom    1 type  1   force =     0.12217713    0.20265701    0.01435885
     atom    2 type  1   force =    -0.12218394   -0.20265829    0.01435842
     atom    3 type  2   force =     0.09603378    0.15851951   -0.02988460
     atom    4 type  2   force =    -0.09603665   -0.15851907   -0.02988413
     The core correction contribution to forces
     atom    1 type  1   force =     0.00102103    0.00174256   -0.00061226
     atom    2 type  1   force =    -0.00100661   -0.00173413   -0.00061269
     atom    3 type  2   force =     0.00000835    0.00009429   -0.00020059
     atom    4 type  2   force =    -0.00000859   -0.00009427   -0.00020057
     The Hubbard contrib.    to forces
     atom    1 type  1   force =     0.00000000    0.00000000    0.00000000
     atom    2 type  1   force =     0.00000000    0.00000000    0.00000000
     atom    3 type  2   force =     0.00000000    0.00000000    0.00000000
     atom    4 type  2   force =     0.00000000    0.00000000    0.00000000
     The SCF correction term to forces
     atom    1 type  1   force =    -0.00000011   -0.00000014   -0.00000046
     atom    2 type  1   force =     0.00000010    0.00000013    0.00000045
     atom    3 type  2   force =    -0.00000075   -0.00000107    0.00000076
     atom    4 type  2   force =     0.00000084    0.00000106    0.00000042

     Total force =     0.006159     Total SCF correction =     0.000002


     Computing stress (Cartesian axis) and pressure

          total   stress  (Ry/bohr**3)                   (kbar)     P=     -119.50
  -0.00192715  -0.00047514   0.00000001         -283.49      -69.90        0.00
  -0.00047514  -0.00028289   0.00000000          -69.90      -41.61        0.00
   0.00000001   0.00000000  -0.00022696            0.00        0.00      -33.39

     kinetic stress (kbar)  21305.00    -83.18      0.00
                              -83.18  21582.92     -0.00
                                0.00     -0.00  21513.50

     local   stress (kbar)   -484.53    223.92      0.00
                              223.92  -1209.48      0.00
                                0.00      0.00  -1957.49

     nonloc. stress (kbar)  -2683.91     14.43     -0.00
                               14.43  -2733.44      0.00
                               -0.00      0.00  -2706.29

     hartree stress (kbar)   1973.79    -68.26     -0.00
                              -68.26   2181.36     -0.00
                               -0.00     -0.00   2396.86

     exc-cor stress (kbar)  -1154.24     -0.45     -0.00
                               -0.45  -1152.60      0.00
                               -0.00      0.00  -1149.42

     corecor stress (kbar)  -3420.82      1.61     -0.00
                                1.61  -3426.67      0.00
                               -0.00      0.00  -3424.62

     ewald   stress (kbar) -15818.79   -157.96     -0.00
                             -157.96 -15283.70      0.00
                               -0.00      0.00 -14705.93

     hubbard stress (kbar)      0.00      0.00      0.00
                                0.00      0.00      0.00
                                0.00      0.00      0.00

     DFT-D   stress (kbar)      0.00      0.00      0.00
                                0.00      0.00      0.00
                                0.00      0.00      0.00

     XDM     stress (kbar)      0.00      0.00      0.00
                                0.00      0.00      0.00
                                0.00      0.00      0.00

     dft-nl  stress (kbar)      0.00      0.00      0.00
                                0.00      0.00      0.00
                                0.00      0.00      0.00

     TS-vdW  stress (kbar)      0.00      0.00      0.00
                                0.00      0.00      0.00
                                0.00      0.00      0.00



     init_run     :      0.54s CPU      0.76s WALL (       1 calls)
     electrons    :     14.79s CPU     15.96s WALL (       1 calls)
     forces       :      0.11s CPU      0.12s WALL (       1 calls)
     stress       :      0.34s CPU      0.34s WALL (       1 calls)

     Called by init_run:
     wfcinit      :      0.45s CPU      0.59s WALL (       1 calls)
     wfcinit:atom :      0.01s CPU      0.01s WALL (     252 calls)
     wfcinit:wfcr :      0.41s CPU      0.55s WALL (     252 calls)
     potinit      :      0.03s CPU      0.03s WALL (       1 calls)
     hinit0       :      0.06s CPU      0.10s WALL (       1 calls)

     Called by electrons:
     c_bands      :     12.89s CPU     13.94s WALL (      12 calls)
     sum_band     :      1.82s CPU      1.93s WALL (      12 calls)
     v_of_rho     :      0.04s CPU      0.05s WALL (      13 calls)
     v_h          :      0.00s CPU      0.00s WALL (      13 calls)
     v_xc         :      0.05s CPU      0.05s WALL (      15 calls)
     newd         :      0.02s CPU      0.04s WALL (      13 calls)
     mix_rho      :      0.01s CPU      0.01s WALL (      12 calls)

     Called by c_bands:
     init_us_2    :      0.28s CPU      0.30s WALL (    6804 calls)
     cegterg      :     12.38s CPU     13.40s WALL (    3024 calls)

     Called by sum_band:
     sum_band:wei :      0.01s CPU      0.02s WALL (      12 calls)
     sum_band:loo :      1.77s CPU      1.89s WALL (      12 calls)
     sum_band:buf :      0.03s CPU      0.03s WALL (    3024 calls)
     sum_band:ini :      0.11s CPU      0.12s WALL (    3024 calls)
     sum_band:cal :      0.11s CPU      0.12s WALL (    3024 calls)
     sum_band:bec :      0.01s CPU      0.01s WALL (    3024 calls)
     addusdens    :      0.02s CPU      0.02s WALL (      12 calls)
     addusd:skk   :      0.00s CPU      0.00s WALL (      12 calls)
     addusd:dgemm :      0.01s CPU      0.01s WALL (      12 calls)
     addusd:qvan2 :      0.01s CPU      0.01s WALL (      12 calls)

     Called by *egterg:
     cdiaghg      :      1.81s CPU      2.21s WALL (   13980 calls)
     cegterg:over :      0.50s CPU      0.54s WALL (   10956 calls)
     cegterg:upda :      0.14s CPU      0.15s WALL (   10956 calls)
     cegterg:last :      0.22s CPU      0.24s WALL (    7670 calls)
     h_psi        :      9.50s CPU     10.15s WALL (   14232 calls)
     s_psi        :      0.19s CPU      0.21s WALL (   14232 calls)
     g_psi        :      0.04s CPU      0.05s WALL (   10956 calls)

     Called by h_psi:
     h_psi:calbec :      0.50s CPU      0.55s WALL (   14232 calls)
     vloc_psi     :      8.71s CPU      9.29s WALL (   14232 calls)
     add_vuspsi   :      0.23s CPU      0.25s WALL (   14232 calls)

     General routines
     calbec       :      0.63s CPU      0.69s WALL (   18516 calls)
     fft          :      0.02s CPU      0.07s WALL (     192 calls)
     ffts         :      0.00s CPU      0.00s WALL (      25 calls)
     fftw         :      9.41s CPU     10.06s WALL (  259714 calls)
     interpolate  :      0.00s CPU      0.00s WALL (      13 calls)

     Parallel routines
     fft_scatt_xy :      0.96s CPU      1.00s WALL (  259931 calls)
     fft_scatt_yz :      3.42s CPU      3.67s WALL (  259931 calls)

     PWSCF        :     15.87s CPU     17.44s WALL


   This run was terminated on:  21:19:59  28Sep2022            

=------------------------------------------------------------------------------=
   JOB DONE.
=------------------------------------------------------------------------------=
Note: The following floating-point exceptions are signalling: IEEE_UNDERFLOW_FLAG IEEE_DENORMAL
