
     Program PWSCF v.6.7MaX starts on 28Sep2022 at 21:19:16 

     This program is part of the open-source Quantum ESPRESSO suite
     for quantum simulation of materials; please cite
         "P. Giannozzi et al., J. Phys.:Condens. Matter 21 395502 (2009);
         "P. Giannozzi et al., J. Phys.:Condens. Matter 29 465901 (2017);
          URL http://www.quantum-espresso.org", 
     in publications or presentations arising from this work. More details at
     http://www.quantum-espresso.org/quote

     Parallel version (MPI), running on    16 processors

     MPI processes distributed on     1 nodes
     R & G space division:  proc/nbgrp/npool/nimage =      16
     Reading input from scale_1da-03.in

     Current dimensions of program PWSCF are:
     Max number of different atomic species (ntypx) = 10
     Max number of k-points (npk) =  40000
     Max angular momentum in pseudopotentials (lmaxx) =  3
     Message from routine read_pp_mesh:
     mesh size missing, using the one in header

     Subspace diagonalization in iterative solution of the eigenvalue problem:
     a serial algorithm will be used


     Parallelization info
     --------------------
     sticks:   dense  smooth     PW     G-vecs:    dense   smooth      PW
     Min          45      32     10                 1595      986     184
     Max          46      33     11                 1598      991     191
     Sum         721     513    165                25541    15809    2983



     bravais-lattice index     =            0
     lattice parameter (alat)  =       4.9066  a.u.
     unit-cell volume          =     163.8082 (a.u.)^3
     number of atoms/cell      =            4
     number of atomic types    =            2
     number of electrons       =        16.00
     number of Kohn-Sham states=           12
     kinetic-energy cutoff     =      80.0000  Ry
     charge density cutoff     =     440.0000  Ry
     scf convergence threshold =      2.0E-10
     mixing beta               =       0.4000
     number of iterations used =            8  plain     mixing
     Exchange-correlation= PBE
                           (   1   4   3   4   0   0   0)

     celldm(1)=   4.906608  celldm(2)=   0.000000  celldm(3)=   0.000000
     celldm(4)=   0.000000  celldm(5)=   0.000000  celldm(6)=   0.000000

     crystal axes: (cart. coord. in units of alat)
               a(1) = (   1.000000   0.000000   0.000000 )  
               a(2) = (  -0.491803   0.851828   0.000000 )  
               a(3) = (   0.000000   0.000000   1.627944 )  

     reciprocal axes: (cart. coord. in units 2 pi/alat)
               b(1) = (  1.000000  0.577350 -0.000000 )  
               b(2) = (  0.000000  1.173946  0.000000 )  
               b(3) = (  0.000000 -0.000000  0.614272 )  


     PseudoPot. # 1 for B  read from file:
     /opt/QEpot/SSSP_precision_pseudos/B_pbe_v1.01.uspp.F.UPF
     MD5 check sum: d081ebb89d0c768e112975f650467a00
     Pseudo is Ultrasoft + core correction, Zval =  3.0
     Generated by new atomic code, or converted to UPF format
     Using radial grid of  781 points,  4 beta functions with: 
                l(1) =   0
                l(2) =   0
                l(3) =   1
                l(4) =   1
     Q(r) pseudized with  8 coefficients,  rinner =    1.100   1.100   1.100


     PseudoPot. # 2 for N  read from file:
     /opt/QEpot/SSSP_precision_pseudos/N.oncvpsp.upf
     MD5 check sum: 563d65bfb082928f0c9eb97172f6c357
     Pseudo is Norm-conserving + core correction, Zval =  5.0
     Generated using ONCVPSP code by D. R. Hamann
     Using radial grid of 1058 points,  4 beta functions with: 
                l(1) =   0
                l(2) =   0
                l(3) =   1
                l(4) =   1

     atomic species   valence    mass     pseudopotential
        B              3.00    10.81000     B ( 1.00)
        N              5.00    14.00700     N ( 1.00)

     No symmetry found


                                    s                        frac. trans.

      isym =  1     identity                                     

 cryst.   s( 1) = (     1          0          0      )
                  (     0          1          0      )
                  (     0          0          1      )

 cart.    s( 1) = (  1.0000000  0.0000000  0.0000000 )
                  (  0.0000000  1.0000000  0.0000000 )
                  (  0.0000000  0.0000000  1.0000000 )


   Cartesian axes

     site n.     atom                  positions (alat units)
         1           B   tau(   1) = (   0.0079740   0.5685103   0.8104014  )
         2           B   tau(   2) = (   0.5052427   0.2845669   1.6243735  )
         3           N   tau(   3) = (   0.0079740   0.5685103   0.2008210  )
         4           N   tau(   4) = (   0.5052427   0.2845669   1.0147930  )

   Crystallographic axes

     site n.     atom                  positions (cryst. coord.)
         1           B   tau(   1) = (  0.3362035  0.6674001  0.4978066  )
         2           B   tau(   2) = (  0.6695375  0.3340661  0.9978066  )
         3           N   tau(   3) = (  0.3362035  0.6674001  0.1233586  )
         4           N   tau(   4) = (  0.6695375  0.3340661  0.6233586  )

     number of k points=   252  Marzari-Vanderbilt smearing, width (Ry)=  0.0220
                       cart. coord. in units 2pi/alat
        k(    1) = (   0.0000000   0.0000000   0.0000000), wk =   0.0040000
        k(    2) = (   0.0000000   0.0000000   0.1228543), wk =   0.0080000
        k(    3) = (   0.0000000   0.0000000   0.2457087), wk =   0.0080000
        k(    4) = (   0.0000000   0.1173946   0.0000000), wk =   0.0080000
        k(    5) = (   0.0000000   0.1173946   0.1228543), wk =   0.0080000
        k(    6) = (   0.0000000   0.1173946   0.2457087), wk =   0.0080000
        k(    7) = (   0.0000000   0.2347891   0.0000000), wk =   0.0080000
        k(    8) = (   0.0000000   0.2347891   0.1228543), wk =   0.0080000
        k(    9) = (   0.0000000   0.2347891   0.2457087), wk =   0.0080000
        k(   10) = (   0.0000000   0.3521837   0.0000000), wk =   0.0080000
        k(   11) = (   0.0000000   0.3521837   0.1228543), wk =   0.0080000
        k(   12) = (   0.0000000   0.3521837   0.2457087), wk =   0.0080000
        k(   13) = (   0.0000000   0.4695782   0.0000000), wk =   0.0080000
        k(   14) = (   0.0000000   0.4695782   0.1228543), wk =   0.0080000
        k(   15) = (   0.0000000   0.4695782   0.2457087), wk =   0.0080000
        k(   16) = (   0.0000000  -0.5869728   0.0000000), wk =   0.0040000
        k(   17) = (   0.0000000  -0.5869728   0.1228543), wk =   0.0080000
        k(   18) = (   0.0000000  -0.5869728   0.2457087), wk =   0.0080000
        k(   19) = (   0.1000000   0.0577350   0.0000000), wk =   0.0080000
        k(   20) = (   0.1000000   0.0577350   0.1228543), wk =   0.0080000
        k(   21) = (   0.1000000   0.0577350   0.2457087), wk =   0.0080000
        k(   22) = (   0.1000000   0.1751296   0.0000000), wk =   0.0080000
        k(   23) = (   0.1000000   0.1751296   0.1228543), wk =   0.0080000
        k(   24) = (   0.1000000   0.1751296   0.2457087), wk =   0.0080000
        k(   25) = (   0.1000000   0.2925241   0.0000000), wk =   0.0080000
        k(   26) = (   0.1000000   0.2925241   0.1228543), wk =   0.0080000
        k(   27) = (   0.1000000   0.2925241   0.2457087), wk =   0.0080000
        k(   28) = (   0.1000000   0.4099187   0.0000000), wk =   0.0080000
        k(   29) = (   0.1000000   0.4099187   0.1228543), wk =   0.0080000
        k(   30) = (   0.1000000   0.4099187   0.2457087), wk =   0.0080000
        k(   31) = (   0.1000000   0.5273132   0.0000000), wk =   0.0080000
        k(   32) = (   0.1000000   0.5273132   0.1228543), wk =   0.0080000
        k(   33) = (   0.1000000   0.5273132   0.2457087), wk =   0.0080000
        k(   34) = (   0.1000000  -0.5292377   0.0000000), wk =   0.0080000
        k(   35) = (   0.1000000  -0.5292377   0.1228543), wk =   0.0080000
        k(   36) = (   0.1000000  -0.5292377   0.2457087), wk =   0.0080000
        k(   37) = (   0.1000000  -0.4118432   0.0000000), wk =   0.0080000
        k(   38) = (   0.1000000  -0.4118432   0.1228543), wk =   0.0080000
        k(   39) = (   0.1000000  -0.4118432   0.2457087), wk =   0.0080000
        k(   40) = (   0.1000000  -0.2944486   0.0000000), wk =   0.0080000
        k(   41) = (   0.1000000  -0.2944486   0.1228543), wk =   0.0080000
        k(   42) = (   0.1000000  -0.2944486   0.2457087), wk =   0.0080000
        k(   43) = (   0.1000000  -0.1770541   0.0000000), wk =   0.0080000
        k(   44) = (   0.1000000  -0.1770541   0.1228543), wk =   0.0080000
        k(   45) = (   0.1000000  -0.1770541   0.2457087), wk =   0.0080000
        k(   46) = (   0.1000000  -0.0596595   0.0000000), wk =   0.0080000
        k(   47) = (   0.1000000  -0.0596595   0.1228543), wk =   0.0080000
        k(   48) = (   0.1000000  -0.0596595   0.2457087), wk =   0.0080000
        k(   49) = (   0.2000000   0.1154701   0.0000000), wk =   0.0080000
        k(   50) = (   0.2000000   0.1154701   0.1228543), wk =   0.0080000
        k(   51) = (   0.2000000   0.1154701   0.2457087), wk =   0.0080000
        k(   52) = (   0.2000000   0.2328646   0.0000000), wk =   0.0080000
        k(   53) = (   0.2000000   0.2328646   0.1228543), wk =   0.0080000
        k(   54) = (   0.2000000   0.2328646   0.2457087), wk =   0.0080000
        k(   55) = (   0.2000000   0.3502592   0.0000000), wk =   0.0080000
        k(   56) = (   0.2000000   0.3502592   0.1228543), wk =   0.0080000
        k(   57) = (   0.2000000   0.3502592   0.2457087), wk =   0.0080000
        k(   58) = (   0.2000000   0.4676537   0.0000000), wk =   0.0080000
        k(   59) = (   0.2000000   0.4676537   0.1228543), wk =   0.0080000
        k(   60) = (   0.2000000   0.4676537   0.2457087), wk =   0.0080000
        k(   61) = (   0.2000000   0.5850483   0.0000000), wk =   0.0080000
        k(   62) = (   0.2000000   0.5850483   0.1228543), wk =   0.0080000
        k(   63) = (   0.2000000   0.5850483   0.2457087), wk =   0.0080000
        k(   64) = (   0.2000000  -0.4715027   0.0000000), wk =   0.0080000
        k(   65) = (   0.2000000  -0.4715027   0.1228543), wk =   0.0080000
        k(   66) = (   0.2000000  -0.4715027   0.2457087), wk =   0.0080000
        k(   67) = (   0.2000000  -0.3541082   0.0000000), wk =   0.0080000
        k(   68) = (   0.2000000  -0.3541082   0.1228543), wk =   0.0080000
        k(   69) = (   0.2000000  -0.3541082   0.2457087), wk =   0.0080000
        k(   70) = (   0.2000000  -0.2367136   0.0000000), wk =   0.0080000
        k(   71) = (   0.2000000  -0.2367136   0.1228543), wk =   0.0080000
        k(   72) = (   0.2000000  -0.2367136   0.2457087), wk =   0.0080000
        k(   73) = (   0.2000000  -0.1193191   0.0000000), wk =   0.0080000
        k(   74) = (   0.2000000  -0.1193191   0.1228543), wk =   0.0080000
        k(   75) = (   0.2000000  -0.1193191   0.2457087), wk =   0.0080000
        k(   76) = (   0.2000000  -0.0019245   0.0000000), wk =   0.0080000
        k(   77) = (   0.2000000  -0.0019245   0.1228543), wk =   0.0080000
        k(   78) = (   0.2000000  -0.0019245   0.2457087), wk =   0.0080000
        k(   79) = (   0.3000000   0.1732051   0.0000000), wk =   0.0080000
        k(   80) = (   0.3000000   0.1732051   0.1228543), wk =   0.0080000
        k(   81) = (   0.3000000   0.1732051   0.2457087), wk =   0.0080000
        k(   82) = (   0.3000000   0.2905996   0.0000000), wk =   0.0080000
        k(   83) = (   0.3000000   0.2905996   0.1228543), wk =   0.0080000
        k(   84) = (   0.3000000   0.2905996   0.2457087), wk =   0.0080000
        k(   85) = (   0.3000000   0.4079942   0.0000000), wk =   0.0080000
        k(   86) = (   0.3000000   0.4079942   0.1228543), wk =   0.0080000
        k(   87) = (   0.3000000   0.4079942   0.2457087), wk =   0.0080000
        k(   88) = (   0.3000000   0.5253887   0.0000000), wk =   0.0080000
        k(   89) = (   0.3000000   0.5253887   0.1228543), wk =   0.0080000
        k(   90) = (   0.3000000   0.5253887   0.2457087), wk =   0.0080000
        k(   91) = (   0.3000000   0.6427833   0.0000000), wk =   0.0080000
        k(   92) = (   0.3000000   0.6427833   0.1228543), wk =   0.0080000
        k(   93) = (   0.3000000   0.6427833   0.2457087), wk =   0.0080000
        k(   94) = (   0.3000000  -0.4137677   0.0000000), wk =   0.0080000
        k(   95) = (   0.3000000  -0.4137677   0.1228543), wk =   0.0080000
        k(   96) = (   0.3000000  -0.4137677   0.2457087), wk =   0.0080000
        k(   97) = (   0.3000000  -0.2963731   0.0000000), wk =   0.0080000
        k(   98) = (   0.3000000  -0.2963731   0.1228543), wk =   0.0080000
        k(   99) = (   0.3000000  -0.2963731   0.2457087), wk =   0.0080000
        k(  100) = (   0.3000000  -0.1789786   0.0000000), wk =   0.0080000
        k(  101) = (   0.3000000  -0.1789786   0.1228543), wk =   0.0080000
        k(  102) = (   0.3000000  -0.1789786   0.2457087), wk =   0.0080000
        k(  103) = (   0.3000000  -0.0615840   0.0000000), wk =   0.0080000
        k(  104) = (   0.3000000  -0.0615840   0.1228543), wk =   0.0080000
        k(  105) = (   0.3000000  -0.0615840   0.2457087), wk =   0.0080000
        k(  106) = (   0.3000000   0.0558105   0.0000000), wk =   0.0080000
        k(  107) = (   0.3000000   0.0558105   0.1228543), wk =   0.0080000
        k(  108) = (   0.3000000   0.0558105   0.2457087), wk =   0.0080000
        k(  109) = (   0.4000000   0.2309401   0.0000000), wk =   0.0080000
        k(  110) = (   0.4000000   0.2309401   0.1228543), wk =   0.0080000
        k(  111) = (   0.4000000   0.2309401   0.2457087), wk =   0.0080000
        k(  112) = (   0.4000000   0.3483347   0.0000000), wk =   0.0080000
        k(  113) = (   0.4000000   0.3483347   0.1228543), wk =   0.0080000
        k(  114) = (   0.4000000   0.3483347   0.2457087), wk =   0.0080000
        k(  115) = (   0.4000000   0.4657292   0.0000000), wk =   0.0080000
        k(  116) = (   0.4000000   0.4657292   0.1228543), wk =   0.0080000
        k(  117) = (   0.4000000   0.4657292   0.2457087), wk =   0.0080000
        k(  118) = (   0.4000000   0.5831238   0.0000000), wk =   0.0080000
        k(  119) = (   0.4000000   0.5831238   0.1228543), wk =   0.0080000
        k(  120) = (   0.4000000   0.5831238   0.2457087), wk =   0.0080000
        k(  121) = (   0.4000000   0.7005183   0.0000000), wk =   0.0080000
        k(  122) = (   0.4000000   0.7005183   0.1228543), wk =   0.0080000
        k(  123) = (   0.4000000   0.7005183   0.2457087), wk =   0.0080000
        k(  124) = (   0.4000000  -0.3560327   0.0000000), wk =   0.0080000
        k(  125) = (   0.4000000  -0.3560327   0.1228543), wk =   0.0080000
        k(  126) = (   0.4000000  -0.3560327   0.2457087), wk =   0.0080000
        k(  127) = (   0.4000000  -0.2386381   0.0000000), wk =   0.0080000
        k(  128) = (   0.4000000  -0.2386381   0.1228543), wk =   0.0080000
        k(  129) = (   0.4000000  -0.2386381   0.2457087), wk =   0.0080000
        k(  130) = (   0.4000000  -0.1212436   0.0000000), wk =   0.0080000
        k(  131) = (   0.4000000  -0.1212436   0.1228543), wk =   0.0080000
        k(  132) = (   0.4000000  -0.1212436   0.2457087), wk =   0.0080000
        k(  133) = (   0.4000000  -0.0038490   0.0000000), wk =   0.0080000
        k(  134) = (   0.4000000  -0.0038490   0.1228543), wk =   0.0080000
        k(  135) = (   0.4000000  -0.0038490   0.2457087), wk =   0.0080000
        k(  136) = (   0.4000000   0.1135456   0.0000000), wk =   0.0080000
        k(  137) = (   0.4000000   0.1135456   0.1228543), wk =   0.0080000
        k(  138) = (   0.4000000   0.1135456   0.2457087), wk =   0.0080000
        k(  139) = (  -0.5000000  -0.2886751   0.0000000), wk =   0.0040000
        k(  140) = (  -0.5000000  -0.2886751   0.1228543), wk =   0.0080000
        k(  141) = (  -0.5000000  -0.2886751   0.2457087), wk =   0.0080000
        k(  142) = (  -0.5000000  -0.1712806   0.0000000), wk =   0.0080000
        k(  143) = (  -0.5000000  -0.1712806   0.1228543), wk =   0.0080000
        k(  144) = (  -0.5000000  -0.1712806   0.2457087), wk =   0.0080000
        k(  145) = (  -0.5000000  -0.0538860   0.0000000), wk =   0.0080000
        k(  146) = (  -0.5000000  -0.0538860   0.1228543), wk =   0.0080000
        k(  147) = (  -0.5000000  -0.0538860   0.2457087), wk =   0.0080000
        k(  148) = (  -0.5000000   0.0635085   0.0000000), wk =   0.0080000
        k(  149) = (  -0.5000000   0.0635085   0.1228543), wk =   0.0080000
        k(  150) = (  -0.5000000   0.0635085   0.2457087), wk =   0.0080000
        k(  151) = (  -0.5000000   0.1809031   0.0000000), wk =   0.0080000
        k(  152) = (  -0.5000000   0.1809031   0.1228543), wk =   0.0080000
        k(  153) = (  -0.5000000   0.1809031   0.2457087), wk =   0.0080000
        k(  154) = (  -0.5000000  -0.8756479   0.0000000), wk =   0.0040000
        k(  155) = (  -0.5000000  -0.8756479   0.1228543), wk =   0.0080000
        k(  156) = (  -0.5000000  -0.8756479   0.2457087), wk =   0.0080000
        k(  157) = (   0.0000000  -0.1173946   0.1228543), wk =   0.0080000
        k(  158) = (   0.0000000  -0.1173946   0.2457087), wk =   0.0080000
        k(  159) = (   0.0000000  -0.2347891   0.1228543), wk =   0.0080000
        k(  160) = (   0.0000000  -0.2347891   0.2457087), wk =   0.0080000
        k(  161) = (   0.0000000  -0.3521837   0.1228543), wk =   0.0080000
        k(  162) = (   0.0000000  -0.3521837   0.2457087), wk =   0.0080000
        k(  163) = (   0.0000000  -0.4695782   0.1228543), wk =   0.0080000
        k(  164) = (   0.0000000  -0.4695782   0.2457087), wk =   0.0080000
        k(  165) = (  -0.1000000  -0.0577350   0.1228543), wk =   0.0080000
        k(  166) = (  -0.1000000  -0.0577350   0.2457087), wk =   0.0080000
        k(  167) = (  -0.1000000  -0.1751296   0.1228543), wk =   0.0080000
        k(  168) = (  -0.1000000  -0.1751296   0.2457087), wk =   0.0080000
        k(  169) = (  -0.1000000  -0.2925241   0.1228543), wk =   0.0080000
        k(  170) = (  -0.1000000  -0.2925241   0.2457087), wk =   0.0080000
        k(  171) = (  -0.1000000  -0.4099187   0.1228543), wk =   0.0080000
        k(  172) = (  -0.1000000  -0.4099187   0.2457087), wk =   0.0080000
        k(  173) = (  -0.1000000  -0.5273132   0.1228543), wk =   0.0080000
        k(  174) = (  -0.1000000  -0.5273132   0.2457087), wk =   0.0080000
        k(  175) = (  -0.1000000   0.5292377   0.1228543), wk =   0.0080000
        k(  176) = (  -0.1000000   0.5292377   0.2457087), wk =   0.0080000
        k(  177) = (  -0.1000000   0.4118432   0.1228543), wk =   0.0080000
        k(  178) = (  -0.1000000   0.4118432   0.2457087), wk =   0.0080000
        k(  179) = (  -0.1000000   0.2944486   0.1228543), wk =   0.0080000
        k(  180) = (  -0.1000000   0.2944486   0.2457087), wk =   0.0080000
        k(  181) = (  -0.1000000   0.1770541   0.1228543), wk =   0.0080000
        k(  182) = (  -0.1000000   0.1770541   0.2457087), wk =   0.0080000
        k(  183) = (  -0.1000000   0.0596595   0.1228543), wk =   0.0080000
        k(  184) = (  -0.1000000   0.0596595   0.2457087), wk =   0.0080000
        k(  185) = (  -0.2000000  -0.1154701   0.1228543), wk =   0.0080000
        k(  186) = (  -0.2000000  -0.1154701   0.2457087), wk =   0.0080000
        k(  187) = (  -0.2000000  -0.2328646   0.1228543), wk =   0.0080000
        k(  188) = (  -0.2000000  -0.2328646   0.2457087), wk =   0.0080000
        k(  189) = (  -0.2000000  -0.3502592   0.1228543), wk =   0.0080000
        k(  190) = (  -0.2000000  -0.3502592   0.2457087), wk =   0.0080000
        k(  191) = (  -0.2000000  -0.4676537   0.1228543), wk =   0.0080000
        k(  192) = (  -0.2000000  -0.4676537   0.2457087), wk =   0.0080000
        k(  193) = (  -0.2000000  -0.5850483   0.1228543), wk =   0.0080000
        k(  194) = (  -0.2000000  -0.5850483   0.2457087), wk =   0.0080000
        k(  195) = (  -0.2000000   0.4715027   0.1228543), wk =   0.0080000
        k(  196) = (  -0.2000000   0.4715027   0.2457087), wk =   0.0080000
        k(  197) = (  -0.2000000   0.3541082   0.1228543), wk =   0.0080000
        k(  198) = (  -0.2000000   0.3541082   0.2457087), wk =   0.0080000
        k(  199) = (  -0.2000000   0.2367136   0.1228543), wk =   0.0080000
        k(  200) = (  -0.2000000   0.2367136   0.2457087), wk =   0.0080000
        k(  201) = (  -0.2000000   0.1193191   0.1228543), wk =   0.0080000
        k(  202) = (  -0.2000000   0.1193191   0.2457087), wk =   0.0080000
        k(  203) = (  -0.2000000   0.0019245   0.1228543), wk =   0.0080000
        k(  204) = (  -0.2000000   0.0019245   0.2457087), wk =   0.0080000
        k(  205) = (  -0.3000000  -0.1732051   0.1228543), wk =   0.0080000
        k(  206) = (  -0.3000000  -0.1732051   0.2457087), wk =   0.0080000
        k(  207) = (  -0.3000000  -0.2905996   0.1228543), wk =   0.0080000
        k(  208) = (  -0.3000000  -0.2905996   0.2457087), wk =   0.0080000
        k(  209) = (  -0.3000000  -0.4079942   0.1228543), wk =   0.0080000
        k(  210) = (  -0.3000000  -0.4079942   0.2457087), wk =   0.0080000
        k(  211) = (  -0.3000000  -0.5253887   0.1228543), wk =   0.0080000
        k(  212) = (  -0.3000000  -0.5253887   0.2457087), wk =   0.0080000
        k(  213) = (  -0.3000000  -0.6427833   0.1228543), wk =   0.0080000
        k(  214) = (  -0.3000000  -0.6427833   0.2457087), wk =   0.0080000
        k(  215) = (  -0.3000000   0.4137677   0.1228543), wk =   0.0080000
        k(  216) = (  -0.3000000   0.4137677   0.2457087), wk =   0.0080000
        k(  217) = (  -0.3000000   0.2963731   0.1228543), wk =   0.0080000
        k(  218) = (  -0.3000000   0.2963731   0.2457087), wk =   0.0080000
        k(  219) = (  -0.3000000   0.1789786   0.1228543), wk =   0.0080000
        k(  220) = (  -0.3000000   0.1789786   0.2457087), wk =   0.0080000
        k(  221) = (  -0.3000000   0.0615840   0.1228543), wk =   0.0080000
        k(  222) = (  -0.3000000   0.0615840   0.2457087), wk =   0.0080000
        k(  223) = (  -0.3000000  -0.0558105   0.1228543), wk =   0.0080000
        k(  224) = (  -0.3000000  -0.0558105   0.2457087), wk =   0.0080000
        k(  225) = (  -0.4000000  -0.2309401   0.1228543), wk =   0.0080000
        k(  226) = (  -0.4000000  -0.2309401   0.2457087), wk =   0.0080000
        k(  227) = (  -0.4000000  -0.3483347   0.1228543), wk =   0.0080000
        k(  228) = (  -0.4000000  -0.3483347   0.2457087), wk =   0.0080000
        k(  229) = (  -0.4000000  -0.4657292   0.1228543), wk =   0.0080000
        k(  230) = (  -0.4000000  -0.4657292   0.2457087), wk =   0.0080000
        k(  231) = (  -0.4000000  -0.5831238   0.1228543), wk =   0.0080000
        k(  232) = (  -0.4000000  -0.5831238   0.2457087), wk =   0.0080000
        k(  233) = (  -0.4000000  -0.7005183   0.1228543), wk =   0.0080000
        k(  234) = (  -0.4000000  -0.7005183   0.2457087), wk =   0.0080000
        k(  235) = (  -0.4000000   0.3560327   0.1228543), wk =   0.0080000
        k(  236) = (  -0.4000000   0.3560327   0.2457087), wk =   0.0080000
        k(  237) = (  -0.4000000   0.2386381   0.1228543), wk =   0.0080000
        k(  238) = (  -0.4000000   0.2386381   0.2457087), wk =   0.0080000
        k(  239) = (  -0.4000000   0.1212436   0.1228543), wk =   0.0080000
        k(  240) = (  -0.4000000   0.1212436   0.2457087), wk =   0.0080000
        k(  241) = (  -0.4000000   0.0038490   0.1228543), wk =   0.0080000
        k(  242) = (  -0.4000000   0.0038490   0.2457087), wk =   0.0080000
        k(  243) = (  -0.4000000  -0.1135456   0.1228543), wk =   0.0080000
        k(  244) = (  -0.4000000  -0.1135456   0.2457087), wk =   0.0080000
        k(  245) = (   0.5000000   0.1712806   0.1228543), wk =   0.0080000
        k(  246) = (   0.5000000   0.1712806   0.2457087), wk =   0.0080000
        k(  247) = (   0.5000000   0.0538860   0.1228543), wk =   0.0080000
        k(  248) = (   0.5000000   0.0538860   0.2457087), wk =   0.0080000
        k(  249) = (   0.5000000  -0.0635085   0.1228543), wk =   0.0080000
        k(  250) = (   0.5000000  -0.0635085   0.2457087), wk =   0.0080000
        k(  251) = (   0.5000000  -0.1809031   0.1228543), wk =   0.0080000
        k(  252) = (   0.5000000  -0.1809031   0.2457087), wk =   0.0080000

                       cryst. coord.
        k(    1) = (   0.0000000   0.0000000   0.0000000), wk =   0.0040000
        k(    2) = (   0.0000000   0.0000000   0.2000000), wk =   0.0080000
        k(    3) = (   0.0000000   0.0000000   0.4000000), wk =   0.0080000
        k(    4) = (   0.0000000   0.1000000   0.0000000), wk =   0.0080000
        k(    5) = (   0.0000000   0.1000000   0.2000000), wk =   0.0080000
        k(    6) = (   0.0000000   0.1000000   0.4000000), wk =   0.0080000
        k(    7) = (   0.0000000   0.2000000   0.0000000), wk =   0.0080000
        k(    8) = (   0.0000000   0.2000000   0.2000000), wk =   0.0080000
        k(    9) = (   0.0000000   0.2000000   0.4000000), wk =   0.0080000
        k(   10) = (   0.0000000   0.3000000   0.0000000), wk =   0.0080000
        k(   11) = (   0.0000000   0.3000000   0.2000000), wk =   0.0080000
        k(   12) = (   0.0000000   0.3000000   0.4000000), wk =   0.0080000
        k(   13) = (   0.0000000   0.4000000   0.0000000), wk =   0.0080000
        k(   14) = (   0.0000000   0.4000000   0.2000000), wk =   0.0080000
        k(   15) = (   0.0000000   0.4000000   0.4000000), wk =   0.0080000
        k(   16) = (   0.0000000  -0.5000000   0.0000000), wk =   0.0040000
        k(   17) = (   0.0000000  -0.5000000   0.2000000), wk =   0.0080000
        k(   18) = (   0.0000000  -0.5000000   0.4000000), wk =   0.0080000
        k(   19) = (   0.1000000   0.0000000   0.0000000), wk =   0.0080000
        k(   20) = (   0.1000000   0.0000000   0.2000000), wk =   0.0080000
        k(   21) = (   0.1000000   0.0000000   0.4000000), wk =   0.0080000
        k(   22) = (   0.1000000   0.1000000   0.0000000), wk =   0.0080000
        k(   23) = (   0.1000000   0.1000000   0.2000000), wk =   0.0080000
        k(   24) = (   0.1000000   0.1000000   0.4000000), wk =   0.0080000
        k(   25) = (   0.1000000   0.2000000   0.0000000), wk =   0.0080000
        k(   26) = (   0.1000000   0.2000000   0.2000000), wk =   0.0080000
        k(   27) = (   0.1000000   0.2000000   0.4000000), wk =   0.0080000
        k(   28) = (   0.1000000   0.3000000   0.0000000), wk =   0.0080000
        k(   29) = (   0.1000000   0.3000000   0.2000000), wk =   0.0080000
        k(   30) = (   0.1000000   0.3000000   0.4000000), wk =   0.0080000
        k(   31) = (   0.1000000   0.4000000   0.0000000), wk =   0.0080000
        k(   32) = (   0.1000000   0.4000000   0.2000000), wk =   0.0080000
        k(   33) = (   0.1000000   0.4000000   0.4000000), wk =   0.0080000
        k(   34) = (   0.1000000  -0.5000000   0.0000000), wk =   0.0080000
        k(   35) = (   0.1000000  -0.5000000   0.2000000), wk =   0.0080000
        k(   36) = (   0.1000000  -0.5000000   0.4000000), wk =   0.0080000
        k(   37) = (   0.1000000  -0.4000000   0.0000000), wk =   0.0080000
        k(   38) = (   0.1000000  -0.4000000   0.2000000), wk =   0.0080000
        k(   39) = (   0.1000000  -0.4000000   0.4000000), wk =   0.0080000
        k(   40) = (   0.1000000  -0.3000000   0.0000000), wk =   0.0080000
        k(   41) = (   0.1000000  -0.3000000   0.2000000), wk =   0.0080000
        k(   42) = (   0.1000000  -0.3000000   0.4000000), wk =   0.0080000
        k(   43) = (   0.1000000  -0.2000000   0.0000000), wk =   0.0080000
        k(   44) = (   0.1000000  -0.2000000   0.2000000), wk =   0.0080000
        k(   45) = (   0.1000000  -0.2000000   0.4000000), wk =   0.0080000
        k(   46) = (   0.1000000  -0.1000000   0.0000000), wk =   0.0080000
        k(   47) = (   0.1000000  -0.1000000   0.2000000), wk =   0.0080000
        k(   48) = (   0.1000000  -0.1000000   0.4000000), wk =   0.0080000
        k(   49) = (   0.2000000   0.0000000   0.0000000), wk =   0.0080000
        k(   50) = (   0.2000000   0.0000000   0.2000000), wk =   0.0080000
        k(   51) = (   0.2000000   0.0000000   0.4000000), wk =   0.0080000
        k(   52) = (   0.2000000   0.1000000   0.0000000), wk =   0.0080000
        k(   53) = (   0.2000000   0.1000000   0.2000000), wk =   0.0080000
        k(   54) = (   0.2000000   0.1000000   0.4000000), wk =   0.0080000
        k(   55) = (   0.2000000   0.2000000   0.0000000), wk =   0.0080000
        k(   56) = (   0.2000000   0.2000000   0.2000000), wk =   0.0080000
        k(   57) = (   0.2000000   0.2000000   0.4000000), wk =   0.0080000
        k(   58) = (   0.2000000   0.3000000   0.0000000), wk =   0.0080000
        k(   59) = (   0.2000000   0.3000000   0.2000000), wk =   0.0080000
        k(   60) = (   0.2000000   0.3000000   0.4000000), wk =   0.0080000
        k(   61) = (   0.2000000   0.4000000   0.0000000), wk =   0.0080000
        k(   62) = (   0.2000000   0.4000000   0.2000000), wk =   0.0080000
        k(   63) = (   0.2000000   0.4000000   0.4000000), wk =   0.0080000
        k(   64) = (   0.2000000  -0.5000000   0.0000000), wk =   0.0080000
        k(   65) = (   0.2000000  -0.5000000   0.2000000), wk =   0.0080000
        k(   66) = (   0.2000000  -0.5000000   0.4000000), wk =   0.0080000
        k(   67) = (   0.2000000  -0.4000000   0.0000000), wk =   0.0080000
        k(   68) = (   0.2000000  -0.4000000   0.2000000), wk =   0.0080000
        k(   69) = (   0.2000000  -0.4000000   0.4000000), wk =   0.0080000
        k(   70) = (   0.2000000  -0.3000000   0.0000000), wk =   0.0080000
        k(   71) = (   0.2000000  -0.3000000   0.2000000), wk =   0.0080000
        k(   72) = (   0.2000000  -0.3000000   0.4000000), wk =   0.0080000
        k(   73) = (   0.2000000  -0.2000000   0.0000000), wk =   0.0080000
        k(   74) = (   0.2000000  -0.2000000   0.2000000), wk =   0.0080000
        k(   75) = (   0.2000000  -0.2000000   0.4000000), wk =   0.0080000
        k(   76) = (   0.2000000  -0.1000000   0.0000000), wk =   0.0080000
        k(   77) = (   0.2000000  -0.1000000   0.2000000), wk =   0.0080000
        k(   78) = (   0.2000000  -0.1000000   0.4000000), wk =   0.0080000
        k(   79) = (   0.3000000   0.0000000   0.0000000), wk =   0.0080000
        k(   80) = (   0.3000000   0.0000000   0.2000000), wk =   0.0080000
        k(   81) = (   0.3000000   0.0000000   0.4000000), wk =   0.0080000
        k(   82) = (   0.3000000   0.1000000   0.0000000), wk =   0.0080000
        k(   83) = (   0.3000000   0.1000000   0.2000000), wk =   0.0080000
        k(   84) = (   0.3000000   0.1000000   0.4000000), wk =   0.0080000
        k(   85) = (   0.3000000   0.2000000   0.0000000), wk =   0.0080000
        k(   86) = (   0.3000000   0.2000000   0.2000000), wk =   0.0080000
        k(   87) = (   0.3000000   0.2000000   0.4000000), wk =   0.0080000
        k(   88) = (   0.3000000   0.3000000   0.0000000), wk =   0.0080000
        k(   89) = (   0.3000000   0.3000000   0.2000000), wk =   0.0080000
        k(   90) = (   0.3000000   0.3000000   0.4000000), wk =   0.0080000
        k(   91) = (   0.3000000   0.4000000   0.0000000), wk =   0.0080000
        k(   92) = (   0.3000000   0.4000000   0.2000000), wk =   0.0080000
        k(   93) = (   0.3000000   0.4000000   0.4000000), wk =   0.0080000
        k(   94) = (   0.3000000  -0.5000000   0.0000000), wk =   0.0080000
        k(   95) = (   0.3000000  -0.5000000   0.2000000), wk =   0.0080000
        k(   96) = (   0.3000000  -0.5000000   0.4000000), wk =   0.0080000
        k(   97) = (   0.3000000  -0.4000000   0.0000000), wk =   0.0080000
        k(   98) = (   0.3000000  -0.4000000   0.2000000), wk =   0.0080000
        k(   99) = (   0.3000000  -0.4000000   0.4000000), wk =   0.0080000
        k(  100) = (   0.3000000  -0.3000000   0.0000000), wk =   0.0080000
        k(  101) = (   0.3000000  -0.3000000   0.2000000), wk =   0.0080000
        k(  102) = (   0.3000000  -0.3000000   0.4000000), wk =   0.0080000
        k(  103) = (   0.3000000  -0.2000000   0.0000000), wk =   0.0080000
        k(  104) = (   0.3000000  -0.2000000   0.2000000), wk =   0.0080000
        k(  105) = (   0.3000000  -0.2000000   0.4000000), wk =   0.0080000
        k(  106) = (   0.3000000  -0.1000000   0.0000000), wk =   0.0080000
        k(  107) = (   0.3000000  -0.1000000   0.2000000), wk =   0.0080000
        k(  108) = (   0.3000000  -0.1000000   0.4000000), wk =   0.0080000
        k(  109) = (   0.4000000   0.0000000   0.0000000), wk =   0.0080000
        k(  110) = (   0.4000000   0.0000000   0.2000000), wk =   0.0080000
        k(  111) = (   0.4000000   0.0000000   0.4000000), wk =   0.0080000
        k(  112) = (   0.4000000   0.1000000   0.0000000), wk =   0.0080000
        k(  113) = (   0.4000000   0.1000000   0.2000000), wk =   0.0080000
        k(  114) = (   0.4000000   0.1000000   0.4000000), wk =   0.0080000
        k(  115) = (   0.4000000   0.2000000   0.0000000), wk =   0.0080000
        k(  116) = (   0.4000000   0.2000000   0.2000000), wk =   0.0080000
        k(  117) = (   0.4000000   0.2000000   0.4000000), wk =   0.0080000
        k(  118) = (   0.4000000   0.3000000   0.0000000), wk =   0.0080000
        k(  119) = (   0.4000000   0.3000000   0.2000000), wk =   0.0080000
        k(  120) = (   0.4000000   0.3000000   0.4000000), wk =   0.0080000
        k(  121) = (   0.4000000   0.4000000   0.0000000), wk =   0.0080000
        k(  122) = (   0.4000000   0.4000000   0.2000000), wk =   0.0080000
        k(  123) = (   0.4000000   0.4000000   0.4000000), wk =   0.0080000
        k(  124) = (   0.4000000  -0.5000000   0.0000000), wk =   0.0080000
        k(  125) = (   0.4000000  -0.5000000   0.2000000), wk =   0.0080000
        k(  126) = (   0.4000000  -0.5000000   0.4000000), wk =   0.0080000
        k(  127) = (   0.4000000  -0.4000000   0.0000000), wk =   0.0080000
        k(  128) = (   0.4000000  -0.4000000   0.2000000), wk =   0.0080000
        k(  129) = (   0.4000000  -0.4000000   0.4000000), wk =   0.0080000
        k(  130) = (   0.4000000  -0.3000000   0.0000000), wk =   0.0080000
        k(  131) = (   0.4000000  -0.3000000   0.2000000), wk =   0.0080000
        k(  132) = (   0.4000000  -0.3000000   0.4000000), wk =   0.0080000
        k(  133) = (   0.4000000  -0.2000000   0.0000000), wk =   0.0080000
        k(  134) = (   0.4000000  -0.2000000   0.2000000), wk =   0.0080000
        k(  135) = (   0.4000000  -0.2000000   0.4000000), wk =   0.0080000
        k(  136) = (   0.4000000  -0.1000000   0.0000000), wk =   0.0080000
        k(  137) = (   0.4000000  -0.1000000   0.2000000), wk =   0.0080000
        k(  138) = (   0.4000000  -0.1000000   0.4000000), wk =   0.0080000
        k(  139) = (  -0.5000000   0.0000000   0.0000000), wk =   0.0040000
        k(  140) = (  -0.5000000   0.0000000   0.2000000), wk =   0.0080000
        k(  141) = (  -0.5000000   0.0000000   0.4000000), wk =   0.0080000
        k(  142) = (  -0.5000000   0.1000000   0.0000000), wk =   0.0080000
        k(  143) = (  -0.5000000   0.1000000   0.2000000), wk =   0.0080000
        k(  144) = (  -0.5000000   0.1000000   0.4000000), wk =   0.0080000
        k(  145) = (  -0.5000000   0.2000000   0.0000000), wk =   0.0080000
        k(  146) = (  -0.5000000   0.2000000   0.2000000), wk =   0.0080000
        k(  147) = (  -0.5000000   0.2000000   0.4000000), wk =   0.0080000
        k(  148) = (  -0.5000000   0.3000000   0.0000000), wk =   0.0080000
        k(  149) = (  -0.5000000   0.3000000   0.2000000), wk =   0.0080000
        k(  150) = (  -0.5000000   0.3000000   0.4000000), wk =   0.0080000
        k(  151) = (  -0.5000000   0.4000000   0.0000000), wk =   0.0080000
        k(  152) = (  -0.5000000   0.4000000   0.2000000), wk =   0.0080000
        k(  153) = (  -0.5000000   0.4000000   0.4000000), wk =   0.0080000
        k(  154) = (  -0.5000000  -0.5000000   0.0000000), wk =   0.0040000
        k(  155) = (  -0.5000000  -0.5000000   0.2000000), wk =   0.0080000
        k(  156) = (  -0.5000000  -0.5000000   0.4000000), wk =   0.0080000
        k(  157) = (   0.0000000  -0.1000000   0.2000000), wk =   0.0080000
        k(  158) = (   0.0000000  -0.1000000   0.4000000), wk =   0.0080000
        k(  159) = (   0.0000000  -0.2000000   0.2000000), wk =   0.0080000
        k(  160) = (   0.0000000  -0.2000000   0.4000000), wk =   0.0080000
        k(  161) = (   0.0000000  -0.3000000   0.2000000), wk =   0.0080000
        k(  162) = (   0.0000000  -0.3000000   0.4000000), wk =   0.0080000
        k(  163) = (   0.0000000  -0.4000000   0.2000000), wk =   0.0080000
        k(  164) = (   0.0000000  -0.4000000   0.4000000), wk =   0.0080000
        k(  165) = (  -0.1000000  -0.0000000   0.2000000), wk =   0.0080000
        k(  166) = (  -0.1000000  -0.0000000   0.4000000), wk =   0.0080000
        k(  167) = (  -0.1000000  -0.1000000   0.2000000), wk =   0.0080000
        k(  168) = (  -0.1000000  -0.1000000   0.4000000), wk =   0.0080000
        k(  169) = (  -0.1000000  -0.2000000   0.2000000), wk =   0.0080000
        k(  170) = (  -0.1000000  -0.2000000   0.4000000), wk =   0.0080000
        k(  171) = (  -0.1000000  -0.3000000   0.2000000), wk =   0.0080000
        k(  172) = (  -0.1000000  -0.3000000   0.4000000), wk =   0.0080000
        k(  173) = (  -0.1000000  -0.4000000   0.2000000), wk =   0.0080000
        k(  174) = (  -0.1000000  -0.4000000   0.4000000), wk =   0.0080000
        k(  175) = (  -0.1000000   0.5000000   0.2000000), wk =   0.0080000
        k(  176) = (  -0.1000000   0.5000000   0.4000000), wk =   0.0080000
        k(  177) = (  -0.1000000   0.4000000   0.2000000), wk =   0.0080000
        k(  178) = (  -0.1000000   0.4000000   0.4000000), wk =   0.0080000
        k(  179) = (  -0.1000000   0.3000000   0.2000000), wk =   0.0080000
        k(  180) = (  -0.1000000   0.3000000   0.4000000), wk =   0.0080000
        k(  181) = (  -0.1000000   0.2000000   0.2000000), wk =   0.0080000
        k(  182) = (  -0.1000000   0.2000000   0.4000000), wk =   0.0080000
        k(  183) = (  -0.1000000   0.1000000   0.2000000), wk =   0.0080000
        k(  184) = (  -0.1000000   0.1000000   0.4000000), wk =   0.0080000
        k(  185) = (  -0.2000000  -0.0000000   0.2000000), wk =   0.0080000
        k(  186) = (  -0.2000000  -0.0000000   0.4000000), wk =   0.0080000
        k(  187) = (  -0.2000000  -0.1000000   0.2000000), wk =   0.0080000
        k(  188) = (  -0.2000000  -0.1000000   0.4000000), wk =   0.0080000
        k(  189) = (  -0.2000000  -0.2000000   0.2000000), wk =   0.0080000
        k(  190) = (  -0.2000000  -0.2000000   0.4000000), wk =   0.0080000
        k(  191) = (  -0.2000000  -0.3000000   0.2000000), wk =   0.0080000
        k(  192) = (  -0.2000000  -0.3000000   0.4000000), wk =   0.0080000
        k(  193) = (  -0.2000000  -0.4000000   0.2000000), wk =   0.0080000
        k(  194) = (  -0.2000000  -0.4000000   0.4000000), wk =   0.0080000
        k(  195) = (  -0.2000000   0.5000000   0.2000000), wk =   0.0080000
        k(  196) = (  -0.2000000   0.5000000   0.4000000), wk =   0.0080000
        k(  197) = (  -0.2000000   0.4000000   0.2000000), wk =   0.0080000
        k(  198) = (  -0.2000000   0.4000000   0.4000000), wk =   0.0080000
        k(  199) = (  -0.2000000   0.3000000   0.2000000), wk =   0.0080000
        k(  200) = (  -0.2000000   0.3000000   0.4000000), wk =   0.0080000
        k(  201) = (  -0.2000000   0.2000000   0.2000000), wk =   0.0080000
        k(  202) = (  -0.2000000   0.2000000   0.4000000), wk =   0.0080000
        k(  203) = (  -0.2000000   0.1000000   0.2000000), wk =   0.0080000
        k(  204) = (  -0.2000000   0.1000000   0.4000000), wk =   0.0080000
        k(  205) = (  -0.3000000   0.0000000   0.2000000), wk =   0.0080000
        k(  206) = (  -0.3000000   0.0000000   0.4000000), wk =   0.0080000
        k(  207) = (  -0.3000000  -0.1000000   0.2000000), wk =   0.0080000
        k(  208) = (  -0.3000000  -0.1000000   0.4000000), wk =   0.0080000
        k(  209) = (  -0.3000000  -0.2000000   0.2000000), wk =   0.0080000
        k(  210) = (  -0.3000000  -0.2000000   0.4000000), wk =   0.0080000
        k(  211) = (  -0.3000000  -0.3000000   0.2000000), wk =   0.0080000
        k(  212) = (  -0.3000000  -0.3000000   0.4000000), wk =   0.0080000
        k(  213) = (  -0.3000000  -0.4000000   0.2000000), wk =   0.0080000
        k(  214) = (  -0.3000000  -0.4000000   0.4000000), wk =   0.0080000
        k(  215) = (  -0.3000000   0.5000000   0.2000000), wk =   0.0080000
        k(  216) = (  -0.3000000   0.5000000   0.4000000), wk =   0.0080000
        k(  217) = (  -0.3000000   0.4000000   0.2000000), wk =   0.0080000
        k(  218) = (  -0.3000000   0.4000000   0.4000000), wk =   0.0080000
        k(  219) = (  -0.3000000   0.3000000   0.2000000), wk =   0.0080000
        k(  220) = (  -0.3000000   0.3000000   0.4000000), wk =   0.0080000
        k(  221) = (  -0.3000000   0.2000000   0.2000000), wk =   0.0080000
        k(  222) = (  -0.3000000   0.2000000   0.4000000), wk =   0.0080000
        k(  223) = (  -0.3000000   0.1000000   0.2000000), wk =   0.0080000
        k(  224) = (  -0.3000000   0.1000000   0.4000000), wk =   0.0080000
        k(  225) = (  -0.4000000  -0.0000000   0.2000000), wk =   0.0080000
        k(  226) = (  -0.4000000  -0.0000000   0.4000000), wk =   0.0080000
        k(  227) = (  -0.4000000  -0.1000000   0.2000000), wk =   0.0080000
        k(  228) = (  -0.4000000  -0.1000000   0.4000000), wk =   0.0080000
        k(  229) = (  -0.4000000  -0.2000000   0.2000000), wk =   0.0080000
        k(  230) = (  -0.4000000  -0.2000000   0.4000000), wk =   0.0080000
        k(  231) = (  -0.4000000  -0.3000000   0.2000000), wk =   0.0080000
        k(  232) = (  -0.4000000  -0.3000000   0.4000000), wk =   0.0080000
        k(  233) = (  -0.4000000  -0.4000000   0.2000000), wk =   0.0080000
        k(  234) = (  -0.4000000  -0.4000000   0.4000000), wk =   0.0080000
        k(  235) = (  -0.4000000   0.5000000   0.2000000), wk =   0.0080000
        k(  236) = (  -0.4000000   0.5000000   0.4000000), wk =   0.0080000
        k(  237) = (  -0.4000000   0.4000000   0.2000000), wk =   0.0080000
        k(  238) = (  -0.4000000   0.4000000   0.4000000), wk =   0.0080000
        k(  239) = (  -0.4000000   0.3000000   0.2000000), wk =   0.0080000
        k(  240) = (  -0.4000000   0.3000000   0.4000000), wk =   0.0080000
        k(  241) = (  -0.4000000   0.2000000   0.2000000), wk =   0.0080000
        k(  242) = (  -0.4000000   0.2000000   0.4000000), wk =   0.0080000
        k(  243) = (  -0.4000000   0.1000000   0.2000000), wk =   0.0080000
        k(  244) = (  -0.4000000   0.1000000   0.4000000), wk =   0.0080000
        k(  245) = (   0.5000000  -0.1000000   0.2000000), wk =   0.0080000
        k(  246) = (   0.5000000  -0.1000000   0.4000000), wk =   0.0080000
        k(  247) = (   0.5000000  -0.2000000   0.2000000), wk =   0.0080000
        k(  248) = (   0.5000000  -0.2000000   0.4000000), wk =   0.0080000
        k(  249) = (   0.5000000  -0.3000000   0.2000000), wk =   0.0080000
        k(  250) = (   0.5000000  -0.3000000   0.4000000), wk =   0.0080000
        k(  251) = (   0.5000000  -0.4000000   0.2000000), wk =   0.0080000
        k(  252) = (   0.5000000  -0.4000000   0.4000000), wk =   0.0080000

     Dense  grid:    25541 G-vectors     FFT dimensions: (  36,  36,  54)

     Smooth grid:    15809 G-vectors     FFT dimensions: (  27,  27,  45)

     Dynamical RAM for                 wfc:       0.02 MB

     Dynamical RAM for     wfc (w. buffer):       5.70 MB

     Dynamical RAM for           str. fact:       0.05 MB

     Dynamical RAM for           local pot:       0.00 MB

     Dynamical RAM for          nlocal pot:       0.06 MB

     Dynamical RAM for                qrad:       0.96 MB

     Dynamical RAM for          rho,v,vnew:       0.19 MB

     Dynamical RAM for               rhoin:       0.06 MB

     Dynamical RAM for            rho*nmix:       0.39 MB

     Dynamical RAM for           G-vectors:       0.10 MB

     Dynamical RAM for          h,s,v(r/c):       0.03 MB

     Dynamical RAM for          <psi|beta>:       0.01 MB

     Dynamical RAM for                 psi:       0.05 MB

     Dynamical RAM for                hpsi:       0.05 MB

     Dynamical RAM for                spsi:       0.05 MB

     Dynamical RAM for      wfcinit/wfcrot:       0.07 MB

     Dynamical RAM for           addusdens:       1.10 MB

     Dynamical RAM for          addusforce:       1.16 MB

     Dynamical RAM for         addusstress:       1.22 MB

     Estimated static dynamical RAM per process >       7.78 MB

     Estimated max dynamical RAM per process >       9.00 MB

     Estimated total dynamical RAM >     144.04 MB

     Check: negative core charge=   -0.000011

     Initial potential from superposition of free atoms

     starting charge   15.99942, renormalised to   16.00000
     Starting wfcs are   16 randomized atomic wfcs

     total cpu time spent up to now is        3.6 secs

     Self-consistent Calculation

     iteration #  1     ecut=    80.00 Ry     beta= 0.40
     Davidson diagonalization with overlap
     ethr =  1.00E-02,  avg # of iterations =  2.8

     total cpu time spent up to now is        4.9 secs

     total energy              =     -54.79751128 Ry
     estimated scf accuracy    <       0.41688513 Ry

     iteration #  2     ecut=    80.00 Ry     beta= 0.40
     Davidson diagonalization with overlap
     ethr =  2.61E-03,  avg # of iterations =  1.9

     total cpu time spent up to now is        6.2 secs

     total energy              =     -54.84426794 Ry
     estimated scf accuracy    <       0.03841203 Ry

     iteration #  3     ecut=    80.00 Ry     beta= 0.40
     Davidson diagonalization with overlap
     ethr =  2.40E-04,  avg # of iterations =  4.1

     total cpu time spent up to now is        7.3 secs

     total energy              =     -54.84657850 Ry
     estimated scf accuracy    <       0.01020846 Ry

     iteration #  4     ecut=    80.00 Ry     beta= 0.40
     Davidson diagonalization with overlap
     ethr =  6.38E-05,  avg # of iterations =  4.0

     total cpu time spent up to now is        8.4 secs

     total energy              =     -54.84770996 Ry
     estimated scf accuracy    <       0.00027543 Ry

     iteration #  5     ecut=    80.00 Ry     beta= 0.40
     Davidson diagonalization with overlap
     c_bands:  1 eigenvalues not converged
     c_bands:  2 eigenvalues not converged
     c_bands:  1 eigenvalues not converged
     c_bands:  1 eigenvalues not converged
     c_bands:  1 eigenvalues not converged
     c_bands:  1 eigenvalues not converged
     ethr =  1.72E-06,  avg # of iterations =  9.1

     total cpu time spent up to now is       10.5 secs

     total energy              =     -54.84788889 Ry
     estimated scf accuracy    <       0.00008612 Ry

     iteration #  6     ecut=    80.00 Ry     beta= 0.40
     Davidson diagonalization with overlap
     ethr =  5.38E-07,  avg # of iterations =  2.1

     total cpu time spent up to now is       11.6 secs

     total energy              =     -54.84790062 Ry
     estimated scf accuracy    <       0.00005369 Ry

     iteration #  7     ecut=    80.00 Ry     beta= 0.40
     Davidson diagonalization with overlap
     ethr =  3.36E-07,  avg # of iterations =  2.0

     total cpu time spent up to now is       12.6 secs

     total energy              =     -54.84791012 Ry
     estimated scf accuracy    <       0.00000046 Ry

     iteration #  8     ecut=    80.00 Ry     beta= 0.40
     Davidson diagonalization with overlap
     ethr =  2.87E-09,  avg # of iterations =  5.7

     total cpu time spent up to now is       14.3 secs

     total energy              =     -54.84791051 Ry
     estimated scf accuracy    <       0.00000098 Ry

     iteration #  9     ecut=    80.00 Ry     beta= 0.40
     Davidson diagonalization with overlap
     ethr =  2.87E-09,  avg # of iterations =  2.3

     total cpu time spent up to now is       15.4 secs

     total energy              =     -54.84791077 Ry
     estimated scf accuracy    <       0.00000003 Ry

     iteration # 10     ecut=    80.00 Ry     beta= 0.40
     Davidson diagonalization with overlap
     ethr =  1.73E-10,  avg # of iterations =  2.1

     total cpu time spent up to now is       16.4 secs

     total energy              =     -54.84791077 Ry
     estimated scf accuracy    <          1.3E-09 Ry

     iteration # 11     ecut=    80.00 Ry     beta= 0.40
     Davidson diagonalization with overlap
     ethr =  7.89E-12,  avg # of iterations =  3.5

     total cpu time spent up to now is       17.7 secs

     End of self-consistent calculation

          k = 0.0000 0.0000 0.0000 (  1969 PWs)   bands (ev):

    -9.1921  -5.0992   0.2382   8.6874   8.8090  10.6229  10.8106  10.9178
    18.9379  19.2454  19.6412  20.1137

     occupation numbers 
     1.0000   1.0000   1.0000   1.0000   1.0000   1.0000   0.6172   0.3595
     0.0000   0.0000   0.0000   0.0000

          k = 0.0000 0.0000 0.1229 (  1965 PWs)   bands (ev):

    -8.9556  -5.8538   1.4077   8.8528   8.9731   9.4344  10.5613  10.6700
    19.1966  19.5132  19.9700  20.1621

     occupation numbers 
     1.0000   1.0000   1.0000   1.0000   1.0000   1.0000   1.0581   0.9299
     0.0000   0.0000   0.0000   0.0000

          k = 0.0000 0.0000 0.2457 (  1938 PWs)   bands (ev):

    -8.2594  -7.1597   3.9101   6.8054   9.3244   9.4413   9.9679  10.0805
    19.7752  20.0479  20.1636  20.4903

     occupation numbers 
     1.0000   1.0000   1.0000   1.0000   1.0000   1.0000   1.0009   1.0046
     0.0000   0.0000   0.0000   0.0000

          k = 0.0000 0.1174 0.0000 (  1959 PWs)   bands (ev):

    -8.9769  -4.9364   0.4515   7.8732   8.2985  10.1196  10.4178  10.5964
    18.7560  19.4267  19.9394  20.7920

     occupation numbers 
     1.0000   1.0000   1.0000   1.0000   1.0000   1.0074   1.0761   1.0297
     0.0000   0.0000   0.0000   0.0000

          k = 0.0000 0.1174 0.1229 (  1963 PWs)   bands (ev):

    -8.7421  -5.6741   1.5903   8.0497   8.4759   9.1868  10.0296  10.3189
    18.8934  19.7423  20.2105  20.8289

     occupation numbers 
     1.0000   1.0000   1.0000   1.0000   1.0000   1.0000   1.0023   1.0471
     0.0000   0.0000   0.0000   0.0000

          k = 0.0000 0.1174 0.2457 (  1953 PWs)   bands (ev):

    -8.0511  -6.9617   4.0244   6.7901   8.5786   8.9742   9.3068   9.6683
    19.5062  20.1510  20.5740  20.9618

     occupation numbers 
     1.0000   1.0000   1.0000   1.0000   1.0000   1.0000   1.0000   1.0000
     0.0000   0.0000   0.0000   0.0000

          k = 0.0000 0.2348 0.0000 (  1962 PWs)   bands (ev):

    -8.3418  -4.4838   1.0786   5.7871   7.4366   8.3020   9.7842  10.0138
    18.1564  20.3076  20.3681  21.4279

     occupation numbers 
     1.0000   1.0000   1.0000   1.0000   1.0000   1.0000   1.0000   1.0018
     0.0000   0.0000   0.0000   0.0000

          k = 0.0000 0.2348 0.1229 (  1970 PWs)   bands (ev):

    -8.1125  -5.1636   2.0951   6.0182   7.6270   7.7104   9.3707   9.6909
    18.1261  20.0960  20.7392  21.4307

     occupation numbers 
     1.0000   1.0000   1.0000   1.0000   1.0000   1.0000   1.0000   1.0000
     0.0000   0.0000   0.0000   0.0000

          k = 0.0000 0.2348 0.2457 (  1969 PWs)   bands (ev):

    -7.4397  -6.3867   4.2037   6.2023   6.8419   8.0615   8.1782   8.9491
    18.5706  19.4667  21.5621  21.8512

     occupation numbers 
     1.0000   1.0000   1.0000   1.0000   1.0000   1.0000   1.0000   1.0000
     0.0000   0.0000   0.0000   0.0000

          k = 0.0000 0.3522 0.0000 (  1967 PWs)   bands (ev):

    -7.3273  -3.8960   2.0689   3.5528   6.1986   6.5931   8.7424   9.3574
    17.6376  19.9668  20.9648  21.9365

     occupation numbers 
     1.0000   1.0000   1.0000   1.0000   1.0000   1.0000   1.0000   1.0000
     0.0000   0.0000   0.0000   0.0000

          k = 0.0000 0.3522 0.1229 (  1979 PWs)   bands (ev):

    -7.1107  -4.4453   2.5211   4.1655   5.6035   6.7974   8.7560   9.0042
    17.5547  19.2957  21.4796  21.6016

     occupation numbers 
     1.0000   1.0000   1.0000   1.0000   1.0000   1.0000   1.0000   1.0000
     0.0000   0.0000   0.0000   0.0000

          k = 0.0000 0.3522 0.2457 (  1974 PWs)   bands (ev):

    -6.4802  -5.5141   3.3503   4.3549   6.0210   7.3741   7.8604   8.2017
    17.7459  18.5602  21.3787  22.5768

     occupation numbers 
     1.0000   1.0000   1.0000   1.0000   1.0000   1.0000   1.0000   1.0000
     0.0000   0.0000   0.0000   0.0000

          k = 0.0000 0.4696 0.0000 (  1978 PWs)   bands (ev):

    -6.0553  -3.6201   2.0141   3.2575   4.3642   6.0176   7.4345   8.8791
    17.3066  19.1401  21.1717  22.0786

     occupation numbers 
     1.0000   1.0000   1.0000   1.0000   1.0000   1.0000   1.0000   1.0000
     0.0000   0.0000   0.0000   0.0000

          k = 0.0000 0.4696 0.1229 (  1978 PWs)   bands (ev):

    -5.8689  -3.9032   1.5932   3.4776   4.6482   6.2275   7.8832   8.5096
    17.3096  18.3756  21.7237  21.8721

     occupation numbers 
     1.0000   1.0000   1.0000   1.0000   1.0000   1.0000   1.0000   1.0000
     0.0000   0.0000   0.0000   0.0000

          k = 0.0000 0.4696 0.2457 (  1983 PWs)   bands (ev):

    -5.3421  -4.5964   1.6758   2.4321   6.4742   6.8218   7.6741   7.8506
    17.2872  17.8101  20.9454  21.7754

     occupation numbers 
     1.0000   1.0000   1.0000   1.0000   1.0000   1.0000   1.0000   1.0000
     0.0000   0.0000   0.0000   0.0000

          k = 0.0000-0.5870 0.0000 (  1974 PWs)   bands (ev):

    -5.1377  -3.9341   1.6828   3.2893   4.2178   5.8151   6.5825   8.7074
    17.1968  18.7903  21.1933  21.9056

     occupation numbers 
     1.0000   1.0000   1.0000   1.0000   1.0000   1.0000   1.0000   1.0000
     0.0000   0.0000   0.0000   0.0000

          k = 0.0000-0.5870 0.1229 (  1982 PWs)   bands (ev):

    -4.9996  -3.9904   1.2075   2.5540   5.2003   6.0272   7.2684   8.3329
    17.3174  17.9265  21.9248  21.9254

     occupation numbers 
     1.0000   1.0000   1.0000   1.0000   1.0000   1.0000   1.0000   1.0000
     0.0000   0.0000   0.0000   0.0000

          k = 0.0000-0.5870 0.2457 (  1990 PWs)   bands (ev):

    -4.6389  -4.2304   0.9489   1.4835   6.6263   6.8315   7.4901   7.7584
    17.2316  17.4249  20.9914  21.1187

     occupation numbers 
     1.0000   1.0000   1.0000   1.0000   1.0000   1.0000   1.0000   1.0000
     0.0000   0.0000   0.0000   0.0000

          k = 0.1000 0.0577 0.0000 (  1974 PWs)   bands (ev):

    -8.9849  -4.9443   0.4441   7.7274   8.4446  10.0225  10.4034  10.7106
    18.8637  19.6478  19.9120  20.6604

     occupation numbers 
     1.0000   1.0000   1.0000   1.0000   1.0000   1.0021   1.0726   0.8526
     0.0000   0.0000   0.0000   0.0000

          k = 0.1000 0.0577 0.1229 (  1960 PWs)   bands (ev):

    -8.7500  -5.6819   1.5827   7.9114   8.6195   9.1419   9.9550  10.4378
    18.9868  19.9578  20.2878  20.6752

     occupation numbers 
     1.0000   1.0000   1.0000   1.0000   1.0000   1.0000   1.0008   1.0800
     0.0000   0.0000   0.0000   0.0000

          k = 0.1000 0.0577 0.2457 (  1954 PWs)   bands (ev):

    -8.0590  -6.9696   4.0160   6.7790   8.4405   9.1120   9.1935   9.7973
    19.6962  20.4389  20.5916  20.9141

     occupation numbers 
     1.0000   1.0000   1.0000   1.0000   1.0000   1.0000   1.0000   1.0000
     0.0000   0.0000   0.0000   0.0000

          k = 0.1000 0.1751 0.0000 (  1973 PWs)   bands (ev):

    -8.5636  -4.6395   0.8610   6.4954   7.4282   9.0476   9.9929  10.0959
    18.9518  19.6001  20.3533  21.6362

     occupation numbers 
     1.0000   1.0000   1.0000   1.0000   1.0000   1.0000   1.0014   1.0055
     0.0000   0.0000   0.0000   0.0000

          k = 0.1000 0.1751 0.1229 (  1971 PWs)   bands (ev):

    -8.3323  -5.3400   1.9255   6.7070   7.5480   8.4341   9.5593   9.7848
    18.8910  19.8914  20.6006  21.5399

     occupation numbers 
     1.0000   1.0000   1.0000   1.0000   1.0000   1.0000   1.0000   1.0000
     0.0000   0.0000   0.0000   0.0000

          k = 0.1000 0.1751 0.2457 (  1966 PWs)   bands (ev):

    -7.6528  -6.5866   4.1741   6.5213   7.3278   8.0901   8.6022   9.0755
    19.4727  20.3604  20.7069  20.8707

     occupation numbers 
     1.0000   1.0000   1.0000   1.0000   1.0000   1.0000   1.0000   1.0000
     0.0000   0.0000   0.0000   0.0000

          k = 0.1000 0.2925 0.0000 (  1979 PWs)   bands (ev):

    -7.7405  -4.1090   1.6712   4.6491   6.0206   7.5338   9.1897   9.2090
    18.6163  19.9494  20.9422  21.8818

     occupation numbers 
     1.0000   1.0000   1.0000   1.0000   1.0000   1.0000   1.0000   1.0000
     0.0000   0.0000   0.0000   0.0000

          k = 0.1000 0.2925 0.1229 (  1978 PWs)   bands (ev):

    -7.5180  -4.7190   2.4822   4.9847   6.0292   7.0899   8.8097   9.1172
    18.5154  20.0400  20.7668  21.8308

     occupation numbers 
     1.0000   1.0000   1.0000   1.0000   1.0000   1.0000   1.0000   1.0000
     0.0000   0.0000   0.0000   0.0000

          k = 0.1000 0.2925 0.2457 (  1975 PWs)   bands (ev):

    -6.8679  -5.8609   3.9794   5.2349   6.1880   7.1296   7.9382   8.1786
    18.7769  19.6202  21.3016  21.8261

     occupation numbers 
     1.0000   1.0000   1.0000   1.0000   1.0000   1.0000   1.0000   1.0000
     0.0000   0.0000   0.0000   0.0000

          k = 0.1000 0.4099 0.0000 (  1985 PWs)   bands (ev):

    -6.5856  -3.6214   2.7315   2.8354   4.8546   6.0007   8.0292   8.5274
    18.1841  19.2503  21.3365  22.5433

     occupation numbers 
     1.0000   1.0000   1.0000   1.0000   1.0000   1.0000   1.0000   1.0000
     0.0000   0.0000   0.0000   0.0000

          k = 0.1000 0.4099 0.1229 (  1986 PWs)   bands (ev):

    -6.3832  -4.0398   2.2570   4.0063   4.6626   5.9463   8.0210   8.4412
    18.1154  19.2577  21.0248  22.1750

     occupation numbers 
     1.0000   1.0000   1.0000   1.0000   1.0000   1.0000   1.0000   1.0000
     0.0000   0.0000   0.0000   0.0000

          k = 0.1000 0.4099 0.2457 (  1978 PWs)   bands (ev):

    -5.8008  -4.9352   2.5585   3.3766   6.0008   6.5895   7.2152   8.0761
    18.1413  18.8388  21.2852  22.2648

     occupation numbers 
     1.0000   1.0000   1.0000   1.0000   1.0000   1.0000   1.0000   1.0000
     0.0000   0.0000   0.0000   0.0000

          k = 0.1000 0.5273 0.0000 (  1982 PWs)   bands (ev):

    -5.3374  -3.7216   1.8462   3.5586   4.1509   5.2806   6.7935   8.1722
    18.0514  18.4140  21.4300  22.9203

     occupation numbers 
     1.0000   1.0000   1.0000   1.0000   1.0000   1.0000   1.0000   1.0000
     0.0000   0.0000   0.0000   0.0000

          k = 0.1000 0.5273 0.1229 (  1973 PWs)   bands (ev):

    -5.1821  -3.8456   1.4227   2.9237   4.8831   5.6655   7.3077   7.8847
    17.9989  18.4637  21.2866  22.4966

     occupation numbers 
     1.0000   1.0000   1.0000   1.0000   1.0000   1.0000   1.0000   1.0000
     0.0000   0.0000   0.0000   0.0000

          k = 0.1000 0.5273 0.2457 (  1986 PWs)   bands (ev):

    -4.7623  -4.2347   1.2794   1.8770   5.7608   6.6693   7.0697   7.9808
    17.8239  18.3250  21.1824  21.6335

     occupation numbers 
     1.0000   1.0000   1.0000   1.0000   1.0000   1.0000   1.0000   1.0000
     0.0000   0.0000   0.0000   0.0000

          k = 0.1000-0.5292 0.0000 (  1986 PWs)   bands (ev):

    -5.3168  -3.7288   1.8419   3.5450   4.1511   5.2914   6.7895   8.1847
    18.0421  18.4200  21.4098  22.9197

     occupation numbers 
     1.0000   1.0000   1.0000   1.0000   1.0000   1.0000   1.0000   1.0000
     0.0000   0.0000   0.0000   0.0000

          k = 0.1000-0.5292 0.1229 (  1982 PWs)   bands (ev):

    -5.1627  -3.8481   1.4154   2.8988   4.9034   5.6625   7.3223   7.8855
    17.9889  18.4572  21.2915  22.4774

     occupation numbers 
     1.0000   1.0000   1.0000   1.0000   1.0000   1.0000   1.0000   1.0000
     0.0000   0.0000   0.0000   0.0000

          k = 0.1000-0.5292 0.2457 (  1983 PWs)   bands (ev):

    -4.7467  -4.2270   1.2633   1.8544   5.7790   6.6564   7.1035   7.9792
    17.8125  18.3117  21.1809  21.6066

     occupation numbers 
     1.0000   1.0000   1.0000   1.0000   1.0000   1.0000   1.0000   1.0000
     0.0000   0.0000   0.0000   0.0000

          k = 0.1000-0.4118 0.0000 (  1979 PWs)   bands (ev):

    -6.5608  -3.6114   2.7144   2.8399   4.8295   6.0113   8.0302   8.5615
    18.1465  19.2801  21.2739  22.5397

     occupation numbers 
     1.0000   1.0000   1.0000   1.0000   1.0000   1.0000   1.0000   1.0000
     0.0000   0.0000   0.0000   0.0000

          k = 0.1000-0.4118 0.1229 (  1987 PWs)   bands (ev):

    -6.3588  -4.0257   2.2319   4.0028   4.6332   5.9713   8.0692   8.4358
    18.0753  19.2496  21.0352  22.0915

     occupation numbers 
     1.0000   1.0000   1.0000   1.0000   1.0000   1.0000   1.0000   1.0000
     0.0000   0.0000   0.0000   0.0000

          k = 0.1000-0.4118 0.2457 (  1979 PWs)   bands (ev):

    -5.7779  -4.9154   2.5222   3.3367   6.0294   6.5748   7.2875   8.0806
    18.1061  18.8092  21.2540  22.1559

     occupation numbers 
     1.0000   1.0000   1.0000   1.0000   1.0000   1.0000   1.0000   1.0000
     0.0000   0.0000   0.0000   0.0000

          k = 0.1000-0.2944 0.0000 (  1980 PWs)   bands (ev):

    -7.7212  -4.0933   1.6887   4.6012   6.0602   7.4976   9.1999   9.2483
    18.5411  19.9344  20.9029  21.7789

     occupation numbers 
     1.0000   1.0000   1.0000   1.0000   1.0000   1.0000   1.0000   1.0000
     0.0000   0.0000   0.0000   0.0000

          k = 0.1000-0.2944 0.1229 (  1978 PWs)   bands (ev):

    -7.4988  -4.7021   2.4940   4.9417   6.0437   7.0838   8.8524   9.1233
    18.4512  20.0121  20.7070  21.7057

     occupation numbers 
     1.0000   1.0000   1.0000   1.0000   1.0000   1.0000   1.0000   1.0000
     0.0000   0.0000   0.0000   0.0000

          k = 0.1000-0.2944 0.2457 (  1974 PWs)   bands (ev):

    -6.8490  -5.8427   3.9714   5.2137   6.1588   7.1498   7.9804   8.2062
    18.7322  19.5920  21.1494  21.6135

     occupation numbers 
     1.0000   1.0000   1.0000   1.0000   1.0000   1.0000   1.0000   1.0000
     0.0000   0.0000   0.0000   0.0000

          k = 0.1000-0.1771 0.0000 (  1975 PWs)   bands (ev):

    -8.5516  -4.6280   0.8720   6.5157   7.4222   9.0397  10.0107  10.0806
    18.8928  19.3677  20.3767  21.7413

     occupation numbers 
     1.0000   1.0000   1.0000   1.0000   1.0000   1.0000   1.0018   1.0046
     0.0000   0.0000   0.0000   0.0000

          k = 0.1000-0.1771 0.1229 (  1975 PWs)   bands (ev):

    -8.3203  -5.3284   1.9365   6.7263   7.5449   8.4331   9.5692   9.7692
    18.8578  19.6372  20.5562  21.6197

     occupation numbers 
     1.0000   1.0000   1.0000   1.0000   1.0000   1.0000   1.0000   1.0000
     0.0000   0.0000   0.0000   0.0000

          k = 0.1000-0.1771 0.2457 (  1966 PWs)   bands (ev):

    -7.6409  -6.5749   4.1856   6.5355   7.3400   8.0850   8.6042   9.0637
    19.4647  20.1707  20.5579  20.7189

     occupation numbers 
     1.0000   1.0000   1.0000   1.0000   1.0000   1.0000   1.0000   1.0000
     0.0000   0.0000   0.0000   0.0000

          k = 0.1000-0.0597 0.0000 (  1969 PWs)   bands (ev):

    -8.9808  -4.9402   0.4478   7.8062   8.3650  10.0753  10.4118  10.6492
    18.8157  19.4824  19.9440  20.7702

     occupation numbers 
     1.0000   1.0000   1.0000   1.0000   1.0000   1.0043   1.0747   0.9637
     0.0000   0.0000   0.0000   0.0000

          k = 0.1000-0.0597 0.1229 (  1965 PWs)   bands (ev):

    -8.7459  -5.6779   1.5866   7.9872   8.5389   9.1686   9.9947  10.3741
    18.9495  19.7781  20.2632  20.8108

     occupation numbers 
     1.0000   1.0000   1.0000   1.0000   1.0000   1.0000   1.0014   1.0643
     0.0000   0.0000   0.0000   0.0000

          k = 0.1000-0.0597 0.2457 (  1954 PWs)   bands (ev):

    -8.0549  -6.9655   4.0205   6.7852   8.5132   9.0383   9.2549   9.7285
    19.6022  20.2449  20.5351  21.0059

     occupation numbers 
     1.0000   1.0000   1.0000   1.0000   1.0000   1.0000   1.0000   1.0000
     0.0000   0.0000   0.0000   0.0000

          k = 0.2000 0.1155 0.0000 (  1977 PWs)   bands (ev):

    -8.3737  -4.5155   1.0494   5.6032   7.6609   8.2003   9.7472  10.1856
    18.4829  20.2890  20.5101  21.7118

     occupation numbers 
     1.0000   1.0000   1.0000   1.0000   1.0000   1.0000   1.0000   1.0153
     0.0000   0.0000   0.0000   0.0000

          k = 0.2000 0.1155 0.1229 (  1977 PWs)   bands (ev):

    -8.1443  -5.1951   2.0631   5.8453   7.5885   7.8526   9.3409   9.8713
    18.3862  20.2002  20.9306  21.6501

     occupation numbers 
     1.0000   1.0000   1.0000   1.0000   1.0000   1.0000   1.0000   1.0002
     0.0000   0.0000   0.0000   0.0000

          k = 0.2000 0.1155 0.2457 (  1967 PWs)   bands (ev):

    -7.4714  -6.4183   4.1564   6.1197   6.6831   7.9906   8.3892   9.1466
    18.8368  19.7599  21.5578  21.9830

     occupation numbers 
     1.0000   1.0000   1.0000   1.0000   1.0000   1.0000   1.0000   1.0000
     0.0000   0.0000   0.0000   0.0000

          k = 0.2000 0.2329 0.0000 (  1984 PWs)   bands (ev):

    -7.7651  -4.1348   1.6491   4.4642   6.2011   7.4852   9.1687   9.3728
    18.8993  19.9630  20.9326  22.0054

     occupation numbers 
     1.0000   1.0000   1.0000   1.0000   1.0000   1.0000   1.0000   1.0000
     0.0000   0.0000   0.0000   0.0000

          k = 0.2000 0.2329 0.1229 (  1981 PWs)   bands (ev):

    -7.5426  -4.7441   2.4489   4.8174   6.1018   7.1370   8.9284   9.1541
    18.7057  20.1045  20.8591  21.9441

     occupation numbers 
     1.0000   1.0000   1.0000   1.0000   1.0000   1.0000   1.0000   1.0000
     0.0000   0.0000   0.0000   0.0000

          k = 0.2000 0.2329 0.2457 (  1974 PWs)   bands (ev):

    -6.8924  -5.8855   3.9040   5.1464   6.0829   7.2855   7.9798   8.3287
    18.9521  19.8498  21.2934  21.6954

     occupation numbers 
     1.0000   1.0000   1.0000   1.0000   1.0000   1.0000   1.0000   1.0000
     0.0000   0.0000   0.0000   0.0000

          k = 0.2000 0.3503 0.0000 (  1986 PWs)   bands (ev):

    -6.7950  -3.6667   2.6018   3.5898   4.2613   6.4700   8.0280   8.2811
    18.4571  20.3920  21.7787  22.4618

     occupation numbers 
     1.0000   1.0000   1.0000   1.0000   1.0000   1.0000   1.0000   1.0000
     0.0000   0.0000   0.0000   0.0000

          k = 0.2000 0.3503 0.1229 (  1984 PWs)   bands (ev):

    -6.5879  -4.1315   2.6510   4.2651   4.5238   5.9262   7.6132   8.5744
    19.0565  19.7447  21.4842  22.4381

     occupation numbers 
     1.0000   1.0000   1.0000   1.0000   1.0000   1.0000   1.0000   1.0000
     0.0000   0.0000   0.0000   0.0000

          k = 0.2000 0.3503 0.2457 (  1982 PWs)   bands (ev):

    -5.9894  -5.0888   3.1195   3.8778   5.7842   6.0810   6.9654   8.1293
    19.3080  19.7564  21.6726  22.0566

     occupation numbers 
     1.0000   1.0000   1.0000   1.0000   1.0000   1.0000   1.0000   1.0000
     0.0000   0.0000   0.0000   0.0000

          k = 0.2000 0.4677 0.0000 (  1989 PWs)   bands (ev):

    -5.5894  -3.4885   2.5166   3.4192   3.8420   5.1326   7.0491   7.2082
    17.3376  20.7197  22.5648  23.5936

     occupation numbers 
     1.0000   1.0000   1.0000   1.0000   1.0000   1.0000   1.0000   1.0000
     0.0000   0.0000   0.0000   0.0000

          k = 0.2000 0.4677 0.1229 (  1988 PWs)   bands (ev):

    -5.4175  -3.7111   2.1405   3.1492   4.5222   5.1923   6.6247   7.8130
    18.0770  20.4240  21.4322  23.2990

     occupation numbers 
     1.0000   1.0000   1.0000   1.0000   1.0000   1.0000   1.0000   1.0000
     0.0000   0.0000   0.0000   0.0000

          k = 0.2000 0.4677 0.2457 (  1984 PWs)   bands (ev):

    -4.9387  -4.2846   2.0820   2.6199   4.6379   5.4699   7.0681   8.0973
    19.0406  19.6513  21.5461  22.2091

     occupation numbers 
     1.0000   1.0000   1.0000   1.0000   1.0000   1.0000   1.0000   1.0000
     0.0000   0.0000   0.0000   0.0000

          k = 0.2000 0.5850 0.0000 (  2000 PWs)   bands (ev):

    -4.6843  -3.8081   1.9556   3.7049   4.1062   4.7389   6.2434   6.8848
    16.9076  20.6386  22.8919  23.9129

     occupation numbers 
     1.0000   1.0000   1.0000   1.0000   1.0000   1.0000   1.0000   1.0000
     0.0000   0.0000   0.0000   0.0000

          k = 0.2000 0.5850 0.1229 (  1989 PWs)   bands (ev):

    -4.5696  -3.8374   1.7243   2.9587   3.8056   5.9250   6.1735   7.2483
    17.6757  20.6227  21.5100  23.1156

     occupation numbers 
     1.0000   1.0000   1.0000   1.0000   1.0000   1.0000   1.0000   1.0000
     0.0000   0.0000   0.0000   0.0000

          k = 0.2000 0.5850 0.2457 (  1981 PWs)   bands (ev):

    -4.2829  -3.9875   1.5282   1.9677   4.2473   5.1844   7.4138   7.9707
    18.7938  19.7969  21.2539  21.9089

     occupation numbers 
     1.0000   1.0000   1.0000   1.0000   1.0000   1.0000   1.0000   1.0000
     0.0000   0.0000   0.0000   0.0000

          k = 0.2000-0.4715 0.0000 (  1993 PWs)   bands (ev):

    -5.5386  -3.4870   2.4797   3.4244   3.8696   5.0985   7.0658   7.2114
    17.3534  20.6632  22.5549  23.4676

     occupation numbers 
     1.0000   1.0000   1.0000   1.0000   1.0000   1.0000   1.0000   1.0000
     0.0000   0.0000   0.0000   0.0000

          k = 0.2000-0.4715 0.1229 (  1986 PWs)   bands (ev):

    -5.3685  -3.6995   2.1025   3.1273   4.5174   5.2014   6.6766   7.7949
    18.0806  20.4018  21.4027  23.2320

     occupation numbers 
     1.0000   1.0000   1.0000   1.0000   1.0000   1.0000   1.0000   1.0000
     0.0000   0.0000   0.0000   0.0000

          k = 0.2000-0.4715 0.2457 (  1980 PWs)   bands (ev):

    -4.8958  -4.2544   2.0296   2.5614   4.6672   5.4911   7.1024   8.1002
    19.0108  19.6445  21.5085  22.1820

     occupation numbers 
     1.0000   1.0000   1.0000   1.0000   1.0000   1.0000   1.0000   1.0000
     0.0000   0.0000   0.0000   0.0000

          k = 0.2000-0.3541 0.0000 (  1988 PWs)   bands (ev):

    -6.7496  -3.6376   2.6430   3.5569   4.2468   6.4317   8.0521   8.2852
    18.4667  20.2323  21.7947  22.1735

     occupation numbers 
     1.0000   1.0000   1.0000   1.0000   1.0000   1.0000   1.0000   1.0000
     0.0000   0.0000   0.0000   0.0000

          k = 0.2000-0.3541 0.1229 (  1988 PWs)   bands (ev):

    -6.5430  -4.0980   2.6510   4.2619   4.5002   5.9095   7.6408   8.5748
    19.0536  19.6659  21.3936  22.1543

     occupation numbers 
     1.0000   1.0000   1.0000   1.0000   1.0000   1.0000   1.0000   1.0000
     0.0000   0.0000   0.0000   0.0000

          k = 0.2000-0.3541 0.2457 (  1978 PWs)   bands (ev):

    -5.9462  -5.0492   3.0934   3.8423   5.7965   6.0617   7.0115   8.1425
    19.2648  19.7134  21.5138  21.8207

     occupation numbers 
     1.0000   1.0000   1.0000   1.0000   1.0000   1.0000   1.0000   1.0000
     0.0000   0.0000   0.0000   0.0000

          k = 0.2000-0.2367 0.0000 (  1982 PWs)   bands (ev):

    -7.7332  -4.1057   1.6780   4.5131   6.1466   7.4749   9.1936   9.3241
    18.6904  19.9237  20.8847  21.8645

     occupation numbers 
     1.0000   1.0000   1.0000   1.0000   1.0000   1.0000   1.0000   1.0000
     0.0000   0.0000   0.0000   0.0000

          k = 0.2000-0.2367 0.1229 (  1979 PWs)   bands (ev):

    -7.5108  -4.7143   2.4778   4.8620   6.0788   7.1062   8.9148   9.1369
    18.5597  20.0325  20.7288  21.7758

     occupation numbers 
     1.0000   1.0000   1.0000   1.0000   1.0000   1.0000   1.0000   1.0000
     0.0000   0.0000   0.0000   0.0000

          k = 0.2000-0.2367 0.2457 (  1967 PWs)   bands (ev):

    -6.8610  -5.8547   3.9352   5.1718   6.1091   7.2226   8.0016   8.2791
    18.8314  19.7118  21.1211  21.5417

     occupation numbers 
     1.0000   1.0000   1.0000   1.0000   1.0000   1.0000   1.0000   1.0000
     0.0000   0.0000   0.0000   0.0000

          k = 0.2000-0.1193 0.0000 (  1976 PWs)   bands (ev):

    -8.3574  -4.4991   1.0643   5.6995   7.5425   8.2556   9.7678  10.0959
    18.3208  20.3307  20.3528  21.6264

     occupation numbers 
     1.0000   1.0000   1.0000   1.0000   1.0000   1.0000   1.0000   1.0055
     0.0000   0.0000   0.0000   0.0000

          k = 0.2000-0.1193 0.1229 (  1971 PWs)   bands (ev):

    -8.1281  -5.1789   2.0796   5.9361   7.6410   7.7463   9.3571   9.7774
    18.2619  20.1405  20.7696  21.5962

     occupation numbers 
     1.0000   1.0000   1.0000   1.0000   1.0000   1.0000   1.0000   1.0000
     0.0000   0.0000   0.0000   0.0000

          k = 0.2000-0.1193 0.2457 (  1968 PWs)   bands (ev):

    -7.4552  -6.4021   4.1816   6.1651   6.7642   8.0240   8.2823   9.0440
    18.7079  19.6098  21.4891  21.9237

     occupation numbers 
     1.0000   1.0000   1.0000   1.0000   1.0000   1.0000   1.0000   1.0000
     0.0000   0.0000   0.0000   0.0000

          k = 0.2000-0.0019 0.0000 (  1966 PWs)   bands (ev):

    -8.5751  -4.6502   0.8504   6.5047   7.4074   9.0677   9.9795  10.0948
    19.0311  19.7814  20.3399  21.5754

     occupation numbers 
     1.0000   1.0000   1.0000   1.0000   1.0000   1.0000   1.0011   1.0055
     0.0000   0.0000   0.0000   0.0000

          k = 0.2000-0.0019 0.1229 (  1970 PWs)   bands (ev):

    -8.3437  -5.3509   1.9152   6.7169   7.5280   8.4415   9.5602   9.7789
    18.9426  20.1005  20.6381  21.5178

     occupation numbers 
     1.0000   1.0000   1.0000   1.0000   1.0000   1.0000   1.0000   1.0000
     0.0000   0.0000   0.0000   0.0000

          k = 0.2000-0.0019 0.2457 (  1963 PWs)   bands (ev):

    -7.6642  -6.5978   4.1646   6.5138   7.3368   8.0888   8.6010   9.0648
    19.5095  20.4684  20.9166  20.9964

     occupation numbers 
     1.0000   1.0000   1.0000   1.0000   1.0000   1.0000   1.0000   1.0000
     0.0000   0.0000   0.0000   0.0000

          k = 0.3000 0.1732 0.0000 (  1974 PWs)   bands (ev):

    -7.4002  -3.9668   2.0051   3.3859   6.1117   6.8817   8.6886   9.5873
    18.0945  20.0058  21.1978  22.0799

     occupation numbers 
     1.0000   1.0000   1.0000   1.0000   1.0000   1.0000   1.0000   1.0000
     0.0000   0.0000   0.0000   0.0000

          k = 0.3000 0.1732 0.1229 (  1983 PWs)   bands (ev):

    -7.1834  -4.5159   2.4224   4.0472   5.4879   7.0828   8.7223   9.2438
    17.9102  19.4566  21.6767  21.8106

     occupation numbers 
     1.0000   1.0000   1.0000   1.0000   1.0000   1.0000   1.0000   1.0000
     0.0000   0.0000   0.0000   0.0000

          k = 0.3000 0.1732 0.2457 (  1984 PWs)   bands (ev):

    -6.5523  -5.5854   3.2201   4.2376   5.9372   7.6474   7.8234   8.4606
    18.0375  18.8776  21.4600  22.5382

     occupation numbers 
     1.0000   1.0000   1.0000   1.0000   1.0000   1.0000   1.0000   1.0000
     0.0000   0.0000   0.0000   0.0000

          k = 0.3000 0.2906 0.0000 (  1987 PWs)   bands (ev):

    -6.6547  -3.6909   2.6037   2.7344   4.8968   6.1524   7.9909   8.7659
    18.5076  19.4980  21.5146  22.6478

     occupation numbers 
     1.0000   1.0000   1.0000   1.0000   1.0000   1.0000   1.0000   1.0000
     0.0000   0.0000   0.0000   0.0000

          k = 0.3000 0.2906 0.1229 (  1989 PWs)   bands (ev):

    -6.4521  -4.1080   2.1169   3.9599   4.5607   6.1839   8.1696   8.5214
    18.3382  19.5120  21.2229  22.3872

     occupation numbers 
     1.0000   1.0000   1.0000   1.0000   1.0000   1.0000   1.0000   1.0000
     0.0000   0.0000   0.0000   0.0000

          k = 0.3000 0.2906 0.2457 (  1985 PWs)   bands (ev):

    -5.8691  -5.0028   2.4176   3.2599   6.0354   6.7505   7.4425   8.0994
    18.3075  19.1191  21.4395  22.2916

     occupation numbers 
     1.0000   1.0000   1.0000   1.0000   1.0000   1.0000   1.0000   1.0000
     0.0000   0.0000   0.0000   0.0000

          k = 0.3000 0.4080 0.0000 (  1985 PWs)   bands (ev):

    -5.6401  -3.5297   2.3727   3.5764   3.7952   5.1245   7.0798   7.3112
    17.3890  21.2579  22.6076  23.4919

     occupation numbers 
     1.0000   1.0000   1.0000   1.0000   1.0000   1.0000   1.0000   1.0000
     0.0000   0.0000   0.0000   0.0000

          k = 0.3000 0.4080 0.1229 (  1985 PWs)   bands (ev):

    -5.4676  -3.7531   2.0087   3.2326   4.5260   5.1966   6.7571   7.8194
    18.0950  20.6766  21.7588  23.3867

     occupation numbers 
     1.0000   1.0000   1.0000   1.0000   1.0000   1.0000   1.0000   1.0000
     0.0000   0.0000   0.0000   0.0000

          k = 0.3000 0.4080 0.2457 (  1978 PWs)   bands (ev):

    -4.9868  -4.3295   1.9817   2.5680   4.7702   5.6066   7.0593   8.0936
    19.0133  19.7874  21.7576  22.3447

     occupation numbers 
     1.0000   1.0000   1.0000   1.0000   1.0000   1.0000   1.0000   1.0000
     0.0000   0.0000   0.0000   0.0000

          k = 0.3000 0.5254 0.0000 (  1982 PWs)   bands (ev):

    -4.5745  -3.7306   2.0485   3.4124   4.2951   4.9004   5.9679   6.1841
    16.3701  23.3669  23.6878  24.3516

     occupation numbers 
     1.0000   1.0000   1.0000   1.0000   1.0000   1.0000   1.0000   1.0000
     0.0000   0.0000   0.0000   0.0000

          k = 0.3000 0.5254 0.1229 (  1985 PWs)   bands (ev):

    -4.4649  -3.7642   2.2269   2.6704   3.5601   5.3362   6.1270   7.0743
    17.3544  21.7482  22.7733  23.4058

     occupation numbers 
     1.0000   1.0000   1.0000   1.0000   1.0000   1.0000   1.0000   1.0000
     0.0000   0.0000   0.0000   0.0000

          k = 0.3000 0.5254 0.2457 (  1977 PWs)   bands (ev):

    -4.1927  -3.9130   2.1145   2.2703   3.3324   4.2744   7.5290   7.9478
    19.5221  20.1327  20.9147  22.4295

     occupation numbers 
     1.0000   1.0000   1.0000   1.0000   1.0000   1.0000   1.0000   1.0000
     0.0000   0.0000   0.0000   0.0000

          k = 0.3000 0.6428 0.0000 (  1982 PWs)   bands (ev):

    -4.5032  -3.7605   2.0358   3.4300   4.2379   4.9636   5.9805   6.1328
    16.3661  23.2995  23.7314  24.0314

     occupation numbers 
     1.0000   1.0000   1.0000   1.0000   1.0000   1.0000   1.0000   1.0000
     0.0000   0.0000   0.0000   0.0000

          k = 0.3000 0.6428 0.1229 (  1989 PWs)   bands (ev):

    -4.3996  -3.7822   2.2122   2.6827   3.5169   5.3282   6.1922   7.0306
    17.3514  21.7705  22.7377  23.3092

     occupation numbers 
     1.0000   1.0000   1.0000   1.0000   1.0000   1.0000   1.0000   1.0000
     0.0000   0.0000   0.0000   0.0000

          k = 0.3000 0.6428 0.2457 (  1985 PWs)   bands (ev):

    -4.1472  -3.9002   2.1086   2.2292   3.3256   4.2695   7.5617   7.9356
    19.5248  20.1423  20.8825  22.3708

     occupation numbers 
     1.0000   1.0000   1.0000   1.0000   1.0000   1.0000   1.0000   1.0000
     0.0000   0.0000   0.0000   0.0000

          k = 0.3000-0.4138 0.0000 (  1985 PWs)   bands (ev):

    -5.5636  -3.5069   2.4082   3.5051   3.8429   5.0958   7.0747   7.2686
    17.3789  20.9350  22.5821  23.3721

     occupation numbers 
     1.0000   1.0000   1.0000   1.0000   1.0000   1.0000   1.0000   1.0000
     0.0000   0.0000   0.0000   0.0000

          k = 0.3000-0.4138 0.1229 (  1978 PWs)   bands (ev):

    -5.3931  -3.7198   2.0375   3.1681   4.5227   5.2017   6.7403   7.7990
    18.0910  20.5498  21.5461  23.2660

     occupation numbers 
     1.0000   1.0000   1.0000   1.0000   1.0000   1.0000   1.0000   1.0000
     0.0000   0.0000   0.0000   0.0000

          k = 0.3000-0.4138 0.2457 (  1979 PWs)   bands (ev):

    -4.9194  -4.2763   1.9811   2.5370   4.7315   5.5566   7.0986   8.0991
    19.0047  19.7175  21.6222  22.2325

     occupation numbers 
     1.0000   1.0000   1.0000   1.0000   1.0000   1.0000   1.0000   1.0000
     0.0000   0.0000   0.0000   0.0000

          k = 0.3000-0.2964 0.0000 (  1984 PWs)   bands (ev):

    -6.5946  -3.6451   2.6480   2.7938   4.8531   6.0827   8.0137   8.6785
    18.3275  19.3833  21.3645  22.5766

     occupation numbers 
     1.0000   1.0000   1.0000   1.0000   1.0000   1.0000   1.0000   1.0000
     0.0000   0.0000   0.0000   0.0000

          k = 0.3000-0.2964 0.1229 (  1984 PWs)   bands (ev):

[...]

          k =-0.3000 0.1790 0.1229 (  1982 PWs)   bands (ev):

    -7.1462  -4.4796   2.4736   4.1070   5.5472   6.9364   8.7406   9.1228
    17.7397  19.3743  21.5067  21.7527

     occupation numbers 
     1.0000   1.0000   1.0000   1.0000   1.0000   1.0000   1.0000   1.0000
     0.0000   0.0000   0.0000   0.0000

          k =-0.3000 0.1790 0.2457 (  1981 PWs)   bands (ev):

    -6.5154  -5.5488   3.2875   4.2988   5.9779   7.5039   7.8455   8.3306
    17.8997  18.7200  21.4043  22.5306

     occupation numbers 
     1.0000   1.0000   1.0000   1.0000   1.0000   1.0000   1.0000   1.0000
     0.0000   0.0000   0.0000   0.0000

          k =-0.3000 0.0616 0.1229 (  1981 PWs)   bands (ev):

    -7.5485  -4.7469   2.4560   4.9491   6.0621   7.1075   8.8291   9.1235
    18.6783  20.0902  20.8531  22.0392

     occupation numbers 
     1.0000   1.0000   1.0000   1.0000   1.0000   1.0000   1.0000   1.0000
     0.0000   0.0000   0.0000   0.0000

          k =-0.3000 0.0616 0.2457 (  1969 PWs)   bands (ev):

    -6.8979  -5.8901   3.9555   5.2194   6.1651   7.1859   7.9163   8.2164
    18.9137  19.7626  21.4214  21.9811

     occupation numbers 
     1.0000   1.0000   1.0000   1.0000   1.0000   1.0000   1.0000   1.0000
     0.0000   0.0000   0.0000   0.0000

          k =-0.3000-0.0558 0.1229 (  1980 PWs)   bands (ev):

    -7.5610  -4.7598   2.4388   4.8607   6.1009   7.1313   8.8881   9.1447
    18.7598  20.1323  20.9256  22.0844

     occupation numbers 
     1.0000   1.0000   1.0000   1.0000   1.0000   1.0000   1.0000   1.0000
     0.0000   0.0000   0.0000   0.0000

          k =-0.3000-0.0558 0.2457 (  1975 PWs)   bands (ev):

    -6.9104  -5.9027   3.9162   5.1726   6.1092   7.2703   7.9353   8.2944
    18.9904  19.8733  21.4395  21.9234

     occupation numbers 
     1.0000   1.0000   1.0000   1.0000   1.0000   1.0000   1.0000   1.0000
     0.0000   0.0000   0.0000   0.0000

          k =-0.4000-0.2309 0.1229 (  1988 PWs)   bands (ev):

    -6.0034  -4.0122   1.4694   3.4374   4.5128   6.5524   7.8601   8.7883
    17.7415  18.5693  21.9243  22.1404

     occupation numbers 
     1.0000   1.0000   1.0000   1.0000   1.0000   1.0000   1.0000   1.0000
     0.0000   0.0000   0.0000   0.0000

          k =-0.4000-0.2309 0.2457 (  1998 PWs)   bands (ev):

    -5.4720  -4.7173   1.5688   2.3511   6.3860   7.1361   7.8112   7.9751
    17.5364  18.1573  21.0854  21.8252

     occupation numbers 
     1.0000   1.0000   1.0000   1.0000   1.0000   1.0000   1.0000   1.0000
     0.0000   0.0000   0.0000   0.0000

          k =-0.4000-0.3483 0.1229 (  1982 PWs)   bands (ev):

    -5.3313  -3.9359   1.2957   2.9024   4.8431   5.8509   7.3651   8.0980
    18.1125  18.9711  21.5547  22.7352

     occupation numbers 
     1.0000   1.0000   1.0000   1.0000   1.0000   1.0000   1.0000   1.0000
     0.0000   0.0000   0.0000   0.0000

          k =-0.4000-0.3483 0.2457 (  1989 PWs)   bands (ev):

    -4.8998  -4.3502   1.1785   1.8134   5.9772   6.8307   7.1349   7.9944
    17.9328  18.6781  21.3712  21.7903

     occupation numbers 
     1.0000   1.0000   1.0000   1.0000   1.0000   1.0000   1.0000   1.0000
     0.0000   0.0000   0.0000   0.0000

          k =-0.4000-0.4657 0.1229 (  1977 PWs)   bands (ev):

    -4.7395  -3.8552   1.6254   3.0011   3.9318   5.8062   6.3096   7.3290
    17.7034  21.2234  21.5887  23.1931

     occupation numbers 
     1.0000   1.0000   1.0000   1.0000   1.0000   1.0000   1.0000   1.0000
     0.0000   0.0000   0.0000   0.0000

          k =-0.4000-0.4657 0.2457 (  1980 PWs)   bands (ev):

    -4.4179  -4.0631   1.4602   1.9622   4.4093   5.3448   7.3396   7.9836
    18.7805  19.9495  21.3863  22.2618

     occupation numbers 
     1.0000   1.0000   1.0000   1.0000   1.0000   1.0000   1.0000   1.0000
     0.0000   0.0000   0.0000   0.0000

          k =-0.4000-0.5831 0.1229 (  1981 PWs)   bands (ev):

    -4.5226  -3.7504   2.2497   2.6502   3.6022   5.3429   6.0680   7.1132
    17.3579  21.7301  22.8172  23.6139

     occupation numbers 
     1.0000   1.0000   1.0000   1.0000   1.0000   1.0000   1.0000   1.0000
     0.0000   0.0000   0.0000   0.0000

          k =-0.4000-0.5831 0.2457 (  1976 PWs)   bands (ev):

    -4.2339  -3.9264   2.1296   2.3040   3.3367   4.2765   7.4999   7.9585
    19.5274  20.1220  20.9458  22.4962

     occupation numbers 
     1.0000   1.0000   1.0000   1.0000   1.0000   1.0000   1.0000   1.0000
     0.0000   0.0000   0.0000   0.0000

          k =-0.4000-0.7005 0.1229 (  1981 PWs)   bands (ev):

    -4.6548  -3.8435   1.6746   2.9810   3.8676   5.8617   6.2429   7.2911
    17.6904  20.9268  21.5542  23.1486

     occupation numbers 
     1.0000   1.0000   1.0000   1.0000   1.0000   1.0000   1.0000   1.0000
     0.0000   0.0000   0.0000   0.0000

          k =-0.4000-0.7005 0.2457 (  1979 PWs)   bands (ev):

    -4.3497  -4.0233   1.4939   1.9656   4.3270   5.2628   7.3772   7.9788
    18.7929  19.8848  21.3166  22.0761

     occupation numbers 
     1.0000   1.0000   1.0000   1.0000   1.0000   1.0000   1.0000   1.0000
     0.0000   0.0000   0.0000   0.0000

          k =-0.4000 0.3560 0.1229 (  1984 PWs)   bands (ev):

    -5.2361  -3.8914   1.3516   2.8891   4.8902   5.7452   7.3541   7.9911
    18.0655  18.6942  21.4287  22.5837

     occupation numbers 
     1.0000   1.0000   1.0000   1.0000   1.0000   1.0000   1.0000   1.0000
     0.0000   0.0000   0.0000   0.0000

          k =-0.4000 0.3560 0.2457 (  1988 PWs)   bands (ev):

    -4.8141  -4.2830   1.2128   1.8231   5.8898   6.7346   7.1349   7.9863
    17.8778  18.4948  21.2647  21.6743

     occupation numbers 
     1.0000   1.0000   1.0000   1.0000   1.0000   1.0000   1.0000   1.0000
     0.0000   0.0000   0.0000   0.0000

          k =-0.4000 0.2386 0.1229 (  1982 PWs)   bands (ev):

    -5.9346  -3.9561   1.5315   3.4580   4.5803   6.3868   7.8747   8.6483
    17.5366  18.4662  21.8058  22.0070

     occupation numbers 
     1.0000   1.0000   1.0000   1.0000   1.0000   1.0000   1.0000   1.0000
     0.0000   0.0000   0.0000   0.0000

          k =-0.4000 0.2386 0.2457 (  1992 PWs)   bands (ev):

    -5.4054  -4.6552   1.6226   2.3920   6.4282   6.9755   7.8008   7.8591
    17.4243  17.9831  21.0046  21.7906

     occupation numbers 
     1.0000   1.0000   1.0000   1.0000   1.0000   1.0000   1.0000   1.0000
     0.0000   0.0000   0.0000   0.0000

          k =-0.4000 0.1212 0.1229 (  1987 PWs)   bands (ev):

    -6.4399  -4.0858   2.2130   3.9870   4.6438   6.0352   8.0617   8.4742
    18.2757  19.3844  21.1049  22.3670

     occupation numbers 
     1.0000   1.0000   1.0000   1.0000   1.0000   1.0000   1.0000   1.0000
     0.0000   0.0000   0.0000   0.0000

          k =-0.4000 0.1212 0.2457 (  1981 PWs)   bands (ev):

    -5.8558  -4.9866   2.5251   3.3594   5.9993   6.6739   7.2574   8.0820
    18.2682  19.0089  21.3814  22.3679

     occupation numbers 
     1.0000   1.0000   1.0000   1.0000   1.0000   1.0000   1.0000   1.0000
     0.0000   0.0000   0.0000   0.0000

          k =-0.4000 0.0038 0.1229 (  1977 PWs)   bands (ev):

    -6.6305  -4.1626   2.6566   4.2880   4.5279   5.9436   7.5785   8.5768
    19.0672  19.8202  21.6064  22.6828

     occupation numbers 
     1.0000   1.0000   1.0000   1.0000   1.0000   1.0000   1.0000   1.0000
     0.0000   0.0000   0.0000   0.0000

          k =-0.4000 0.0038 0.2457 (  1979 PWs)   bands (ev):

    -6.0303  -5.1261   3.1535   3.9184   5.7725   6.0918   6.9140   8.1175
    19.3617  19.8075  21.8457  22.2494

     occupation numbers 
     1.0000   1.0000   1.0000   1.0000   1.0000   1.0000   1.0000   1.0000
     0.0000   0.0000   0.0000   0.0000

          k =-0.4000-0.1135 0.1229 (  1985 PWs)   bands (ev):

    -6.4751  -4.1209   2.1416   3.9622   4.5911   6.1585   8.1318   8.5187
    18.3658  19.5268  21.2125  22.4877

     occupation numbers 
     1.0000   1.0000   1.0000   1.0000   1.0000   1.0000   1.0000   1.0000
     0.0000   0.0000   0.0000   0.0000

          k =-0.4000-0.1135 0.2457 (  1990 PWs)   bands (ev):

    -5.8907  -5.0213   2.4528   3.2989   6.0150   6.7582   7.3717   8.0948
    18.3375  19.1458  21.4725  22.3910

     occupation numbers 
     1.0000   1.0000   1.0000   1.0000   1.0000   1.0000   1.0000   1.0000
     0.0000   0.0000   0.0000   0.0000

          k = 0.5000 0.1713 0.1229 (  1979 PWs)   bands (ev):

    -5.3487  -3.9342   1.3033   2.9250   4.8271   5.8509   7.3553   8.0931
    18.1156  18.9830  21.5459  22.7610

     occupation numbers 
     1.0000   1.0000   1.0000   1.0000   1.0000   1.0000   1.0000   1.0000
     0.0000   0.0000   0.0000   0.0000

          k = 0.5000 0.1713 0.2457 (  1989 PWs)   bands (ev):

    -4.9139  -4.3575   1.1938   1.8342   5.9598   6.8653   7.0808   7.9960
    17.9427  18.6901  21.3755  21.8110

     occupation numbers 
     1.0000   1.0000   1.0000   1.0000   1.0000   1.0000   1.0000   1.0000
     0.0000   0.0000   0.0000   0.0000

          k = 0.5000 0.0539 0.1229 (  1980 PWs)   bands (ev):

    -5.5131  -3.7639   2.0465   3.2565   4.5267   5.1867   6.7085   7.8374
    18.0928  20.6849  21.7972  23.4680

     occupation numbers 
     1.0000   1.0000   1.0000   1.0000   1.0000   1.0000   1.0000   1.0000
     0.0000   0.0000   0.0000   0.0000

          k = 0.5000 0.0539 0.2457 (  1985 PWs)   bands (ev):

    -5.0267  -4.3577   2.0332   2.6253   4.7399   5.5860   7.0259   8.0912
    19.0422  19.7972  21.7799  22.3866

     occupation numbers 
     1.0000   1.0000   1.0000   1.0000   1.0000   1.0000   1.0000   1.0000
     0.0000   0.0000   0.0000   0.0000

          k = 0.5000-0.0635 0.1229 (  1989 PWs)   bands (ev):

    -5.4877  -3.7422   2.1135   3.2135   4.5283   5.1829   6.6397   7.8350
    18.0852  20.5786  21.6152  23.4223

     occupation numbers 
     1.0000   1.0000   1.0000   1.0000   1.0000   1.0000   1.0000   1.0000
     0.0000   0.0000   0.0000   0.0000

          k = 0.5000-0.0635 0.2457 (  1983 PWs)   bands (ev):

    -5.0022  -4.3346   2.0851   2.6529   4.6718   5.5147   7.0311   8.0938
    19.0633  19.7332  21.6841  22.3002

     occupation numbers 
     1.0000   1.0000   1.0000   1.0000   1.0000   1.0000   1.0000   1.0000
     0.0000   0.0000   0.0000   0.0000

          k = 0.5000-0.1809 0.1229 (  1979 PWs)   bands (ev):

    -5.2729  -3.8873   1.3665   2.9365   4.8542   5.7479   7.3305   7.9849
    18.0765  18.7147  21.4153  22.6282

     occupation numbers 
     1.0000   1.0000   1.0000   1.0000   1.0000   1.0000   1.0000   1.0000
     0.0000   0.0000   0.0000   0.0000

          k = 0.5000-0.1809 0.2457 (  1985 PWs)   bands (ev):

    -4.8437  -4.2981   1.2443   1.8665   5.8540   6.7785   7.0507   7.9895
    17.8990  18.5201  21.2703  21.7224

     occupation numbers 
     1.0000   1.0000   1.0000   1.0000   1.0000   1.0000   1.0000   1.0000
     0.0000   0.0000   0.0000   0.0000

     the Fermi energy is    10.8993 ev

!    total energy              =     -54.84791077 Ry
     estimated scf accuracy    <          4.4E-11 Ry
     smearing contrib. (-TS)   =       0.00029821 Ry
     internal energy E=F+TS    =     -54.84820898 Ry

     The total energy is F=E-TS. E is the sum of the following terms:
     one-electron contribution =       8.64085896 Ry
     hartree contribution      =       7.34451466 Ry
     xc contribution           =     -18.69656288 Ry
     ewald contribution        =     -52.13701972 Ry

     convergence has been achieved in  11 iterations

     Forces acting on atoms (cartesian axes, Ry/au):

     atom    1 type  1   force =    -0.00030272   -0.00095368    0.00047522
     atom    2 type  1   force =     0.00030259    0.00095326    0.00047544
     atom    3 type  2   force =    -0.00116224   -0.00244868   -0.00047546
     atom    4 type  2   force =     0.00116237    0.00244911   -0.00047520
     The non-local contrib.  to forces
     atom    1 type  1   force =    -0.00850715   -0.01479922   -0.00167970
     atom    2 type  1   force =     0.00850320    0.01479794   -0.00167974
     atom    3 type  2   force =     0.00879272    0.01450348   -0.00412807
     atom    4 type  2   force =    -0.00879634   -0.01450434   -0.00412765
     The ionic contribution  to forces
     atom    1 type  1   force =    -0.05327485   -0.09036769   -0.07928610
     atom    2 type  1   force =     0.05327485    0.09036769   -0.07928610
     atom    3 type  2   force =    -0.05778502   -0.09784461    0.07928610
     atom    4 type  2   force =     0.05778502    0.09784461    0.07928610
     The local contribution  to forces
     atom    1 type  1   force =     0.06095489    0.10330432    0.08137792
     atom    2 type  1   force =    -0.06095242   -0.10330342    0.08137764
     atom    3 type  2   force =     0.04780014    0.08082122   -0.07549282
     atom    4 type  2   force =    -0.04779832   -0.08082085   -0.07549276
     The core correction contribution to forces
     atom    1 type  1   force =     0.00052349    0.00090854    0.00001840
     atom    2 type  1   force =    -0.00052401   -0.00090938    0.00001876
     atom    3 type  2   force =     0.00002932    0.00007112   -0.00018581
     atom    4 type  2   force =    -0.00002918   -0.00007109   -0.00018584
     The Hubbard contrib.    to forces
     atom    1 type  1   force =     0.00000000    0.00000000    0.00000000
     atom    2 type  1   force =     0.00000000    0.00000000    0.00000000
     atom    3 type  2   force =     0.00000000    0.00000000    0.00000000
     atom    4 type  2   force =     0.00000000    0.00000000    0.00000000
     The SCF correction term to forces
     atom    1 type  1   force =    -0.00000003   -0.00000004   -0.00000017
     atom    2 type  1   force =     0.00000003    0.00000003    0.00000001
     atom    3 type  2   force =    -0.00000033   -0.00000030    0.00000027
     atom    4 type  2   force =     0.00000026    0.00000037    0.00000007

     Total force =     0.004195     Total SCF correction =     0.000001


     Computing stress (Cartesian axis) and pressure

          total   stress  (Ry/bohr**3)                   (kbar)     P=      -68.36
  -0.00104585  -0.00025030   0.00000000         -153.85      -36.82        0.00
  -0.00025030  -0.00017825   0.00000000          -36.82      -26.22        0.00
   0.00000000   0.00000000  -0.00016995            0.00        0.00      -25.00

     kinetic stress (kbar)  21845.99    -42.69     -0.00
                              -42.69  21991.51     -0.00
                               -0.00     -0.00  21922.16

     local   stress (kbar)   -703.86    111.45     -0.00
                              111.45  -1077.04     -0.00
                               -0.00     -0.00  -1627.57

     nonloc. stress (kbar)  -2770.29      7.41      0.00
                                7.41  -2795.92      0.00
                                0.00      0.00  -2767.65

     hartree stress (kbar)   2070.72    -33.10      0.00
                              -33.10   2177.99      0.00
                                0.00      0.00   2346.91

     exc-cor stress (kbar)  -1184.04     -0.24      0.00
                               -0.24  -1183.20      0.00
                                0.00      0.00  -1180.93

     corecor stress (kbar)  -3481.96      0.84      0.00
                                0.84  -3484.97      0.00
                                0.00      0.00  -3482.18

     ewald   stress (kbar) -15930.40    -80.50     -0.00
                              -80.50 -15654.59      0.00
                               -0.00      0.00 -15235.74

     hubbard stress (kbar)      0.00      0.00      0.00
                                0.00      0.00      0.00
                                0.00      0.00      0.00

     DFT-D   stress (kbar)      0.00      0.00      0.00
                                0.00      0.00      0.00
                                0.00      0.00      0.00

     XDM     stress (kbar)      0.00      0.00      0.00
                                0.00      0.00      0.00
                                0.00      0.00      0.00

     dft-nl  stress (kbar)      0.00      0.00      0.00
                                0.00      0.00      0.00
                                0.00      0.00      0.00

     TS-vdW  stress (kbar)      0.00      0.00      0.00
                                0.00      0.00      0.00
                                0.00      0.00      0.00



     init_run     :      0.50s CPU      2.08s WALL (       1 calls)
     electrons    :     12.95s CPU     14.09s WALL (       1 calls)
     forces       :      0.12s CPU      0.12s WALL (       1 calls)
     stress       :      0.30s CPU      0.30s WALL (       1 calls)

     Called by init_run:
     wfcinit      :      0.41s CPU      1.20s WALL (       1 calls)
     wfcinit:atom :      0.01s CPU      0.01s WALL (     252 calls)
     wfcinit:wfcr :      0.37s CPU      1.15s WALL (     252 calls)
     potinit      :      0.02s CPU      0.08s WALL (       1 calls)
     hinit0       :      0.05s CPU      0.49s WALL (       1 calls)

     Called by electrons:
     c_bands      :     11.39s CPU     12.26s WALL (      11 calls)
     sum_band     :      1.49s CPU      1.62s WALL (      11 calls)
     v_of_rho     :      0.04s CPU      0.07s WALL (      12 calls)
     v_h          :      0.00s CPU      0.00s WALL (      12 calls)
     v_xc         :      0.05s CPU      0.06s WALL (      14 calls)
     newd         :      0.02s CPU      0.20s WALL (      12 calls)
     mix_rho      :      0.01s CPU      0.07s WALL (      11 calls)

     Called by c_bands:
     init_us_2    :      0.25s CPU      0.27s WALL (    6300 calls)
     cegterg      :     10.94s CPU     11.79s WALL (    2772 calls)

     Called by sum_band:
     sum_band:wei :      0.01s CPU      0.01s WALL (      11 calls)
     sum_band:loo :      1.45s CPU      1.55s WALL (      11 calls)
     sum_band:buf :      0.03s CPU      0.03s WALL (    2772 calls)
     sum_band:ini :      0.09s CPU      0.10s WALL (    2772 calls)
     sum_band:cal :      0.09s CPU      0.10s WALL (    2772 calls)
     sum_band:bec :      0.01s CPU      0.01s WALL (    2772 calls)
     addusdens    :      0.02s CPU      0.05s WALL (      11 calls)
     addusd:skk   :      0.00s CPU      0.00s WALL (      11 calls)
     addusd:dgemm :      0.01s CPU      0.04s WALL (      11 calls)
     addusd:qvan2 :      0.01s CPU      0.01s WALL (      11 calls)

     Called by *egterg:
     cdiaghg      :      1.65s CPU      2.65s WALL (   12717 calls)
     cegterg:over :      0.42s CPU      0.48s WALL (    9945 calls)
     cegterg:upda :      0.11s CPU      0.12s WALL (    9945 calls)
     cegterg:last :      0.20s CPU      0.21s WALL (    7067 calls)
     h_psi        :      8.39s CPU      8.92s WALL (   12969 calls)
     s_psi        :      0.16s CPU      0.17s WALL (   12969 calls)
     g_psi        :      0.04s CPU      0.04s WALL (    9945 calls)

     Called by h_psi:
     h_psi:calbec :      0.40s CPU      0.47s WALL (   12969 calls)
     vloc_psi     :      7.74s CPU      8.16s WALL (   12969 calls)
     add_vuspsi   :      0.19s CPU      0.22s WALL (   12969 calls)

     General routines
     calbec       :      0.53s CPU      0.62s WALL (   17001 calls)
     fft          :      0.02s CPU      0.37s WALL (     179 calls)
     ffts         :      0.00s CPU      0.01s WALL (      23 calls)
     fftw         :      8.37s CPU      8.84s WALL (  239496 calls)
     interpolate  :      0.00s CPU      0.01s WALL (      12 calls)

     Parallel routines
     fft_scatt_xy :      0.80s CPU      0.85s WALL (  239698 calls)
     fft_scatt_yz :      2.46s CPU      2.60s WALL (  239698 calls)

     PWSCF        :     13.94s CPU     18.12s WALL


   This run was terminated on:  21:19:35  28Sep2022            

=------------------------------------------------------------------------------=
   JOB DONE.
=------------------------------------------------------------------------------=
Note: The following floating-point exceptions are signalling: IEEE_UNDERFLOW_FLAG IEEE_DENORMAL
