srun: error: NodeNames=master CPUs=16 match no Sockets, Sockets*CoresPerSocket or Sockets*CoresPerSocket*ThreadsPerCore. Resetting CPUs.

     Program PWSCF v.6.7MaX starts on 17Feb2023 at 14:50:21 

     This program is part of the open-source Quantum ESPRESSO suite
     for quantum simulation of materials; please cite
         "P. Giannozzi et al., J. Phys.:Condens. Matter 21 395502 (2009);
         "P. Giannozzi et al., J. Phys.:Condens. Matter 29 465901 (2017);
          URL http://www.quantum-espresso.org", 
     in publications or presentations arising from this work. More details at
     http://www.quantum-espresso.org/quote

     Parallel version (MPI), running on    16 processors

     MPI processes distributed on     1 nodes
     R & G space division:  proc/nbgrp/npool/nimage =      16
     Reading input from NaFePO4_olivine-00.in

     Current dimensions of program PWSCF are:
     Max number of different atomic species (ntypx) = 10
     Max number of k-points (npk) =  40000
     Max angular momentum in pseudopotentials (lmaxx) =  3
     Message from routine read_pp_mesh:
     mesh size missing, using the one in header
     file Fe.pbe-spn-kjpaw_psl.0.2.1.UPF: wavefunction(s)  3D renormalized
     file O.pbe-n-kjpaw_psl.0.1.UPF: wavefunction(s)  2P renormalized

     Subspace diagonalization in iterative solution of the eigenvalue problem:
     a serial algorithm will be used


     Parallelization info
     --------------------
     sticks:   dense  smooth     PW     G-vecs:    dense   smooth      PW
     Min        1241     460    123                80927    18242    2559
     Max        1242     462    124                80930    18243    2562
     Sum       19863    7371   1983              1294859   291873   40977



     bravais-lattice index     =            0
     lattice parameter (alat)  =      19.6651  a.u.
     unit-cell volume          =    2160.3578 (a.u.)^3
     number of atoms/cell      =           28
     number of atomic types    =            4
     number of electrons       =       216.00
     number of Kohn-Sham states=          130
     kinetic-energy cutoff     =     100.0000  Ry
     charge density cutoff     =    1080.0000  Ry
     scf convergence threshold =      2.0E-10
     mixing beta               =       0.4000
     number of iterations used =            8  plain     mixing
     energy convergence thresh.=      1.0E-05
     force convergence thresh. =      1.0E-04
     press convergence thresh. =      5.0E-01
     Exchange-correlation= PBE
                           (   1   4   3   4   0   0   0)
     nstep                     =         1000


     celldm(1)=  19.665057  celldm(2)=   0.000000  celldm(3)=   0.000000
     celldm(4)=   0.000000  celldm(5)=   0.000000  celldm(6)=   0.000000

     crystal axes: (cart. coord. in units of alat)
               a(1) = (   1.000000   0.000000   0.000000 )  
               a(2) = (   0.000000   0.597590   0.000000 )  
               a(3) = (   0.000000   0.000000   0.475375 )  

     reciprocal axes: (cart. coord. in units 2 pi/alat)
               b(1) = (  1.000000  0.000000  0.000000 )  
               b(2) = (  0.000000  1.673388  0.000000 )  
               b(3) = (  0.000000  0.000000  2.103600 )  


     PseudoPot. # 1 for Fe read from file:
     /opt/QEpot/SSSP_precision_pseudos/Fe.pbe-spn-kjpaw_psl.0.2.1.UPF
     MD5 check sum: e86618425769142926afa95317d90200
     Pseudo is Projector augmented-wave + core cor, Zval = 16.0
     Generated using "atomic" code by A. Dal Corso  v.5.0.99 svn rev. 10869
     Shape of augmentation charge: PSQ
     Using radial grid of 1191 points,  6 beta functions with: 
                l(1) =   0
                l(2) =   0
                l(3) =   1
                l(4) =   1
                l(5) =   2
                l(6) =   2
     Q(r) pseudized with 0 coefficients 


     PseudoPot. # 2 for Na read from file:
     /opt/QEpot/SSSP_precision_pseudos/Na_ONCV_PBE-1.0.oncvpsp.upf
     MD5 check sum: 24a298df0a6742ae313db96548fdb2a4
     Pseudo is Norm-conserving, Zval =  9.0
     Generated using ONCVPSP code by D. R. Hamann
     Using radial grid of 1992 points,  4 beta functions with: 
                l(1) =   0
                l(2) =   0
                l(3) =   1
                l(4) =   1

     PseudoPot. # 3 for O  read from file:
     /opt/QEpot/SSSP_precision_pseudos/O.pbe-n-kjpaw_psl.0.1.UPF
     MD5 check sum: 0234752ac141de4415c5fc33072bef88
     Pseudo is Projector augmented-wave + core cor, Zval =  6.0
     Generated using "atomic" code by A. Dal Corso  v.5.0.99 svn rev. 10869
     Shape of augmentation charge: BESSEL
     Using radial grid of 1095 points,  4 beta functions with: 
                l(1) =   0
                l(2) =   0
                l(3) =   1
                l(4) =   1
     Q(r) pseudized with 0 coefficients 


     PseudoPot. # 4 for P  read from file:
     /opt/QEpot/SSSP_precision_pseudos/P.pbe-n-rrkjus_psl.1.0.0.UPF
     MD5 check sum: 8b930f418f0a4573dca56cd030ffe088
     Pseudo is Ultrasoft + core correction, Zval =  5.0
     Generated using "atomic" code by A. Dal Corso  v.5.1
     Using radial grid of 1147 points,  6 beta functions with: 
                l(1) =   0
                l(2) =   0
                l(3) =   1
                l(4) =   1
                l(5) =   2
                l(6) =   2
     Q(r) pseudized with 0 coefficients 


     atomic species   valence    mass     pseudopotential
        Fe            16.00    55.84500     Fe( 1.00)
        Na             9.00    22.98977     Na( 1.00)
        O              6.00    15.99940     O ( 1.00)
        P              5.00    30.97376     P ( 1.00)

     Starting magnetic structure 
     atomic species   magnetization
        Fe           0.312
        Na           0.000
        O            0.000
        P            0.000

     No symmetry found



   Cartesian axes

     site n.     atom                  positions (alat units)
         1           Na  tau(   1) = (   0.0000000   0.0000000   0.0000000  )
         2           Na  tau(   2) = (   0.5000029   0.0000000   0.2376892  )
         3           Na  tau(   3) = (   0.0000000   0.2987964   0.0000000  )
         4           Na  tau(   4) = (   0.5000029   0.2987964   0.2376892  )
         5           Fe  tau(   5) = (   0.2870216   0.4481947   0.4689037  )
         6           Fe  tau(   6) = (   0.2129813   0.1493982   0.2312146  )
         7           Fe  tau(   7) = (   0.7129842   0.1493982   0.0064746  )
         8           Fe  tau(   8) = (   0.7870245   0.4481947   0.2441638  )
         9           P   tau(   9) = (   0.1083406   0.4481947   0.2104073  )
        10           P   tau(  10) = (   0.3916623   0.1493982   0.4480964  )
        11           P   tau(  11) = (   0.8916651   0.1493982   0.2649711  )
        12           P   tau(  12) = (   0.6083435   0.4481947   0.0272819  )
        13           O   tau(  13) = (   0.1140117   0.4481947   0.3576837  )
        14           O   tau(  14) = (   0.3859912   0.1493982   0.1199945  )
        15           O   tau(  15) = (   0.8859941   0.1493982   0.1176947  )
        16           O   tau(  16) = (   0.6140146   0.4481947   0.3553839  )
        17           O   tau(  17) = (   0.4685137   0.4481947   0.0765924  )
        18           O   tau(  18) = (   0.0314892   0.1493982   0.3142816  )
        19           O   tau(  19) = (   0.5314921   0.1493982   0.3987859  )
        20           O   tau(  20) = (   0.9685166   0.4481947   0.1610967  )
        21           O   tau(  21) = (   0.1755910   0.5644933   0.1482287  )
        22           O   tau(  22) = (   0.3244118   0.0330995   0.3859179  )
        23           O   tau(  23) = (   0.8244147   0.2656969   0.3271497  )
        24           O   tau(  24) = (   0.6755939   0.3318959   0.0894605  )
        25           O   tau(  25) = (   0.8244147   0.0330995   0.3271497  )
        26           O   tau(  26) = (   0.6755939   0.5644933   0.0894605  )
        27           O   tau(  27) = (   0.1755910   0.3318959   0.1482287  )
        28           O   tau(  28) = (   0.3244118   0.2656969   0.3859179  )

     number of k points=   158  Marzari-Vanderbilt smearing, width (Ry)=  0.0073

     Number of k-points >= 100: set verbosity='high' to print them.

     Dense  grid:  1294859 G-vectors     FFT dimensions: ( 216, 125, 100)

     Smooth grid:   291873 G-vectors     FFT dimensions: ( 125,  75,  60)

     Estimated max dynamical RAM per process >       1.80 GB

     Estimated total dynamical RAM >      28.73 GB

     Check: negative core charge=   -0.000003
     Generating pointlists ...
     new r_m :   0.0823 (alat units)  1.6191 (a.u.) for type    1
     new r_m :   0.0915 (alat units)  1.7987 (a.u.) for type    2
     new r_m :   0.0608 (alat units)  1.1955 (a.u.) for type    3
     new r_m :   0.0608 (alat units)  1.1955 (a.u.) for type    4

     Initial potential from superposition of free atoms

     starting charge  215.97252, renormalised to  216.00000
     Starting wfcs are  152 randomized atomic wfcs
     Checking if some PAW data can be deallocated... 

     total cpu time spent up to now is      139.4 secs

     Self-consistent Calculation

     iteration #  1     ecut=   100.00 Ry     beta= 0.40
     Davidson diagonalization with overlap
     ethr =  1.00E-02,  avg # of iterations =  3.4

     negative rho (up, down):  0.000E+00 1.775E-05

     total cpu time spent up to now is      426.1 secs

     total energy              =   -2380.66110223 Ry
     estimated scf accuracy    <       5.72143075 Ry

     total magnetization       =    16.00 Bohr mag/cell
     absolute magnetization    =    16.01 Bohr mag/cell

     iteration #  2     ecut=   100.00 Ry     beta= 0.40
     Davidson diagonalization with overlap
     ethr =  2.65E-03,  avg # of iterations =  2.0

     negative rho (up, down):  0.000E+00 1.159E-04

     total cpu time spent up to now is      679.7 secs

     total energy              =   -2381.59482157 Ry
     estimated scf accuracy    <       1.43545653 Ry

     total magnetization       =    16.00 Bohr mag/cell
     absolute magnetization    =    16.02 Bohr mag/cell

     iteration #  3     ecut=   100.00 Ry     beta= 0.40
     Davidson diagonalization with overlap
     ethr =  6.65E-04,  avg # of iterations =  8.5

     negative rho (up, down):  0.000E+00 1.111E-04

     total cpu time spent up to now is     1008.9 secs

     total energy              =   -2380.62486210 Ry
     estimated scf accuracy    <      67.17180729 Ry

     total magnetization       =     3.93 Bohr mag/cell
     absolute magnetization    =     5.43 Bohr mag/cell

     iteration #  4     ecut=   100.00 Ry     beta= 0.40
     Davidson diagonalization with overlap
     ethr =  6.65E-04,  avg # of iterations =  4.0

     negative rho (up, down):  0.000E+00 1.230E-04

     total cpu time spent up to now is     1258.5 secs

     total energy              =   -2381.95230168 Ry
     estimated scf accuracy    <       9.40590198 Ry

     total magnetization       =    16.00 Bohr mag/cell
     absolute magnetization    =    16.14 Bohr mag/cell

     iteration #  5     ecut=   100.00 Ry     beta= 0.40
     Davidson diagonalization with overlap
     ethr =  6.65E-04,  avg # of iterations =  2.0

     negative rho (up, down):  0.000E+00 2.310E-04

     total cpu time spent up to now is     1477.5 secs

     total energy              =   -2382.07426722 Ry
     estimated scf accuracy    <       3.54851054 Ry

     total magnetization       =    16.00 Bohr mag/cell
     absolute magnetization    =    16.10 Bohr mag/cell

     iteration #  6     ecut=   100.00 Ry     beta= 0.40
     Davidson diagonalization with overlap
     ethr =  6.65E-04,  avg # of iterations =  1.6

     negative rho (up, down):  0.000E+00 2.573E-04

     total cpu time spent up to now is     1683.7 secs

     total energy              =   -2382.07427471 Ry
     estimated scf accuracy    <       5.34559941 Ry

     total magnetization       =    16.00 Bohr mag/cell
     absolute magnetization    =    16.11 Bohr mag/cell

     iteration #  7     ecut=   100.00 Ry     beta= 0.40
     Davidson diagonalization with overlap
     ethr =  6.65E-04,  avg # of iterations =  1.0

     negative rho (up, down):  0.000E+00 3.853E-04

     total cpu time spent up to now is     1873.5 secs

     total energy              =   -2382.14201849 Ry
     estimated scf accuracy    <       2.35209662 Ry

     total magnetization       =    16.00 Bohr mag/cell
     absolute magnetization    =    16.07 Bohr mag/cell

     iteration #  8     ecut=   100.00 Ry     beta= 0.40
     Davidson diagonalization with overlap
     ethr =  6.65E-04,  avg # of iterations =  1.0

     negative rho (up, down):  0.000E+00 4.737E-04

     total cpu time spent up to now is     2063.0 secs

     total energy              =   -2382.17199160 Ry
     estimated scf accuracy    <       0.54895925 Ry

     total magnetization       =    16.00 Bohr mag/cell
     absolute magnetization    =    16.05 Bohr mag/cell

     iteration #  9     ecut=   100.00 Ry     beta= 0.40
     Davidson diagonalization with overlap
     ethr =  2.54E-04,  avg # of iterations =  1.2

     negative rho (up, down):  0.000E+00 5.210E-04

     total cpu time spent up to now is     2259.1 secs

     total energy              =   -2382.18109672 Ry
     estimated scf accuracy    <       0.18762762 Ry

     total magnetization       =    16.00 Bohr mag/cell
     absolute magnetization    =    16.06 Bohr mag/cell

     iteration # 10     ecut=   100.00 Ry     beta= 0.40
     Davidson diagonalization with overlap
     c_bands:  2 eigenvalues not converged
     ethr =  8.69E-05,  avg # of iterations =  9.9

     negative rho (up, down):  0.000E+00 5.017E-04

     total cpu time spent up to now is     2561.9 secs

     total energy              =   -2382.19226576 Ry
     estimated scf accuracy    <       0.27925153 Ry

     total magnetization       =    16.00 Bohr mag/cell
     absolute magnetization    =    16.07 Bohr mag/cell

     iteration # 11     ecut=   100.00 Ry     beta= 0.40
     Davidson diagonalization with overlap
     ethr =  8.69E-05,  avg # of iterations =  1.4

     negative rho (up, down):  0.000E+00 4.757E-04

     total cpu time spent up to now is     2762.6 secs

     total energy              =   -2382.19978980 Ry
     estimated scf accuracy    <       0.25432457 Ry

     total magnetization       =    16.00 Bohr mag/cell
     absolute magnetization    =    16.07 Bohr mag/cell

     iteration # 12     ecut=   100.00 Ry     beta= 0.40
     Davidson diagonalization with overlap
     ethr =  8.69E-05,  avg # of iterations =  1.7

     negative rho (up, down):  0.000E+00 5.364E-04

     total cpu time spent up to now is     2971.5 secs

     total energy              =   -2382.20650809 Ry
     estimated scf accuracy    <       0.08656212 Ry

     total magnetization       =    16.00 Bohr mag/cell
     absolute magnetization    =    16.07 Bohr mag/cell

     iteration # 13     ecut=   100.00 Ry     beta= 0.40
     Davidson diagonalization with overlap
     ethr =  4.01E-05,  avg # of iterations =  1.7

     negative rho (up, down):  0.000E+00 5.516E-04

     total cpu time spent up to now is     3180.5 secs

     total energy              =   -2382.20830252 Ry
     estimated scf accuracy    <       0.02690651 Ry

     total magnetization       =    16.00 Bohr mag/cell
     absolute magnetization    =    16.08 Bohr mag/cell

     iteration # 14     ecut=   100.00 Ry     beta= 0.40
     Davidson diagonalization with overlap
     c_bands:  1 eigenvalues not converged
     c_bands:  2 eigenvalues not converged
     c_bands:  1 eigenvalues not converged
     ethr =  1.25E-05,  avg # of iterations =  7.1

     negative rho (up, down):  0.000E+00 5.786E-04

     total cpu time spent up to now is     3449.4 secs

     total energy              =   -2382.20849297 Ry
     estimated scf accuracy    <       0.01347248 Ry

     total magnetization       =    16.00 Bohr mag/cell
     absolute magnetization    =    16.08 Bohr mag/cell

     iteration # 15     ecut=   100.00 Ry     beta= 0.40
     Davidson diagonalization with overlap
     c_bands:  1 eigenvalues not converged
     c_bands:  1 eigenvalues not converged
     ethr =  6.24E-06,  avg # of iterations =  2.7

     negative rho (up, down):  0.000E+00 5.815E-04

     total cpu time spent up to now is     3670.9 secs

     total energy              =   -2382.20969962 Ry
     estimated scf accuracy    <       0.01688772 Ry

     total magnetization       =    16.00 Bohr mag/cell
     absolute magnetization    =    16.08 Bohr mag/cell

     iteration # 16     ecut=   100.00 Ry     beta= 0.40
     Davidson diagonalization with overlap
     ethr =  6.24E-06,  avg # of iterations =  1.2

     negative rho (up, down):  0.000E+00 5.763E-04

     total cpu time spent up to now is     3865.2 secs

     total energy              =   -2382.20937758 Ry
     estimated scf accuracy    <       0.01173585 Ry

     total magnetization       =    16.00 Bohr mag/cell
     absolute magnetization    =    16.08 Bohr mag/cell

     iteration # 17     ecut=   100.00 Ry     beta= 0.40
     Davidson diagonalization with overlap
     c_bands:  1 eigenvalues not converged
     ethr =  5.43E-06,  avg # of iterations =  1.6

     negative rho (up, down):  0.000E+00 5.719E-04

     total cpu time spent up to now is     4066.5 secs

     total energy              =   -2382.20897121 Ry
     estimated scf accuracy    <       0.01367039 Ry

     total magnetization       =    16.00 Bohr mag/cell
     absolute magnetization    =    16.09 Bohr mag/cell

     iteration # 18     ecut=   100.00 Ry     beta= 0.40
     Davidson diagonalization with overlap
     ethr =  5.43E-06,  avg # of iterations =  1.1

     negative rho (up, down):  0.000E+00 5.698E-04

     total cpu time spent up to now is     4259.0 secs

     total energy              =   -2382.20919577 Ry
     estimated scf accuracy    <       0.01175416 Ry

     total magnetization       =    16.00 Bohr mag/cell
     absolute magnetization    =    16.08 Bohr mag/cell

     iteration # 19     ecut=   100.00 Ry     beta= 0.40
     Davidson diagonalization with overlap
     ethr =  5.43E-06,  avg # of iterations =  1.4

     negative rho (up, down):  0.000E+00 5.638E-04

     total cpu time spent up to now is     4459.7 secs

     total energy              =   -2382.20981224 Ry
     estimated scf accuracy    <       0.00961656 Ry

     total magnetization       =    16.00 Bohr mag/cell
     absolute magnetization    =    16.08 Bohr mag/cell

     iteration # 20     ecut=   100.00 Ry     beta= 0.40
     Davidson diagonalization with overlap
     ethr =  4.45E-06,  avg # of iterations =  1.0

     negative rho (up, down):  0.000E+00 5.685E-04

     total cpu time spent up to now is     4650.0 secs

     total energy              =   -2382.20983410 Ry
     estimated scf accuracy    <       0.01031911 Ry

     total magnetization       =    16.00 Bohr mag/cell
     absolute magnetization    =    16.08 Bohr mag/cell

     iteration # 21     ecut=   100.00 Ry     beta= 0.40
     Davidson diagonalization with overlap
     ethr =  4.45E-06,  avg # of iterations =  1.0

     negative rho (up, down):  0.000E+00 5.641E-04

     total cpu time spent up to now is     4840.1 secs

     total energy              =   -2382.20950872 Ry
     estimated scf accuracy    <       0.00896092 Ry

     total magnetization       =    16.00 Bohr mag/cell
     absolute magnetization    =    16.08 Bohr mag/cell

     iteration # 22     ecut=   100.00 Ry     beta= 0.40
     Davidson diagonalization with overlap
     ethr =  4.15E-06,  avg # of iterations =  1.0

     negative rho (up, down):  0.000E+00 5.618E-04

     total cpu time spent up to now is     5030.3 secs

     total energy              =   -2382.20995950 Ry
     estimated scf accuracy    <       0.01612341 Ry

     total magnetization       =    16.00 Bohr mag/cell
     absolute magnetization    =    16.08 Bohr mag/cell

     iteration # 23     ecut=   100.00 Ry     beta= 0.40
     Davidson diagonalization with overlap
     ethr =  4.15E-06,  avg # of iterations =  1.3

     negative rho (up, down):  0.000E+00 5.592E-04

     total cpu time spent up to now is     5230.4 secs

     total energy              =   -2382.21003844 Ry
     estimated scf accuracy    <       0.00734974 Ry

     total magnetization       =    16.00 Bohr mag/cell
     absolute magnetization    =    16.08 Bohr mag/cell

     iteration # 24     ecut=   100.00 Ry     beta= 0.40
     Davidson diagonalization with overlap
     ethr =  3.40E-06,  avg # of iterations =  1.0

     negative rho (up, down):  0.000E+00 5.588E-04

     total cpu time spent up to now is     5420.7 secs

     total energy              =   -2382.21021543 Ry
     estimated scf accuracy    <       0.00905349 Ry

     total magnetization       =    16.00 Bohr mag/cell
     absolute magnetization    =    16.08 Bohr mag/cell

     iteration # 25     ecut=   100.00 Ry     beta= 0.40
     Davidson diagonalization with overlap
     ethr =  3.40E-06,  avg # of iterations =  1.0

     negative rho (up, down):  0.000E+00 5.571E-04

     total cpu time spent up to now is     5610.6 secs

     total energy              =   -2382.21032281 Ry
     estimated scf accuracy    <       0.00541599 Ry

     total magnetization       =    16.00 Bohr mag/cell
     absolute magnetization    =    16.08 Bohr mag/cell

     iteration # 26     ecut=   100.00 Ry     beta= 0.40
     Davidson diagonalization with overlap
     ethr =  2.51E-06,  avg # of iterations =  1.2

     negative rho (up, down):  0.000E+00 5.569E-04

     total cpu time spent up to now is     5804.7 secs

     total energy              =   -2382.21061369 Ry
     estimated scf accuracy    <       0.00383191 Ry

     total magnetization       =    16.00 Bohr mag/cell
     absolute magnetization    =    16.08 Bohr mag/cell

     iteration # 27     ecut=   100.00 Ry     beta= 0.40
     Davidson diagonalization with overlap
     c_bands:  1 eigenvalues not converged
     c_bands:  2 eigenvalues not converged
     c_bands:  2 eigenvalues not converged
     c_bands:  1 eigenvalues not converged
     c_bands:  1 eigenvalues not converged
     c_bands:  1 eigenvalues not converged
     c_bands:  1 eigenvalues not converged
     c_bands:  1 eigenvalues not converged
     c_bands:  1 eigenvalues not converged
     c_bands:  1 eigenvalues not converged
     ethr =  1.77E-06,  avg # of iterations =  3.7

     negative rho (up, down):  0.000E+00 5.578E-04

     total cpu time spent up to now is     6031.4 secs

     total energy              =   -2382.21084111 Ry
     estimated scf accuracy    <       0.01413533 Ry

     total magnetization       =    16.00 Bohr mag/cell
     absolute magnetization    =    16.08 Bohr mag/cell

     iteration # 28     ecut=   100.00 Ry     beta= 0.40
     Davidson diagonalization with overlap
     ethr =  1.77E-06,  avg # of iterations =  1.3

     negative rho (up, down):  0.000E+00 5.573E-04

     total cpu time spent up to now is     6229.2 secs

     total energy              =   -2382.21051456 Ry
     estimated scf accuracy    <       0.02146627 Ry

     total magnetization       =    16.00 Bohr mag/cell
     absolute magnetization    =    16.08 Bohr mag/cell

     iteration # 29     ecut=   100.00 Ry     beta= 0.40
     Davidson diagonalization with overlap
     ethr =  1.77E-06,  avg # of iterations =  1.0

     negative rho (up, down):  0.000E+00 5.565E-04

     total cpu time spent up to now is     6419.1 secs

     total energy              =   -2382.21036552 Ry
     estimated scf accuracy    <       0.00929117 Ry

     total magnetization       =    16.00 Bohr mag/cell
     absolute magnetization    =    16.08 Bohr mag/cell

     iteration # 30     ecut=   100.00 Ry     beta= 0.40
     Davidson diagonalization with overlap
     ethr =  1.77E-06,  avg # of iterations =  1.0

     negative rho (up, down):  0.000E+00 5.560E-04

     total cpu time spent up to now is     6609.6 secs

     total energy              =   -2382.21011813 Ry
     estimated scf accuracy    <       0.00455756 Ry

     total magnetization       =    16.00 Bohr mag/cell
     absolute magnetization    =    16.08 Bohr mag/cell

     iteration # 31     ecut=   100.00 Ry     beta= 0.40
     Davidson diagonalization with overlap
     ethr =  1.77E-06,  avg # of iterations =  1.2

     negative rho (up, down):  0.000E+00 5.570E-04

     total cpu time spent up to now is     6804.1 secs

     total energy              =   -2382.20995603 Ry
     estimated scf accuracy    <       0.00316144 Ry

     total magnetization       =    16.00 Bohr mag/cell
     absolute magnetization    =    16.08 Bohr mag/cell

     iteration # 32     ecut=   100.00 Ry     beta= 0.40
     Davidson diagonalization with overlap
     ethr =  1.46E-06,  avg # of iterations =  1.1

     negative rho (up, down):  0.000E+00 5.574E-04

     total cpu time spent up to now is     6995.0 secs

     total energy              =   -2382.21080679 Ry
     estimated scf accuracy    <       0.00996038 Ry

     total magnetization       =    16.00 Bohr mag/cell
     absolute magnetization    =    16.08 Bohr mag/cell

     iteration # 33     ecut=   100.00 Ry     beta= 0.40
     Davidson diagonalization with overlap
     ethr =  1.46E-06,  avg # of iterations =  1.5

     negative rho (up, down):  0.000E+00 5.575E-04

     total cpu time spent up to now is     7200.1 secs

     total energy              =   -2382.21110913 Ry
     estimated scf accuracy    <       0.00517983 Ry

     total magnetization       =    16.00 Bohr mag/cell
     absolute magnetization    =    16.08 Bohr mag/cell

     iteration # 34     ecut=   100.00 Ry     beta= 0.40
     Davidson diagonalization with overlap
     c_bands:  1 eigenvalues not converged
     c_bands:  1 eigenvalues not converged
     c_bands:  2 eigenvalues not converged
     c_bands:  1 eigenvalues not converged
     ethr =  1.46E-06,  avg # of iterations =  3.9

     negative rho (up, down):  0.000E+00 5.573E-04

     total cpu time spent up to now is     7438.4 secs

     total energy              =   -2382.20977177 Ry
     estimated scf accuracy    <       0.10897285 Ry

     total magnetization       =    16.00 Bohr mag/cell
     absolute magnetization    =    16.07 Bohr mag/cell

     iteration # 35     ecut=   100.00 Ry     beta= 0.40
     Davidson diagonalization with overlap
     ethr =  1.46E-06,  avg # of iterations =  1.5

     negative rho (up, down):  0.000E+00 5.577E-04

     total cpu time spent up to now is     7641.9 secs

     total energy              =   -2382.21096670 Ry
     estimated scf accuracy    <       0.01128516 Ry

     total magnetization       =    16.00 Bohr mag/cell
     absolute magnetization    =    16.08 Bohr mag/cell

     iteration # 36     ecut=   100.00 Ry     beta= 0.40
     Davidson diagonalization with overlap
     ethr =  1.46E-06,  avg # of iterations =  1.0

     negative rho (up, down):  0.000E+00 5.580E-04

     total cpu time spent up to now is     7832.4 secs

     total energy              =   -2382.21077882 Ry
     estimated scf accuracy    <       0.02333574 Ry

     total magnetization       =    16.00 Bohr mag/cell
     absolute magnetization    =    16.08 Bohr mag/cell

     iteration # 37     ecut=   100.00 Ry     beta= 0.40
     Davidson diagonalization with overlap
     ethr =  1.46E-06,  avg # of iterations =  1.0

     negative rho (up, down):  0.000E+00 5.592E-04

     total cpu time spent up to now is     8022.1 secs

     total energy              =   -2382.21107208 Ry
     estimated scf accuracy    <       0.01344050 Ry

     total magnetization       =    16.00 Bohr mag/cell
     absolute magnetization    =    16.08 Bohr mag/cell

     iteration # 38     ecut=   100.00 Ry     beta= 0.40
     Davidson diagonalization with overlap
     ethr =  1.46E-06,  avg # of iterations =  1.0

     negative rho (up, down):  0.000E+00 5.597E-04

     total cpu time spent up to now is     8211.6 secs

     total energy              =   -2382.21091442 Ry
     estimated scf accuracy    <       0.02703895 Ry

     total magnetization       =    16.00 Bohr mag/cell
     absolute magnetization    =    16.08 Bohr mag/cell

     iteration # 39     ecut=   100.00 Ry     beta= 0.40
     Davidson diagonalization with overlap
     ethr =  1.46E-06,  avg # of iterations =  1.0

     negative rho (up, down):  0.000E+00 5.619E-04

     total cpu time spent up to now is     8401.8 secs

     total energy              =   -2382.21004411 Ry
     estimated scf accuracy    <       0.01752535 Ry

     total magnetization       =    16.00 Bohr mag/cell
     absolute magnetization    =    16.08 Bohr mag/cell

     iteration # 40     ecut=   100.00 Ry     beta= 0.40
     Davidson diagonalization with overlap
     ethr =  1.46E-06,  avg # of iterations =  1.5

     negative rho (up, down):  0.000E+00 5.598E-04

     total cpu time spent up to now is     8605.5 secs

     total energy              =   -2382.21047763 Ry
     estimated scf accuracy    <       0.00330285 Ry

     total magnetization       =    16.00 Bohr mag/cell
     absolute magnetization    =    16.08 Bohr mag/cell

     iteration # 41     ecut=   100.00 Ry     beta= 0.40
     Davidson diagonalization with overlap
     ethr =  1.46E-06,  avg # of iterations =  1.0

     negative rho (up, down):  0.000E+00 5.609E-04

     total cpu time spent up to now is     8794.5 secs

     total energy              =   -2382.21037844 Ry
     estimated scf accuracy    <       0.00434024 Ry

     total magnetization       =    16.00 Bohr mag/cell
     absolute magnetization    =    16.08 Bohr mag/cell

     iteration # 42     ecut=   100.00 Ry     beta= 0.40
     Davidson diagonalization with overlap
     ethr =  1.46E-06,  avg # of iterations =  1.0

     negative rho (up, down):  0.000E+00 5.617E-04

     total cpu time spent up to now is     8984.1 secs

     total energy              =   -2382.21031606 Ry
     estimated scf accuracy    <       0.00293230 Ry

     total magnetization       =    16.00 Bohr mag/cell
     absolute magnetization    =    16.08 Bohr mag/cell

     iteration # 43     ecut=   100.00 Ry     beta= 0.40
     Davidson diagonalization with overlap
     ethr =  1.36E-06,  avg # of iterations =  1.0

     negative rho (up, down):  0.000E+00 5.626E-04

     total cpu time spent up to now is     9173.5 secs

     total energy              =   -2382.21002580 Ry
     estimated scf accuracy    <       0.00260242 Ry

     total magnetization       =    16.00 Bohr mag/cell
     absolute magnetization    =    16.08 Bohr mag/cell

     iteration # 44     ecut=   100.00 Ry     beta= 0.40
     Davidson diagonalization with overlap
     ethr =  1.20E-06,  avg # of iterations =  1.2

     negative rho (up, down):  0.000E+00 5.652E-04

     total cpu time spent up to now is     9366.4 secs

     total energy              =   -2382.20943031 Ry
     estimated scf accuracy    <       0.00788275 Ry

     total magnetization       =    16.00 Bohr mag/cell
     absolute magnetization    =    16.08 Bohr mag/cell

     iteration # 45     ecut=   100.00 Ry     beta= 0.40
     Davidson diagonalization with overlap
     c_bands:  1 eigenvalues not converged
     ethr =  1.20E-06,  avg # of iterations =  2.1

     negative rho (up, down):  0.000E+00 5.644E-04

     total cpu time spent up to now is     9576.8 secs

     total energy              =   -2382.20965172 Ry
     estimated scf accuracy    <       0.01231796 Ry

     total magnetization       =    16.00 Bohr mag/cell
     absolute magnetization    =    16.08 Bohr mag/cell

     iteration # 46     ecut=   100.00 Ry     beta= 0.40
     Davidson diagonalization with overlap
     ethr =  1.20E-06,  avg # of iterations =  1.0

     negative rho (up, down):  0.000E+00 5.633E-04

     total cpu time spent up to now is     9766.3 secs

     total energy              =   -2382.20929300 Ry
     estimated scf accuracy    <       0.01444480 Ry

     total magnetization       =    16.00 Bohr mag/cell
     absolute magnetization    =    16.08 Bohr mag/cell

     iteration # 47     ecut=   100.00 Ry     beta= 0.40
     Davidson diagonalization with overlap
     ethr =  1.20E-06,  avg # of iterations =  1.1

     negative rho (up, down):  0.000E+00 5.623E-04

     total cpu time spent up to now is     9957.3 secs

     total energy              =   -2382.20905234 Ry
     estimated scf accuracy    <       0.00923934 Ry

     total magnetization       =    16.00 Bohr mag/cell
     absolute magnetization    =    16.08 Bohr mag/cell

     iteration # 48     ecut=   100.00 Ry     beta= 0.40
     Davidson diagonalization with overlap
     ethr =  1.20E-06,  avg # of iterations =  1.2

     negative rho (up, down):  0.000E+00 5.600E-04

     total cpu time spent up to now is    10151.0 secs

     total energy              =   -2382.20921348 Ry
     estimated scf accuracy    <       0.00048072 Ry

     total magnetization       =    16.00 Bohr mag/cell
     absolute magnetization    =    16.08 Bohr mag/cell

     iteration # 49     ecut=   100.00 Ry     beta= 0.40
     Davidson diagonalization with overlap
     ethr =  2.23E-07,  avg # of iterations =  2.4

     negative rho (up, down):  0.000E+00 5.607E-04

     total cpu time spent up to now is    10383.0 secs

     total energy              =   -2382.20954882 Ry
     estimated scf accuracy    <       0.00859315 Ry

     total magnetization       =    16.00 Bohr mag/cell
     absolute magnetization    =    16.08 Bohr mag/cell

     iteration # 50     ecut=   100.00 Ry     beta= 0.40
     Davidson diagonalization with overlap
     ethr =  2.23E-07,  avg # of iterations =  1.5

     negative rho (up, down):  0.000E+00 5.604E-04

     total cpu time spent up to now is    10587.7 secs

     total energy              =   -2382.20938438 Ry
     estimated scf accuracy    <       0.01428030 Ry

     total magnetization       =    16.00 Bohr mag/cell
     absolute magnetization    =    16.08 Bohr mag/cell

     iteration # 51     ecut=   100.00 Ry     beta= 0.40
     Davidson diagonalization with overlap
     ethr =  2.23E-07,  avg # of iterations =  1.0

     negative rho (up, down):  0.000E+00 5.602E-04

     total cpu time spent up to now is    10777.0 secs

     total energy              =   -2382.20827376 Ry
     estimated scf accuracy    <       0.01302703 Ry

     total magnetization       =    16.00 Bohr mag/cell
     absolute magnetization    =    16.08 Bohr mag/cell

     iteration # 52     ecut=   100.00 Ry     beta= 0.40
     Davidson diagonalization with overlap
     c_bands:  1 eigenvalues not converged
     c_bands:  1 eigenvalues not converged
     c_bands:  1 eigenvalues not converged
     c_bands:  1 eigenvalues not converged
     c_bands:  1 eigenvalues not converged
     c_bands:  1 eigenvalues not converged
     c_bands:  1 eigenvalues not converged
     c_bands:  1 eigenvalues not converged
     c_bands:  1 eigenvalues not converged
     c_bands:  1 eigenvalues not converged
     c_bands:  1 eigenvalues not converged
     c_bands:  1 eigenvalues not converged
     ethr =  2.23E-07,  avg # of iterations =  6.9

     negative rho (up, down):  0.000E+00 5.604E-04

     total cpu time spent up to now is    11055.0 secs

     total energy              =   -2382.20971958 Ry
     estimated scf accuracy    <       0.01547016 Ry

     total magnetization       =    16.00 Bohr mag/cell
     absolute magnetization    =    16.08 Bohr mag/cell

     iteration # 53     ecut=   100.00 Ry     beta= 0.40
     Davidson diagonalization with overlap
     ethr =  2.23E-07,  avg # of iterations =  1.0

     negative rho (up, down):  0.000E+00 5.604E-04

     total cpu time spent up to now is    11244.9 secs

     total energy              =   -2382.20937500 Ry
     estimated scf accuracy    <       0.01478566 Ry

     total magnetization       =    16.00 Bohr mag/cell
     absolute magnetization    =    16.08 Bohr mag/cell

     iteration # 54     ecut=   100.00 Ry     beta= 0.40
     Davidson diagonalization with overlap
     ethr =  2.23E-07,  avg # of iterations =  1.0

     negative rho (up, down):  0.000E+00 5.609E-04

     total cpu time spent up to now is    11434.7 secs

     total energy              =   -2382.20894975 Ry
     estimated scf accuracy    <       0.01191259 Ry

     total magnetization       =    16.00 Bohr mag/cell
     absolute magnetization    =    16.08 Bohr mag/cell

     iteration # 55     ecut=   100.00 Ry     beta= 0.40
     Davidson diagonalization with overlap
     ethr =  2.23E-07,  avg # of iterations =  1.6

     negative rho (up, down):  0.000E+00 5.613E-04

     total cpu time spent up to now is    11643.2 secs

     total energy              =   -2382.20913653 Ry
     estimated scf accuracy    <       0.00003794 Ry

     total magnetization       =    16.00 Bohr mag/cell
     absolute magnetization    =    16.08 Bohr mag/cell

     iteration # 56     ecut=   100.00 Ry     beta= 0.40
     Davidson diagonalization with overlap
     ethr =  1.76E-08,  avg # of iterations =  2.0

     negative rho (up, down):  0.000E+00 5.613E-04

     total cpu time spent up to now is    11874.1 secs

     total energy              =   -2382.20914502 Ry
     estimated scf accuracy    <       0.00755404 Ry

     total magnetization       =    16.00 Bohr mag/cell
     absolute magnetization    =    16.08 Bohr mag/cell

     iteration # 57     ecut=   100.00 Ry     beta= 0.40
     Davidson diagonalization with overlap
     ethr =  1.76E-08,  avg # of iterations =  2.0

     negative rho (up, down):  0.000E+00 5.615E-04

     total cpu time spent up to now is    12094.2 secs

     total energy              =   -2382.20914282 Ry
     estimated scf accuracy    <       0.00167535 Ry

     total magnetization       =    16.00 Bohr mag/cell
     absolute magnetization    =    16.08 Bohr mag/cell

     iteration # 58     ecut=   100.00 Ry     beta= 0.40
     Davidson diagonalization with overlap
     ethr =  1.76E-08,  avg # of iterations =  2.0

     negative rho (up, down):  0.000E+00 5.615E-04

     total cpu time spent up to now is    12315.6 secs

     total energy              =   -2382.20915990 Ry
     estimated scf accuracy    <       0.00014923 Ry

     total magnetization       =    16.00 Bohr mag/cell
     absolute magnetization    =    16.08 Bohr mag/cell

     iteration # 59     ecut=   100.00 Ry     beta= 0.40
     Davidson diagonalization with overlap
     ethr =  1.76E-08,  avg # of iterations =  1.0

     negative rho (up, down):  0.000E+00 5.615E-04

     total cpu time spent up to now is    12505.2 secs

     total energy              =   -2382.20916070 Ry
     estimated scf accuracy    <       0.00005823 Ry

     total magnetization       =    16.00 Bohr mag/cell
     absolute magnetization    =    16.08 Bohr mag/cell

     iteration # 60     ecut=   100.00 Ry     beta= 0.40
     Davidson diagonalization with overlap
     ethr =  1.76E-08,  avg # of iterations =  1.0

     negative rho (up, down):  0.000E+00 5.616E-04

     total cpu time spent up to now is    12695.4 secs

     total energy              =   -2382.20916264 Ry
     estimated scf accuracy    <       0.00000058 Ry

     total magnetization       =    16.00 Bohr mag/cell
     absolute magnetization    =    16.08 Bohr mag/cell

     iteration # 61     ecut=   100.00 Ry     beta= 0.40
     Davidson diagonalization with overlap
     ethr =  2.68E-10,  avg # of iterations =  4.2

     negative rho (up, down):  0.000E+00 5.617E-04

     total cpu time spent up to now is    12950.1 secs

     total energy              =   -2382.20916286 Ry
     estimated scf accuracy    <       0.00000278 Ry

     total magnetization       =    16.00 Bohr mag/cell
     absolute magnetization    =    16.08 Bohr mag/cell

     iteration # 62     ecut=   100.00 Ry     beta= 0.40
     Davidson diagonalization with overlap
     ethr =  2.68E-10,  avg # of iterations =  2.0

     negative rho (up, down):  0.000E+00 5.618E-04

     total cpu time spent up to now is    13176.6 secs

     total energy              =   -2382.20916334 Ry
     estimated scf accuracy    <       0.00000085 Ry

     total magnetization       =    16.00 Bohr mag/cell
     absolute magnetization    =    16.08 Bohr mag/cell

     iteration # 63     ecut=   100.00 Ry     beta= 0.40
     Davidson diagonalization with overlap
     ethr =  2.68E-10,  avg # of iterations =  1.8

     negative rho (up, down):  0.000E+00 5.618E-04

     total cpu time spent up to now is    13390.7 secs

     total energy              =   -2382.20916346 Ry
     estimated scf accuracy    <       0.00000008 Ry

     total magnetization       =    16.00 Bohr mag/cell
     absolute magnetization    =    16.08 Bohr mag/cell

     iteration # 64     ecut=   100.00 Ry     beta= 0.40
     Davidson diagonalization with overlap
     ethr =  3.49E-11,  avg # of iterations =  3.6

     negative rho (up, down):  0.000E+00 5.618E-04

     total cpu time spent up to now is    13629.2 secs

     total energy              =   -2382.20916349 Ry
     estimated scf accuracy    <       0.00000043 Ry

     total magnetization       =    16.00 Bohr mag/cell
     absolute magnetization    =    16.08 Bohr mag/cell

     iteration # 65     ecut=   100.00 Ry     beta= 0.40
     Davidson diagonalization with overlap
     ethr =  3.49E-11,  avg # of iterations =  2.0

     negative rho (up, down):  0.000E+00 5.618E-04

     total cpu time spent up to now is    13853.8 secs

     total energy              =   -2382.20916353 Ry
     estimated scf accuracy    <       0.00000012 Ry

     total magnetization       =    16.00 Bohr mag/cell
     absolute magnetization    =    16.08 Bohr mag/cell

     iteration # 66     ecut=   100.00 Ry     beta= 0.40
     Davidson diagonalization with overlap
     ethr =  3.49E-11,  avg # of iterations =  2.0

     negative rho (up, down):  0.000E+00 5.618E-04

     total cpu time spent up to now is    14078.7 secs

     total energy              =   -2382.20916353 Ry
     estimated scf accuracy    <       0.00000002 Ry

     total magnetization       =    16.00 Bohr mag/cell
     absolute magnetization    =    16.08 Bohr mag/cell

     iteration # 67     ecut=   100.00 Ry     beta= 0.40
     Davidson diagonalization with overlap
     ethr =  9.03E-12,  avg # of iterations =  4.4

     negative rho (up, down):  0.000E+00 5.618E-04

     total cpu time spent up to now is    14362.0 secs

     total energy              =   -2382.20916355 Ry
     estimated scf accuracy    <       0.00000004 Ry

     total magnetization       =    16.00 Bohr mag/cell
     absolute magnetization    =    16.08 Bohr mag/cell

     iteration # 68     ecut=   100.00 Ry     beta= 0.40
     Davidson diagonalization with overlap
     ethr =  9.03E-12,  avg # of iterations =  3.0

     negative rho (up, down):  0.000E+00 5.618E-04

     total cpu time spent up to now is    14622.9 secs

     total energy              =   -2382.20916360 Ry
     estimated scf accuracy    <       0.00000004 Ry

     total magnetization       =    16.00 Bohr mag/cell
     absolute magnetization    =    16.08 Bohr mag/cell

     iteration # 69     ecut=   100.00 Ry     beta= 0.40
     Davidson diagonalization with overlap
     ethr =  9.03E-12,  avg # of iterations =  2.0

     negative rho (up, down):  0.000E+00 5.618E-04

     total cpu time spent up to now is    14855.6 secs

     total energy              =   -2382.20916361 Ry
     estimated scf accuracy    <       0.00000002 Ry

     total magnetization       =    16.00 Bohr mag/cell
     absolute magnetization    =    16.08 Bohr mag/cell

     iteration # 70     ecut=   100.00 Ry     beta= 0.40
     Davidson diagonalization with overlap
     ethr =  7.22E-12,  avg # of iterations =  2.5

     negative rho (up, down):  0.000E+00 5.618E-04

     total cpu time spent up to now is    15093.2 secs

     total energy              =   -2382.20916363 Ry
     estimated scf accuracy    <          6.0E-10 Ry

     total magnetization       =    16.00 Bohr mag/cell
     absolute magnetization    =    16.08 Bohr mag/cell

     iteration # 71     ecut=   100.00 Ry     beta= 0.40
     Davidson diagonalization with overlap
     ethr =  2.78E-13,  avg # of iterations =  4.6

     negative rho (up, down):  0.000E+00 5.618E-04

     total cpu time spent up to now is    15413.4 secs

     total energy              =   -2382.20916363 Ry
     estimated scf accuracy    <          3.5E-10 Ry

     total magnetization       =    16.00 Bohr mag/cell
     absolute magnetization    =    16.08 Bohr mag/cell

     iteration # 72     ecut=   100.00 Ry     beta= 0.40
     Davidson diagonalization with overlap
     ethr =  1.63E-13,  avg # of iterations =  2.1

     negative rho (up, down):  0.000E+00 5.618E-04

     total cpu time spent up to now is    15656.1 secs

     total energy              =   -2382.20916364 Ry
     estimated scf accuracy    <          3.8E-10 Ry

     total magnetization       =    16.00 Bohr mag/cell
     absolute magnetization    =    16.08 Bohr mag/cell

     iteration # 73     ecut=   100.00 Ry     beta= 0.40
     Davidson diagonalization with overlap
     ethr =  1.63E-13,  avg # of iterations =  2.0

     negative rho (up, down):  0.000E+00 5.618E-04

     total cpu time spent up to now is    15884.3 secs

     total energy              =   -2382.20916364 Ry
     estimated scf accuracy    <          8.5E-10 Ry

     total magnetization       =    16.00 Bohr mag/cell
     absolute magnetization    =    16.08 Bohr mag/cell

     iteration # 74     ecut=   100.00 Ry     beta= 0.40
     Davidson diagonalization with overlap
     ethr =  1.63E-13,  avg # of iterations =  2.5

     negative rho (up, down):  0.000E+00 5.618E-04

     total cpu time spent up to now is    16122.3 secs

     total energy              =   -2382.20916364 Ry
     estimated scf accuracy    <          2.3E-10 Ry

     total magnetization       =    16.00 Bohr mag/cell
     absolute magnetization    =    16.08 Bohr mag/cell

     iteration # 75     ecut=   100.00 Ry     beta= 0.40
     Davidson diagonalization with overlap
     ethr =  1.08E-13,  avg # of iterations =  3.0

     negative rho (up, down):  0.000E+00 5.618E-04

     Magnetic moment per site:
     atom:    1    charge:    7.9641    magn:    0.0001    constr:    0.0000
     atom:    2    charge:    7.9641    magn:    0.0001    constr:    0.0000
     atom:    3    charge:    7.9641    magn:    0.0001    constr:    0.0000
     atom:    4    charge:    7.9641    magn:    0.0001    constr:    0.0000
     atom:    5    charge:   13.3610    magn:    3.3581    constr:    0.0000
     atom:    6    charge:   13.3610    magn:    3.3581    constr:    0.0000
     atom:    7    charge:   13.3610    magn:    3.3581    constr:    0.0000
     atom:    8    charge:   13.3610    magn:    3.3581    constr:    0.0000
     atom:    9    charge:    0.8682    magn:    0.0062    constr:    0.0000
     atom:   10    charge:    0.8682    magn:    0.0062    constr:    0.0000
     atom:   11    charge:    0.8682    magn:    0.0062    constr:    0.0000
     atom:   12    charge:    0.8682    magn:    0.0062    constr:    0.0000
     atom:   13    charge:    4.2657    magn:    0.0309    constr:    0.0000
     atom:   14    charge:    4.2657    magn:    0.0309    constr:    0.0000
     atom:   15    charge:    4.2657    magn:    0.0309    constr:    0.0000
     atom:   16    charge:    4.2657    magn:    0.0309    constr:    0.0000
     atom:   17    charge:    4.2701    magn:    0.0430    constr:    0.0000
     atom:   18    charge:    4.2701    magn:    0.0430    constr:    0.0000
     atom:   19    charge:    4.2701    magn:    0.0430    constr:    0.0000
     atom:   20    charge:    4.2701    magn:    0.0430    constr:    0.0000
     atom:   21    charge:    4.2618    magn:    0.0731    constr:    0.0000
     atom:   22    charge:    4.2618    magn:    0.0731    constr:    0.0000
     atom:   23    charge:    4.2618    magn:    0.0731    constr:    0.0000
     atom:   24    charge:    4.2618    magn:    0.0731    constr:    0.0000
     atom:   25    charge:    4.2618    magn:    0.0731    constr:    0.0000
     atom:   26    charge:    4.2618    magn:    0.0731    constr:    0.0000
     atom:   27    charge:    4.2618    magn:    0.0731    constr:    0.0000
     atom:   28    charge:    4.2618    magn:    0.0731    constr:    0.0000

     total cpu time spent up to now is    16375.6 secs

     End of self-consistent calculation

     Number of k-points >= 100: set verbosity='high' to print the bands.

     the Fermi energy is     8.7137 ev

!    total energy              =   -2382.20916364 Ry
     estimated scf accuracy    <          1.9E-10 Ry
     smearing contrib. (-TS)   =       0.00263856 Ry
     internal energy E=F+TS    =   -2382.21180220 Ry

     The total energy is F=E-TS. E is the sum of the following terms:
     one-electron contribution =   -1072.61194966 Ry
     hartree contribution      =     640.73736090 Ry
     xc contribution           =    -329.55491669 Ry
     ewald contribution        =   -1164.11367000 Ry
     one-center paw contrib.   =    -456.66862676 Ry

     total magnetization       =    16.00 Bohr mag/cell
     absolute magnetization    =    16.08 Bohr mag/cell

     convergence has been achieved in  75 iterations

     negative rho (up, down):  0.000E+00 5.618E-04

     Forces acting on atoms (cartesian axes, Ry/au):

     atom    1 type  2   force =     0.00000290    0.00000038    0.00000319
     atom    2 type  2   force =    -0.00000130    0.00000324    0.00000120
     atom    3 type  2   force =     0.00000406    0.00000223    0.00000402
     atom    4 type  2   force =    -0.00000014   -0.00000063    0.00000037
     atom    5 type  1   force =     0.00412747   -0.00000642   -0.00428715
     atom    6 type  1   force =    -0.00412715    0.00000629   -0.00428540
     atom    7 type  1   force =    -0.00412992    0.00000633    0.00428368
     atom    8 type  1   force =     0.00412605   -0.00000649    0.00428114
     atom    9 type  4   force =    -0.02097802   -0.00000416    0.02332959
     atom   10 type  4   force =     0.02105018    0.00000202    0.02326609
     atom   11 type  4   force =     0.02098058    0.00000201   -0.02333407
     atom   12 type  4   force =    -0.02105223   -0.00000423   -0.02326564
     atom   13 type  3   force =    -0.00045374   -0.00000132    0.01852631
     atom   14 type  3   force =     0.00045474    0.00000030    0.01857656
     atom   15 type  3   force =     0.00045106    0.00000031   -0.01852275
     atom   16 type  3   force =    -0.00045350   -0.00000130   -0.01857271
     atom   17 type  3   force =    -0.03920233   -0.00000111    0.00219644
     atom   18 type  3   force =     0.03929000    0.00000014    0.00221331
     atom   19 type  3   force =     0.03920333    0.00000012   -0.00219644
     atom   20 type  3   force =    -0.03929134   -0.00000119   -0.00221396
     atom   21 type  3   force =     0.03224456    0.05292795   -0.01600227
     atom   22 type  3   force =    -0.03223551   -0.05292322   -0.01600830
     atom   23 type  3   force =    -0.03224728    0.05292810    0.01600071
     atom   24 type  3   force =     0.03223783   -0.05292318    0.01600658
     atom   25 type  3   force =    -0.03224620   -0.05292608    0.01600106
     atom   26 type  3   force =     0.03223789    0.05292306    0.01600776
     atom   27 type  3   force =     0.03224465   -0.05292804   -0.01600136
     atom   28 type  3   force =    -0.03223664    0.05292488   -0.01600797

     Total force =     0.210740     Total SCF correction =     0.000039


     Computing stress (Cartesian axis) and pressure


     negative rho (up, down):  0.000E+00 5.618E-04
          total   stress  (Ry/bohr**3)                   (kbar)     P=       68.52
   0.00047158   0.00000000   0.00000005           69.37        0.00        0.01
   0.00000000   0.00055550   0.00000000            0.00       81.72        0.00
   0.00000005   0.00000000   0.00037034            0.01        0.00       54.48


     BFGS Geometry Optimization
     Energy error            =      0.0E+00
     Gradient error          =      5.3E-02
     Cell gradient error     =      5.6E-04


     number of scf cycles    =   1
     number of bfgs steps    =   0

     enthalpy new            =   -2382.2091636378 Ry

     new trust radius        =       0.1290976973 bohr
     new conv_thr            =       0.0000000002 Ry

     new unit-cell volume =   2236.70179 a.u.^3 (   331.44501 Ang^3 )
     density =      3.48307 g/cm^3

CELL_PARAMETERS (angstrom)
  10.528985899   0.000000483   0.000013683
   0.000000288   6.305062513   0.000000073
   0.000006505   0.000000058   4.992700826

ATOMIC_POSITIONS (angstrom)
Na            0.0000015546        0.0000002017        0.0000017054
Na            5.2645258606        0.0000020111        2.4963730324
Na            0.0000023193        3.1525476616        0.0000021827
Na            5.2645266225        3.1525463968        2.4963726252
Fe            3.0242630499        4.7288169567        4.9224446153
Fe            2.2402702911        1.5762772463        2.4260789401
Fe            7.5047890399        1.5762774786        0.0702983924
Fe            8.2887825229        4.7288171308        2.5666636461
P             1.1294880109        4.7288180487        2.2222943387
P             4.1350832581        1.5762750656        4.7186298450
P             9.3995667618        1.5762752817        2.7704481299
P             6.3939690433        4.7288182305        0.2741152555
O             1.2001898131        4.7288195941        3.7665217000
O             4.0643408746        1.5762741020        1.2701866746
O             9.3288621531        1.5762743450        1.2262250610
O             6.4647131860        4.7288198478        3.7225602445
O             4.9119857366        4.7288198429        0.8056029295
O             0.3525901490        1.5762738711        3.3019715285
O             5.6170681978        1.5762741106        4.1871419317
O            10.1764625337        4.7288200538        1.6907729829
O             1.8660620890        5.9842637953        1.5482493877
O             3.3984736340        0.3208319770        4.0446136470
O             8.6629899681        2.8317177446        3.4444946683
O             7.1305808895        3.4733786022        0.9481302686
O             8.6629904313        0.3208306807        3.4444948244
O             7.1305810364        5.9842614059        0.9481309264
O             1.8660620217        3.4733757599        1.5482498452
O             3.3984731480        2.8317157813        4.0446138536



     Writing output data file ./pwscf.save/
     NEW-OLD atomic charge density approx. for the potential

     Check: negative core charge=   -0.000003

     negative rho (up, down):  0.000E+00 5.049E-04
     extrapolated charge  223.37166, renormalised to  216.00000
     Generating pointlists ...

     total cpu time spent up to now is    17040.4 secs

     Self-consistent Calculation

     iteration #  1     ecut=   100.00 Ry     beta= 0.40
     Davidson diagonalization with overlap
     c_bands:  1 eigenvalues not converged
     c_bands:  3 eigenvalues not converged
     c_bands:  3 eigenvalues not converged
     c_bands:  3 eigenvalues not converged
     c_bands:  3 eigenvalues not converged
     c_bands:  1 eigenvalues not converged
     c_bands:  3 eigenvalues not converged
     c_bands:  4 eigenvalues not converged
     c_bands:  3 eigenvalues not converged
     c_bands:  5 eigenvalues not converged
     c_bands:  5 eigenvalues not converged
     c_bands:  3 eigenvalues not converged
     c_bands:  4 eigenvalues not converged
     c_bands:  3 eigenvalues not converged
     c_bands:  1 eigenvalues not converged
     c_bands:  2 eigenvalues not converged
     c_bands:  4 eigenvalues not converged
     c_bands:  3 eigenvalues not converged
     c_bands:  5 eigenvalues not converged
     c_bands:  5 eigenvalues not converged
     c_bands:  3 eigenvalues not converged
     c_bands:  4 eigenvalues not converged
     c_bands:  2 eigenvalues not converged
     c_bands:  1 eigenvalues not converged
     c_bands:  1 eigenvalues not converged
     c_bands:  1 eigenvalues not converged
     c_bands:  2 eigenvalues not converged
     c_bands:  2 eigenvalues not converged
     c_bands:  1 eigenvalues not converged
     c_bands:  1 eigenvalues not converged
     c_bands:  2 eigenvalues not converged
     c_bands:  2 eigenvalues not converged
     c_bands:  1 eigenvalues not converged
     c_bands:  1 eigenvalues not converged
     c_bands:  3 eigenvalues not converged
     c_bands:  3 eigenvalues not converged
     c_bands:  5 eigenvalues not converged
     c_bands:  5 eigenvalues not converged
     c_bands:  3 eigenvalues not converged
     c_bands:  3 eigenvalues not converged
     c_bands:  1 eigenvalues not converged
     c_bands:  1 eigenvalues not converged
     c_bands:  2 eigenvalues not converged
     c_bands:  4 eigenvalues not converged
     c_bands:  5 eigenvalues not converged
     c_bands:  5 eigenvalues not converged
     c_bands:  4 eigenvalues not converged
     c_bands:  2 eigenvalues not converged
     c_bands:  1 eigenvalues not converged
     c_bands:  2 eigenvalues not converged
     c_bands:  4 eigenvalues not converged
     c_bands:  5 eigenvalues not converged
     c_bands:  5 eigenvalues not converged
     c_bands:  4 eigenvalues not converged
     c_bands:  2 eigenvalues not converged
     c_bands:  1 eigenvalues not converged
     c_bands:  1 eigenvalues not converged
     c_bands:  3 eigenvalues not converged
     c_bands:  3 eigenvalues not converged
     c_bands:  5 eigenvalues not converged
     c_bands:  5 eigenvalues not converged
     c_bands:  3 eigenvalues not converged
     c_bands:  3 eigenvalues not converged
     c_bands:  1 eigenvalues not converged
     c_bands:  1 eigenvalues not converged
     c_bands:  2 eigenvalues not converged
     c_bands:  2 eigenvalues not converged
     c_bands:  1 eigenvalues not converged
     c_bands:  1 eigenvalues not converged
     c_bands:  2 eigenvalues not converged
     c_bands:  2 eigenvalues not converged
     c_bands:  1 eigenvalues not converged
     c_bands:  2 eigenvalues not converged
     c_bands:  2 eigenvalues not converged
     c_bands:  2 eigenvalues not converged
     c_bands:  2 eigenvalues not converged
     c_bands:  1 eigenvalues not converged
     c_bands:  2 eigenvalues not converged
     c_bands:  3 eigenvalues not converged
     c_bands:  3 eigenvalues not converged
     c_bands:  2 eigenvalues not converged
     c_bands:  1 eigenvalues not converged
     c_bands:  3 eigenvalues not converged
     c_bands:  4 eigenvalues not converged
     c_bands:  4 eigenvalues not converged
     c_bands:  2 eigenvalues not converged
     c_bands:  2 eigenvalues not converged
     c_bands:  4 eigenvalues not converged
     c_bands:  4 eigenvalues not converged
     c_bands:  3 eigenvalues not converged
     c_bands:  2 eigenvalues not converged
     c_bands:  2 eigenvalues not converged
     c_bands:  3 eigenvalues not converged
     c_bands:  5 eigenvalues not converged
     c_bands:  5 eigenvalues not converged
     c_bands:  5 eigenvalues not converged
     c_bands:  5 eigenvalues not converged
     c_bands:  3 eigenvalues not converged
     c_bands:  3 eigenvalues not converged
     c_bands:  2 eigenvalues not converged
     c_bands:  3 eigenvalues not converged
     c_bands:  3 eigenvalues not converged
     c_bands:  5 eigenvalues not converged
     c_bands:  5 eigenvalues not converged
     c_bands:  5 eigenvalues not converged
     c_bands:  3 eigenvalues not converged
     c_bands:  3 eigenvalues not converged
     c_bands:  1 eigenvalues not converged
     c_bands:  3 eigenvalues not converged
     c_bands:  4 eigenvalues not converged
     c_bands:  4 eigenvalues not converged
     c_bands:  2 eigenvalues not converged
     c_bands:  2 eigenvalues not converged
     c_bands:  4 eigenvalues not converged
     c_bands:  4 eigenvalues not converged
     c_bands:  3 eigenvalues not converged
     c_bands:  1 eigenvalues not converged
     c_bands:  2 eigenvalues not converged
     c_bands:  3 eigenvalues not converged
     c_bands:  3 eigenvalues not converged
     c_bands:  2 eigenvalues not converged
     c_bands:  4 eigenvalues not converged
     c_bands:  4 eigenvalues not converged
     c_bands:  5 eigenvalues not converged
     c_bands:  5 eigenvalues not converged
     c_bands:  5 eigenvalues not converged
     c_bands:  5 eigenvalues not converged
     c_bands:  5 eigenvalues not converged
     c_bands:  5 eigenvalues not converged
     c_bands:  5 eigenvalues not converged
     c_bands:  4 eigenvalues not converged
     c_bands:  3 eigenvalues not converged
     c_bands:  2 eigenvalues not converged
     c_bands:  2 eigenvalues not converged
     c_bands:  2 eigenvalues not converged
     c_bands:  2 eigenvalues not converged
     c_bands:  4 eigenvalues not converged
     c_bands:  4 eigenvalues not converged
     c_bands:  5 eigenvalues not converged
     c_bands:  5 eigenvalues not converged
     c_bands:  4 eigenvalues not converged
     c_bands:  4 eigenvalues not converged
     c_bands:  2 eigenvalues not converged
     c_bands:  3 eigenvalues not converged
     c_bands:  5 eigenvalues not converged
     c_bands:  3 eigenvalues not converged
     c_bands:  3 eigenvalues not converged
     c_bands:  5 eigenvalues not converged
     c_bands:  3 eigenvalues not converged
     c_bands:  3 eigenvalues not converged
     c_bands:  4 eigenvalues not converged
     c_bands:  4 eigenvalues not converged
     c_bands:  4 eigenvalues not converged
     c_bands:  4 eigenvalues not converged
     c_bands:  2 eigenvalues not converged
     c_bands:  5 eigenvalues not converged
     c_bands:  5 eigenvalues not converged
     c_bands:  2 eigenvalues not converged
     c_bands:  5 eigenvalues not converged
     c_bands:  5 eigenvalues not converged
     c_bands:  3 eigenvalues not converged
     c_bands:  4 eigenvalues not converged
     c_bands:  4 eigenvalues not converged
     c_bands:  4 eigenvalues not converged
     c_bands:  4 eigenvalues not converged
     c_bands:  2 eigenvalues not converged
     c_bands:  3 eigenvalues not converged
     c_bands:  5 eigenvalues not converged
     c_bands:  3 eigenvalues not converged
     c_bands:  3 eigenvalues not converged
     c_bands:  5 eigenvalues not converged
     c_bands:  3 eigenvalues not converged
     c_bands:  2 eigenvalues not converged
     c_bands:  3 eigenvalues not converged
     c_bands:  4 eigenvalues not converged
     c_bands:  5 eigenvalues not converged
     c_bands:  5 eigenvalues not converged
     c_bands:  4 eigenvalues not converged
     c_bands:  3 eigenvalues not converged
     c_bands:  4 eigenvalues not converged
     c_bands:  4 eigenvalues not converged
     c_bands:  5 eigenvalues not converged
     c_bands:  5 eigenvalues not converged
     c_bands:  5 eigenvalues not converged
     c_bands:  5 eigenvalues not converged
     c_bands:  4 eigenvalues not converged
     c_bands:  4 eigenvalues not converged
     c_bands:  4 eigenvalues not converged
     c_bands:  4 eigenvalues not converged
     c_bands:  5 eigenvalues not converged
     c_bands:  5 eigenvalues not converged
     c_bands:  5 eigenvalues not converged
     c_bands:  5 eigenvalues not converged
     c_bands:  4 eigenvalues not converged
     c_bands:  4 eigenvalues not converged
     c_bands:  4 eigenvalues not converged
     c_bands:  4 eigenvalues not converged
     c_bands:  5 eigenvalues not converged
     c_bands:  4 eigenvalues not converged
     c_bands:  4 eigenvalues not converged
     c_bands:  4 eigenvalues not converged
     c_bands:  4 eigenvalues not converged
     c_bands:  5 eigenvalues not converged
     c_bands:  5 eigenvalues not converged
     c_bands:  5 eigenvalues not converged
     c_bands:  5 eigenvalues not converged
     c_bands:  4 eigenvalues not converged
     c_bands:  4 eigenvalues not converged
     c_bands:  4 eigenvalues not converged
     c_bands:  4 eigenvalues not converged
     c_bands:  5 eigenvalues not converged
     c_bands:  5 eigenvalues not converged
     c_bands:  5 eigenvalues not converged
     c_bands:  5 eigenvalues not converged
     c_bands:  4 eigenvalues not converged
     ethr =  1.00E-06,  avg # of iterations = 21.2

     negative rho (up, down):  0.000E+00 1.032E-03

     total cpu time spent up to now is    18247.5 secs

     total energy              =   -2374.81679672 Ry
     estimated scf accuracy    <       8.81808054 Ry

     total magnetization       =    17.84 Bohr mag/cell
     absolute magnetization    =    18.61 Bohr mag/cell

     iteration #  2     ecut=   100.00 Ry     beta= 0.40
     Davidson diagonalization with overlap
     ethr =  4.08E-03,  avg # of iterations =  4.0

     negative rho (up, down):  0.000E+00 4.002E-04

     total cpu time spent up to now is    18573.1 secs

     total energy              =   -2378.99282729 Ry
     estimated scf accuracy    <      79.84296603 Ry

     total magnetization       =     1.76 Bohr mag/cell
     absolute magnetization    =     2.00 Bohr mag/cell

     iteration #  3     ecut=   100.00 Ry     beta= 0.40
     Davidson diagonalization with overlap
     ethr =  4.08E-03,  avg # of iterations =  2.0

     negative rho (up, down):  0.000E+00 4.465E-04

     total cpu time spent up to now is    18804.5 secs

     total energy              =   -2382.36682588 Ry
     estimated scf accuracy    <       2.38857359 Ry

     total magnetization       =    16.00 Bohr mag/cell
     absolute magnetization    =    16.03 Bohr mag/cell

     iteration #  4     ecut=   100.00 Ry     beta= 0.40
     Davidson diagonalization with overlap
     ethr =  1.11E-03,  avg # of iterations =  1.0

     negative rho (up, down):  0.000E+00 4.894E-04

     total cpu time spent up to now is    18994.6 secs

     total energy              =   -2382.28064858 Ry
     estimated scf accuracy    <       1.16187214 Ry

     total magnetization       =    16.00 Bohr mag/cell
     absolute magnetization    =    16.04 Bohr mag/cell

     iteration #  5     ecut=   100.00 Ry     beta= 0.40
     Davidson diagonalization with overlap
     ethr =  5.38E-04,  avg # of iterations =  1.9

     negative rho (up, down):  0.000E+00 5.054E-04

     total cpu time spent up to now is    19211.9 secs

     total energy              =   -2382.28565344 Ry
     estimated scf accuracy    <       0.55988866 Ry

     total magnetization       =    16.00 Bohr mag/cell
     absolute magnetization    =    16.06 Bohr mag/cell

     iteration #  6     ecut=   100.00 Ry     beta= 0.40
     Davidson diagonalization with overlap
     ethr =  2.59E-04,  avg # of iterations =  1.5

     negative rho (up, down):  0.000E+00 5.161E-04

     total cpu time spent up to now is    19417.5 secs

     total energy              =   -2382.27755044 Ry
     estimated scf accuracy    <       0.42377246 Ry

     total magnetization       =    16.00 Bohr mag/cell
     absolute magnetization    =    16.06 Bohr mag/cell

     iteration #  7     ecut=   100.00 Ry     beta= 0.40
     Davidson diagonalization with overlap
     ethr =  1.96E-04,  avg # of iterations =  1.1

     negative rho (up, down):  0.000E+00 5.300E-04

     total cpu time spent up to now is    19608.6 secs

     total energy              =   -2382.26566090 Ry
     estimated scf accuracy    <       0.32404395 Ry

     total magnetization       =    16.00 Bohr mag/cell
     absolute magnetization    =    16.06 Bohr mag/cell

     iteration #  8     ecut=   100.00 Ry     beta= 0.40
     Davidson diagonalization with overlap
     ethr =  1.50E-04,  avg # of iterations =  1.0

     negative rho (up, down):  0.000E+00 5.586E-04

     total cpu time spent up to now is    19799.1 secs

     total energy              =   -2382.24320346 Ry
     estimated scf accuracy    <       0.24997331 Ry

     total magnetization       =    16.00 Bohr mag/cell
     absolute magnetization    =    16.07 Bohr mag/cell

     iteration #  9     ecut=   100.00 Ry     beta= 0.40
     Davidson diagonalization with overlap
     ethr =  1.16E-04,  avg # of iterations =  1.3

     negative rho (up, down):  0.000E+00 5.649E-04

     total cpu time spent up to now is    19996.9 secs

     total energy              =   -2382.24457255 Ry
     estimated scf accuracy    <       0.14248030 Ry

     total magnetization       =    16.00 Bohr mag/cell
     absolute magnetization    =    16.07 Bohr mag/cell

     iteration # 10     ecut=   100.00 Ry     beta= 0.40
     Davidson diagonalization with overlap
     ethr =  6.60E-05,  avg # of iterations =  1.8

     negative rho (up, down):  0.000E+00 6.179E-04

     total cpu time spent up to now is    20209.2 secs

     total energy              =   -2382.21431412 Ry
     estimated scf accuracy    <       0.12117858 Ry

     total magnetization       =    16.00 Bohr mag/cell
     absolute magnetization    =    16.08 Bohr mag/cell

     iteration # 11     ecut=   100.00 Ry     beta= 0.40
     Davidson diagonalization with overlap
     ethr =  5.61E-05,  avg # of iterations =  2.3

     negative rho (up, down):  0.000E+00 6.155E-04

     total cpu time spent up to now is    20442.2 secs

     total energy              =   -2382.22458450 Ry
     estimated scf accuracy    <       0.03018539 Ry

     total magnetization       =    16.00 Bohr mag/cell
     absolute magnetization    =    16.09 Bohr mag/cell

     iteration # 12     ecut=   100.00 Ry     beta= 0.40
     Davidson diagonalization with overlap
     c_bands:  1 eigenvalues not converged
     c_bands:  1 eigenvalues not converged
     c_bands:  1 eigenvalues not converged
     ethr =  1.40E-05,  avg # of iterations =  9.0

     negative rho (up, down):  0.000E+00 5.903E-04

     total cpu time spent up to now is    20779.4 secs

     total energy              =   -2382.22837771 Ry
     estimated scf accuracy    <       0.01767079 Ry

     total magnetization       =    16.00 Bohr mag/cell
     absolute magnetization    =    16.09 Bohr mag/cell

     iteration # 13     ecut=   100.00 Ry     beta= 0.40
     Davidson diagonalization with overlap
     ethr =  8.18E-06,  avg # of iterations =  1.9

     negative rho (up, down):  0.000E+00 5.821E-04

     total cpu time spent up to now is    20990.9 secs

     total energy              =   -2382.22862826 Ry
     estimated scf accuracy    <       0.00752787 Ry

     total magnetization       =    16.00 Bohr mag/cell
     absolute magnetization    =    16.09 Bohr mag/cell

     iteration # 14     ecut=   100.00 Ry     beta= 0.40
     Davidson diagonalization with overlap
     c_bands:  2 eigenvalues not converged
     c_bands:  2 eigenvalues not converged
     c_bands:  2 eigenvalues not converged
     c_bands:  2 eigenvalues not converged
     c_bands:  1 eigenvalues not converged
     c_bands:  1 eigenvalues not converged
     ethr =  3.49E-06,  avg # of iterations =  2.9

     negative rho (up, down):  0.000E+00 5.843E-04

     total cpu time spent up to now is    21212.0 secs

     total energy              =   -2382.22856495 Ry
     estimated scf accuracy    <       0.01061718 Ry

     total magnetization       =    16.00 Bohr mag/cell
     absolute magnetization    =    16.08 Bohr mag/cell

     iteration # 15     ecut=   100.00 Ry     beta= 0.40
     Davidson diagonalization with overlap
     ethr =  3.49E-06,  avg # of iterations =  1.1

     negative rho (up, down):  0.000E+00 5.834E-04

     total cpu time spent up to now is    21404.3 secs

     total energy              =   -2382.22880949 Ry
     estimated scf accuracy    <       0.00319800 Ry

     total magnetization       =    16.00 Bohr mag/cell
     absolute magnetization    =    16.08 Bohr mag/cell

     iteration # 16     ecut=   100.00 Ry     beta= 0.40
     Davidson diagonalization with overlap
     ethr =  1.48E-06,  avg # of iterations =  1.4

     negative rho (up, down):  0.000E+00 5.854E-04

     total cpu time spent up to now is    21603.5 secs

     total energy              =   -2382.22882571 Ry
     estimated scf accuracy    <       0.00088030 Ry

     total magnetization       =    16.00 Bohr mag/cell
     absolute magnetization    =    16.08 Bohr mag/cell

     iteration # 17     ecut=   100.00 Ry     beta= 0.40
     Davidson diagonalization with overlap
     ethr =  4.08E-07,  avg # of iterations =  1.0

     negative rho (up, down):  0.000E+00 5.894E-04

     total cpu time spent up to now is    21794.0 secs

     total energy              =   -2382.22884780 Ry
     estimated scf accuracy    <       0.00011025 Ry

     total magnetization       =    16.00 Bohr mag/cell
     absolute magnetization    =    16.08 Bohr mag/cell

     iteration # 18     ecut=   100.00 Ry     beta= 0.40
     Davidson diagonalization with overlap
     ethr =  5.10E-08,  avg # of iterations =  4.1

     negative rho (up, down):  0.000E+00 5.907E-04

     total cpu time spent up to now is    22044.1 secs

     total energy              =   -2382.22886692 Ry
     estimated scf accuracy    <       0.00001566 Ry

     total magnetization       =    16.00 Bohr mag/cell
     absolute magnetization    =    16.08 Bohr mag/cell

     iteration # 19     ecut=   100.00 Ry     beta= 0.40
     Davidson diagonalization with overlap
     ethr =  7.25E-09,  avg # of iterations =  4.3

     negative rho (up, down):  0.000E+00 5.967E-04

     total cpu time spent up to now is    22298.2 secs

     total energy              =   -2382.22885993 Ry
     estimated scf accuracy    <       0.00001851 Ry

     total magnetization       =    16.00 Bohr mag/cell
     absolute magnetization    =    16.08 Bohr mag/cell

     iteration # 20     ecut=   100.00 Ry     beta= 0.40
     Davidson diagonalization with overlap
     ethr =  7.25E-09,  avg # of iterations =  2.7

     negative rho (up, down):  0.000E+00 5.975E-04

     total cpu time spent up to now is    22556.8 secs

     total energy              =   -2382.22889331 Ry
     estimated scf accuracy    <       0.00002645 Ry

     total magnetization       =    16.00 Bohr mag/cell
     absolute magnetization    =    16.08 Bohr mag/cell

     iteration # 21     ecut=   100.00 Ry     beta= 0.40
     Davidson diagonalization with overlap
     ethr =  7.25E-09,  avg # of iterations =  2.0

     negative rho (up, down):  0.000E+00 5.990E-04

     total cpu time spent up to now is    22784.7 secs

     total energy              =   -2382.22888992 Ry
     estimated scf accuracy    <       0.00004360 Ry

     total magnetization       =    16.00 Bohr mag/cell
     absolute magnetization    =    16.08 Bohr mag/cell

     iteration # 22     ecut=   100.00 Ry     beta= 0.40
     Davidson diagonalization with overlap
     ethr =  7.25E-09,  avg # of iterations =  2.0

     negative rho (up, down):  0.000E+00 6.000E-04

     total cpu time spent up to now is    23019.1 secs

     total energy              =   -2382.22888757 Ry
     estimated scf accuracy    <       0.00001466 Ry

     total magnetization       =    16.00 Bohr mag/cell
     absolute magnetization    =    16.08 Bohr mag/cell

     iteration # 23     ecut=   100.00 Ry     beta= 0.40
     Davidson diagonalization with overlap
     ethr =  6.79E-09,  avg # of iterations =  3.1

     negative rho (up, down):  0.000E+00 6.000E-04

     total cpu time spent up to now is    23272.9 secs

     total energy              =   -2382.22891274 Ry
     estimated scf accuracy    <       0.00000299 Ry

     total magnetization       =    16.00 Bohr mag/cell
     absolute magnetization    =    16.07 Bohr mag/cell

     iteration # 24     ecut=   100.00 Ry     beta= 0.40
     Davidson diagonalization with overlap
     ethr =  1.38E-09,  avg # of iterations =  3.9

     negative rho (up, down):  0.000E+00 5.997E-04

     total cpu time spent up to now is    23543.6 secs

     total energy              =   -2382.22892067 Ry
     estimated scf accuracy    <       0.00000424 Ry

     total magnetization       =    16.00 Bohr mag/cell
     absolute magnetization    =    16.07 Bohr mag/cell

     iteration # 25     ecut=   100.00 Ry     beta= 0.40
     Davidson diagonalization with overlap
     ethr =  1.38E-09,  avg # of iterations =  2.0

     negative rho (up, down):  0.000E+00 5.999E-04

     total cpu time spent up to now is    23766.9 secs

     total energy              =   -2382.22892214 Ry
     estimated scf accuracy    <       0.00000152 Ry

     total magnetization       =    16.00 Bohr mag/cell
     absolute magnetization    =    16.07 Bohr mag/cell

     iteration # 26     ecut=   100.00 Ry     beta= 0.40
     Davidson diagonalization with overlap
     ethr =  7.02E-10,  avg # of iterations =  2.0

     negative rho (up, down):  0.000E+00 6.004E-04

     total cpu time spent up to now is    23995.8 secs

     total energy              =   -2382.22892266 Ry
     estimated scf accuracy    <       0.00000009 Ry

     total magnetization       =    16.00 Bohr mag/cell
     absolute magnetization    =    16.07 Bohr mag/cell

     iteration # 27     ecut=   100.00 Ry     beta= 0.40
     Davidson diagonalization with overlap
     c_bands:  1 eigenvalues not converged
     c_bands:  1 eigenvalues not converged
     ethr =  4.05E-11,  avg # of iterations =  5.4

     negative rho (up, down):  0.000E+00 6.005E-04

     total cpu time spent up to now is    24353.4 secs

     total energy              =   -2382.22892387 Ry
     estimated scf accuracy    <       0.00000002 Ry

     total magnetization       =    16.00 Bohr mag/cell
     absolute magnetization    =    16.07 Bohr mag/cell

     iteration # 28     ecut=   100.00 Ry     beta= 0.40
     Davidson diagonalization with overlap
     ethr =  8.72E-12,  avg # of iterations =  2.0

     negative rho (up, down):  0.000E+00 6.005E-04

     total cpu time spent up to now is    24576.3 secs

     total energy              =   -2382.22892404 Ry
     estimated scf accuracy    <       0.00000002 Ry

     total magnetization       =    16.00 Bohr mag/cell
     absolute magnetization    =    16.07 Bohr mag/cell

     iteration # 29     ecut=   100.00 Ry     beta= 0.40
     Davidson diagonalization with overlap
     ethr =  8.67E-12,  avg # of iterations =  2.0

     negative rho (up, down):  0.000E+00 6.005E-04

     total cpu time spent up to now is    24804.9 secs

     total energy              =   -2382.22892415 Ry
     estimated scf accuracy    <       0.00000001 Ry

     total magnetization       =    16.00 Bohr mag/cell
     absolute magnetization    =    16.07 Bohr mag/cell

     iteration # 30     ecut=   100.00 Ry     beta= 0.40
     Davidson diagonalization with overlap
     ethr =  5.26E-12,  avg # of iterations =  1.5

     negative rho (up, down):  0.000E+00 6.005E-04

     total cpu time spent up to now is    25011.9 secs

     total energy              =   -2382.22892418 Ry
     estimated scf accuracy    <          4.1E-10 Ry

     total magnetization       =    16.00 Bohr mag/cell
     absolute magnetization    =    16.07 Bohr mag/cell

     iteration # 31     ecut=   100.00 Ry     beta= 0.40
     Davidson diagonalization with overlap
     ethr =  1.91E-13,  avg # of iterations =  4.7

     negative rho (up, down):  0.000E+00 6.005E-04

     total cpu time spent up to now is    25350.5 secs

     total energy              =   -2382.22892419 Ry
     estimated scf accuracy    <          3.3E-10 Ry

     total magnetization       =    16.00 Bohr mag/cell
     absolute magnetization    =    16.07 Bohr mag/cell

     iteration # 32     ecut=   100.00 Ry     beta= 0.40
     Davidson diagonalization with overlap
     ethr =  1.51E-13,  avg # of iterations =  2.0

[...]
     absolute magnetization    =    16.06 Bohr mag/cell

     iteration # 29     ecut=   100.00 Ry     beta= 0.40
     Davidson diagonalization with overlap
     ethr =  3.72E-10,  avg # of iterations =  3.9

     negative rho (up, down):  0.000E+00 5.677E-04

     total cpu time spent up to now is   171820.0 secs

     total energy              =   -2382.23884842 Ry
     estimated scf accuracy    <       0.00000053 Ry

     total magnetization       =    16.00 Bohr mag/cell
     absolute magnetization    =    16.06 Bohr mag/cell

     iteration # 30     ecut=   100.00 Ry     beta= 0.40
     Davidson diagonalization with overlap
     ethr =  2.44E-10,  avg # of iterations =  2.0

     negative rho (up, down):  0.000E+00 5.677E-04

     total cpu time spent up to now is   172056.9 secs

     total energy              =   -2382.23884677 Ry
     estimated scf accuracy    <       0.00000028 Ry

     total magnetization       =    16.00 Bohr mag/cell
     absolute magnetization    =    16.06 Bohr mag/cell

     iteration # 31     ecut=   100.00 Ry     beta= 0.40
     Davidson diagonalization with overlap
     ethr =  1.28E-10,  avg # of iterations =  4.0

     negative rho (up, down):  0.000E+00 5.678E-04

     total cpu time spent up to now is   172343.9 secs

     total energy              =   -2382.23884607 Ry
     estimated scf accuracy    <       0.00000050 Ry

     total magnetization       =    16.00 Bohr mag/cell
     absolute magnetization    =    16.06 Bohr mag/cell

     iteration # 32     ecut=   100.00 Ry     beta= 0.40
     Davidson diagonalization with overlap
     ethr =  1.28E-10,  avg # of iterations =  2.0

     negative rho (up, down):  0.000E+00 5.678E-04

     total cpu time spent up to now is   172577.0 secs

     total energy              =   -2382.23884591 Ry
     estimated scf accuracy    <       0.00000009 Ry

     total magnetization       =    16.00 Bohr mag/cell
     absolute magnetization    =    16.06 Bohr mag/cell

     iteration # 33     ecut=   100.00 Ry     beta= 0.40
     Davidson diagonalization with overlap
     ethr =  4.25E-11,  avg # of iterations =  2.5

     negative rho (up, down):  0.000E+00 5.678E-04

     total cpu time spent up to now is   172822.0 secs

     total energy              =   -2382.23884618 Ry
     estimated scf accuracy    <       0.00000002 Ry

     total magnetization       =    16.00 Bohr mag/cell
     absolute magnetization    =    16.06 Bohr mag/cell

     iteration # 34     ecut=   100.00 Ry     beta= 0.40
     Davidson diagonalization with overlap
     ethr =  8.59E-12,  avg # of iterations =  3.8

     negative rho (up, down):  0.000E+00 5.678E-04

     total cpu time spent up to now is   173082.1 secs

     total energy              =   -2382.23884644 Ry
     estimated scf accuracy    <          2.6E-09 Ry

     total magnetization       =    16.00 Bohr mag/cell
     absolute magnetization    =    16.06 Bohr mag/cell

     iteration # 35     ecut=   100.00 Ry     beta= 0.40
     Davidson diagonalization with overlap
     ethr =  1.19E-12,  avg # of iterations =  4.2

     negative rho (up, down):  0.000E+00 5.678E-04

     total cpu time spent up to now is   173402.1 secs

     total energy              =   -2382.23884646 Ry
     estimated scf accuracy    <          8.4E-09 Ry

     total magnetization       =    16.00 Bohr mag/cell
     absolute magnetization    =    16.06 Bohr mag/cell

     iteration # 36     ecut=   100.00 Ry     beta= 0.40
     Davidson diagonalization with overlap
     ethr =  1.19E-12,  avg # of iterations =  2.0

     negative rho (up, down):  0.000E+00 5.678E-04

     total cpu time spent up to now is   173632.9 secs

     total energy              =   -2382.23884662 Ry
     estimated scf accuracy    <          1.1E-09 Ry

     total magnetization       =    16.00 Bohr mag/cell
     absolute magnetization    =    16.06 Bohr mag/cell

     iteration # 37     ecut=   100.00 Ry     beta= 0.40
     Davidson diagonalization with overlap
     ethr =  5.07E-13,  avg # of iterations =  2.0

     negative rho (up, down):  0.000E+00 5.678E-04

     total cpu time spent up to now is   173872.7 secs

     total energy              =   -2382.23884652 Ry
     estimated scf accuracy    <          3.8E-09 Ry

     total magnetization       =    16.00 Bohr mag/cell
     absolute magnetization    =    16.06 Bohr mag/cell

     iteration # 38     ecut=   100.00 Ry     beta= 0.40
     Davidson diagonalization with overlap
     ethr =  5.07E-13,  avg # of iterations =  2.3

     negative rho (up, down):  0.000E+00 5.678E-04

     total cpu time spent up to now is   174118.7 secs

     total energy              =   -2382.23884658 Ry
     estimated scf accuracy    <          9.9E-10 Ry

     total magnetization       =    16.00 Bohr mag/cell
     absolute magnetization    =    16.06 Bohr mag/cell

     iteration # 39     ecut=   100.00 Ry     beta= 0.40
     Davidson diagonalization with overlap
     ethr =  4.60E-13,  avg # of iterations =  2.0

     negative rho (up, down):  0.000E+00 5.678E-04

     total cpu time spent up to now is   174351.3 secs

     total energy              =   -2382.23884648 Ry
     estimated scf accuracy    <          4.2E-10 Ry

     total magnetization       =    16.00 Bohr mag/cell
     absolute magnetization    =    16.06 Bohr mag/cell

     iteration # 40     ecut=   100.00 Ry     beta= 0.40
     Davidson diagonalization with overlap
     ethr =  1.94E-13,  avg # of iterations =  3.6

     negative rho (up, down):  0.000E+00 5.678E-04

     total cpu time spent up to now is   174626.3 secs

     total energy              =   -2382.23884651 Ry
     estimated scf accuracy    <          3.5E-10 Ry

     total magnetization       =    16.00 Bohr mag/cell
     absolute magnetization    =    16.06 Bohr mag/cell

     iteration # 41     ecut=   100.00 Ry     beta= 0.40
     Davidson diagonalization with overlap
     ethr =  1.60E-13,  avg # of iterations =  2.5

     negative rho (up, down):  0.000E+00 5.678E-04

     total cpu time spent up to now is   174879.1 secs

     total energy              =   -2382.23884650 Ry
     estimated scf accuracy    <          1.5E-10 Ry

     total magnetization       =    16.00 Bohr mag/cell
     absolute magnetization    =    16.06 Bohr mag/cell

     iteration # 42     ecut=   100.00 Ry     beta= 0.40
     Davidson diagonalization with overlap
     ethr =  1.00E-13,  avg # of iterations =  2.0

     negative rho (up, down):  0.000E+00 5.678E-04

     total cpu time spent up to now is   175114.5 secs

     total energy              =   -2382.23884649 Ry
     estimated scf accuracy    <          8.4E-11 Ry

     total magnetization       =    16.00 Bohr mag/cell
     absolute magnetization    =    16.06 Bohr mag/cell

     iteration # 43     ecut=   100.00 Ry     beta= 0.40
     Davidson diagonalization with overlap
     ethr =  1.00E-13,  avg # of iterations =  2.0

     negative rho (up, down):  0.000E+00 5.678E-04

     total cpu time spent up to now is   175344.7 secs

     total energy              =   -2382.23884650 Ry
     estimated scf accuracy    <          2.2E-11 Ry

     total magnetization       =    16.00 Bohr mag/cell
     absolute magnetization    =    16.06 Bohr mag/cell

     iteration # 44     ecut=   100.00 Ry     beta= 0.40
     Davidson diagonalization with overlap
     ethr =  1.00E-13,  avg # of iterations =  2.0

     negative rho (up, down):  0.000E+00 5.678E-04

     total cpu time spent up to now is   175576.8 secs

     total energy              =   -2382.23884651 Ry
     estimated scf accuracy    <          2.3E-11 Ry

     total magnetization       =    16.00 Bohr mag/cell
     absolute magnetization    =    16.06 Bohr mag/cell

     iteration # 45     ecut=   100.00 Ry     beta= 0.40
     Davidson diagonalization with overlap
     ethr =  1.00E-13,  avg # of iterations =  2.0

     negative rho (up, down):  0.000E+00 5.678E-04

     total cpu time spent up to now is   175806.3 secs

     total energy              =   -2382.23884651 Ry
     estimated scf accuracy    <          2.5E-11 Ry

     total magnetization       =    16.00 Bohr mag/cell
     absolute magnetization    =    16.06 Bohr mag/cell

     iteration # 46     ecut=   100.00 Ry     beta= 0.40
     Davidson diagonalization with overlap
     ethr =  1.00E-13,  avg # of iterations =  1.0

     negative rho (up, down):  0.000E+00 5.678E-04

     total cpu time spent up to now is   176003.3 secs

     total energy              =   -2382.23884651 Ry
     estimated scf accuracy    <          3.5E-11 Ry

     total magnetization       =    16.00 Bohr mag/cell
     absolute magnetization    =    16.06 Bohr mag/cell

     iteration # 47     ecut=   100.00 Ry     beta= 0.40
     Davidson diagonalization with overlap
     ethr =  1.00E-13,  avg # of iterations =  1.0

     negative rho (up, down):  0.000E+00 5.678E-04

     total cpu time spent up to now is   176200.7 secs

     total energy              =   -2382.23884651 Ry
     estimated scf accuracy    <          4.8E-12 Ry

     total magnetization       =    16.00 Bohr mag/cell
     absolute magnetization    =    16.06 Bohr mag/cell

     iteration # 48     ecut=   100.00 Ry     beta= 0.40
     Davidson diagonalization with overlap
     ethr =  1.00E-13,  avg # of iterations =  1.0

     negative rho (up, down):  0.000E+00 5.678E-04

     total cpu time spent up to now is   176398.7 secs

     total energy              =   -2382.23884650 Ry
     estimated scf accuracy    <          1.8E-11 Ry

     total magnetization       =    16.00 Bohr mag/cell
     absolute magnetization    =    16.06 Bohr mag/cell

     iteration # 49     ecut=   100.00 Ry     beta= 0.40
     Davidson diagonalization with overlap
     ethr =  1.00E-13,  avg # of iterations =  1.5

     negative rho (up, down):  0.000E+00 5.678E-04

     total cpu time spent up to now is   176610.7 secs

     total energy              =   -2382.23884650 Ry
     estimated scf accuracy    <          3.1E-12 Ry

     total magnetization       =    16.00 Bohr mag/cell
     absolute magnetization    =    16.06 Bohr mag/cell

     iteration # 50     ecut=   100.00 Ry     beta= 0.40
     Davidson diagonalization with overlap
     ethr =  1.00E-13,  avg # of iterations =  1.0

     negative rho (up, down):  0.000E+00 5.678E-04

     Magnetic moment per site:
     atom:    1    charge:    7.9523    magn:    0.0001    constr:    0.0000
     atom:    2    charge:    7.9523    magn:    0.0001    constr:    0.0000
     atom:    3    charge:    7.9522    magn:    0.0001    constr:    0.0000
     atom:    4    charge:    7.9522    magn:    0.0001    constr:    0.0000
     atom:    5    charge:   13.3567    magn:    3.3547    constr:    0.0000
     atom:    6    charge:   13.3567    magn:    3.3547    constr:    0.0000
     atom:    7    charge:   13.3567    magn:    3.3547    constr:    0.0000
     atom:    8    charge:   13.3567    magn:    3.3547    constr:    0.0000
     atom:    9    charge:    0.8409    magn:    0.0063    constr:    0.0000
     atom:   10    charge:    0.8409    magn:    0.0063    constr:    0.0000
     atom:   11    charge:    0.8409    magn:    0.0063    constr:    0.0000
     atom:   12    charge:    0.8409    magn:    0.0063    constr:    0.0000
     atom:   13    charge:    4.2505    magn:    0.0303    constr:    0.0000
     atom:   14    charge:    4.2505    magn:    0.0303    constr:    0.0000
     atom:   15    charge:    4.2506    magn:    0.0303    constr:    0.0000
     atom:   16    charge:    4.2505    magn:    0.0303    constr:    0.0000
     atom:   17    charge:    4.2491    magn:    0.0399    constr:    0.0000
     atom:   18    charge:    4.2491    magn:    0.0399    constr:    0.0000
     atom:   19    charge:    4.2491    magn:    0.0399    constr:    0.0000
     atom:   20    charge:    4.2491    magn:    0.0399    constr:    0.0000
     atom:   21    charge:    4.2321    magn:    0.0724    constr:    0.0000
     atom:   22    charge:    4.2322    magn:    0.0724    constr:    0.0000
     atom:   23    charge:    4.2320    magn:    0.0724    constr:    0.0000
     atom:   24    charge:    4.2320    magn:    0.0724    constr:    0.0000
     atom:   25    charge:    4.2321    magn:    0.0724    constr:    0.0000
     atom:   26    charge:    4.2322    magn:    0.0724    constr:    0.0000
     atom:   27    charge:    4.2320    magn:    0.0724    constr:    0.0000
     atom:   28    charge:    4.2320    magn:    0.0724    constr:    0.0000

     total cpu time spent up to now is   176807.1 secs

     End of self-consistent calculation

     Number of k-points >= 100: set verbosity='high' to print the bands.

     the Fermi energy is     8.2562 ev

!    total energy              =   -2382.23884650 Ry
     estimated scf accuracy    <          1.2E-12 Ry
     smearing contrib. (-TS)   =       0.00261706 Ry
     internal energy E=F+TS    =   -2382.24146356 Ry

     The total energy is F=E-TS. E is the sum of the following terms:
     one-electron contribution =   -1093.16336572 Ry
     hartree contribution      =     647.84882596 Ry
     xc contribution           =    -328.87364317 Ry
     ewald contribution        =   -1151.35202865 Ry
     one-center paw contrib.   =    -456.70125198 Ry

     total magnetization       =    16.00 Bohr mag/cell
     absolute magnetization    =    16.06 Bohr mag/cell

     convergence has been achieved in  50 iterations

     negative rho (up, down):  0.000E+00 5.678E-04

     Forces acting on atoms (cartesian axes, Ry/au):

     atom    1 type  2   force =    -0.00000024    0.00000044   -0.00000131
     atom    2 type  2   force =     0.00000012   -0.00000016    0.00000016
     atom    3 type  2   force =    -0.00000031   -0.00000049   -0.00000137
     atom    4 type  2   force =     0.00000005    0.00000011    0.00000022
     atom    5 type  1   force =     0.00004197   -0.00000128    0.00003004
     atom    6 type  1   force =    -0.00003963    0.00000117    0.00002401
     atom    7 type  1   force =    -0.00004415    0.00000118   -0.00003329
     atom    8 type  1   force =     0.00003908   -0.00000118   -0.00002189
     atom    9 type  4   force =    -0.00000587    0.00000005    0.00002072
     atom   10 type  4   force =     0.00003127   -0.00000010    0.00008263
     atom   11 type  4   force =     0.00001143   -0.00000004    0.00003885
     atom   12 type  4   force =    -0.00003016    0.00000011   -0.00009240
     atom   13 type  3   force =    -0.00002315   -0.00000000    0.00002788
     atom   14 type  3   force =     0.00002279    0.00000000   -0.00001163
     atom   15 type  3   force =     0.00002291   -0.00000001   -0.00006556
     atom   16 type  3   force =    -0.00002362   -0.00000000    0.00001738
     atom   17 type  3   force =    -0.00001419   -0.00000003    0.00008429
     atom   18 type  3   force =     0.00000708    0.00000012    0.00007720
     atom   19 type  3   force =     0.00001266    0.00000009   -0.00008310
     atom   20 type  3   force =    -0.00001780   -0.00000005   -0.00008375
     atom   21 type  3   force =    -0.00006228    0.00005249    0.00015521
     atom   22 type  3   force =     0.00005129   -0.00006598    0.00014674
     atom   23 type  3   force =     0.00006570    0.00004352   -0.00016024
     atom   24 type  3   force =    -0.00004976   -0.00006582   -0.00014482
     atom   25 type  3   force =     0.00006613   -0.00004532   -0.00016092
     atom   26 type  3   force =    -0.00005026    0.00006760   -0.00014555
     atom   27 type  3   force =    -0.00006182   -0.00005061    0.00015452
     atom   28 type  3   force =     0.00005077    0.00006418    0.00014596

     Total force =     0.000550     Total SCF correction =     0.000003


     Computing stress (Cartesian axis) and pressure


     negative rho (up, down):  0.000E+00 5.678E-04
          total   stress  (Ry/bohr**3)                   (kbar)     P=       -0.10
  -0.00000024  -0.00000000   0.00000004           -0.03       -0.00        0.01
  -0.00000000  -0.00000023  -0.00000000           -0.00       -0.03       -0.00
   0.00000004  -0.00000000  -0.00000154            0.01       -0.00       -0.23


     init_run     :    197.59s CPU    213.98s WALL (       2 calls)
     electrons    : 158233.52s CPU 160618.30s WALL (      25 calls)
     update_pot   :    262.00s CPU    263.83s WALL (      23 calls)
     forces       :   1201.97s CPU   1223.36s WALL (      25 calls)
     stress       :  14765.71s CPU  14836.76s WALL (      25 calls)

     Called by init_run:
     wfcinit      :    173.32s CPU    176.07s WALL (       2 calls)
     potinit      :      8.09s CPU     12.11s WALL (       2 calls)
     hinit0       :     11.83s CPU     19.84s WALL (       2 calls)

     Called by electrons:
     c_bands      : 137708.02s CPU 139552.98s WALL (     660 calls)
     sum_band     :  18869.99s CPU  19327.11s WALL (     660 calls)
     v_of_rho     :    359.87s CPU    372.53s WALL (     675 calls)
     newd         :    912.62s CPU    979.36s WALL (     675 calls)
     PAW_pot      :    343.59s CPU    345.17s WALL (     698 calls)
     mix_rho      :     71.88s CPU     74.93s WALL (     660 calls)

     Called by c_bands:
     init_us_2    :   2874.96s CPU   2923.69s WALL (  440820 calls)
     cegterg      : 131889.75s CPU 133673.08s WALL (  208943 calls)

     Called by *egterg:
     cdiaghg      :   7751.50s CPU   7891.07s WALL (  736591 calls)
     h_psi        :  67594.58s CPU  68615.48s WALL (  748034 calls)
     s_psi        :  12894.12s CPU  12999.69s WALL (  748034 calls)
     g_psi        :    682.83s CPU    692.81s WALL (  538459 calls)

     Called by h_psi:
     h_psi:calbec :  11639.31s CPU  11884.60s WALL (  748034 calls)
     vloc_psi     :  41322.55s CPU  41947.12s WALL (  748034 calls)
     add_vuspsi   :  12993.20s CPU  13129.54s WALL (  748034 calls)

     General routines
     calbec       :  17442.14s CPU  17815.42s WALL ( 1003362 calls)
     fft          :    306.05s CPU    325.58s WALL (   17868 calls)
     ffts         :      2.68s CPU      2.93s WALL (    2670 calls)
     fftw         :  43064.29s CPU  43713.57s WALL (******** calls)
     interpolate  :     26.42s CPU     28.03s WALL (    1350 calls)

     Parallel routines
     fft_scatt_xy :   6435.20s CPU   6535.77s WALL (******** calls)
     fft_scatt_yz :  11313.89s CPU  11514.32s WALL (******** calls)

     PWSCF        :   2d 0h35m CPU   2d 1h17m WALL


   This run was terminated on:  16: 8:14  19Feb2023            

=------------------------------------------------------------------------------=
   JOB DONE.
=------------------------------------------------------------------------------=
Note: The following floating-point exceptions are signalling: IEEE_UNDERFLOW_FLAG IEEE_DENORMAL
Note: The following floating-point exceptions are signalling: IEEE_INVALID_FLAG IEEE_DENORMAL
Note: The following floating-point exceptions are signalling: IEEE_DENORMAL
Note: The following floating-point exceptions are signalling: IEEE_DENORMAL
Note: The following floating-point exceptions are signalling: IEEE_DENORMAL
Note: The following floating-point exceptions are signalling: IEEE_DENORMAL
Note: The following floating-point exceptions are signalling: IEEE_INVALID_FLAG IEEE_DENORMAL
Note: The following floating-point exceptions are signalling: IEEE_DENORMAL
Note: The following floating-point exceptions are signalling: IEEE_INVALID_FLAG IEEE_DENORMAL
Note: The following floating-point exceptions are signalling: IEEE_DENORMAL
Note: The following floating-point exceptions are signalling: IEEE_DENORMAL
Note: The following floating-point exceptions are signalling: IEEE_DENORMAL
Note: The following floating-point exceptions are signalling: IEEE_DENORMAL
Note: The following floating-point exceptions are signalling: IEEE_INVALID_FLAG IEEE_DENORMAL
Note: The following floating-point exceptions are signalling: IEEE_INVALID_FLAG IEEE_DENORMAL
