 # B1 N1
 
           2  atoms
 2 atom types
 
      0.000000000000       2.563970600000  xlo xhi
      0.000000000000       2.220463674156  ylo yhi
      0.000000000000       2.093473228499  zlo zhi
0 0 0 xy xz yz
      1.281985300000       1.281985300000       0.740154558052  xy xz yz
 
Masses

1 10.81
2 14.007
Atoms # atomic

1 1 0.000000000000 0.000000000000 0.000000000000
2 2 1.281985300000 0.740154558052 0.523368307125

