
     Program PWSCF v.6.7MaX starts on 28Sep2022 at 21:18:42 

     This program is part of the open-source Quantum ESPRESSO suite
     for quantum simulation of materials; please cite
         "P. Giannozzi et al., J. Phys.:Condens. Matter 21 395502 (2009);
         "P. Giannozzi et al., J. Phys.:Condens. Matter 29 465901 (2017);
          URL http://www.quantum-espresso.org", 
     in publications or presentations arising from this work. More details at
     http://www.quantum-espresso.org/quote

     Parallel version (MPI), running on    16 processors

     MPI processes distributed on     1 nodes
     R & G space division:  proc/nbgrp/npool/nimage =      16
     Reading input from scale_3d-04.in

     Current dimensions of program PWSCF are:
     Max number of different atomic species (ntypx) = 10
     Max number of k-points (npk) =  40000
     Max angular momentum in pseudopotentials (lmaxx) =  3
     Message from routine read_pp_mesh:
     mesh size missing, using the one in header

     Subspace diagonalization in iterative solution of the eigenvalue problem:
     a serial algorithm will be used


     Parallelization info
     --------------------
     sticks:   dense  smooth     PW     G-vecs:    dense   smooth      PW
     Min          47      34     10                  861      536      91
     Max          48      35     11                  863      539      94
     Sum         757     559    169                13803     8609    1471



     bravais-lattice index     =            0
     lattice parameter (alat)  =       5.0068  a.u.
     unit-cell volume          =      88.7477 (a.u.)^3
     number of atoms/cell      =            2
     number of atomic types    =            2
     number of electrons       =         8.00
     number of Kohn-Sham states=            8
     kinetic-energy cutoff     =      80.0000  Ry
     charge density cutoff     =     440.0000  Ry
     scf convergence threshold =      2.0E-10
     mixing beta               =       0.4000
     number of iterations used =            8  plain     mixing
     Exchange-correlation= PBE
                           (   1   4   3   4   0   0   0)

     celldm(1)=   5.006766  celldm(2)=   0.000000  celldm(3)=   0.000000
     celldm(4)=   0.000000  celldm(5)=   0.000000  celldm(6)=   0.000000

     crystal axes: (cart. coord. in units of alat)
               a(1) = (   1.000000   0.000000   0.000000 )  
               a(2) = (  -0.500000   0.866025   0.000000 )  
               a(3) = (  -0.500000   0.288675   0.816497 )  

     reciprocal axes: (cart. coord. in units 2 pi/alat)
               b(1) = (  1.000000  0.577350  0.408248 )  
               b(2) = (  0.000000  1.154701 -0.408248 )  
               b(3) = (  0.000000 -0.000000  1.224745 )  


     PseudoPot. # 1 for B  read from file:
     /opt/QEpot/SSSP_precision_pseudos/B_pbe_v1.01.uspp.F.UPF
     MD5 check sum: d081ebb89d0c768e112975f650467a00
     Pseudo is Ultrasoft + core correction, Zval =  3.0
     Generated by new atomic code, or converted to UPF format
     Using radial grid of  781 points,  4 beta functions with: 
                l(1) =   0
                l(2) =   0
                l(3) =   1
                l(4) =   1
     Q(r) pseudized with  8 coefficients,  rinner =    1.100   1.100   1.100


     PseudoPot. # 2 for N  read from file:
     /opt/QEpot/SSSP_precision_pseudos/N.oncvpsp.upf
     MD5 check sum: 563d65bfb082928f0c9eb97172f6c357
     Pseudo is Norm-conserving + core correction, Zval =  5.0
     Generated using ONCVPSP code by D. R. Hamann
     Using radial grid of 1058 points,  4 beta functions with: 
                l(1) =   0
                l(2) =   0
                l(3) =   1
                l(4) =   1

     atomic species   valence    mass     pseudopotential
        B              3.00    10.81000     B ( 1.00)
        N              5.00    14.00700     N ( 1.00)

     No symmetry found


                                    s                        frac. trans.

      isym =  1     identity                                     

 cryst.   s( 1) = (     1          0          0      )
                  (     0          1          0      )
                  (     0          0          1      )

 cart.    s( 1) = (  1.0000000  0.0000000  0.0000000 )
                  (  0.0000000  1.0000000 -0.0000000 )
                  (  0.0000000  0.0000000  1.0000000 )


   Cartesian axes

     site n.     atom                  positions (alat units)
         1           B   tau(   1) = (   0.3751906   0.3771185   0.0004936  )
         2           N   tau(   2) = (   0.1203217   0.2883591   0.2046178  )

   Crystallographic axes

     site n.     atom                  positions (cryst. coord.)
         1           B   tau(   1) = (  0.5931216  0.4352574  0.0006046  )
         2           N   tau(   2) = (  0.3703408  0.2494336  0.2506046  )

     number of k points=   666  Marzari-Vanderbilt smearing, width (Ry)=  0.0220
                       cart. coord. in units 2pi/alat
        k(    1) = (   0.0000000   0.0000000   0.0000000), wk =   0.0015026
        k(    2) = (   0.0000000   0.0000000   0.1113404), wk =   0.0030053
        k(    3) = (   0.0000000   0.0000000   0.2226809), wk =   0.0030053
        k(    4) = (   0.0000000   0.0000000   0.3340213), wk =   0.0030053
        k(    5) = (   0.0000000   0.0000000   0.4453618), wk =   0.0030053
        k(    6) = (   0.0000000   0.0000000   0.5567022), wk =   0.0030053
        k(    7) = (   0.0000000   0.1049728  -0.0371135), wk =   0.0030053
        k(    8) = (   0.0000000   0.1049728   0.0742270), wk =   0.0030053
        k(    9) = (   0.0000000   0.1049728   0.1855674), wk =   0.0030053
        k(   10) = (   0.0000000   0.1049728   0.2969078), wk =   0.0030053
        k(   11) = (   0.0000000   0.1049728   0.4082483), wk =   0.0030053
        k(   12) = (   0.0000000   0.1049728   0.5195887), wk =   0.0030053
        k(   13) = (   0.0000000   0.1049728  -0.5938157), wk =   0.0030053
        k(   14) = (   0.0000000   0.1049728  -0.4824753), wk =   0.0030053
        k(   15) = (   0.0000000   0.1049728  -0.3711348), wk =   0.0030053
        k(   16) = (   0.0000000   0.1049728  -0.2597944), wk =   0.0030053
        k(   17) = (   0.0000000   0.1049728  -0.1484539), wk =   0.0030053
        k(   18) = (   0.0000000   0.2099456  -0.0742270), wk =   0.0030053
        k(   19) = (   0.0000000   0.2099456   0.0371135), wk =   0.0030053
        k(   20) = (   0.0000000   0.2099456   0.1484539), wk =   0.0030053
        k(   21) = (   0.0000000   0.2099456   0.2597944), wk =   0.0030053
        k(   22) = (   0.0000000   0.2099456   0.3711348), wk =   0.0030053
        k(   23) = (   0.0000000   0.2099456   0.4824753), wk =   0.0030053
        k(   24) = (   0.0000000   0.2099456  -0.6309292), wk =   0.0030053
        k(   25) = (   0.0000000   0.2099456  -0.5195887), wk =   0.0030053
        k(   26) = (   0.0000000   0.2099456  -0.4082483), wk =   0.0030053
        k(   27) = (   0.0000000   0.2099456  -0.2969078), wk =   0.0030053
        k(   28) = (   0.0000000   0.2099456  -0.1855674), wk =   0.0030053
        k(   29) = (   0.0000000   0.3149183  -0.1113404), wk =   0.0030053
        k(   30) = (   0.0000000   0.3149183   0.0000000), wk =   0.0030053
        k(   31) = (   0.0000000   0.3149183   0.1113404), wk =   0.0030053
        k(   32) = (   0.0000000   0.3149183   0.2226809), wk =   0.0030053
        k(   33) = (   0.0000000   0.3149183   0.3340213), wk =   0.0030053
        k(   34) = (   0.0000000   0.3149183   0.4453618), wk =   0.0030053
        k(   35) = (   0.0000000   0.3149183  -0.6680427), wk =   0.0030053
        k(   36) = (   0.0000000   0.3149183  -0.5567022), wk =   0.0030053
        k(   37) = (   0.0000000   0.3149183  -0.4453618), wk =   0.0030053
        k(   38) = (   0.0000000   0.3149183  -0.3340213), wk =   0.0030053
        k(   39) = (   0.0000000   0.3149183  -0.2226809), wk =   0.0030053
        k(   40) = (   0.0000000   0.4198911  -0.1484539), wk =   0.0030053
        k(   41) = (   0.0000000   0.4198911  -0.0371135), wk =   0.0030053
        k(   42) = (   0.0000000   0.4198911   0.0742270), wk =   0.0030053
        k(   43) = (   0.0000000   0.4198911   0.1855674), wk =   0.0030053
        k(   44) = (   0.0000000   0.4198911   0.2969078), wk =   0.0030053
        k(   45) = (   0.0000000   0.4198911   0.4082483), wk =   0.0030053
        k(   46) = (   0.0000000   0.4198911  -0.7051561), wk =   0.0030053
        k(   47) = (   0.0000000   0.4198911  -0.5938157), wk =   0.0030053
        k(   48) = (   0.0000000   0.4198911  -0.4824753), wk =   0.0030053
        k(   49) = (   0.0000000   0.4198911  -0.3711348), wk =   0.0030053
        k(   50) = (   0.0000000   0.4198911  -0.2597944), wk =   0.0030053
        k(   51) = (   0.0000000   0.5248639  -0.1855674), wk =   0.0030053
        k(   52) = (   0.0000000   0.5248639  -0.0742270), wk =   0.0030053
        k(   53) = (   0.0000000   0.5248639   0.0371135), wk =   0.0030053
        k(   54) = (   0.0000000   0.5248639   0.1484539), wk =   0.0030053
        k(   55) = (   0.0000000   0.5248639   0.2597944), wk =   0.0030053
        k(   56) = (   0.0000000   0.5248639   0.3711348), wk =   0.0030053
        k(   57) = (   0.0000000   0.5248639  -0.7422696), wk =   0.0030053
        k(   58) = (   0.0000000   0.5248639  -0.6309292), wk =   0.0030053
        k(   59) = (   0.0000000   0.5248639  -0.5195887), wk =   0.0030053
        k(   60) = (   0.0000000   0.5248639  -0.4082483), wk =   0.0030053
        k(   61) = (   0.0000000   0.5248639  -0.2969078), wk =   0.0030053
        k(   62) = (   0.0909091   0.1574592   0.0000000), wk =   0.0030053
        k(   63) = (   0.0909091   0.1574592   0.1113404), wk =   0.0030053
        k(   64) = (   0.0909091   0.1574592   0.2226809), wk =   0.0030053
        k(   65) = (   0.0909091   0.1574592   0.3340213), wk =   0.0030053
        k(   66) = (   0.0909091   0.1574592   0.4453618), wk =   0.0030053
        k(   67) = (   0.0909091   0.1574592   0.5567022), wk =   0.0030053
        k(   68) = (   0.0909091   0.2624319  -0.0371135), wk =   0.0030053
        k(   69) = (   0.0909091   0.2624319   0.0742270), wk =   0.0030053
        k(   70) = (   0.0909091   0.2624319   0.1855674), wk =   0.0030053
        k(   71) = (   0.0909091   0.2624319   0.2969078), wk =   0.0030053
        k(   72) = (   0.0909091   0.2624319   0.4082483), wk =   0.0030053
        k(   73) = (   0.0909091   0.2624319   0.5195887), wk =   0.0030053
        k(   74) = (   0.0909091   0.2624319  -0.5938157), wk =   0.0030053
        k(   75) = (   0.0909091   0.2624319  -0.4824753), wk =   0.0030053
        k(   76) = (   0.0909091   0.2624319  -0.3711348), wk =   0.0030053
        k(   77) = (   0.0909091   0.2624319  -0.2597944), wk =   0.0030053
        k(   78) = (   0.0909091   0.2624319  -0.1484539), wk =   0.0030053
        k(   79) = (   0.0909091   0.3674047  -0.0742270), wk =   0.0030053
        k(   80) = (   0.0909091   0.3674047   0.0371135), wk =   0.0030053
        k(   81) = (   0.0909091   0.3674047   0.1484539), wk =   0.0030053
        k(   82) = (   0.0909091   0.3674047   0.2597944), wk =   0.0030053
        k(   83) = (   0.0909091   0.3674047   0.3711348), wk =   0.0030053
        k(   84) = (   0.0909091   0.3674047   0.4824753), wk =   0.0030053
        k(   85) = (   0.0909091   0.3674047  -0.6309292), wk =   0.0030053
        k(   86) = (   0.0909091   0.3674047  -0.5195887), wk =   0.0030053
        k(   87) = (   0.0909091   0.3674047  -0.4082483), wk =   0.0030053
        k(   88) = (   0.0909091   0.3674047  -0.2969078), wk =   0.0030053
        k(   89) = (   0.0909091   0.3674047  -0.1855674), wk =   0.0030053
        k(   90) = (   0.0909091   0.4723775  -0.1113404), wk =   0.0030053
        k(   91) = (   0.0909091   0.4723775   0.0000000), wk =   0.0030053
        k(   92) = (   0.0909091   0.4723775   0.1113404), wk =   0.0030053
        k(   93) = (   0.0909091   0.4723775   0.2226809), wk =   0.0030053
        k(   94) = (   0.0909091   0.4723775   0.3340213), wk =   0.0030053
        k(   95) = (   0.0909091   0.4723775   0.4453618), wk =   0.0030053
        k(   96) = (   0.0909091   0.4723775  -0.6680427), wk =   0.0030053
        k(   97) = (   0.0909091   0.4723775  -0.5567022), wk =   0.0030053
        k(   98) = (   0.0909091   0.4723775  -0.4453618), wk =   0.0030053
        k(   99) = (   0.0909091   0.4723775  -0.3340213), wk =   0.0030053
        k(  100) = (   0.0909091   0.4723775  -0.2226809), wk =   0.0030053
        k(  101) = (   0.0909091   0.5773503  -0.1484539), wk =   0.0030053
        k(  102) = (   0.0909091   0.5773503  -0.0371135), wk =   0.0030053
        k(  103) = (   0.0909091   0.5773503   0.0742270), wk =   0.0030053
        k(  104) = (   0.0909091   0.5773503   0.1855674), wk =   0.0030053
        k(  105) = (   0.0909091   0.5773503   0.2969078), wk =   0.0030053
        k(  106) = (   0.0909091   0.5773503   0.4082483), wk =   0.0030053
        k(  107) = (   0.1818182   0.3149183   0.0000000), wk =   0.0030053
        k(  108) = (   0.1818182   0.3149183   0.1113404), wk =   0.0030053
        k(  109) = (   0.1818182   0.3149183   0.2226809), wk =   0.0030053
        k(  110) = (   0.1818182   0.3149183   0.3340213), wk =   0.0030053
        k(  111) = (   0.1818182   0.3149183   0.4453618), wk =   0.0030053
        k(  112) = (   0.1818182   0.3149183   0.5567022), wk =   0.0030053
        k(  113) = (   0.1818182   0.4198911  -0.0371135), wk =   0.0030053
        k(  114) = (   0.1818182   0.4198911   0.0742270), wk =   0.0030053
        k(  115) = (   0.1818182   0.4198911   0.1855674), wk =   0.0030053
        k(  116) = (   0.1818182   0.4198911   0.2969078), wk =   0.0030053
        k(  117) = (   0.1818182   0.4198911   0.4082483), wk =   0.0030053
        k(  118) = (   0.1818182   0.4198911   0.5195887), wk =   0.0030053
        k(  119) = (   0.1818182   0.4198911  -0.5938157), wk =   0.0030053
        k(  120) = (   0.1818182   0.4198911  -0.4824753), wk =   0.0030053
        k(  121) = (   0.1818182   0.4198911  -0.3711348), wk =   0.0030053
        k(  122) = (   0.1818182   0.4198911  -0.2597944), wk =   0.0030053
        k(  123) = (   0.1818182   0.4198911  -0.1484539), wk =   0.0030053
        k(  124) = (   0.1818182   0.5248639  -0.0742270), wk =   0.0030053
        k(  125) = (   0.1818182   0.5248639   0.0371135), wk =   0.0030053
        k(  126) = (   0.1818182   0.5248639   0.1484539), wk =   0.0030053
        k(  127) = (   0.1818182   0.5248639   0.2597944), wk =   0.0030053
        k(  128) = (   0.1818182   0.5248639   0.3711348), wk =   0.0030053
        k(  129) = (   0.1818182   0.5248639   0.4824753), wk =   0.0030053
        k(  130) = (   0.1818182   0.5248639  -0.6309292), wk =   0.0030053
        k(  131) = (   0.1818182   0.5248639  -0.5195887), wk =   0.0030053
        k(  132) = (   0.1818182   0.5248639  -0.4082483), wk =   0.0030053
        k(  133) = (   0.1818182   0.5248639  -0.2969078), wk =   0.0030053
        k(  134) = (   0.1818182   0.5248639  -0.1855674), wk =   0.0030053
        k(  135) = (   0.2727273   0.4723775   0.0000000), wk =   0.0030053
        k(  136) = (   0.2727273   0.4723775   0.1113404), wk =   0.0030053
        k(  137) = (   0.2727273   0.4723775   0.2226809), wk =   0.0030053
        k(  138) = (   0.2727273   0.4723775   0.3340213), wk =   0.0030053
        k(  139) = (   0.2727273   0.4723775   0.4453618), wk =   0.0030053
        k(  140) = (   0.2727273   0.4723775   0.5567022), wk =   0.0030053
        k(  141) = (   0.2727273   0.5773503  -0.0371135), wk =   0.0030053
        k(  142) = (   0.2727273   0.5773503   0.0742270), wk =   0.0030053
        k(  143) = (   0.2727273   0.5773503   0.1855674), wk =   0.0030053
        k(  144) = (   0.2727273   0.5773503   0.2969078), wk =   0.0030053
        k(  145) = (   0.2727273   0.5773503   0.4082483), wk =   0.0030053
        k(  146) = (   0.2727273   0.5773503  -0.2597944), wk =   0.0030053
        k(  147) = (  -0.0909091  -0.0524864  -0.0371135), wk =   0.0030053
        k(  148) = (   0.0909091  -0.0524864  -0.0371135), wk =   0.0030053
        k(  149) = (  -0.0909091  -0.0524864   0.0742270), wk =   0.0030053
        k(  150) = (   0.0909091  -0.0524864   0.0742270), wk =   0.0030053
        k(  151) = (  -0.0909091  -0.0524864   0.1855674), wk =   0.0030053
        k(  152) = (   0.0909091  -0.0524864   0.1855674), wk =   0.0030053
        k(  153) = (  -0.0909091  -0.0524864   0.2969078), wk =   0.0030053
        k(  154) = (   0.0909091  -0.0524864   0.2969078), wk =   0.0030053
        k(  155) = (  -0.0909091  -0.0524864   0.4082483), wk =   0.0030053
        k(  156) = (   0.0909091  -0.0524864   0.4082483), wk =   0.0030053
        k(  157) = (  -0.0909091  -0.0524864   0.5195887), wk =   0.0030053
        k(  158) = (   0.0909091  -0.0524864   0.5195887), wk =   0.0030053
        k(  159) = (  -0.0909091  -0.0524864  -0.5938157), wk =   0.0030053
        k(  160) = (   0.0909091  -0.0524864  -0.5938157), wk =   0.0030053
        k(  161) = (  -0.0909091  -0.0524864  -0.4824753), wk =   0.0030053
        k(  162) = (   0.0909091  -0.0524864  -0.4824753), wk =   0.0030053
        k(  163) = (  -0.0909091  -0.0524864  -0.3711348), wk =   0.0030053
        k(  164) = (   0.0909091  -0.0524864  -0.3711348), wk =   0.0030053
        k(  165) = (  -0.0909091  -0.0524864  -0.2597944), wk =   0.0030053
        k(  166) = (   0.0909091  -0.0524864  -0.2597944), wk =   0.0030053
        k(  167) = (  -0.0909091  -0.0524864  -0.1484539), wk =   0.0030053
        k(  168) = (   0.0909091  -0.0524864  -0.1484539), wk =   0.0030053
        k(  169) = (  -0.1818182  -0.1049728  -0.0742270), wk =   0.0030053
        k(  170) = (   0.1818182  -0.1049728  -0.0742270), wk =   0.0030053
        k(  171) = (  -0.1818182  -0.1049728   0.0371135), wk =   0.0030053
        k(  172) = (   0.1818182  -0.1049728   0.0371135), wk =   0.0030053
        k(  173) = (  -0.1818182  -0.1049728   0.1484539), wk =   0.0030053
        k(  174) = (   0.1818182  -0.1049728   0.1484539), wk =   0.0030053
        k(  175) = (  -0.1818182  -0.1049728   0.2597944), wk =   0.0030053
        k(  176) = (   0.1818182  -0.1049728   0.2597944), wk =   0.0030053
        k(  177) = (  -0.1818182  -0.1049728   0.3711348), wk =   0.0030053
        k(  178) = (   0.1818182  -0.1049728   0.3711348), wk =   0.0030053
        k(  179) = (  -0.1818182  -0.1049728   0.4824753), wk =   0.0030053
        k(  180) = (   0.1818182  -0.1049728   0.4824753), wk =   0.0030053
        k(  181) = (  -0.1818182  -0.1049728  -0.6309292), wk =   0.0030053
        k(  182) = (   0.1818182  -0.1049728  -0.6309292), wk =   0.0030053
        k(  183) = (  -0.1818182  -0.1049728  -0.5195887), wk =   0.0030053
        k(  184) = (   0.1818182  -0.1049728  -0.5195887), wk =   0.0030053
        k(  185) = (  -0.1818182  -0.1049728  -0.4082483), wk =   0.0030053
        k(  186) = (   0.1818182  -0.1049728  -0.4082483), wk =   0.0030053
        k(  187) = (  -0.1818182  -0.1049728  -0.2969078), wk =   0.0030053
        k(  188) = (   0.1818182  -0.1049728  -0.2969078), wk =   0.0030053
        k(  189) = (  -0.1818182  -0.1049728  -0.1855674), wk =   0.0030053
        k(  190) = (   0.1818182  -0.1049728  -0.1855674), wk =   0.0030053
        k(  191) = (  -0.2727273  -0.1574592  -0.1113404), wk =   0.0030053
        k(  192) = (   0.2727273  -0.1574592  -0.1113404), wk =   0.0030053
        k(  193) = (  -0.2727273  -0.1574592   0.0000000), wk =   0.0030053
        k(  194) = (   0.2727273  -0.1574592  -0.0000000), wk =   0.0030053
        k(  195) = (  -0.2727273  -0.1574592   0.1113404), wk =   0.0030053
        k(  196) = (   0.2727273  -0.1574592   0.1113404), wk =   0.0030053
        k(  197) = (  -0.2727273  -0.1574592   0.2226809), wk =   0.0030053
        k(  198) = (   0.2727273  -0.1574592   0.2226809), wk =   0.0030053
        k(  199) = (  -0.2727273  -0.1574592   0.3340213), wk =   0.0030053
        k(  200) = (   0.2727273  -0.1574592   0.3340213), wk =   0.0030053
        k(  201) = (  -0.2727273  -0.1574592   0.4453618), wk =   0.0030053
        k(  202) = (   0.2727273  -0.1574592   0.4453618), wk =   0.0030053
        k(  203) = (  -0.2727273  -0.1574592  -0.6680427), wk =   0.0030053
        k(  204) = (   0.2727273  -0.1574592  -0.6680427), wk =   0.0030053
        k(  205) = (  -0.2727273  -0.1574592  -0.5567022), wk =   0.0030053
        k(  206) = (   0.2727273  -0.1574592  -0.5567022), wk =   0.0030053
        k(  207) = (  -0.2727273  -0.1574592  -0.4453618), wk =   0.0030053
        k(  208) = (   0.2727273  -0.1574592  -0.4453618), wk =   0.0030053
        k(  209) = (  -0.2727273  -0.1574592  -0.3340213), wk =   0.0030053
        k(  210) = (   0.2727273  -0.1574592  -0.3340213), wk =   0.0030053
        k(  211) = (  -0.2727273  -0.1574592  -0.2226809), wk =   0.0030053
        k(  212) = (   0.2727273  -0.1574592  -0.2226809), wk =   0.0030053
        k(  213) = (  -0.3636364  -0.2099456  -0.1484539), wk =   0.0030053
        k(  214) = (   0.3636364  -0.2099456  -0.1484539), wk =   0.0030053
        k(  215) = (  -0.3636364  -0.2099456  -0.0371135), wk =   0.0030053
        k(  216) = (   0.3636364  -0.2099456  -0.0371135), wk =   0.0030053
        k(  217) = (  -0.3636364  -0.2099456   0.0742270), wk =   0.0030053
        k(  218) = (   0.3636364  -0.2099456   0.0742270), wk =   0.0030053
        k(  219) = (  -0.3636364  -0.2099456   0.1855674), wk =   0.0030053
        k(  220) = (   0.3636364  -0.2099456   0.1855674), wk =   0.0030053
        k(  221) = (  -0.3636364  -0.2099456   0.2969078), wk =   0.0030053
        k(  222) = (   0.3636364  -0.2099456   0.2969078), wk =   0.0030053
        k(  223) = (  -0.3636364  -0.2099456   0.4082483), wk =   0.0030053
        k(  224) = (   0.3636364  -0.2099456   0.4082483), wk =   0.0030053
        k(  225) = (  -0.3636364  -0.2099456  -0.7051561), wk =   0.0030053
        k(  226) = (   0.3636364  -0.2099456  -0.7051561), wk =   0.0030053
        k(  227) = (  -0.3636364  -0.2099456  -0.5938157), wk =   0.0030053
        k(  228) = (   0.3636364  -0.2099456  -0.5938157), wk =   0.0030053
        k(  229) = (  -0.3636364  -0.2099456  -0.4824753), wk =   0.0030053
        k(  230) = (   0.3636364  -0.2099456  -0.4824753), wk =   0.0030053
        k(  231) = (  -0.3636364  -0.2099456  -0.3711348), wk =   0.0030053
        k(  232) = (   0.3636364  -0.2099456  -0.3711348), wk =   0.0030053
        k(  233) = (  -0.3636364  -0.2099456  -0.2597944), wk =   0.0030053
        k(  234) = (   0.3636364  -0.2099456  -0.2597944), wk =   0.0030053
        k(  235) = (  -0.4545455  -0.2624319  -0.1855674), wk =   0.0030053
        k(  236) = (   0.4545455  -0.2624319  -0.1855674), wk =   0.0030053
        k(  237) = (  -0.4545455  -0.2624319  -0.0742270), wk =   0.0030053
        k(  238) = (   0.4545455  -0.2624319  -0.0742270), wk =   0.0030053
        k(  239) = (  -0.4545455  -0.2624319   0.0371135), wk =   0.0030053
        k(  240) = (   0.4545455  -0.2624319   0.0371135), wk =   0.0030053
        k(  241) = (  -0.4545455  -0.2624319   0.1484539), wk =   0.0030053
        k(  242) = (   0.4545455  -0.2624319   0.1484539), wk =   0.0030053
        k(  243) = (  -0.4545455  -0.2624319   0.2597944), wk =   0.0030053
        k(  244) = (   0.4545455  -0.2624319   0.2597944), wk =   0.0030053
        k(  245) = (  -0.4545455  -0.2624319   0.3711348), wk =   0.0030053
        k(  246) = (   0.4545455  -0.2624319   0.3711348), wk =   0.0030053
        k(  247) = (  -0.4545455  -0.2624319  -0.7422696), wk =   0.0030053
        k(  248) = (   0.4545455  -0.2624319  -0.7422696), wk =   0.0030053
        k(  249) = (  -0.4545455  -0.2624319  -0.6309292), wk =   0.0030053
        k(  250) = (   0.4545455  -0.2624319  -0.6309292), wk =   0.0030053
        k(  251) = (  -0.4545455  -0.2624319  -0.5195887), wk =   0.0030053
        k(  252) = (   0.4545455  -0.2624319  -0.5195887), wk =   0.0030053
        k(  253) = (  -0.4545455  -0.2624319  -0.4082483), wk =   0.0030053
        k(  254) = (   0.4545455  -0.2624319  -0.4082483), wk =   0.0030053
        k(  255) = (  -0.4545455  -0.2624319  -0.2969078), wk =   0.0030053
        k(  256) = (   0.4545455  -0.2624319  -0.2969078), wk =   0.0030053
        k(  257) = (   0.0909091  -0.1574592  -0.0000000), wk =   0.0030053
        k(  258) = (  -0.1818182   0.0000000   0.0000000), wk =   0.0030053
        k(  259) = (   0.0909091  -0.1574592  -0.1113404), wk =   0.0030053
        k(  260) = (  -0.1818182   0.0000000   0.1113404), wk =   0.0030053
        k(  261) = (   0.0909091  -0.1574592   0.1113404), wk =   0.0030053
        k(  262) = (  -0.1818182   0.0000000  -0.1113404), wk =   0.0030053
        k(  263) = (   0.0909091   0.1574592  -0.1113404), wk =   0.0030053
        k(  264) = (   0.0909091  -0.1574592  -0.2226809), wk =   0.0030053
        k(  265) = (  -0.1818182   0.0000000   0.2226809), wk =   0.0030053
        k(  266) = (   0.0909091  -0.1574592   0.2226809), wk =   0.0030053
        k(  267) = (  -0.1818182   0.0000000  -0.2226809), wk =   0.0030053
        k(  268) = (   0.0909091   0.1574592  -0.2226809), wk =   0.0030053
        k(  269) = (   0.0909091  -0.1574592  -0.3340213), wk =   0.0030053
        k(  270) = (  -0.1818182   0.0000000   0.3340213), wk =   0.0030053
        k(  271) = (   0.0909091  -0.1574592   0.3340213), wk =   0.0030053
        k(  272) = (  -0.1818182   0.0000000  -0.3340213), wk =   0.0030053
        k(  273) = (   0.0909091   0.1574592  -0.3340213), wk =   0.0030053
        k(  274) = (   0.0909091  -0.1574592  -0.4453618), wk =   0.0030053
        k(  275) = (  -0.1818182   0.0000000   0.4453618), wk =   0.0030053
        k(  276) = (   0.0909091  -0.1574592   0.4453618), wk =   0.0030053
        k(  277) = (  -0.1818182   0.0000000  -0.4453618), wk =   0.0030053
        k(  278) = (   0.0909091   0.1574592  -0.4453618), wk =   0.0030053
        k(  279) = (   0.0909091  -0.1574592  -0.5567022), wk =   0.0030053
        k(  280) = (  -0.1818182   0.0000000   0.5567022), wk =   0.0030053
        k(  281) = (   0.0909091  -0.1574592   0.5567022), wk =   0.0030053
        k(  282) = (  -0.1818182   0.0000000  -0.5567022), wk =   0.0030053
        k(  283) = (   0.0909091   0.1574592  -0.5567022), wk =   0.0030053
        k(  284) = (   0.0909091  -0.2624319   0.0371135), wk =   0.0030053
        k(  285) = (  -0.2727273  -0.0524864  -0.0371135), wk =   0.0030053
        k(  286) = (   0.1818182  -0.2099456  -0.0371135), wk =   0.0030053
        k(  287) = (  -0.2727273   0.0524864   0.0371135), wk =   0.0030053
        k(  288) = (   0.1818182   0.2099456   0.0371135), wk =   0.0030053
        k(  289) = (   0.0909091  -0.2624319  -0.0742270), wk =   0.0030053
        k(  290) = (  -0.2727273  -0.0524864   0.0742270), wk =   0.0030053
        k(  291) = (   0.1818182  -0.2099456   0.0742270), wk =   0.0030053
        k(  292) = (  -0.2727273   0.0524864  -0.0742270), wk =   0.0030053
        k(  293) = (   0.1818182   0.2099456  -0.0742270), wk =   0.0030053
        k(  294) = (   0.0909091  -0.2624319  -0.1855674), wk =   0.0030053
        k(  295) = (  -0.2727273  -0.0524864   0.1855674), wk =   0.0030053
        k(  296) = (   0.1818182  -0.2099456   0.1855674), wk =   0.0030053
        k(  297) = (  -0.2727273   0.0524864  -0.1855674), wk =   0.0030053
        k(  298) = (   0.1818182   0.2099456  -0.1855674), wk =   0.0030053
        k(  299) = (   0.0909091  -0.2624319  -0.2969078), wk =   0.0030053
        k(  300) = (  -0.2727273  -0.0524864   0.2969078), wk =   0.0030053
        k(  301) = (   0.1818182  -0.2099456   0.2969078), wk =   0.0030053
        k(  302) = (  -0.2727273   0.0524864  -0.2969078), wk =   0.0030053
        k(  303) = (   0.1818182   0.2099456  -0.2969078), wk =   0.0030053
        k(  304) = (   0.0909091  -0.2624319  -0.4082483), wk =   0.0030053
        k(  305) = (  -0.2727273  -0.0524864   0.4082483), wk =   0.0030053
        k(  306) = (   0.1818182  -0.2099456   0.4082483), wk =   0.0030053
        k(  307) = (  -0.2727273   0.0524864  -0.4082483), wk =   0.0030053
        k(  308) = (   0.1818182   0.2099456  -0.4082483), wk =   0.0030053
        k(  309) = (   0.0909091  -0.2624319  -0.5195887), wk =   0.0030053
        k(  310) = (  -0.2727273  -0.0524864   0.5195887), wk =   0.0030053
        k(  311) = (   0.1818182  -0.2099456   0.5195887), wk =   0.0030053
        k(  312) = (  -0.2727273   0.0524864  -0.5195887), wk =   0.0030053
        k(  313) = (   0.1818182   0.2099456  -0.5195887), wk =   0.0030053
        k(  314) = (   0.0909091  -0.2624319   0.5938157), wk =   0.0030053
        k(  315) = (  -0.2727273  -0.0524864  -0.5938157), wk =   0.0030053
        k(  316) = (   0.1818182  -0.2099456  -0.5938157), wk =   0.0030053
        k(  317) = (  -0.2727273   0.0524864   0.5938157), wk =   0.0030053
        k(  318) = (   0.1818182   0.2099456   0.5938157), wk =   0.0030053
        k(  319) = (   0.0909091  -0.2624319   0.4824753), wk =   0.0030053
        k(  320) = (  -0.2727273  -0.0524864  -0.4824753), wk =   0.0030053
        k(  321) = (   0.1818182  -0.2099456  -0.4824753), wk =   0.0030053
        k(  322) = (  -0.2727273   0.0524864   0.4824753), wk =   0.0030053
        k(  323) = (   0.1818182   0.2099456   0.4824753), wk =   0.0030053
        k(  324) = (   0.0909091  -0.2624319   0.3711348), wk =   0.0030053
        k(  325) = (  -0.2727273  -0.0524864  -0.3711348), wk =   0.0030053
        k(  326) = (   0.1818182  -0.2099456  -0.3711348), wk =   0.0030053
        k(  327) = (  -0.2727273   0.0524864   0.3711348), wk =   0.0030053
        k(  328) = (   0.1818182   0.2099456   0.3711348), wk =   0.0030053
        k(  329) = (   0.0909091  -0.2624319   0.2597944), wk =   0.0030053
        k(  330) = (  -0.2727273  -0.0524864  -0.2597944), wk =   0.0030053
        k(  331) = (   0.1818182  -0.2099456  -0.2597944), wk =   0.0030053
        k(  332) = (  -0.2727273   0.0524864   0.2597944), wk =   0.0030053
        k(  333) = (   0.1818182   0.2099456   0.2597944), wk =   0.0030053
        k(  334) = (   0.0909091  -0.2624319   0.1484539), wk =   0.0030053
        k(  335) = (  -0.2727273  -0.0524864  -0.1484539), wk =   0.0030053
        k(  336) = (   0.1818182  -0.2099456  -0.1484539), wk =   0.0030053
        k(  337) = (  -0.2727273   0.0524864   0.1484539), wk =   0.0030053
        k(  338) = (   0.1818182   0.2099456   0.1484539), wk =   0.0030053
        k(  339) = (   0.0909091  -0.3674047   0.0742270), wk =   0.0030053
        k(  340) = (  -0.3636364  -0.1049728  -0.0742270), wk =   0.0030053
        k(  341) = (   0.2727273  -0.2624319  -0.0742270), wk =   0.0030053
        k(  342) = (  -0.3636364   0.1049728   0.0742270), wk =   0.0030053
        k(  343) = (   0.2727273   0.2624319   0.0742270), wk =   0.0030053
        k(  344) = (   0.0909091  -0.3674047  -0.0371135), wk =   0.0030053
        k(  345) = (  -0.3636364  -0.1049728   0.0371135), wk =   0.0030053
        k(  346) = (   0.2727273  -0.2624319   0.0371135), wk =   0.0030053
        k(  347) = (  -0.3636364   0.1049728  -0.0371135), wk =   0.0030053
        k(  348) = (   0.2727273   0.2624319  -0.0371135), wk =   0.0030053
        k(  349) = (   0.0909091  -0.3674047  -0.1484539), wk =   0.0030053
        k(  350) = (  -0.3636364  -0.1049728   0.1484539), wk =   0.0030053
        k(  351) = (   0.2727273  -0.2624319   0.1484539), wk =   0.0030053
        k(  352) = (  -0.3636364   0.1049728  -0.1484539), wk =   0.0030053
        k(  353) = (   0.2727273   0.2624319  -0.1484539), wk =   0.0030053
        k(  354) = (   0.0909091  -0.3674047  -0.2597944), wk =   0.0030053
        k(  355) = (  -0.3636364  -0.1049728   0.2597944), wk =   0.0030053
        k(  356) = (   0.2727273  -0.2624319   0.2597944), wk =   0.0030053
        k(  357) = (  -0.3636364   0.1049728  -0.2597944), wk =   0.0030053
        k(  358) = (   0.2727273   0.2624319  -0.2597944), wk =   0.0030053
        k(  359) = (   0.0909091  -0.3674047  -0.3711348), wk =   0.0030053
        k(  360) = (  -0.3636364  -0.1049728   0.3711348), wk =   0.0030053
        k(  361) = (   0.2727273  -0.2624319   0.3711348), wk =   0.0030053
        k(  362) = (  -0.3636364   0.1049728  -0.3711348), wk =   0.0030053
        k(  363) = (   0.2727273   0.2624319  -0.3711348), wk =   0.0030053
        k(  364) = (   0.0909091  -0.3674047  -0.4824753), wk =   0.0030053
        k(  365) = (  -0.3636364  -0.1049728   0.4824753), wk =   0.0030053
        k(  366) = (   0.2727273  -0.2624319   0.4824753), wk =   0.0030053
        k(  367) = (  -0.3636364   0.1049728  -0.4824753), wk =   0.0030053
        k(  368) = (   0.2727273   0.2624319  -0.4824753), wk =   0.0030053
        k(  369) = (   0.0909091  -0.3674047   0.6309292), wk =   0.0030053
        k(  370) = (  -0.3636364  -0.1049728  -0.6309292), wk =   0.0030053
        k(  371) = (   0.2727273  -0.2624319  -0.6309292), wk =   0.0030053
        k(  372) = (  -0.3636364   0.1049728   0.6309292), wk =   0.0030053
        k(  373) = (   0.2727273   0.2624319   0.6309292), wk =   0.0030053
        k(  374) = (   0.0909091  -0.3674047   0.5195887), wk =   0.0030053
        k(  375) = (  -0.3636364  -0.1049728  -0.5195887), wk =   0.0030053
        k(  376) = (   0.2727273  -0.2624319  -0.5195887), wk =   0.0030053
        k(  377) = (  -0.3636364   0.1049728   0.5195887), wk =   0.0030053
        k(  378) = (   0.2727273   0.2624319   0.5195887), wk =   0.0030053
        k(  379) = (   0.0909091  -0.3674047   0.4082483), wk =   0.0030053
        k(  380) = (  -0.3636364  -0.1049728  -0.4082483), wk =   0.0030053
        k(  381) = (   0.2727273  -0.2624319  -0.4082483), wk =   0.0030053
        k(  382) = (  -0.3636364   0.1049728   0.4082483), wk =   0.0030053
        k(  383) = (   0.2727273   0.2624319   0.4082483), wk =   0.0030053
        k(  384) = (   0.0909091  -0.3674047   0.2969078), wk =   0.0030053
        k(  385) = (  -0.3636364  -0.1049728  -0.2969078), wk =   0.0030053
        k(  386) = (   0.2727273  -0.2624319  -0.2969078), wk =   0.0030053
        k(  387) = (  -0.3636364   0.1049728   0.2969078), wk =   0.0030053
        k(  388) = (   0.2727273   0.2624319   0.2969078), wk =   0.0030053
        k(  389) = (   0.0909091  -0.3674047   0.1855674), wk =   0.0030053
        k(  390) = (  -0.3636364  -0.1049728  -0.1855674), wk =   0.0030053
        k(  391) = (   0.2727273  -0.2624319  -0.1855674), wk =   0.0030053
        k(  392) = (  -0.3636364   0.1049728   0.1855674), wk =   0.0030053
        k(  393) = (   0.2727273   0.2624319   0.1855674), wk =   0.0030053
        k(  394) = (   0.0909091  -0.4723775   0.1113404), wk =   0.0030053
        k(  395) = (  -0.4545455  -0.1574592  -0.1113404), wk =   0.0030053
        k(  396) = (   0.3636364  -0.3149183  -0.1113404), wk =   0.0030053
        k(  397) = (  -0.4545455   0.1574592   0.1113404), wk =   0.0030053
        k(  398) = (   0.3636364   0.3149183   0.1113404), wk =   0.0030053
        k(  399) = (   0.0909091  -0.4723775  -0.0000000), wk =   0.0030053
        k(  400) = (  -0.4545455  -0.1574592   0.0000000), wk =   0.0030053
        k(  401) = (   0.3636364  -0.3149183  -0.0000000), wk =   0.0030053
        k(  402) = (  -0.4545455   0.1574592   0.0000000), wk =   0.0030053
        k(  403) = (   0.3636364   0.3149183  -0.0000000), wk =   0.0030053
        k(  404) = (   0.0909091  -0.4723775  -0.1113404), wk =   0.0030053
        k(  405) = (  -0.4545455  -0.1574592   0.1113404), wk =   0.0030053
        k(  406) = (   0.3636364  -0.3149183   0.1113404), wk =   0.0030053
        k(  407) = (  -0.4545455   0.1574592  -0.1113404), wk =   0.0030053
        k(  408) = (   0.3636364   0.3149183  -0.1113404), wk =   0.0030053
        k(  409) = (   0.0909091  -0.4723775  -0.2226809), wk =   0.0030053
        k(  410) = (  -0.4545455  -0.1574592   0.2226809), wk =   0.0030053
        k(  411) = (   0.3636364  -0.3149183   0.2226809), wk =   0.0030053
        k(  412) = (  -0.4545455   0.1574592  -0.2226809), wk =   0.0030053
        k(  413) = (   0.3636364   0.3149183  -0.2226809), wk =   0.0030053
        k(  414) = (   0.0909091  -0.4723775  -0.3340213), wk =   0.0030053
        k(  415) = (  -0.4545455  -0.1574592   0.3340213), wk =   0.0030053
        k(  416) = (   0.3636364  -0.3149183   0.3340213), wk =   0.0030053
        k(  417) = (  -0.4545455   0.1574592  -0.3340213), wk =   0.0030053
        k(  418) = (   0.3636364   0.3149183  -0.3340213), wk =   0.0030053
        k(  419) = (   0.0909091  -0.4723775  -0.4453618), wk =   0.0030053
        k(  420) = (  -0.4545455  -0.1574592   0.4453618), wk =   0.0030053
        k(  421) = (   0.3636364  -0.3149183   0.4453618), wk =   0.0030053
        k(  422) = (  -0.4545455   0.1574592  -0.4453618), wk =   0.0030053
        k(  423) = (   0.3636364   0.3149183  -0.4453618), wk =   0.0030053
        k(  424) = (   0.0909091  -0.4723775   0.6680427), wk =   0.0030053
        k(  425) = (  -0.4545455  -0.1574592  -0.6680427), wk =   0.0030053
        k(  426) = (   0.3636364  -0.3149183  -0.6680427), wk =   0.0030053
        k(  427) = (  -0.4545455   0.1574592   0.6680427), wk =   0.0030053
        k(  428) = (   0.3636364   0.3149183   0.6680427), wk =   0.0030053
        k(  429) = (   0.0909091  -0.4723775   0.5567022), wk =   0.0030053
        k(  430) = (  -0.4545455  -0.1574592  -0.5567022), wk =   0.0030053
        k(  431) = (   0.3636364  -0.3149183  -0.5567022), wk =   0.0030053
        k(  432) = (  -0.4545455   0.1574592   0.5567022), wk =   0.0030053
        k(  433) = (   0.3636364   0.3149183   0.5567022), wk =   0.0030053
        k(  434) = (   0.0909091  -0.4723775   0.4453618), wk =   0.0030053
        k(  435) = (  -0.4545455  -0.1574592  -0.4453618), wk =   0.0030053
        k(  436) = (   0.3636364  -0.3149183  -0.4453618), wk =   0.0030053
        k(  437) = (  -0.4545455   0.1574592   0.4453618), wk =   0.0030053
        k(  438) = (   0.3636364   0.3149183   0.4453618), wk =   0.0030053
        k(  439) = (   0.0909091  -0.4723775   0.3340213), wk =   0.0030053
        k(  440) = (  -0.4545455  -0.1574592  -0.3340213), wk =   0.0030053
        k(  441) = (   0.3636364  -0.3149183  -0.3340213), wk =   0.0030053
        k(  442) = (  -0.4545455   0.1574592   0.3340213), wk =   0.0030053
        k(  443) = (   0.3636364   0.3149183   0.3340213), wk =   0.0030053
        k(  444) = (   0.0909091  -0.4723775   0.2226809), wk =   0.0030053
        k(  445) = (  -0.4545455  -0.1574592  -0.2226809), wk =   0.0030053
        k(  446) = (   0.3636364  -0.3149183  -0.2226809), wk =   0.0030053
        k(  447) = (  -0.4545455   0.1574592   0.2226809), wk =   0.0030053
        k(  448) = (   0.3636364   0.3149183   0.2226809), wk =   0.0030053
        k(  449) = (   0.0909091  -0.5773503   0.1484539), wk =   0.0030053
        k(  450) = (  -0.5454545  -0.2099456  -0.1484539), wk =   0.0030053
        k(  451) = (   0.4545455  -0.3674047  -0.1484539), wk =   0.0030053
        k(  452) = (  -0.5454545   0.2099456   0.1484539), wk =   0.0030053
        k(  453) = (   0.4545455   0.3674047   0.1484539), wk =   0.0030053
        k(  454) = (   0.0909091  -0.5773503   0.0371135), wk =   0.0030053
        k(  455) = (  -0.5454545  -0.2099456  -0.0371135), wk =   0.0030053
        k(  456) = (   0.4545455  -0.3674047  -0.0371135), wk =   0.0030053
        k(  457) = (  -0.5454545   0.2099456   0.0371135), wk =   0.0030053
        k(  458) = (   0.4545455   0.3674047   0.0371135), wk =   0.0030053
        k(  459) = (   0.0909091  -0.5773503  -0.0742270), wk =   0.0030053
        k(  460) = (  -0.5454545  -0.2099456   0.0742270), wk =   0.0030053
        k(  461) = (   0.4545455  -0.3674047   0.0742270), wk =   0.0030053
        k(  462) = (  -0.5454545   0.2099456  -0.0742270), wk =   0.0030053
        k(  463) = (   0.4545455   0.3674047  -0.0742270), wk =   0.0030053
        k(  464) = (   0.0909091  -0.5773503  -0.1855674), wk =   0.0030053
        k(  465) = (  -0.5454545  -0.2099456   0.1855674), wk =   0.0030053
        k(  466) = (   0.4545455  -0.3674047   0.1855674), wk =   0.0030053
        k(  467) = (  -0.5454545   0.2099456  -0.1855674), wk =   0.0030053
        k(  468) = (   0.4545455   0.3674047  -0.1855674), wk =   0.0030053
        k(  469) = (   0.0909091  -0.5773503  -0.2969078), wk =   0.0030053
        k(  470) = (  -0.5454545  -0.2099456   0.2969078), wk =   0.0030053
        k(  471) = (   0.4545455  -0.3674047   0.2969078), wk =   0.0030053
        k(  472) = (  -0.5454545   0.2099456  -0.2969078), wk =   0.0030053
        k(  473) = (   0.4545455   0.3674047  -0.2969078), wk =   0.0030053
        k(  474) = (  -0.5454545  -0.2099456   0.4082483), wk =   0.0030053
        k(  475) = (   0.4545455  -0.3674047   0.4082483), wk =   0.0030053
        k(  476) = (   0.1818182  -0.3149183  -0.0000000), wk =   0.0030053
        k(  477) = (  -0.3636364   0.0000000   0.0000000), wk =   0.0030053
        k(  478) = (   0.1818182  -0.3149183  -0.1113404), wk =   0.0030053
        k(  479) = (  -0.3636364   0.0000000   0.1113404), wk =   0.0030053
        k(  480) = (   0.1818182  -0.3149183   0.1113404), wk =   0.0030053
        k(  481) = (  -0.3636364   0.0000000  -0.1113404), wk =   0.0030053
        k(  482) = (   0.1818182   0.3149183  -0.1113404), wk =   0.0030053
        k(  483) = (   0.1818182  -0.3149183  -0.2226809), wk =   0.0030053
        k(  484) = (  -0.3636364   0.0000000   0.2226809), wk =   0.0030053
        k(  485) = (   0.1818182  -0.3149183   0.2226809), wk =   0.0030053
        k(  486) = (  -0.3636364   0.0000000  -0.2226809), wk =   0.0030053
        k(  487) = (   0.1818182   0.3149183  -0.2226809), wk =   0.0030053
        k(  488) = (   0.1818182  -0.3149183  -0.3340213), wk =   0.0030053
        k(  489) = (  -0.3636364   0.0000000   0.3340213), wk =   0.0030053
        k(  490) = (   0.1818182  -0.3149183   0.3340213), wk =   0.0030053
        k(  491) = (  -0.3636364   0.0000000  -0.3340213), wk =   0.0030053
        k(  492) = (   0.1818182   0.3149183  -0.3340213), wk =   0.0030053
        k(  493) = (   0.1818182  -0.3149183  -0.4453618), wk =   0.0030053
        k(  494) = (  -0.3636364   0.0000000   0.4453618), wk =   0.0030053
        k(  495) = (   0.1818182  -0.3149183   0.4453618), wk =   0.0030053
        k(  496) = (  -0.3636364   0.0000000  -0.4453618), wk =   0.0030053
        k(  497) = (   0.1818182   0.3149183  -0.4453618), wk =   0.0030053
        k(  498) = (   0.1818182  -0.3149183  -0.5567022), wk =   0.0030053
        k(  499) = (  -0.3636364   0.0000000   0.5567022), wk =   0.0030053
        k(  500) = (   0.1818182  -0.3149183   0.5567022), wk =   0.0030053
        k(  501) = (  -0.3636364   0.0000000  -0.5567022), wk =   0.0030053
        k(  502) = (   0.1818182   0.3149183  -0.5567022), wk =   0.0030053
        k(  503) = (   0.1818182  -0.4198911   0.0371135), wk =   0.0030053
        k(  504) = (  -0.4545455  -0.0524864  -0.0371135), wk =   0.0030053
        k(  505) = (   0.2727273  -0.3674047  -0.0371135), wk =   0.0030053
        k(  506) = (  -0.4545455   0.0524864   0.0371135), wk =   0.0030053
        k(  507) = (   0.2727273   0.3674047   0.0371135), wk =   0.0030053
        k(  508) = (   0.1818182  -0.4198911  -0.0742270), wk =   0.0030053
        k(  509) = (  -0.4545455  -0.0524864   0.0742270), wk =   0.0030053
        k(  510) = (   0.2727273  -0.3674047   0.0742270), wk =   0.0030053
        k(  511) = (  -0.4545455   0.0524864  -0.0742270), wk =   0.0030053
        k(  512) = (   0.2727273   0.3674047  -0.0742270), wk =   0.0030053
        k(  513) = (   0.1818182  -0.4198911  -0.1855674), wk =   0.0030053
        k(  514) = (  -0.4545455  -0.0524864   0.1855674), wk =   0.0030053
        k(  515) = (   0.2727273  -0.3674047   0.1855674), wk =   0.0030053
        k(  516) = (  -0.4545455   0.0524864  -0.1855674), wk =   0.0030053
        k(  517) = (   0.2727273   0.3674047  -0.1855674), wk =   0.0030053
        k(  518) = (   0.1818182  -0.4198911  -0.2969078), wk =   0.0030053
        k(  519) = (  -0.4545455  -0.0524864   0.2969078), wk =   0.0030053
        k(  520) = (   0.2727273  -0.3674047   0.2969078), wk =   0.0030053
        k(  521) = (  -0.4545455   0.0524864  -0.2969078), wk =   0.0030053
        k(  522) = (   0.2727273   0.3674047  -0.2969078), wk =   0.0030053
        k(  523) = (   0.1818182  -0.4198911  -0.4082483), wk =   0.0030053
        k(  524) = (  -0.4545455  -0.0524864   0.4082483), wk =   0.0030053
        k(  525) = (   0.2727273  -0.3674047   0.4082483), wk =   0.0030053
        k(  526) = (  -0.4545455   0.0524864  -0.4082483), wk =   0.0030053
        k(  527) = (   0.2727273   0.3674047  -0.4082483), wk =   0.0030053
        k(  528) = (   0.1818182  -0.4198911  -0.5195887), wk =   0.0030053
        k(  529) = (  -0.4545455  -0.0524864   0.5195887), wk =   0.0030053
        k(  530) = (   0.2727273  -0.3674047   0.5195887), wk =   0.0030053
        k(  531) = (  -0.4545455   0.0524864  -0.5195887), wk =   0.0030053
        k(  532) = (   0.2727273   0.3674047  -0.5195887), wk =   0.0030053
        k(  533) = (   0.1818182  -0.4198911   0.5938157), wk =   0.0030053
        k(  534) = (  -0.4545455  -0.0524864  -0.5938157), wk =   0.0030053
        k(  535) = (   0.2727273  -0.3674047  -0.5938157), wk =   0.0030053
        k(  536) = (  -0.4545455   0.0524864   0.5938157), wk =   0.0030053
        k(  537) = (   0.2727273   0.3674047   0.5938157), wk =   0.0030053
        k(  538) = (   0.1818182  -0.4198911   0.4824753), wk =   0.0030053
        k(  539) = (  -0.4545455  -0.0524864  -0.4824753), wk =   0.0030053
        k(  540) = (   0.2727273  -0.3674047  -0.4824753), wk =   0.0030053
        k(  541) = (  -0.4545455   0.0524864   0.4824753), wk =   0.0030053
        k(  542) = (   0.2727273   0.3674047   0.4824753), wk =   0.0030053
        k(  543) = (   0.1818182  -0.4198911   0.3711348), wk =   0.0030053
        k(  544) = (  -0.4545455  -0.0524864  -0.3711348), wk =   0.0030053
        k(  545) = (   0.2727273  -0.3674047  -0.3711348), wk =   0.0030053
        k(  546) = (  -0.4545455   0.0524864   0.3711348), wk =   0.0030053
        k(  547) = (   0.2727273   0.3674047   0.3711348), wk =   0.0030053
        k(  548) = (   0.1818182  -0.4198911   0.2597944), wk =   0.0030053
        k(  549) = (  -0.4545455  -0.0524864  -0.2597944), wk =   0.0030053
        k(  550) = (   0.2727273  -0.3674047  -0.2597944), wk =   0.0030053
        k(  551) = (  -0.4545455   0.0524864   0.2597944), wk =   0.0030053
        k(  552) = (   0.2727273   0.3674047   0.2597944), wk =   0.0030053
        k(  553) = (   0.1818182  -0.4198911   0.1484539), wk =   0.0030053
        k(  554) = (  -0.4545455  -0.0524864  -0.1484539), wk =   0.0030053
        k(  555) = (   0.2727273  -0.3674047  -0.1484539), wk =   0.0030053
        k(  556) = (  -0.4545455   0.0524864   0.1484539), wk =   0.0030053
        k(  557) = (   0.2727273   0.3674047   0.1484539), wk =   0.0030053
        k(  558) = (   0.1818182  -0.5248639   0.0742270), wk =   0.0030053
        k(  559) = (  -0.5454545  -0.1049728  -0.0742270), wk =   0.0030053
        k(  560) = (   0.3636364  -0.4198911  -0.0742270), wk =   0.0030053
        k(  561) = (  -0.5454545   0.1049728   0.0742270), wk =   0.0030053
        k(  562) = (   0.3636364   0.4198911   0.0742270), wk =   0.0030053
        k(  563) = (   0.1818182  -0.5248639  -0.0371135), wk =   0.0030053
        k(  564) = (  -0.5454545  -0.1049728   0.0371135), wk =   0.0030053
        k(  565) = (   0.3636364  -0.4198911   0.0371135), wk =   0.0030053
        k(  566) = (  -0.5454545   0.1049728  -0.0371135), wk =   0.0030053
        k(  567) = (   0.3636364   0.4198911  -0.0371135), wk =   0.0030053
        k(  568) = (   0.1818182  -0.5248639  -0.1484539), wk =   0.0030053
        k(  569) = (  -0.5454545  -0.1049728   0.1484539), wk =   0.0030053
        k(  570) = (   0.3636364  -0.4198911   0.1484539), wk =   0.0030053
        k(  571) = (  -0.5454545   0.1049728  -0.1484539), wk =   0.0030053
        k(  572) = (   0.3636364   0.4198911  -0.1484539), wk =   0.0030053
        k(  573) = (   0.1818182  -0.5248639  -0.2597944), wk =   0.0030053
        k(  574) = (  -0.5454545  -0.1049728   0.2597944), wk =   0.0030053
        k(  575) = (   0.3636364  -0.4198911   0.2597944), wk =   0.0030053
        k(  576) = (  -0.5454545   0.1049728  -0.2597944), wk =   0.0030053
        k(  577) = (   0.3636364   0.4198911  -0.2597944), wk =   0.0030053
        k(  578) = (   0.1818182  -0.5248639  -0.3711348), wk =   0.0030053
        k(  579) = (  -0.5454545  -0.1049728   0.3711348), wk =   0.0030053
        k(  580) = (   0.3636364  -0.4198911   0.3711348), wk =   0.0030053
        k(  581) = (  -0.5454545   0.1049728  -0.3711348), wk =   0.0030053
        k(  582) = (   0.3636364   0.4198911  -0.3711348), wk =   0.0030053
        k(  583) = (   0.1818182  -0.5248639  -0.4824753), wk =   0.0030053
        k(  584) = (  -0.5454545  -0.1049728   0.4824753), wk =   0.0030053
        k(  585) = (   0.3636364  -0.4198911   0.4824753), wk =   0.0030053
        k(  586) = (  -0.5454545   0.1049728  -0.4824753), wk =   0.0030053
        k(  587) = (   0.3636364   0.4198911  -0.4824753), wk =   0.0030053
        k(  588) = (   0.1818182  -0.5248639   0.6309292), wk =   0.0030053
        k(  589) = (  -0.5454545  -0.1049728  -0.6309292), wk =   0.0030053
        k(  590) = (   0.3636364  -0.4198911  -0.6309292), wk =   0.0030053
        k(  591) = (  -0.5454545   0.1049728   0.6309292), wk =   0.0030053
        k(  592) = (   0.3636364   0.4198911   0.6309292), wk =   0.0030053
        k(  593) = (   0.1818182  -0.5248639   0.5195887), wk =   0.0030053
        k(  594) = (  -0.5454545  -0.1049728  -0.5195887), wk =   0.0030053
        k(  595) = (   0.3636364  -0.4198911  -0.5195887), wk =   0.0030053
        k(  596) = (  -0.5454545   0.1049728   0.5195887), wk =   0.0030053
        k(  597) = (   0.3636364   0.4198911   0.5195887), wk =   0.0030053
        k(  598) = (   0.1818182  -0.5248639   0.4082483), wk =   0.0030053
        k(  599) = (  -0.5454545  -0.1049728  -0.4082483), wk =   0.0030053
        k(  600) = (   0.3636364  -0.4198911  -0.4082483), wk =   0.0030053
        k(  601) = (  -0.5454545   0.1049728   0.4082483), wk =   0.0030053
        k(  602) = (   0.3636364   0.4198911   0.4082483), wk =   0.0030053
        k(  603) = (   0.1818182  -0.5248639   0.2969078), wk =   0.0030053
        k(  604) = (  -0.5454545  -0.1049728  -0.2969078), wk =   0.0030053
        k(  605) = (   0.3636364  -0.4198911  -0.2969078), wk =   0.0030053
        k(  606) = (  -0.5454545   0.1049728   0.2969078), wk =   0.0030053
        k(  607) = (   0.3636364   0.4198911   0.2969078), wk =   0.0030053
        k(  608) = (   0.1818182  -0.5248639   0.1855674), wk =   0.0030053
        k(  609) = (  -0.5454545  -0.1049728  -0.1855674), wk =   0.0030053
        k(  610) = (   0.3636364  -0.4198911  -0.1855674), wk =   0.0030053
        k(  611) = (  -0.5454545   0.1049728   0.1855674), wk =   0.0030053
        k(  612) = (   0.3636364   0.4198911   0.1855674), wk =   0.0030053
        k(  613) = (   0.2727273  -0.4723775  -0.0000000), wk =   0.0030053
        k(  614) = (  -0.5454545   0.0000000   0.0000000), wk =   0.0030053
        k(  615) = (   0.2727273  -0.4723775  -0.1113404), wk =   0.0030053
        k(  616) = (  -0.5454545   0.0000000   0.1113404), wk =   0.0030053
        k(  617) = (   0.2727273  -0.4723775   0.1113404), wk =   0.0030053
        k(  618) = (  -0.5454545   0.0000000  -0.1113404), wk =   0.0030053
        k(  619) = (   0.2727273   0.4723775  -0.1113404), wk =   0.0030053
        k(  620) = (   0.2727273  -0.4723775  -0.2226809), wk =   0.0030053
        k(  621) = (  -0.5454545   0.0000000   0.2226809), wk =   0.0030053
        k(  622) = (   0.2727273  -0.4723775   0.2226809), wk =   0.0030053
        k(  623) = (  -0.5454545   0.0000000  -0.2226809), wk =   0.0030053
        k(  624) = (   0.2727273   0.4723775  -0.2226809), wk =   0.0030053
        k(  625) = (   0.2727273  -0.4723775  -0.3340213), wk =   0.0030053
        k(  626) = (  -0.5454545   0.0000000   0.3340213), wk =   0.0030053
        k(  627) = (   0.2727273  -0.4723775   0.3340213), wk =   0.0030053
        k(  628) = (  -0.5454545   0.0000000  -0.3340213), wk =   0.0030053
        k(  629) = (   0.2727273   0.4723775  -0.3340213), wk =   0.0030053
        k(  630) = (   0.2727273  -0.4723775  -0.4453618), wk =   0.0030053
        k(  631) = (  -0.5454545   0.0000000   0.4453618), wk =   0.0030053
        k(  632) = (   0.2727273  -0.4723775   0.4453618), wk =   0.0030053
        k(  633) = (  -0.5454545   0.0000000  -0.4453618), wk =   0.0030053
        k(  634) = (   0.2727273   0.4723775  -0.4453618), wk =   0.0030053
        k(  635) = (   0.2727273  -0.4723775  -0.5567022), wk =   0.0030053
        k(  636) = (  -0.5454545   0.0000000   0.5567022), wk =   0.0030053
        k(  637) = (   0.2727273  -0.4723775   0.5567022), wk =   0.0030053
        k(  638) = (  -0.5454545   0.0000000  -0.5567022), wk =   0.0030053
        k(  639) = (   0.2727273   0.4723775  -0.5567022), wk =   0.0030053
        k(  640) = (   0.2727273  -0.5773503   0.0371135), wk =   0.0030053
        k(  641) = (  -0.6363636  -0.0524864  -0.0371135), wk =   0.0030053
        k(  642) = (   0.3636364  -0.5248639  -0.0371135), wk =   0.0030053
        k(  643) = (  -0.6363636   0.0524864   0.0371135), wk =   0.0030053
        k(  644) = (   0.3636364   0.5248639   0.0371135), wk =   0.0030053
        k(  645) = (   0.2727273  -0.5773503  -0.0742270), wk =   0.0030053
        k(  646) = (  -0.6363636  -0.0524864   0.0742270), wk =   0.0030053
        k(  647) = (   0.3636364  -0.5248639   0.0742270), wk =   0.0030053
        k(  648) = (  -0.6363636   0.0524864  -0.0742270), wk =   0.0030053
        k(  649) = (   0.3636364   0.5248639  -0.0742270), wk =   0.0030053
        k(  650) = (   0.2727273  -0.5773503  -0.1855674), wk =   0.0030053
        k(  651) = (  -0.6363636  -0.0524864   0.1855674), wk =   0.0030053
        k(  652) = (   0.3636364  -0.5248639   0.1855674), wk =   0.0030053
        k(  653) = (  -0.6363636   0.0524864  -0.1855674), wk =   0.0030053
        k(  654) = (   0.3636364   0.5248639  -0.1855674), wk =   0.0030053
        k(  655) = (   0.2727273  -0.5773503  -0.2969078), wk =   0.0030053
        k(  656) = (  -0.6363636  -0.0524864   0.2969078), wk =   0.0030053
        k(  657) = (   0.3636364  -0.5248639   0.2969078), wk =   0.0030053
        k(  658) = (  -0.6363636   0.0524864  -0.2969078), wk =   0.0030053
        k(  659) = (   0.3636364   0.5248639  -0.2969078), wk =   0.0030053
        k(  660) = (  -0.6363636  -0.0524864   0.4082483), wk =   0.0030053
        k(  661) = (   0.3636364  -0.5248639   0.4082483), wk =   0.0030053
        k(  662) = (   0.2727273  -0.5773503   0.2597944), wk =   0.0030053
        k(  663) = (  -0.6363636  -0.0524864  -0.2597944), wk =   0.0030053
        k(  664) = (   0.3636364  -0.5248639  -0.2597944), wk =   0.0030053
        k(  665) = (  -0.6363636   0.0524864   0.2597944), wk =   0.0030053
        k(  666) = (   0.3636364   0.5248639   0.2597944), wk =   0.0030053

                       cryst. coord.
        k(    1) = (   0.0000000   0.0000000   0.0000000), wk =   0.0015026
        k(    2) = (   0.0000000   0.0000000   0.0909091), wk =   0.0030053
        k(    3) = (   0.0000000   0.0000000   0.1818182), wk =   0.0030053
        k(    4) = (   0.0000000   0.0000000   0.2727273), wk =   0.0030053
        k(    5) = (   0.0000000   0.0000000   0.3636364), wk =   0.0030053
        k(    6) = (   0.0000000   0.0000000   0.4545455), wk =   0.0030053
        k(    7) = (   0.0000000   0.0909091  -0.0000000), wk =   0.0030053
        k(    8) = (   0.0000000   0.0909091   0.0909091), wk =   0.0030053
        k(    9) = (   0.0000000   0.0909091   0.1818182), wk =   0.0030053
        k(   10) = (   0.0000000   0.0909091   0.2727273), wk =   0.0030053
        k(   11) = (   0.0000000   0.0909091   0.3636364), wk =   0.0030053
        k(   12) = (   0.0000000   0.0909091   0.4545455), wk =   0.0030053
        k(   13) = (   0.0000000   0.0909091  -0.4545455), wk =   0.0030053
        k(   14) = (   0.0000000   0.0909091  -0.3636364), wk =   0.0030053
        k(   15) = (   0.0000000   0.0909091  -0.2727273), wk =   0.0030053
        k(   16) = (   0.0000000   0.0909091  -0.1818182), wk =   0.0030053
        k(   17) = (   0.0000000   0.0909091  -0.0909091), wk =   0.0030053
        k(   18) = (   0.0000000   0.1818182  -0.0000000), wk =   0.0030053
        k(   19) = (   0.0000000   0.1818182   0.0909091), wk =   0.0030053
        k(   20) = (   0.0000000   0.1818182   0.1818182), wk =   0.0030053
        k(   21) = (   0.0000000   0.1818182   0.2727273), wk =   0.0030053
        k(   22) = (   0.0000000   0.1818182   0.3636364), wk =   0.0030053
        k(   23) = (   0.0000000   0.1818182   0.4545455), wk =   0.0030053
        k(   24) = (   0.0000000   0.1818182  -0.4545455), wk =   0.0030053
        k(   25) = (   0.0000000   0.1818182  -0.3636364), wk =   0.0030053
        k(   26) = (   0.0000000   0.1818182  -0.2727273), wk =   0.0030053
        k(   27) = (   0.0000000   0.1818182  -0.1818182), wk =   0.0030053
        k(   28) = (   0.0000000   0.1818182  -0.0909091), wk =   0.0030053
        k(   29) = (   0.0000000   0.2727273   0.0000000), wk =   0.0030053
        k(   30) = (   0.0000000   0.2727273   0.0909091), wk =   0.0030053
        k(   31) = (   0.0000000   0.2727273   0.1818182), wk =   0.0030053
        k(   32) = (   0.0000000   0.2727273   0.2727273), wk =   0.0030053
        k(   33) = (   0.0000000   0.2727273   0.3636364), wk =   0.0030053
        k(   34) = (   0.0000000   0.2727273   0.4545455), wk =   0.0030053
        k(   35) = (   0.0000000   0.2727273  -0.4545455), wk =   0.0030053
        k(   36) = (   0.0000000   0.2727273  -0.3636364), wk =   0.0030053
        k(   37) = (   0.0000000   0.2727273  -0.2727273), wk =   0.0030053
        k(   38) = (   0.0000000   0.2727273  -0.1818182), wk =   0.0030053
        k(   39) = (   0.0000000   0.2727273  -0.0909091), wk =   0.0030053
        k(   40) = (   0.0000000   0.3636364  -0.0000000), wk =   0.0030053
        k(   41) = (   0.0000000   0.3636364   0.0909091), wk =   0.0030053
        k(   42) = (   0.0000000   0.3636364   0.1818182), wk =   0.0030053
        k(   43) = (   0.0000000   0.3636364   0.2727273), wk =   0.0030053
        k(   44) = (   0.0000000   0.3636364   0.3636364), wk =   0.0030053
        k(   45) = (   0.0000000   0.3636364   0.4545455), wk =   0.0030053
        k(   46) = (   0.0000000   0.3636364  -0.4545455), wk =   0.0030053
        k(   47) = (   0.0000000   0.3636364  -0.3636364), wk =   0.0030053
        k(   48) = (   0.0000000   0.3636364  -0.2727273), wk =   0.0030053
        k(   49) = (   0.0000000   0.3636364  -0.1818182), wk =   0.0030053
        k(   50) = (   0.0000000   0.3636364  -0.0909091), wk =   0.0030053
        k(   51) = (   0.0000000   0.4545455  -0.0000000), wk =   0.0030053
        k(   52) = (   0.0000000   0.4545455   0.0909091), wk =   0.0030053
        k(   53) = (   0.0000000   0.4545455   0.1818182), wk =   0.0030053
        k(   54) = (   0.0000000   0.4545455   0.2727273), wk =   0.0030053
        k(   55) = (   0.0000000   0.4545455   0.3636364), wk =   0.0030053
        k(   56) = (   0.0000000   0.4545455   0.4545455), wk =   0.0030053
        k(   57) = (   0.0000000   0.4545455  -0.4545455), wk =   0.0030053
        k(   58) = (   0.0000000   0.4545455  -0.3636364), wk =   0.0030053
        k(   59) = (   0.0000000   0.4545455  -0.2727273), wk =   0.0030053
        k(   60) = (   0.0000000   0.4545455  -0.1818182), wk =   0.0030053
        k(   61) = (   0.0000000   0.4545455  -0.0909091), wk =   0.0030053
        k(   62) = (   0.0909091   0.0909091   0.0000000), wk =   0.0030053
        k(   63) = (   0.0909091   0.0909091   0.0909091), wk =   0.0030053
        k(   64) = (   0.0909091   0.0909091   0.1818182), wk =   0.0030053
        k(   65) = (   0.0909091   0.0909091   0.2727273), wk =   0.0030053
        k(   66) = (   0.0909091   0.0909091   0.3636364), wk =   0.0030053
        k(   67) = (   0.0909091   0.0909091   0.4545455), wk =   0.0030053
        k(   68) = (   0.0909091   0.1818182   0.0000000), wk =   0.0030053
        k(   69) = (   0.0909091   0.1818182   0.0909091), wk =   0.0030053
        k(   70) = (   0.0909091   0.1818182   0.1818182), wk =   0.0030053
        k(   71) = (   0.0909091   0.1818182   0.2727273), wk =   0.0030053
        k(   72) = (   0.0909091   0.1818182   0.3636364), wk =   0.0030053
        k(   73) = (   0.0909091   0.1818182   0.4545455), wk =   0.0030053
        k(   74) = (   0.0909091   0.1818182  -0.4545455), wk =   0.0030053
        k(   75) = (   0.0909091   0.1818182  -0.3636364), wk =   0.0030053
        k(   76) = (   0.0909091   0.1818182  -0.2727273), wk =   0.0030053
        k(   77) = (   0.0909091   0.1818182  -0.1818182), wk =   0.0030053
        k(   78) = (   0.0909091   0.1818182  -0.0909091), wk =   0.0030053
        k(   79) = (   0.0909091   0.2727273  -0.0000000), wk =   0.0030053
        k(   80) = (   0.0909091   0.2727273   0.0909091), wk =   0.0030053
        k(   81) = (   0.0909091   0.2727273   0.1818182), wk =   0.0030053
        k(   82) = (   0.0909091   0.2727273   0.2727273), wk =   0.0030053
        k(   83) = (   0.0909091   0.2727273   0.3636364), wk =   0.0030053
        k(   84) = (   0.0909091   0.2727273   0.4545455), wk =   0.0030053
        k(   85) = (   0.0909091   0.2727273  -0.4545455), wk =   0.0030053
        k(   86) = (   0.0909091   0.2727273  -0.3636364), wk =   0.0030053
        k(   87) = (   0.0909091   0.2727273  -0.2727273), wk =   0.0030053
        k(   88) = (   0.0909091   0.2727273  -0.1818182), wk =   0.0030053
        k(   89) = (   0.0909091   0.2727273  -0.0909091), wk =   0.0030053
        k(   90) = (   0.0909091   0.3636364  -0.0000000), wk =   0.0030053
        k(   91) = (   0.0909091   0.3636364   0.0909091), wk =   0.0030053
        k(   92) = (   0.0909091   0.3636364   0.1818182), wk =   0.0030053
        k(   93) = (   0.0909091   0.3636364   0.2727273), wk =   0.0030053
        k(   94) = (   0.0909091   0.3636364   0.3636364), wk =   0.0030053
        k(   95) = (   0.0909091   0.3636364   0.4545455), wk =   0.0030053
        k(   96) = (   0.0909091   0.3636364  -0.4545455), wk =   0.0030053
        k(   97) = (   0.0909091   0.3636364  -0.3636364), wk =   0.0030053
        k(   98) = (   0.0909091   0.3636364  -0.2727273), wk =   0.0030053
        k(   99) = (   0.0909091   0.3636364  -0.1818182), wk =   0.0030053
        k(  100) = (   0.0909091   0.3636364  -0.0909091), wk =   0.0030053
        k(  101) = (   0.0909091   0.4545455  -0.0000000), wk =   0.0030053
        k(  102) = (   0.0909091   0.4545455   0.0909091), wk =   0.0030053
        k(  103) = (   0.0909091   0.4545455   0.1818182), wk =   0.0030053
        k(  104) = (   0.0909091   0.4545455   0.2727273), wk =   0.0030053
        k(  105) = (   0.0909091   0.4545455   0.3636364), wk =   0.0030053
        k(  106) = (   0.0909091   0.4545455   0.4545455), wk =   0.0030053
        k(  107) = (   0.1818182   0.1818182   0.0000000), wk =   0.0030053
        k(  108) = (   0.1818182   0.1818182   0.0909091), wk =   0.0030053
        k(  109) = (   0.1818182   0.1818182   0.1818182), wk =   0.0030053
        k(  110) = (   0.1818182   0.1818182   0.2727273), wk =   0.0030053
        k(  111) = (   0.1818182   0.1818182   0.3636364), wk =   0.0030053
        k(  112) = (   0.1818182   0.1818182   0.4545455), wk =   0.0030053
        k(  113) = (   0.1818182   0.2727273   0.0000000), wk =   0.0030053
        k(  114) = (   0.1818182   0.2727273   0.0909091), wk =   0.0030053
        k(  115) = (   0.1818182   0.2727273   0.1818182), wk =   0.0030053
        k(  116) = (   0.1818182   0.2727273   0.2727273), wk =   0.0030053
        k(  117) = (   0.1818182   0.2727273   0.3636364), wk =   0.0030053
        k(  118) = (   0.1818182   0.2727273   0.4545455), wk =   0.0030053
        k(  119) = (   0.1818182   0.2727273  -0.4545455), wk =   0.0030053
        k(  120) = (   0.1818182   0.2727273  -0.3636364), wk =   0.0030053
        k(  121) = (   0.1818182   0.2727273  -0.2727273), wk =   0.0030053
        k(  122) = (   0.1818182   0.2727273  -0.1818182), wk =   0.0030053
        k(  123) = (   0.1818182   0.2727273  -0.0909091), wk =   0.0030053
        k(  124) = (   0.1818182   0.3636364   0.0000000), wk =   0.0030053
        k(  125) = (   0.1818182   0.3636364   0.0909091), wk =   0.0030053
        k(  126) = (   0.1818182   0.3636364   0.1818182), wk =   0.0030053
        k(  127) = (   0.1818182   0.3636364   0.2727273), wk =   0.0030053
        k(  128) = (   0.1818182   0.3636364   0.3636364), wk =   0.0030053
        k(  129) = (   0.1818182   0.3636364   0.4545455), wk =   0.0030053
        k(  130) = (   0.1818182   0.3636364  -0.4545455), wk =   0.0030053
        k(  131) = (   0.1818182   0.3636364  -0.3636364), wk =   0.0030053
        k(  132) = (   0.1818182   0.3636364  -0.2727273), wk =   0.0030053
        k(  133) = (   0.1818182   0.3636364  -0.1818182), wk =   0.0030053
        k(  134) = (   0.1818182   0.3636364  -0.0909091), wk =   0.0030053
        k(  135) = (   0.2727273   0.2727273  -0.0000000), wk =   0.0030053
        k(  136) = (   0.2727273   0.2727273   0.0909091), wk =   0.0030053
        k(  137) = (   0.2727273   0.2727273   0.1818182), wk =   0.0030053
        k(  138) = (   0.2727273   0.2727273   0.2727273), wk =   0.0030053
        k(  139) = (   0.2727273   0.2727273   0.3636364), wk =   0.0030053
        k(  140) = (   0.2727273   0.2727273   0.4545455), wk =   0.0030053
        k(  141) = (   0.2727273   0.3636364   0.0000000), wk =   0.0030053
        k(  142) = (   0.2727273   0.3636364   0.0909091), wk =   0.0030053
        k(  143) = (   0.2727273   0.3636364   0.1818182), wk =   0.0030053
        k(  144) = (   0.2727273   0.3636364   0.2727273), wk =   0.0030053
        k(  145) = (   0.2727273   0.3636364   0.3636364), wk =   0.0030053
        k(  146) = (   0.2727273   0.3636364  -0.1818182), wk =   0.0030053
        k(  147) = (  -0.0909091   0.0000000  -0.0000000), wk =   0.0030053
        k(  148) = (   0.0909091  -0.0909091  -0.0909091), wk =   0.0030053
        k(  149) = (  -0.0909091   0.0000000   0.0909091), wk =   0.0030053
        k(  150) = (   0.0909091  -0.0909091   0.0000000), wk =   0.0030053
        k(  151) = (  -0.0909091   0.0000000   0.1818182), wk =   0.0030053
        k(  152) = (   0.0909091  -0.0909091   0.0909091), wk =   0.0030053
        k(  153) = (  -0.0909091   0.0000000   0.2727273), wk =   0.0030053
        k(  154) = (   0.0909091  -0.0909091   0.1818182), wk =   0.0030053
        k(  155) = (  -0.0909091   0.0000000   0.3636364), wk =   0.0030053
        k(  156) = (   0.0909091  -0.0909091   0.2727273), wk =   0.0030053
        k(  157) = (  -0.0909091   0.0000000   0.4545455), wk =   0.0030053
        k(  158) = (   0.0909091  -0.0909091   0.3636364), wk =   0.0030053
        k(  159) = (  -0.0909091   0.0000000  -0.4545455), wk =   0.0030053
        k(  160) = (   0.0909091  -0.0909091  -0.5454545), wk =   0.0030053
        k(  161) = (  -0.0909091   0.0000000  -0.3636364), wk =   0.0030053
        k(  162) = (   0.0909091  -0.0909091  -0.4545455), wk =   0.0030053
        k(  163) = (  -0.0909091   0.0000000  -0.2727273), wk =   0.0030053
        k(  164) = (   0.0909091  -0.0909091  -0.3636364), wk =   0.0030053
        k(  165) = (  -0.0909091   0.0000000  -0.1818182), wk =   0.0030053
        k(  166) = (   0.0909091  -0.0909091  -0.2727273), wk =   0.0030053
        k(  167) = (  -0.0909091   0.0000000  -0.0909091), wk =   0.0030053
        k(  168) = (   0.0909091  -0.0909091  -0.1818182), wk =   0.0030053
        k(  169) = (  -0.1818182   0.0000000  -0.0000000), wk =   0.0030053
        k(  170) = (   0.1818182  -0.1818182  -0.1818182), wk =   0.0030053
        k(  171) = (  -0.1818182   0.0000000   0.0909091), wk =   0.0030053
        k(  172) = (   0.1818182  -0.1818182  -0.0909091), wk =   0.0030053
        k(  173) = (  -0.1818182   0.0000000   0.1818182), wk =   0.0030053
        k(  174) = (   0.1818182  -0.1818182   0.0000000), wk =   0.0030053
        k(  175) = (  -0.1818182   0.0000000   0.2727273), wk =   0.0030053
        k(  176) = (   0.1818182  -0.1818182   0.0909091), wk =   0.0030053
        k(  177) = (  -0.1818182   0.0000000   0.3636364), wk =   0.0030053
        k(  178) = (   0.1818182  -0.1818182   0.1818182), wk =   0.0030053
        k(  179) = (  -0.1818182   0.0000000   0.4545455), wk =   0.0030053
        k(  180) = (   0.1818182  -0.1818182   0.2727273), wk =   0.0030053
        k(  181) = (  -0.1818182   0.0000000  -0.4545455), wk =   0.0030053
        k(  182) = (   0.1818182  -0.1818182  -0.6363636), wk =   0.0030053
        k(  183) = (  -0.1818182   0.0000000  -0.3636364), wk =   0.0030053
        k(  184) = (   0.1818182  -0.1818182  -0.5454545), wk =   0.0030053
        k(  185) = (  -0.1818182   0.0000000  -0.2727273), wk =   0.0030053
        k(  186) = (   0.1818182  -0.1818182  -0.4545455), wk =   0.0030053
        k(  187) = (  -0.1818182   0.0000000  -0.1818182), wk =   0.0030053
        k(  188) = (   0.1818182  -0.1818182  -0.3636364), wk =   0.0030053
        k(  189) = (  -0.1818182   0.0000000  -0.0909091), wk =   0.0030053
        k(  190) = (   0.1818182  -0.1818182  -0.2727273), wk =   0.0030053
        k(  191) = (  -0.2727273   0.0000000   0.0000000), wk =   0.0030053
        k(  192) = (   0.2727273  -0.2727273  -0.2727273), wk =   0.0030053
        k(  193) = (  -0.2727273   0.0000000   0.0909091), wk =   0.0030053
        k(  194) = (   0.2727273  -0.2727273  -0.1818182), wk =   0.0030053
        k(  195) = (  -0.2727273   0.0000000   0.1818182), wk =   0.0030053
        k(  196) = (   0.2727273  -0.2727273  -0.0909091), wk =   0.0030053
        k(  197) = (  -0.2727273   0.0000000   0.2727273), wk =   0.0030053
        k(  198) = (   0.2727273  -0.2727273  -0.0000000), wk =   0.0030053
        k(  199) = (  -0.2727273   0.0000000   0.3636364), wk =   0.0030053
        k(  200) = (   0.2727273  -0.2727273   0.0909091), wk =   0.0030053
        k(  201) = (  -0.2727273   0.0000000   0.4545455), wk =   0.0030053
        k(  202) = (   0.2727273  -0.2727273   0.1818182), wk =   0.0030053
        k(  203) = (  -0.2727273   0.0000000  -0.4545455), wk =   0.0030053
        k(  204) = (   0.2727273  -0.2727273  -0.7272727), wk =   0.0030053
        k(  205) = (  -0.2727273   0.0000000  -0.3636364), wk =   0.0030053
        k(  206) = (   0.2727273  -0.2727273  -0.6363636), wk =   0.0030053
        k(  207) = (  -0.2727273   0.0000000  -0.2727273), wk =   0.0030053
        k(  208) = (   0.2727273  -0.2727273  -0.5454545), wk =   0.0030053
        k(  209) = (  -0.2727273   0.0000000  -0.1818182), wk =   0.0030053
        k(  210) = (   0.2727273  -0.2727273  -0.4545455), wk =   0.0030053
        k(  211) = (  -0.2727273   0.0000000  -0.0909091), wk =   0.0030053
        k(  212) = (   0.2727273  -0.2727273  -0.3636364), wk =   0.0030053
        k(  213) = (  -0.3636364   0.0000000  -0.0000000), wk =   0.0030053
        k(  214) = (   0.3636364  -0.3636364  -0.3636364), wk =   0.0030053
        k(  215) = (  -0.3636364   0.0000000   0.0909091), wk =   0.0030053
        k(  216) = (   0.3636364  -0.3636364  -0.2727273), wk =   0.0030053
        k(  217) = (  -0.3636364   0.0000000   0.1818182), wk =   0.0030053
        k(  218) = (   0.3636364  -0.3636364  -0.1818182), wk =   0.0030053
        k(  219) = (  -0.3636364   0.0000000   0.2727273), wk =   0.0030053
        k(  220) = (   0.3636364  -0.3636364  -0.0909091), wk =   0.0030053
        k(  221) = (  -0.3636364   0.0000000   0.3636364), wk =   0.0030053
        k(  222) = (   0.3636364  -0.3636364   0.0000000), wk =   0.0030053
        k(  223) = (  -0.3636364   0.0000000   0.4545455), wk =   0.0030053
        k(  224) = (   0.3636364  -0.3636364   0.0909091), wk =   0.0030053
        k(  225) = (  -0.3636364   0.0000000  -0.4545455), wk =   0.0030053
        k(  226) = (   0.3636364  -0.3636364  -0.8181818), wk =   0.0030053
        k(  227) = (  -0.3636364   0.0000000  -0.3636364), wk =   0.0030053
        k(  228) = (   0.3636364  -0.3636364  -0.7272727), wk =   0.0030053
        k(  229) = (  -0.3636364   0.0000000  -0.2727273), wk =   0.0030053
        k(  230) = (   0.3636364  -0.3636364  -0.6363636), wk =   0.0030053
        k(  231) = (  -0.3636364   0.0000000  -0.1818182), wk =   0.0030053
        k(  232) = (   0.3636364  -0.3636364  -0.5454545), wk =   0.0030053
        k(  233) = (  -0.3636364   0.0000000  -0.0909091), wk =   0.0030053
        k(  234) = (   0.3636364  -0.3636364  -0.4545455), wk =   0.0030053
        k(  235) = (  -0.4545455   0.0000000   0.0000000), wk =   0.0030053
        k(  236) = (   0.4545455  -0.4545455  -0.4545455), wk =   0.0030053
        k(  237) = (  -0.4545455   0.0000000   0.0909091), wk =   0.0030053
        k(  238) = (   0.4545455  -0.4545455  -0.3636364), wk =   0.0030053
        k(  239) = (  -0.4545455   0.0000000   0.1818182), wk =   0.0030053
        k(  240) = (   0.4545455  -0.4545455  -0.2727273), wk =   0.0030053
        k(  241) = (  -0.4545455   0.0000000   0.2727273), wk =   0.0030053
        k(  242) = (   0.4545455  -0.4545455  -0.1818182), wk =   0.0030053
        k(  243) = (  -0.4545455   0.0000000   0.3636364), wk =   0.0030053
        k(  244) = (   0.4545455  -0.4545455  -0.0909091), wk =   0.0030053
        k(  245) = (  -0.4545455   0.0000000   0.4545455), wk =   0.0030053
        k(  246) = (   0.4545455  -0.4545455  -0.0000000), wk =   0.0030053
        k(  247) = (  -0.4545455   0.0000000  -0.4545455), wk =   0.0030053
        k(  248) = (   0.4545455  -0.4545455  -0.9090909), wk =   0.0030053
        k(  249) = (  -0.4545455   0.0000000  -0.3636364), wk =   0.0030053
        k(  250) = (   0.4545455  -0.4545455  -0.8181818), wk =   0.0030053
        k(  251) = (  -0.4545455   0.0000000  -0.2727273), wk =   0.0030053
        k(  252) = (   0.4545455  -0.4545455  -0.7272727), wk =   0.0030053
        k(  253) = (  -0.4545455   0.0000000  -0.1818182), wk =   0.0030053
        k(  254) = (   0.4545455  -0.4545455  -0.6363636), wk =   0.0030053
        k(  255) = (  -0.4545455   0.0000000  -0.0909091), wk =   0.0030053
        k(  256) = (   0.4545455  -0.4545455  -0.5454545), wk =   0.0030053
        k(  257) = (   0.0909091  -0.1818182  -0.0909091), wk =   0.0030053
        k(  258) = (  -0.1818182   0.0909091   0.0909091), wk =   0.0030053
        k(  259) = (   0.0909091  -0.1818182  -0.1818182), wk =   0.0030053
        k(  260) = (  -0.1818182   0.0909091   0.1818182), wk =   0.0030053
        k(  261) = (   0.0909091  -0.1818182   0.0000000), wk =   0.0030053
        k(  262) = (  -0.1818182   0.0909091  -0.0000000), wk =   0.0030053
        k(  263) = (   0.0909091   0.0909091  -0.0909091), wk =   0.0030053
        k(  264) = (   0.0909091  -0.1818182  -0.2727273), wk =   0.0030053
        k(  265) = (  -0.1818182   0.0909091   0.2727273), wk =   0.0030053
        k(  266) = (   0.0909091  -0.1818182   0.0909091), wk =   0.0030053
        k(  267) = (  -0.1818182   0.0909091  -0.0909091), wk =   0.0030053
        k(  268) = (   0.0909091   0.0909091  -0.1818182), wk =   0.0030053
        k(  269) = (   0.0909091  -0.1818182  -0.3636364), wk =   0.0030053
        k(  270) = (  -0.1818182   0.0909091   0.3636364), wk =   0.0030053
        k(  271) = (   0.0909091  -0.1818182   0.1818182), wk =   0.0030053
        k(  272) = (  -0.1818182   0.0909091  -0.1818182), wk =   0.0030053
        k(  273) = (   0.0909091   0.0909091  -0.2727273), wk =   0.0030053
        k(  274) = (   0.0909091  -0.1818182  -0.4545455), wk =   0.0030053
        k(  275) = (  -0.1818182   0.0909091   0.4545455), wk =   0.0030053
        k(  276) = (   0.0909091  -0.1818182   0.2727273), wk =   0.0030053
        k(  277) = (  -0.1818182   0.0909091  -0.2727273), wk =   0.0030053
        k(  278) = (   0.0909091   0.0909091  -0.3636364), wk =   0.0030053
        k(  279) = (   0.0909091  -0.1818182  -0.5454545), wk =   0.0030053
        k(  280) = (  -0.1818182   0.0909091   0.5454545), wk =   0.0030053
        k(  281) = (   0.0909091  -0.1818182   0.3636364), wk =   0.0030053
        k(  282) = (  -0.1818182   0.0909091  -0.3636364), wk =   0.0030053
        k(  283) = (   0.0909091   0.0909091  -0.4545455), wk =   0.0030053
        k(  284) = (   0.0909091  -0.2727273  -0.0909091), wk =   0.0030053
        k(  285) = (  -0.2727273   0.0909091   0.0909091), wk =   0.0030053
        k(  286) = (   0.1818182  -0.2727273  -0.1818182), wk =   0.0030053
        k(  287) = (  -0.2727273   0.1818182   0.1818182), wk =   0.0030053
        k(  288) = (   0.1818182   0.0909091  -0.0000000), wk =   0.0030053
        k(  289) = (   0.0909091  -0.2727273  -0.1818182), wk =   0.0030053
        k(  290) = (  -0.2727273   0.0909091   0.1818182), wk =   0.0030053
        k(  291) = (   0.1818182  -0.2727273  -0.0909091), wk =   0.0030053
        k(  292) = (  -0.2727273   0.1818182   0.0909091), wk =   0.0030053
        k(  293) = (   0.1818182   0.0909091  -0.0909091), wk =   0.0030053
        k(  294) = (   0.0909091  -0.2727273  -0.2727273), wk =   0.0030053
        k(  295) = (  -0.2727273   0.0909091   0.2727273), wk =   0.0030053
        k(  296) = (   0.1818182  -0.2727273   0.0000000), wk =   0.0030053
        k(  297) = (  -0.2727273   0.1818182   0.0000000), wk =   0.0030053
        k(  298) = (   0.1818182   0.0909091  -0.1818182), wk =   0.0030053
        k(  299) = (   0.0909091  -0.2727273  -0.3636364), wk =   0.0030053
        k(  300) = (  -0.2727273   0.0909091   0.3636364), wk =   0.0030053
        k(  301) = (   0.1818182  -0.2727273   0.0909091), wk =   0.0030053
        k(  302) = (  -0.2727273   0.1818182  -0.0909091), wk =   0.0030053
        k(  303) = (   0.1818182   0.0909091  -0.2727273), wk =   0.0030053
        k(  304) = (   0.0909091  -0.2727273  -0.4545455), wk =   0.0030053
        k(  305) = (  -0.2727273   0.0909091   0.4545455), wk =   0.0030053
        k(  306) = (   0.1818182  -0.2727273   0.1818182), wk =   0.0030053
        k(  307) = (  -0.2727273   0.1818182  -0.1818182), wk =   0.0030053
        k(  308) = (   0.1818182   0.0909091  -0.3636364), wk =   0.0030053
        k(  309) = (   0.0909091  -0.2727273  -0.5454545), wk =   0.0030053
        k(  310) = (  -0.2727273   0.0909091   0.5454545), wk =   0.0030053
        k(  311) = (   0.1818182  -0.2727273   0.2727273), wk =   0.0030053
        k(  312) = (  -0.2727273   0.1818182  -0.2727273), wk =   0.0030053
        k(  313) = (   0.1818182   0.0909091  -0.4545455), wk =   0.0030053
        k(  314) = (   0.0909091  -0.2727273   0.3636364), wk =   0.0030053
        k(  315) = (  -0.2727273   0.0909091  -0.3636364), wk =   0.0030053
        k(  316) = (   0.1818182  -0.2727273  -0.6363636), wk =   0.0030053
        k(  317) = (  -0.2727273   0.1818182   0.6363636), wk =   0.0030053
        k(  318) = (   0.1818182   0.0909091   0.4545455), wk =   0.0030053
        k(  319) = (   0.0909091  -0.2727273   0.2727273), wk =   0.0030053
        k(  320) = (  -0.2727273   0.0909091  -0.2727273), wk =   0.0030053
[...]

     occupation numbers 
     1.0000   1.0000   1.0000   1.0000   0.0000   0.0000   0.0000   0.0000

          k =-0.5455 0.0000-0.1113 (  1072 PWs)   bands (ev):

    -7.0607   1.2365   3.4187   6.8814  11.3785  19.1098  20.9692  28.2591

     occupation numbers 
     1.0000   1.0000   1.0000   1.0001   0.0000   0.0000   0.0000   0.0000

          k = 0.2727 0.4724-0.1113 (  1072 PWs)   bands (ev):

    -7.0923   1.4990   3.2544   5.6676  13.1724  20.0313  22.3231  25.6916

     occupation numbers 
     1.0000   1.0000   1.0000   1.0000   0.0000   0.0000   0.0000   0.0000

          k = 0.2727-0.4724-0.2227 (  1073 PWs)   bands (ev):

    -6.9403   0.4954   4.4902   6.3087  11.5273  18.6299  23.3017  25.2381

     occupation numbers 
     1.0000   1.0000   1.0000   1.0000   0.0000   0.0000   0.0000   0.0000

          k =-0.5455 0.0000 0.2227 (  1073 PWs)   bands (ev):

    -7.1610   1.2819   4.1143   5.2722  12.8473  20.7518  22.3198  24.4035

     occupation numbers 
     1.0000   1.0000   1.0000   1.0000   0.0000   0.0000   0.0000   0.0000

          k = 0.2727-0.4724 0.2227 (  1073 PWs)   bands (ev):

    -6.7943   0.4085   4.3431   5.7553  12.3189  18.5451  22.6861  25.9884

     occupation numbers 
     1.0000   1.0000   1.0000   1.0000   0.0000   0.0000   0.0000   0.0000

          k =-0.5455 0.0000-0.2227 (  1073 PWs)   bands (ev):

    -6.8173   0.7856   3.8038   6.4955  11.2363  18.1436  22.0365  27.3440

     occupation numbers 
     1.0000   1.0000   1.0000   1.0000   0.0000   0.0000   0.0000   0.0000

          k = 0.2727 0.4724-0.2227 (  1073 PWs)   bands (ev):

    -6.9965   1.1900   3.7245   5.0965  13.5816  20.5915  22.5833  24.2793

     occupation numbers 
     1.0000   1.0000   1.0000   1.0000   0.0000   0.0000   0.0000   0.0000

          k = 0.2727-0.4724-0.3340 (  1081 PWs)   bands (ev):

    -6.6948   0.7498   3.6197   6.7805  10.7322  17.6826  23.2834  26.6027

     occupation numbers 
     1.0000   1.0000   1.0000   1.0000   0.0000   0.0000   0.0000   0.0000

          k =-0.5455 0.0000 0.3340 (  1081 PWs)   bands (ev):

    -6.9707   1.2489   3.9960   4.7973  13.1490  20.8896  21.6293  25.1796

     occupation numbers 
     1.0000   1.0000   1.0000   1.0000   0.0000   0.0000   0.0000   0.0000

          k = 0.2727-0.4724 0.3340 (  1081 PWs)   bands (ev):

    -6.5247   0.6142   3.5302   6.0968  11.4460  17.8100  22.7830  27.3826

     occupation numbers 
     1.0000   1.0000   1.0000   1.0000   0.0000   0.0000   0.0000   0.0000

          k =-0.5455 0.0000-0.3340 (  1081 PWs)   bands (ev):

    -6.5728   0.6820   3.5878   6.1066  11.3328  17.7779  23.5453  26.2824

     occupation numbers 
     1.0000   1.0000   1.0000   1.0000   0.0000   0.0000   0.0000   0.0000

          k = 0.2727 0.4724-0.3340 (  1081 PWs)   bands (ev):

    -6.8402   1.1775   3.4858   4.9514  13.5980  20.4932  23.0097  23.8099

     occupation numbers 
     1.0000   1.0000   1.0000   1.0000   0.0000   0.0000   0.0000   0.0000

          k = 0.2727-0.4724-0.4454 (  1081 PWs)   bands (ev):

    -6.4358   1.2057   2.8603   6.4391  10.4114  17.8323  22.2557  27.3376

     occupation numbers 
     1.0000   1.0000   1.0000   1.0000   0.0000   0.0000   0.0000   0.0000

          k =-0.5455 0.0000 0.4454 (  1081 PWs)   bands (ev):

    -6.7384   1.4620   3.3959   4.4987  13.2191  20.8131  21.8323  25.1368

     occupation numbers 
     1.0000   1.0000   1.0000   1.0000   0.0000   0.0000   0.0000   0.0000

          k = 0.2727-0.4724 0.4454 (  1081 PWs)   bands (ev):

    -6.2978   1.0924   2.7419   6.1067  10.6590  18.1092  22.1696  27.3980

     occupation numbers 
     1.0000   1.0000   1.0000   1.0000   0.0000   0.0000   0.0000   0.0000

          k =-0.5455 0.0000-0.4454 (  1081 PWs)   bands (ev):

    -6.4184   0.9551   3.1470   5.3905  11.8608  18.1734  24.2887  25.8729

     occupation numbers 
     1.0000   1.0000   1.0000   1.0000   0.0000   0.0000   0.0000   0.0000

          k = 0.2727 0.4724-0.4454 (  1081 PWs)   bands (ev):

    -6.6740   1.4346   3.1930   4.5456  13.4074  20.7009  22.1645  24.6484

     occupation numbers 
     1.0000   1.0000   1.0000   1.0000   0.0000   0.0000   0.0000   0.0000

          k = 0.2727-0.4724-0.5567 (  1077 PWs)   bands (ev):

    -6.2458   1.7027   2.3202   5.8004  10.3497  19.0285  20.7597  27.2615

     occupation numbers 
     1.0000   1.0000   1.0000   1.0000   0.0000   0.0000   0.0000   0.0000

          k =-0.5455 0.0000 0.5567 (  1077 PWs)   bands (ev):

    -6.5289   1.6218   3.1802   4.0548  13.0252  20.2782  22.9495  24.6594

     occupation numbers 
     1.0000   1.0000   1.0000   1.0000   0.0000   0.0000   0.0000   0.0000

          k = 0.2727-0.4724 0.5567 (  1077 PWs)   bands (ev):

    -6.1925   1.7167   2.1901   5.7579  10.3571  19.2071  20.7529  27.1673

     occupation numbers 
     1.0000   1.0000   1.0000   1.0000   0.0000   0.0000   0.0000   0.0000

          k =-0.5455 0.0000-0.5567 (  1077 PWs)   bands (ev):

    -6.4063   1.4054   2.9994   4.4717  12.5390  19.1745  23.8936  25.3416

     occupation numbers 
     1.0000   1.0000   1.0000   1.0000   0.0000   0.0000   0.0000   0.0000

          k = 0.2727 0.4724-0.5567 (  1077 PWs)   bands (ev):

    -6.5395   1.6314   3.2221   4.0798  12.9432  20.5986  22.2412  24.8365

     occupation numbers 
     1.0000   1.0000   1.0000   1.0000   0.0000   0.0000   0.0000   0.0000

          k = 0.2727-0.5774 0.0371 (  1082 PWs)   bands (ev):

    -6.7694   0.6047   3.8373   5.3119  13.3499  20.6246  22.8778  23.5859

     occupation numbers 
     1.0000   1.0000   1.0000   1.0000   0.0000   0.0000   0.0000   0.0000

          k =-0.6364-0.0525-0.0371 (  1082 PWs)   bands (ev):

    -6.7236   1.2093   2.8153   6.6752  11.2521  18.9623  21.8966  27.7310

     occupation numbers 
     1.0000   1.0000   1.0000   1.0000   0.0000   0.0000   0.0000   0.0000

          k = 0.3636-0.5249-0.0371 (  1082 PWs)   bands (ev):

    -6.8518   0.6385   4.1857   5.2057  13.0465  21.0009  22.0173  24.3484

     occupation numbers 
     1.0000   1.0000   1.0000   1.0000   0.0000   0.0000   0.0000   0.0000

          k =-0.6364 0.0525 0.0371 (  1082 PWs)   bands (ev):

    -6.7790   1.3323   2.7723   6.7930  11.0897  19.0468  22.1999  26.8632

     occupation numbers 
     1.0000   1.0000   1.0000   1.0000   0.0000   0.0000   0.0000   0.0000

          k = 0.3636 0.5249 0.0371 (  1082 PWs)   bands (ev):

    -6.6321   1.2278   2.7204   6.1554  11.7056  19.0076  22.6482  26.3460

     occupation numbers 
     1.0000   1.0000   1.0000   1.0000   0.0000   0.0000   0.0000   0.0000

          k = 0.2727-0.5774-0.0742 (  1078 PWs)   bands (ev):

    -6.7317   0.7490   3.9522   4.9980  13.0104  21.1382  21.4879  24.7226

     occupation numbers 
     1.0000   1.0000   1.0000   1.0000   0.0000   0.0000   0.0000   0.0000

          k =-0.6364-0.0525 0.0742 (  1078 PWs)   bands (ev):

    -6.7604   1.8987   2.2862   5.9922  11.9066  19.4674  22.8286  25.8182

     occupation numbers 
     1.0000   1.0000   1.0000   1.0000   0.0000   0.0000   0.0000   0.0000

          k = 0.3636-0.5249 0.0742 (  1078 PWs)   bands (ev):

    -6.7252   0.7409   3.9262   4.9803  13.0607  20.6403  22.2720  24.5590

     occupation numbers 
     1.0000   1.0000   1.0000   1.0000   0.0000   0.0000   0.0000   0.0000

          k =-0.6364 0.0525-0.0742 (  1078 PWs)   bands (ev):

    -6.6205   1.8093   2.1910   6.6730  10.7095  19.3112  20.8587  27.8569

     occupation numbers 
     1.0000   1.0000   1.0000   1.0000   0.0000   0.0000   0.0000   0.0000

          k = 0.3636 0.5249-0.0742 (  1078 PWs)   bands (ev):

    -6.6359   1.9083   2.1699   5.4274  12.5400  19.3534  23.4148  25.6123

     occupation numbers 
     1.0000   1.0000   1.0000   1.0000   0.0000   0.0000   0.0000   0.0000

          k = 0.2727-0.5774-0.1856 (  1075 PWs)   bands (ev):

    -6.6417   0.8703   3.8296   5.0684  12.2772  19.6278  22.7593  25.2224

     occupation numbers 
     1.0000   1.0000   1.0000   1.0000   0.0000   0.0000   0.0000   0.0000

          k =-0.6364-0.0525 0.1856 (  1075 PWs)   bands (ev):

    -6.7652   1.6552   3.0104   4.9827  12.6609  20.5021  22.5877  24.5857

     occupation numbers 
     1.0000   1.0000   1.0000   1.0000   0.0000   0.0000   0.0000   0.0000

          k = 0.3636-0.5249 0.1856 (  1075 PWs)   bands (ev):

    -6.5575   0.8109   3.7800   4.7849  12.6717  19.4625  23.0591  25.3086

     occupation numbers 
     1.0000   1.0000   1.0000   1.0000   0.0000   0.0000   0.0000   0.0000

          k =-0.6364 0.0525-0.1856 (  1075 PWs)   bands (ev):

    -6.4503   1.3608   2.7077   6.1750  10.6363  19.1105  20.7974  27.5340

     occupation numbers 
     1.0000   1.0000   1.0000   1.0000   0.0000   0.0000   0.0000   0.0000

          k = 0.3636 0.5249-0.1856 (  1075 PWs)   bands (ev):

    -6.6451   1.5759   2.9274   4.6353  13.2093  20.1496  23.0406  24.8403

     occupation numbers 
     1.0000   1.0000   1.0000   1.0000   0.0000   0.0000   0.0000   0.0000

          k = 0.2727-0.5774-0.2969 (  1081 PWs)   bands (ev):

    -6.5234   1.0203   3.1157   5.9756  11.3263  18.1746  23.8793  25.8807

     occupation numbers 
     1.0000   1.0000   1.0000   1.0000   0.0000   0.0000   0.0000   0.0000

          k =-0.6364-0.0525 0.2969 (  1081 PWs)   bands (ev):

    -6.7388   1.4745   3.3968   4.5010  13.2005  21.0391  21.5753  25.0475

     occupation numbers 
     1.0000   1.0000   1.0000   1.0000   0.0000   0.0000   0.0000   0.0000

          k = 0.3636-0.5249 0.2969 (  1081 PWs)   bands (ev):

    -6.4001   0.9254   3.1439   5.3512  11.9450  18.2071  23.8176  26.3478

     occupation numbers 
     1.0000   1.0000   1.0000   1.0000   0.0000   0.0000   0.0000   0.0000

          k =-0.6364 0.0525-0.2969 (  1081 PWs)   bands (ev):

    -6.3305   1.1448   2.7829   6.0506  10.6895  18.0553  22.4244  26.9904

     occupation numbers 
     1.0000   1.0000   1.0000   1.0000   0.0000   0.0000   0.0000   0.0000

          k = 0.3636 0.5249-0.2969 (  1081 PWs)   bands (ev):

    -6.6645   1.4359   3.1666   4.5088  13.4840  20.4283  22.6323  24.6026

     occupation numbers 
     1.0000   1.0000   1.0000   1.0000   0.0000   0.0000   0.0000   0.0000

          k =-0.6364-0.0525 0.4082 (  1073 PWs)   bands (ev):

    -6.6987   1.4503   3.0916   4.6971  13.4575  20.3327  22.1960  25.2843

     occupation numbers 
     1.0000   1.0000   1.0000   1.0000   0.0000   0.0000   0.0000   0.0000

          k = 0.3636-0.5249 0.4082 (  1073 PWs)   bands (ev):

    -6.3116   1.0718   2.7228   5.9253  11.1291  17.6856  23.7047  26.7128

     occupation numbers 
     1.0000   1.0000   1.0000   1.0000   0.0000   0.0000   0.0000   0.0000

          k = 0.2727-0.5774 0.2598 (  1082 PWs)   bands (ev):

    -6.6932   0.7023   3.5251   5.5998  12.7325  19.4437  22.5760  25.8101

     occupation numbers 
     1.0000   1.0000   1.0000   1.0000   0.0000   0.0000   0.0000   0.0000

          k =-0.6364-0.0525-0.2598 (  1082 PWs)   bands (ev):

    -6.6416   0.7703   3.3248   6.4942  11.1697  19.2154  21.2395  27.4563

     occupation numbers 
     1.0000   1.0000   1.0000   1.0000   0.0000   0.0000   0.0000   0.0000

          k = 0.3636-0.5249-0.2598 (  1082 PWs)   bands (ev):

    -6.8816   0.8285   3.7025   6.1637  11.8610  19.6756  22.9139  24.9880

     occupation numbers 
     1.0000   1.0000   1.0000   1.0000   0.0000   0.0000   0.0000   0.0000

          k =-0.6364 0.0525 0.2598 (  1082 PWs)   bands (ev):

    -6.9073   0.6129   4.4040   5.3533  12.6106  20.8264  22.1054  24.3728

     occupation numbers 
     1.0000   1.0000   1.0000   1.0000   0.0000   0.0000   0.0000   0.0000

          k = 0.3636 0.5249 0.2598 (  1082 PWs)   bands (ev):

    -6.6750   0.7641   3.3596   6.6917  11.0319  19.1871  20.9212  28.3479

     occupation numbers 
     1.0000   1.0000   1.0000   1.0000   0.0000   0.0000   0.0000   0.0000

     the Fermi energy is     7.9610 ev

!    total energy              =     -26.18480243 Ry
     estimated scf accuracy    <          1.9E-10 Ry
     smearing contrib. (-TS)   =       0.00061142 Ry
     internal energy E=F+TS    =     -26.18541386 Ry

     The total energy is F=E-TS. E is the sum of the following terms:
     one-electron contribution =      -0.27884606 Ry
     hartree contribution      =       5.71945991 Ry
     xc contribution           =      -9.81803264 Ry
     ewald contribution        =     -21.80799506 Ry

     convergence has been achieved in  10 iterations

     Forces acting on atoms (cartesian axes, Ry/au):

     atom    1 type  1   force =     2.60870281    0.81266592   -2.08296886
     atom    2 type  2   force =    -2.60870281   -0.81266592    2.08296886
     The non-local contrib.  to forces
     atom    1 type  1   force =     1.99531421    0.60139710   -1.59006353
     atom    2 type  2   force =    -0.31965892    0.04316390    0.24592892
     The ionic contribution  to forces
     atom    1 type  1   force =     6.23809816    2.29319238   -5.00206932
     atom    2 type  2   force =    -6.23809816   -2.29319238    5.00206932
     The local contribution  to forces
     atom    1 type  1   force =    -5.51053514   -2.04377315    4.41790668
     atom    2 type  2   force =     3.87480909    1.41596712   -3.10585943
     The core correction contribution to forces
     atom    1 type  1   force =    -0.11417933   -0.03815154    0.09126245
     atom    2 type  2   force =     0.07425581    0.02139886   -0.05917706
     The Hubbard contrib.    to forces
     atom    1 type  1   force =     0.00000000    0.00000000    0.00000000
     atom    2 type  2   force =     0.00000000    0.00000000    0.00000000
     The SCF correction term to forces
     atom    1 type  1   force =     0.00000398    0.00000159   -0.00000320
     atom    2 type  2   force =    -0.00001154   -0.00000298    0.00000905

     Total force =     4.858913     Total SCF correction =     0.000016


     Computing stress (Cartesian axis) and pressure

          total   stress  (Ry/bohr**3)                   (kbar)     P=     3219.95
   0.03677628   0.01395600  -0.02974247         5409.98     2053.00    -4375.27
   0.01395600   0.00553619  -0.01159719         2053.00      814.40    -1706.01
  -0.02974247  -0.01159719   0.02335391        -4375.27    -1706.01     3435.48

     kinetic stress (kbar)  23087.11    320.59   -157.14
                              320.59  23265.09   -341.17
                             -157.14   -341.17  23006.10

     local   stress (kbar)  -7523.78  -2405.71   7119.09
                            -2405.71   1162.09   1813.18
                             7119.09   1813.18  -4309.96

     nonloc. stress (kbar)  -2859.81   -145.64    140.12
                             -145.64  -2789.15    128.74
                              140.12    128.74  -2800.28

     hartree stress (kbar)   3523.16    114.51   -581.31
                              114.51   2702.69    -70.96
                             -581.31    -70.96   3254.53

     exc-cor stress (kbar)  -1215.71     14.63    -45.15
                               14.63  -1271.31    -10.83
                              -45.15    -10.83  -1236.10

     corecor stress (kbar)  -3438.73    -36.02     84.96
                              -36.02  -3347.37     29.67
                               84.96     29.67  -3400.51

     ewald   stress (kbar)  -6162.26   4190.65 -10935.84
                             4190.65 -18907.64  -3254.64
                           -10935.84  -3254.64 -11078.29

     hubbard stress (kbar)      0.00      0.00      0.00
                                0.00      0.00      0.00
                                0.00      0.00      0.00

     DFT-D   stress (kbar)      0.00      0.00      0.00
                                0.00      0.00      0.00
                                0.00      0.00      0.00

     XDM     stress (kbar)      0.00      0.00      0.00
                                0.00      0.00      0.00
                                0.00      0.00      0.00

     dft-nl  stress (kbar)      0.00      0.00      0.00
                                0.00      0.00      0.00
                                0.00      0.00      0.00

     TS-vdW  stress (kbar)      0.00      0.00      0.00
                                0.00      0.00      0.00
                                0.00      0.00      0.00



     init_run     :      0.48s CPU      0.66s WALL (       1 calls)
     electrons    :     14.71s CPU     15.97s WALL (       1 calls)
     forces       :      0.16s CPU      0.16s WALL (       1 calls)
     stress       :      0.24s CPU      0.24s WALL (       1 calls)

     Called by init_run:
     wfcinit      :      0.44s CPU      0.55s WALL (       1 calls)
     wfcinit:atom :      0.01s CPU      0.01s WALL (     666 calls)
     wfcinit:wfcr :      0.40s CPU      0.51s WALL (     666 calls)
     potinit      :      0.01s CPU      0.01s WALL (       1 calls)
     hinit0       :      0.02s CPU      0.08s WALL (       1 calls)

     Called by electrons:
     c_bands      :     12.59s CPU     13.66s WALL (      10 calls)
     sum_band     :      2.08s CPU      2.25s WALL (      10 calls)
     v_of_rho     :      0.03s CPU      0.03s WALL (      11 calls)
     v_h          :      0.00s CPU      0.00s WALL (      11 calls)
     v_xc         :      0.03s CPU      0.03s WALL (      13 calls)
     newd         :      0.01s CPU      0.01s WALL (      11 calls)
     mix_rho      :      0.00s CPU      0.01s WALL (      10 calls)

     Called by c_bands:
     init_us_2    :      0.26s CPU      0.29s WALL (   15318 calls)
     cegterg      :     12.20s CPU     13.24s WALL (    6660 calls)

     Called by sum_band:
     sum_band:wei :      0.03s CPU      0.03s WALL (      10 calls)
     sum_band:loo :      2.05s CPU      2.21s WALL (      10 calls)
     sum_band:buf :      0.02s CPU      0.02s WALL (    6660 calls)
     sum_band:ini :      0.11s CPU      0.12s WALL (    6660 calls)
     sum_band:cal :      0.12s CPU      0.13s WALL (    6660 calls)
     sum_band:bec :      0.01s CPU      0.02s WALL (    6660 calls)
     addusdens    :      0.01s CPU      0.01s WALL (      10 calls)
     addusd:skk   :      0.00s CPU      0.00s WALL (      10 calls)
     addusd:dgemm :      0.00s CPU      0.00s WALL (      10 calls)
     addusd:qvan2 :      0.00s CPU      0.00s WALL (      10 calls)

     Called by *egterg:
     cdiaghg      :      1.56s CPU      1.76s WALL (   25074 calls)
     cegterg:over :      0.51s CPU      0.57s WALL (   18414 calls)
     cegterg:upda :      0.10s CPU      0.11s WALL (   18414 calls)
     cegterg:last :      0.12s CPU      0.14s WALL (   13989 calls)
     h_psi        :      9.65s CPU     10.48s WALL (   25740 calls)
     s_psi        :      0.11s CPU      0.12s WALL (   25740 calls)
     g_psi        :      0.03s CPU      0.03s WALL (   18414 calls)

     Called by h_psi:
     h_psi:calbec :      0.41s CPU      0.46s WALL (   25740 calls)
     vloc_psi     :      9.02s CPU      9.79s WALL (   25740 calls)
     add_vuspsi   :      0.14s CPU      0.16s WALL (   25740 calls)

     General routines
     calbec       :      0.64s CPU      0.70s WALL (   35730 calls)
     fft          :      0.02s CPU      0.06s WALL (     166 calls)
     ffts         :      0.00s CPU      0.00s WALL (      21 calls)
     fftw         :      9.96s CPU     10.83s WALL (  340544 calls)
     interpolate  :      0.00s CPU      0.00s WALL (      11 calls)

     Parallel routines
     fft_scatt_xy :      0.99s CPU      1.04s WALL (  340731 calls)
     fft_scatt_yz :      3.94s CPU      4.29s WALL (  340731 calls)

     PWSCF        :     15.68s CPU     17.31s WALL


   This run was terminated on:  21:18:59  28Sep2022            

=------------------------------------------------------------------------------=
   JOB DONE.
=------------------------------------------------------------------------------=
Note: The following floating-point exceptions are signalling: IEEE_UNDERFLOW_FLAG IEEE_DENORMAL
