
     Program PWSCF v.6.7MaX starts on 28Sep2022 at 21:15:43 

     This program is part of the open-source Quantum ESPRESSO suite
     for quantum simulation of materials; please cite
         "P. Giannozzi et al., J. Phys.:Condens. Matter 21 395502 (2009);
         "P. Giannozzi et al., J. Phys.:Condens. Matter 29 465901 (2017);
          URL http://www.quantum-espresso.org", 
     in publications or presentations arising from this work. More details at
     http://www.quantum-espresso.org/quote

     Parallel version (MPI), running on    16 processors

     MPI processes distributed on     1 nodes
     R & G space division:  proc/nbgrp/npool/nimage =      16
     Reading input from scale_1da-01.in

     Current dimensions of program PWSCF are:
     Max number of different atomic species (ntypx) = 10
     Max number of k-points (npk) =  40000
     Max angular momentum in pseudopotentials (lmaxx) =  3
     Message from routine read_pp_mesh:
     mesh size missing, using the one in header

     Subspace diagonalization in iterative solution of the eigenvalue problem:
     a serial algorithm will be used


     Parallelization info
     --------------------
     sticks:   dense  smooth     PW     G-vecs:    dense   smooth      PW
     Min          42      31     10                  754      470      89
     Max          43      32     11                  757      472      92
     Sum         687     501    163                12093     7535    1439



     bravais-lattice index     =            0
     lattice parameter (alat)  =       4.6837  a.u.
     unit-cell volume          =      77.7522 (a.u.)^3
     number of atoms/cell      =            2
     number of atomic types    =            2
     number of electrons       =         8.00
     number of Kohn-Sham states=            8
     kinetic-energy cutoff     =      80.0000  Ry
     charge density cutoff     =     440.0000  Ry
     scf convergence threshold =      2.0E-10
     mixing beta               =       0.4000
     number of iterations used =            8  plain     mixing
     Exchange-correlation= PBE
                           (   1   4   3   4   0   0   0)

     celldm(1)=   4.683749  celldm(2)=   0.000000  celldm(3)=   0.000000
     celldm(4)=   0.000000  celldm(5)=   0.000000  celldm(6)=   0.000000

     crystal axes: (cart. coord. in units of alat)
               a(1) = (   1.000000   0.000000   0.000000 )  
               a(2) = (  -0.482759   0.895888   0.000000 )  
               a(3) = (  -0.482759   0.298629   0.844652 )  

     reciprocal axes: (cart. coord. in units 2 pi/alat)
               b(1) = (  1.000000  0.538860  0.381032 )  
               b(2) = (  0.000000  1.116211 -0.394640 )  
               b(3) = (  0.000000 -0.000000  1.183920 )  


     PseudoPot. # 1 for B  read from file:
     /opt/QEpot/SSSP_precision_pseudos/B_pbe_v1.01.uspp.F.UPF
     MD5 check sum: d081ebb89d0c768e112975f650467a00
     Pseudo is Ultrasoft + core correction, Zval =  3.0
     Generated by new atomic code, or converted to UPF format
     Using radial grid of  781 points,  4 beta functions with: 
                l(1) =   0
                l(2) =   0
                l(3) =   1
                l(4) =   1
     Q(r) pseudized with  8 coefficients,  rinner =    1.100   1.100   1.100


     PseudoPot. # 2 for N  read from file:
     /opt/QEpot/SSSP_precision_pseudos/N.oncvpsp.upf
     MD5 check sum: 563d65bfb082928f0c9eb97172f6c357
     Pseudo is Norm-conserving + core correction, Zval =  5.0
     Generated using ONCVPSP code by D. R. Hamann
     Using radial grid of 1058 points,  4 beta functions with: 
                l(1) =   0
                l(2) =   0
                l(3) =   1
                l(4) =   1

     atomic species   valence    mass     pseudopotential
        B              3.00    10.81000     B ( 1.00)
        N              5.00    14.00700     N ( 1.00)

     No symmetry found


                                    s                        frac. trans.

      isym =  1     identity                                     

 cryst.   s( 1) = (     1          0          0      )
                  (     0          1          0      )
                  (     0          0          1      )

 cart.    s( 1) = (  1.0000000  0.0000000  0.0000000 )
                  (  0.0000000  1.0000000  0.0000000 )
                  (  0.0000000  0.0000000  1.0000000 )


   Cartesian axes

     site n.     atom                  positions (alat units)
         1           B   tau(   1) = (   0.0030814   0.0020875   0.4002744  )
         2           N   tau(   2) = (   0.1082377   0.3007170   0.2079729  )

   Crystallographic axes

     site n.     atom                  positions (cryst. coord.)
         1           B   tau(   1) = (  0.1567236 -0.1556341  0.4738929  )
         2           N   tau(   2) = (  0.3495264  0.2535891  0.2462233  )

     number of k points=   666  Marzari-Vanderbilt smearing, width (Ry)=  0.0220
                       cart. coord. in units 2pi/alat
        k(    1) = (   0.0000000   0.0000000   0.0000000), wk =   0.0015026
        k(    2) = (   0.0000000   0.0000000   0.1076291), wk =   0.0030053
        k(    3) = (   0.0000000   0.0000000   0.2152582), wk =   0.0030053
        k(    4) = (   0.0000000   0.0000000   0.3228873), wk =   0.0030053
        k(    5) = (   0.0000000   0.0000000   0.4305164), wk =   0.0030053
        k(    6) = (   0.0000000   0.0000000   0.5381455), wk =   0.0030053
        k(    7) = (   0.0000000   0.1014737  -0.0358764), wk =   0.0030053
        k(    8) = (   0.0000000   0.1014737   0.0717527), wk =   0.0030053
        k(    9) = (   0.0000000   0.1014737   0.1793818), wk =   0.0030053
        k(   10) = (   0.0000000   0.1014737   0.2870109), wk =   0.0030053
        k(   11) = (   0.0000000   0.1014737   0.3946400), wk =   0.0030053
        k(   12) = (   0.0000000   0.1014737   0.5022691), wk =   0.0030053
        k(   13) = (   0.0000000   0.1014737  -0.5740218), wk =   0.0030053
        k(   14) = (   0.0000000   0.1014737  -0.4663927), wk =   0.0030053
        k(   15) = (   0.0000000   0.1014737  -0.3587636), wk =   0.0030053
        k(   16) = (   0.0000000   0.1014737  -0.2511346), wk =   0.0030053
        k(   17) = (   0.0000000   0.1014737  -0.1435055), wk =   0.0030053
        k(   18) = (   0.0000000   0.2029474  -0.0717527), wk =   0.0030053
        k(   19) = (   0.0000000   0.2029474   0.0358764), wk =   0.0030053
        k(   20) = (   0.0000000   0.2029474   0.1435055), wk =   0.0030053
        k(   21) = (   0.0000000   0.2029474   0.2511346), wk =   0.0030053
        k(   22) = (   0.0000000   0.2029474   0.3587636), wk =   0.0030053
        k(   23) = (   0.0000000   0.2029474   0.4663927), wk =   0.0030053
        k(   24) = (   0.0000000   0.2029474  -0.6098982), wk =   0.0030053
        k(   25) = (   0.0000000   0.2029474  -0.5022691), wk =   0.0030053
        k(   26) = (   0.0000000   0.2029474  -0.3946400), wk =   0.0030053
        k(   27) = (   0.0000000   0.2029474  -0.2870109), wk =   0.0030053
        k(   28) = (   0.0000000   0.2029474  -0.1793818), wk =   0.0030053
        k(   29) = (   0.0000000   0.3044211  -0.1076291), wk =   0.0030053
        k(   30) = (   0.0000000   0.3044211   0.0000000), wk =   0.0030053
        k(   31) = (   0.0000000   0.3044211   0.1076291), wk =   0.0030053
        k(   32) = (   0.0000000   0.3044211   0.2152582), wk =   0.0030053
        k(   33) = (   0.0000000   0.3044211   0.3228873), wk =   0.0030053
        k(   34) = (   0.0000000   0.3044211   0.4305164), wk =   0.0030053
        k(   35) = (   0.0000000   0.3044211  -0.6457746), wk =   0.0030053
        k(   36) = (   0.0000000   0.3044211  -0.5381455), wk =   0.0030053
        k(   37) = (   0.0000000   0.3044211  -0.4305164), wk =   0.0030053
        k(   38) = (   0.0000000   0.3044211  -0.3228873), wk =   0.0030053
        k(   39) = (   0.0000000   0.3044211  -0.2152582), wk =   0.0030053
        k(   40) = (   0.0000000   0.4058947  -0.1435055), wk =   0.0030053
        k(   41) = (   0.0000000   0.4058947  -0.0358764), wk =   0.0030053
        k(   42) = (   0.0000000   0.4058947   0.0717527), wk =   0.0030053
        k(   43) = (   0.0000000   0.4058947   0.1793818), wk =   0.0030053
        k(   44) = (   0.0000000   0.4058947   0.2870109), wk =   0.0030053
        k(   45) = (   0.0000000   0.4058947   0.3946400), wk =   0.0030053
        k(   46) = (   0.0000000   0.4058947  -0.6816509), wk =   0.0030053
        k(   47) = (   0.0000000   0.4058947  -0.5740218), wk =   0.0030053
        k(   48) = (   0.0000000   0.4058947  -0.4663927), wk =   0.0030053
        k(   49) = (   0.0000000   0.4058947  -0.3587636), wk =   0.0030053
        k(   50) = (   0.0000000   0.4058947  -0.2511346), wk =   0.0030053
        k(   51) = (   0.0000000   0.5073684  -0.1793818), wk =   0.0030053
        k(   52) = (   0.0000000   0.5073684  -0.0717527), wk =   0.0030053
        k(   53) = (   0.0000000   0.5073684   0.0358764), wk =   0.0030053
        k(   54) = (   0.0000000   0.5073684   0.1435055), wk =   0.0030053
        k(   55) = (   0.0000000   0.5073684   0.2511346), wk =   0.0030053
        k(   56) = (   0.0000000   0.5073684   0.3587636), wk =   0.0030053
        k(   57) = (   0.0000000   0.5073684  -0.7175273), wk =   0.0030053
        k(   58) = (   0.0000000   0.5073684  -0.6098982), wk =   0.0030053
        k(   59) = (   0.0000000   0.5073684  -0.5022691), wk =   0.0030053
        k(   60) = (   0.0000000   0.5073684  -0.3946400), wk =   0.0030053
        k(   61) = (   0.0000000   0.5073684  -0.2870109), wk =   0.0030053
        k(   62) = (   0.0909091   0.0489873   0.0346392), wk =   0.0030053
        k(   63) = (   0.0909091   0.0489873   0.1422683), wk =   0.0030053
        k(   64) = (   0.0909091   0.0489873   0.2498974), wk =   0.0030053
        k(   65) = (   0.0909091   0.0489873   0.3575265), wk =   0.0030053
        k(   66) = (   0.0909091   0.0489873   0.4651556), wk =   0.0030053
        k(   67) = (   0.0909091   0.0489873   0.5727847), wk =   0.0030053
        k(   68) = (   0.0909091   0.0489873  -0.5035062), wk =   0.0030053
        k(   69) = (   0.0909091   0.0489873  -0.3958771), wk =   0.0030053
        k(   70) = (   0.0909091   0.0489873  -0.2882480), wk =   0.0030053
        k(   71) = (   0.0909091   0.0489873  -0.1806189), wk =   0.0030053
        k(   72) = (   0.0909091   0.0489873  -0.0729898), wk =   0.0030053
        k(   73) = (   0.0909091   0.1504610  -0.0012371), wk =   0.0030053
        k(   74) = (   0.0909091   0.1504610   0.1063920), wk =   0.0030053
        k(   75) = (   0.0909091   0.1504610   0.2140211), wk =   0.0030053
        k(   76) = (   0.0909091   0.1504610   0.3216502), wk =   0.0030053
        k(   77) = (   0.0909091   0.1504610   0.4292793), wk =   0.0030053
        k(   78) = (   0.0909091   0.1504610   0.5369084), wk =   0.0030053
        k(   79) = (   0.0909091   0.1504610  -0.5393826), wk =   0.0030053
        k(   80) = (   0.0909091   0.1504610  -0.4317535), wk =   0.0030053
        k(   81) = (   0.0909091   0.1504610  -0.3241244), wk =   0.0030053
        k(   82) = (   0.0909091   0.1504610  -0.2164953), wk =   0.0030053
        k(   83) = (   0.0909091   0.1504610  -0.1088662), wk =   0.0030053
        k(   84) = (   0.0909091   0.2519347  -0.0371135), wk =   0.0030053
        k(   85) = (   0.0909091   0.2519347   0.0705156), wk =   0.0030053
        k(   86) = (   0.0909091   0.2519347   0.1781447), wk =   0.0030053
        k(   87) = (   0.0909091   0.2519347   0.2857738), wk =   0.0030053
        k(   88) = (   0.0909091   0.2519347   0.3934029), wk =   0.0030053
        k(   89) = (   0.0909091   0.2519347   0.5010320), wk =   0.0030053
        k(   90) = (   0.0909091   0.2519347  -0.5752590), wk =   0.0030053
        k(   91) = (   0.0909091   0.2519347  -0.4676299), wk =   0.0030053
        k(   92) = (   0.0909091   0.2519347  -0.3600008), wk =   0.0030053
        k(   93) = (   0.0909091   0.2519347  -0.2523717), wk =   0.0030053
        k(   94) = (   0.0909091   0.2519347  -0.1447426), wk =   0.0030053
        k(   95) = (   0.0909091   0.3534083  -0.0729898), wk =   0.0030053
        k(   96) = (   0.0909091   0.3534083   0.0346392), wk =   0.0030053
        k(   97) = (   0.0909091   0.3534083   0.1422683), wk =   0.0030053
        k(   98) = (   0.0909091   0.3534083   0.2498974), wk =   0.0030053
        k(   99) = (   0.0909091   0.3534083   0.3575265), wk =   0.0030053
        k(  100) = (   0.0909091   0.3534083   0.4651556), wk =   0.0030053
        k(  101) = (   0.0909091   0.3534083  -0.6111353), wk =   0.0030053
        k(  102) = (   0.0909091   0.3534083  -0.5035062), wk =   0.0030053
        k(  103) = (   0.0909091   0.3534083  -0.3958771), wk =   0.0030053
        k(  104) = (   0.0909091   0.3534083  -0.2882480), wk =   0.0030053
        k(  105) = (   0.0909091   0.3534083  -0.1806189), wk =   0.0030053
        k(  106) = (   0.0909091   0.4548820  -0.1088662), wk =   0.0030053
        k(  107) = (   0.0909091   0.4548820  -0.0012371), wk =   0.0030053
        k(  108) = (   0.0909091   0.4548820   0.1063920), wk =   0.0030053
        k(  109) = (   0.0909091   0.4548820   0.2140211), wk =   0.0030053
        k(  110) = (   0.0909091   0.4548820   0.3216502), wk =   0.0030053
        k(  111) = (   0.0909091   0.4548820   0.4292793), wk =   0.0030053
        k(  112) = (   0.0909091   0.4548820  -0.6470117), wk =   0.0030053
        k(  113) = (   0.0909091   0.4548820  -0.5393826), wk =   0.0030053
        k(  114) = (   0.0909091   0.4548820  -0.4317535), wk =   0.0030053
        k(  115) = (   0.0909091   0.4548820  -0.3241244), wk =   0.0030053
        k(  116) = (   0.0909091   0.4548820  -0.2164953), wk =   0.0030053
        k(  117) = (   0.0909091   0.5563557  -0.1447426), wk =   0.0030053
        k(  118) = (   0.0909091   0.5563557  -0.0371135), wk =   0.0030053
        k(  119) = (   0.0909091   0.5563557   0.0705156), wk =   0.0030053
        k(  120) = (   0.0909091   0.5563557   0.1781447), wk =   0.0030053
        k(  121) = (   0.0909091   0.5563557   0.2857738), wk =   0.0030053
        k(  122) = (   0.0909091   0.5563557   0.3934029), wk =   0.0030053
        k(  123) = (   0.0909091   0.5563557  -0.6828880), wk =   0.0030053
        k(  124) = (   0.0909091   0.5563557  -0.5752590), wk =   0.0030053
        k(  125) = (   0.0909091   0.5563557  -0.4676299), wk =   0.0030053
        k(  126) = (   0.0909091   0.5563557  -0.3600008), wk =   0.0030053
        k(  127) = (   0.0909091   0.5563557  -0.2523717), wk =   0.0030053
        k(  128) = (   0.0909091  -0.4583811   0.2140211), wk =   0.0030053
        k(  129) = (   0.0909091  -0.4583811   0.3216502), wk =   0.0030053
        k(  130) = (   0.0909091  -0.4583811   0.4292793), wk =   0.0030053
        k(  131) = (   0.0909091  -0.4583811   0.5369084), wk =   0.0030053
        k(  132) = (   0.0909091  -0.4583811   0.6445375), wk =   0.0030053
        k(  133) = (   0.0909091  -0.4583811   0.7521665), wk =   0.0030053
        k(  134) = (   0.0909091  -0.4583811  -0.3241244), wk =   0.0030053
        k(  135) = (   0.0909091  -0.4583811  -0.2164953), wk =   0.0030053
        k(  136) = (   0.0909091  -0.4583811  -0.1088662), wk =   0.0030053
        k(  137) = (   0.0909091  -0.4583811  -0.0012371), wk =   0.0030053
        k(  138) = (   0.0909091  -0.4583811   0.1063920), wk =   0.0030053
        k(  139) = (   0.0909091  -0.3569074   0.1781447), wk =   0.0030053
        k(  140) = (   0.0909091  -0.3569074   0.2857738), wk =   0.0030053
        k(  141) = (   0.0909091  -0.3569074   0.3934029), wk =   0.0030053
        k(  142) = (   0.0909091  -0.3569074   0.5010320), wk =   0.0030053
        k(  143) = (   0.0909091  -0.3569074   0.6086611), wk =   0.0030053
        k(  144) = (   0.0909091  -0.3569074   0.7162902), wk =   0.0030053
        k(  145) = (   0.0909091  -0.3569074  -0.3600008), wk =   0.0030053
        k(  146) = (   0.0909091  -0.3569074  -0.2523717), wk =   0.0030053
        k(  147) = (   0.0909091  -0.3569074  -0.1447426), wk =   0.0030053
        k(  148) = (   0.0909091  -0.3569074  -0.0371135), wk =   0.0030053
        k(  149) = (   0.0909091  -0.3569074   0.0705156), wk =   0.0030053
        k(  150) = (   0.0909091  -0.2554338   0.1422683), wk =   0.0030053
        k(  151) = (   0.0909091  -0.2554338   0.2498974), wk =   0.0030053
        k(  152) = (   0.0909091  -0.2554338   0.3575265), wk =   0.0030053
        k(  153) = (   0.0909091  -0.2554338   0.4651556), wk =   0.0030053
        k(  154) = (   0.0909091  -0.2554338   0.5727847), wk =   0.0030053
        k(  155) = (   0.0909091  -0.2554338   0.6804138), wk =   0.0030053
        k(  156) = (   0.0909091  -0.2554338  -0.3958771), wk =   0.0030053
        k(  157) = (   0.0909091  -0.2554338  -0.2882480), wk =   0.0030053
        k(  158) = (   0.0909091  -0.2554338  -0.1806189), wk =   0.0030053
        k(  159) = (   0.0909091  -0.2554338  -0.0729898), wk =   0.0030053
        k(  160) = (   0.0909091  -0.2554338   0.0346392), wk =   0.0030053
        k(  161) = (   0.0909091  -0.1539601   0.1063920), wk =   0.0030053
        k(  162) = (   0.0909091  -0.1539601   0.2140211), wk =   0.0030053
        k(  163) = (   0.0909091  -0.1539601   0.3216502), wk =   0.0030053
        k(  164) = (   0.0909091  -0.1539601   0.4292793), wk =   0.0030053
        k(  165) = (   0.0909091  -0.1539601   0.5369084), wk =   0.0030053
        k(  166) = (   0.0909091  -0.1539601   0.6445375), wk =   0.0030053
        k(  167) = (   0.0909091  -0.1539601  -0.4317535), wk =   0.0030053
        k(  168) = (   0.0909091  -0.1539601  -0.3241244), wk =   0.0030053
        k(  169) = (   0.0909091  -0.1539601  -0.2164953), wk =   0.0030053
        k(  170) = (   0.0909091  -0.1539601  -0.1088662), wk =   0.0030053
        k(  171) = (   0.0909091  -0.1539601  -0.0012371), wk =   0.0030053
        k(  172) = (   0.0909091  -0.0524864   0.0705156), wk =   0.0030053
        k(  173) = (   0.0909091  -0.0524864   0.1781447), wk =   0.0030053
        k(  174) = (   0.0909091  -0.0524864   0.2857738), wk =   0.0030053
        k(  175) = (   0.0909091  -0.0524864   0.3934029), wk =   0.0030053
        k(  176) = (   0.0909091  -0.0524864   0.5010320), wk =   0.0030053
        k(  177) = (   0.0909091  -0.0524864   0.6086611), wk =   0.0030053
        k(  178) = (   0.0909091  -0.0524864  -0.4676299), wk =   0.0030053
        k(  179) = (   0.0909091  -0.0524864  -0.3600008), wk =   0.0030053
        k(  180) = (   0.0909091  -0.0524864  -0.2523717), wk =   0.0030053
        k(  181) = (   0.0909091  -0.0524864  -0.1447426), wk =   0.0030053
        k(  182) = (   0.0909091  -0.0524864  -0.0371135), wk =   0.0030053
        k(  183) = (   0.1818182   0.0979746   0.0692785), wk =   0.0030053
        k(  184) = (   0.1818182   0.0979746   0.1769076), wk =   0.0030053
        k(  185) = (   0.1818182   0.0979746   0.2845367), wk =   0.0030053
        k(  186) = (   0.1818182   0.0979746   0.3921658), wk =   0.0030053
        k(  187) = (   0.1818182   0.0979746   0.4997949), wk =   0.0030053
        k(  188) = (   0.1818182   0.0979746   0.6074240), wk =   0.0030053
        k(  189) = (   0.1818182   0.0979746  -0.4688670), wk =   0.0030053
        k(  190) = (   0.1818182   0.0979746  -0.3612379), wk =   0.0030053
        k(  191) = (   0.1818182   0.0979746  -0.2536088), wk =   0.0030053
        k(  192) = (   0.1818182   0.0979746  -0.1459797), wk =   0.0030053
        k(  193) = (   0.1818182   0.0979746  -0.0383506), wk =   0.0030053
        k(  194) = (   0.1818182   0.1994483   0.0334021), wk =   0.0030053
        k(  195) = (   0.1818182   0.1994483   0.1410312), wk =   0.0030053
        k(  196) = (   0.1818182   0.1994483   0.2486603), wk =   0.0030053
        k(  197) = (   0.1818182   0.1994483   0.3562894), wk =   0.0030053
        k(  198) = (   0.1818182   0.1994483   0.4639185), wk =   0.0030053
        k(  199) = (   0.1818182   0.1994483   0.5715476), wk =   0.0030053
        k(  200) = (   0.1818182   0.1994483  -0.5047433), wk =   0.0030053
        k(  201) = (   0.1818182   0.1994483  -0.3971142), wk =   0.0030053
        k(  202) = (   0.1818182   0.1994483  -0.2894852), wk =   0.0030053
        k(  203) = (   0.1818182   0.1994483  -0.1818561), wk =   0.0030053
        k(  204) = (   0.1818182   0.1994483  -0.0742270), wk =   0.0030053
        k(  205) = (   0.1818182   0.3009220  -0.0024742), wk =   0.0030053
        k(  206) = (   0.1818182   0.3009220   0.1051549), wk =   0.0030053
        k(  207) = (   0.1818182   0.3009220   0.2127840), wk =   0.0030053
        k(  208) = (   0.1818182   0.3009220   0.3204131), wk =   0.0030053
        k(  209) = (   0.1818182   0.3009220   0.4280421), wk =   0.0030053
        k(  210) = (   0.1818182   0.3009220   0.5356712), wk =   0.0030053
        k(  211) = (   0.1818182   0.3009220  -0.5406197), wk =   0.0030053
        k(  212) = (   0.1818182   0.3009220  -0.4329906), wk =   0.0030053
        k(  213) = (   0.1818182   0.3009220  -0.3253615), wk =   0.0030053
        k(  214) = (   0.1818182   0.3009220  -0.2177324), wk =   0.0030053
        k(  215) = (   0.1818182   0.3009220  -0.1101033), wk =   0.0030053
        k(  216) = (   0.1818182   0.4023956  -0.0383506), wk =   0.0030053
        k(  217) = (   0.1818182   0.4023956   0.0692785), wk =   0.0030053
        k(  218) = (   0.1818182   0.4023956   0.1769076), wk =   0.0030053
        k(  219) = (   0.1818182   0.4023956   0.2845367), wk =   0.0030053
        k(  220) = (   0.1818182   0.4023956   0.3921658), wk =   0.0030053
        k(  221) = (   0.1818182   0.4023956   0.4997949), wk =   0.0030053
        k(  222) = (   0.1818182   0.4023956  -0.5764961), wk =   0.0030053
        k(  223) = (   0.1818182   0.4023956  -0.4688670), wk =   0.0030053
        k(  224) = (   0.1818182   0.4023956  -0.3612379), wk =   0.0030053
        k(  225) = (   0.1818182   0.4023956  -0.2536088), wk =   0.0030053
        k(  226) = (   0.1818182   0.4023956  -0.1459797), wk =   0.0030053
        k(  227) = (   0.1818182   0.5038693  -0.0742270), wk =   0.0030053
        k(  228) = (   0.1818182   0.5038693   0.0334021), wk =   0.0030053
        k(  229) = (   0.1818182   0.5038693   0.1410312), wk =   0.0030053
        k(  230) = (   0.1818182   0.5038693   0.2486603), wk =   0.0030053
        k(  231) = (   0.1818182   0.5038693   0.3562894), wk =   0.0030053
        k(  232) = (   0.1818182   0.5038693   0.4639185), wk =   0.0030053
        k(  233) = (   0.1818182   0.5038693  -0.6123724), wk =   0.0030053
        k(  234) = (   0.1818182   0.5038693  -0.5047433), wk =   0.0030053
        k(  235) = (   0.1818182   0.5038693  -0.3971142), wk =   0.0030053
        k(  236) = (   0.1818182   0.5038693  -0.2894852), wk =   0.0030053
        k(  237) = (   0.1818182   0.5038693  -0.1818561), wk =   0.0030053
        k(  238) = (   0.1818182   0.6053430  -0.1101033), wk =   0.0030053
        k(  239) = (   0.1818182   0.6053430  -0.0024742), wk =   0.0030053
        k(  240) = (   0.1818182   0.6053430   0.1051549), wk =   0.0030053
        k(  241) = (   0.1818182   0.6053430   0.2127840), wk =   0.0030053
        k(  242) = (   0.1818182   0.6053430   0.3204131), wk =   0.0030053
        k(  243) = (   0.1818182   0.6053430   0.4280421), wk =   0.0030053
        k(  244) = (   0.1818182   0.6053430  -0.6482488), wk =   0.0030053
        k(  245) = (   0.1818182   0.6053430  -0.5406197), wk =   0.0030053
        k(  246) = (   0.1818182   0.6053430  -0.4329906), wk =   0.0030053
        k(  247) = (   0.1818182   0.6053430  -0.3253615), wk =   0.0030053
        k(  248) = (   0.1818182   0.6053430  -0.2177324), wk =   0.0030053
        k(  249) = (   0.1818182  -0.4093938   0.2486603), wk =   0.0030053
        k(  250) = (   0.1818182  -0.4093938   0.3562894), wk =   0.0030053
        k(  251) = (   0.1818182  -0.4093938   0.4639185), wk =   0.0030053
        k(  252) = (   0.1818182  -0.4093938   0.5715476), wk =   0.0030053
        k(  253) = (   0.1818182  -0.4093938   0.6791767), wk =   0.0030053
        k(  254) = (   0.1818182  -0.4093938   0.7868058), wk =   0.0030053
        k(  255) = (   0.1818182  -0.4093938  -0.2894852), wk =   0.0030053
        k(  256) = (   0.1818182  -0.4093938  -0.1818561), wk =   0.0030053
        k(  257) = (   0.1818182  -0.4093938  -0.0742270), wk =   0.0030053
        k(  258) = (   0.1818182  -0.4093938   0.0334021), wk =   0.0030053
        k(  259) = (   0.1818182  -0.4093938   0.1410312), wk =   0.0030053
        k(  260) = (   0.1818182  -0.3079201   0.2127840), wk =   0.0030053
        k(  261) = (   0.1818182  -0.3079201   0.3204131), wk =   0.0030053
        k(  262) = (   0.1818182  -0.3079201   0.4280421), wk =   0.0030053
        k(  263) = (   0.1818182  -0.3079201   0.5356712), wk =   0.0030053
        k(  264) = (   0.1818182  -0.3079201   0.6433003), wk =   0.0030053
        k(  265) = (   0.1818182  -0.3079201   0.7509294), wk =   0.0030053
        k(  266) = (   0.1818182  -0.3079201  -0.3253615), wk =   0.0030053
        k(  267) = (   0.1818182  -0.3079201  -0.2177324), wk =   0.0030053
        k(  268) = (   0.1818182  -0.3079201  -0.1101033), wk =   0.0030053
        k(  269) = (   0.1818182  -0.3079201  -0.0024742), wk =   0.0030053
        k(  270) = (   0.1818182  -0.3079201   0.1051549), wk =   0.0030053
        k(  271) = (   0.1818182  -0.2064465   0.1769076), wk =   0.0030053
        k(  272) = (   0.1818182  -0.2064465   0.2845367), wk =   0.0030053
        k(  273) = (   0.1818182  -0.2064465   0.3921658), wk =   0.0030053
        k(  274) = (   0.1818182  -0.2064465   0.4997949), wk =   0.0030053
        k(  275) = (   0.1818182  -0.2064465   0.6074240), wk =   0.0030053
        k(  276) = (   0.1818182  -0.2064465   0.7150531), wk =   0.0030053
        k(  277) = (   0.1818182  -0.2064465  -0.3612379), wk =   0.0030053
        k(  278) = (   0.1818182  -0.2064465  -0.2536088), wk =   0.0030053
        k(  279) = (   0.1818182  -0.2064465  -0.1459797), wk =   0.0030053
        k(  280) = (   0.1818182  -0.2064465  -0.0383506), wk =   0.0030053
        k(  281) = (   0.1818182  -0.2064465   0.0692785), wk =   0.0030053
        k(  282) = (   0.1818182  -0.1049728   0.1410312), wk =   0.0030053
        k(  283) = (   0.1818182  -0.1049728   0.2486603), wk =   0.0030053
        k(  284) = (   0.1818182  -0.1049728   0.3562894), wk =   0.0030053
        k(  285) = (   0.1818182  -0.1049728   0.4639185), wk =   0.0030053
        k(  286) = (   0.1818182  -0.1049728   0.5715476), wk =   0.0030053
        k(  287) = (   0.1818182  -0.1049728   0.6791767), wk =   0.0030053
        k(  288) = (   0.1818182  -0.1049728  -0.3971142), wk =   0.0030053
        k(  289) = (   0.1818182  -0.1049728  -0.2894852), wk =   0.0030053
        k(  290) = (   0.1818182  -0.1049728  -0.1818561), wk =   0.0030053
        k(  291) = (   0.1818182  -0.1049728  -0.0742270), wk =   0.0030053
        k(  292) = (   0.1818182  -0.1049728   0.0334021), wk =   0.0030053
        k(  293) = (   0.1818182  -0.0034991   0.1051549), wk =   0.0030053
        k(  294) = (   0.1818182  -0.0034991   0.2127840), wk =   0.0030053
        k(  295) = (   0.1818182  -0.0034991   0.3204131), wk =   0.0030053
        k(  296) = (   0.1818182  -0.0034991   0.4280421), wk =   0.0030053
        k(  297) = (   0.1818182  -0.0034991   0.5356712), wk =   0.0030053
        k(  298) = (   0.1818182  -0.0034991   0.6433003), wk =   0.0030053
        k(  299) = (   0.1818182  -0.0034991  -0.4329906), wk =   0.0030053
        k(  300) = (   0.1818182  -0.0034991  -0.3253615), wk =   0.0030053
        k(  301) = (   0.1818182  -0.0034991  -0.2177324), wk =   0.0030053
        k(  302) = (   0.1818182  -0.0034991  -0.1101033), wk =   0.0030053
        k(  303) = (   0.1818182  -0.0034991  -0.0024742), wk =   0.0030053
        k(  304) = (   0.2727273   0.1469619   0.1039177), wk =   0.0030053
        k(  305) = (   0.2727273   0.1469619   0.2115468), wk =   0.0030053
        k(  306) = (   0.2727273   0.1469619   0.3191759), wk =   0.0030053
        k(  307) = (   0.2727273   0.1469619   0.4268050), wk =   0.0030053
        k(  308) = (   0.2727273   0.1469619   0.5344341), wk =   0.0030053
        k(  309) = (   0.2727273   0.1469619   0.6420632), wk =   0.0030053
        k(  310) = (   0.2727273   0.1469619  -0.4342277), wk =   0.0030053
        k(  311) = (   0.2727273   0.1469619  -0.3265986), wk =   0.0030053
        k(  312) = (   0.2727273   0.1469619  -0.2189695), wk =   0.0030053
        k(  313) = (   0.2727273   0.1469619  -0.1113404), wk =   0.0030053
        k(  314) = (   0.2727273   0.1469619  -0.0037113), wk =   0.0030053
        k(  315) = (   0.2727273   0.2484356   0.0680414), wk =   0.0030053
        k(  316) = (   0.2727273   0.2484356   0.1756705), wk =   0.0030053
        k(  317) = (   0.2727273   0.2484356   0.2832996), wk =   0.0030053
        k(  318) = (   0.2727273   0.2484356   0.3909287), wk =   0.0030053
        k(  319) = (   0.2727273   0.2484356   0.4985578), wk =   0.0030053
        k(  320) = (   0.2727273   0.2484356   0.6061869), wk =   0.0030053
        k(  321) = (   0.2727273   0.2484356  -0.4701041), wk =   0.0030053
        k(  322) = (   0.2727273   0.2484356  -0.3624750), wk =   0.0030053
        k(  323) = (   0.2727273   0.2484356  -0.2548459), wk =   0.0030053
        k(  324) = (   0.2727273   0.2484356  -0.1472168), wk =   0.0030053
        k(  325) = (   0.2727273   0.2484356  -0.0395877), wk =   0.0030053
        k(  326) = (   0.2727273   0.3499093   0.0321650), wk =   0.0030053
        k(  327) = (   0.2727273   0.3499093   0.1397941), wk =   0.0030053
        k(  328) = (   0.2727273   0.3499093   0.2474232), wk =   0.0030053
        k(  329) = (   0.2727273   0.3499093   0.3550523), wk =   0.0030053
        k(  330) = (   0.2727273   0.3499093   0.4626814), wk =   0.0030053
        k(  331) = (   0.2727273   0.3499093   0.5703105), wk =   0.0030053
        k(  332) = (   0.2727273   0.3499093  -0.5059805), wk =   0.0030053
        k(  333) = (   0.2727273   0.3499093  -0.3983514), wk =   0.0030053
        k(  334) = (   0.2727273   0.3499093  -0.2907223), wk =   0.0030053
        k(  335) = (   0.2727273   0.3499093  -0.1830932), wk =   0.0030053
        k(  336) = (   0.2727273   0.3499093  -0.0754641), wk =   0.0030053
        k(  337) = (   0.2727273   0.4513829  -0.0037113), wk =   0.0030053
        k(  338) = (   0.2727273   0.4513829   0.1039177), wk =   0.0030053
        k(  339) = (   0.2727273   0.4513829   0.2115468), wk =   0.0030053
        k(  340) = (   0.2727273   0.4513829   0.3191759), wk =   0.0030053
        k(  341) = (   0.2727273   0.4513829   0.4268050), wk =   0.0030053
        k(  342) = (   0.2727273   0.4513829   0.5344341), wk =   0.0030053
        k(  343) = (   0.2727273   0.4513829  -0.5418568), wk =   0.0030053
        k(  344) = (   0.2727273   0.4513829  -0.4342277), wk =   0.0030053
        k(  345) = (   0.2727273   0.4513829  -0.3265986), wk =   0.0030053
        k(  346) = (   0.2727273   0.4513829  -0.2189695), wk =   0.0030053
        k(  347) = (   0.2727273   0.4513829  -0.1113404), wk =   0.0030053
        k(  348) = (   0.2727273   0.5528566  -0.0395877), wk =   0.0030053
        k(  349) = (   0.2727273   0.5528566   0.0680414), wk =   0.0030053
        k(  350) = (   0.2727273   0.5528566   0.1756705), wk =   0.0030053
        k(  351) = (   0.2727273   0.5528566   0.2832996), wk =   0.0030053
        k(  352) = (   0.2727273   0.5528566   0.3909287), wk =   0.0030053
        k(  353) = (   0.2727273   0.5528566   0.4985578), wk =   0.0030053
        k(  354) = (   0.2727273   0.5528566  -0.5777332), wk =   0.0030053
        k(  355) = (   0.2727273   0.5528566  -0.4701041), wk =   0.0030053
        k(  356) = (   0.2727273   0.5528566  -0.3624750), wk =   0.0030053
        k(  357) = (   0.2727273   0.5528566  -0.2548459), wk =   0.0030053
        k(  358) = (   0.2727273   0.5528566  -0.1472168), wk =   0.0030053
        k(  359) = (   0.2727273   0.6543303  -0.0754641), wk =   0.0030053
        k(  360) = (   0.2727273   0.6543303   0.0321650), wk =   0.0030053
        k(  361) = (   0.2727273   0.6543303   0.1397941), wk =   0.0030053
        k(  362) = (   0.2727273   0.6543303   0.2474232), wk =   0.0030053
        k(  363) = (   0.2727273   0.6543303   0.3550523), wk =   0.0030053
        k(  364) = (   0.2727273   0.6543303   0.4626814), wk =   0.0030053
        k(  365) = (   0.2727273   0.6543303  -0.6136096), wk =   0.0030053
        k(  366) = (   0.2727273   0.6543303  -0.5059805), wk =   0.0030053
        k(  367) = (   0.2727273   0.6543303  -0.3983514), wk =   0.0030053
        k(  368) = (   0.2727273   0.6543303  -0.2907223), wk =   0.0030053
        k(  369) = (   0.2727273   0.6543303  -0.1830932), wk =   0.0030053
        k(  370) = (   0.2727273  -0.3604065   0.2832996), wk =   0.0030053
        k(  371) = (   0.2727273  -0.3604065   0.3909287), wk =   0.0030053
        k(  372) = (   0.2727273  -0.3604065   0.4985578), wk =   0.0030053
        k(  373) = (   0.2727273  -0.3604065   0.6061869), wk =   0.0030053
        k(  374) = (   0.2727273  -0.3604065   0.7138160), wk =   0.0030053
        k(  375) = (   0.2727273  -0.3604065   0.8214450), wk =   0.0030053
        k(  376) = (   0.2727273  -0.3604065  -0.2548459), wk =   0.0030053
        k(  377) = (   0.2727273  -0.3604065  -0.1472168), wk =   0.0030053
        k(  378) = (   0.2727273  -0.3604065  -0.0395877), wk =   0.0030053
        k(  379) = (   0.2727273  -0.3604065   0.0680414), wk =   0.0030053
        k(  380) = (   0.2727273  -0.3604065   0.1756705), wk =   0.0030053
        k(  381) = (   0.2727273  -0.2589328   0.2474232), wk =   0.0030053
        k(  382) = (   0.2727273  -0.2589328   0.3550523), wk =   0.0030053
        k(  383) = (   0.2727273  -0.2589328   0.4626814), wk =   0.0030053
        k(  384) = (   0.2727273  -0.2589328   0.5703105), wk =   0.0030053
        k(  385) = (   0.2727273  -0.2589328   0.6779396), wk =   0.0030053
        k(  386) = (   0.2727273  -0.2589328   0.7855687), wk =   0.0030053
        k(  387) = (   0.2727273  -0.2589328  -0.2907223), wk =   0.0030053
        k(  388) = (   0.2727273  -0.2589328  -0.1830932), wk =   0.0030053
        k(  389) = (   0.2727273  -0.2589328  -0.0754641), wk =   0.0030053
        k(  390) = (   0.2727273  -0.2589328   0.0321650), wk =   0.0030053
        k(  391) = (   0.2727273  -0.2589328   0.1397941), wk =   0.0030053
        k(  392) = (   0.2727273  -0.1574592   0.2115468), wk =   0.0030053
        k(  393) = (   0.2727273  -0.1574592   0.3191759), wk =   0.0030053
        k(  394) = (   0.2727273  -0.1574592   0.4268050), wk =   0.0030053
        k(  395) = (   0.2727273  -0.1574592   0.5344341), wk =   0.0030053
        k(  396) = (   0.2727273  -0.1574592   0.6420632), wk =   0.0030053
        k(  397) = (   0.2727273  -0.1574592   0.7496923), wk =   0.0030053
        k(  398) = (   0.2727273  -0.1574592  -0.3265986), wk =   0.0030053
        k(  399) = (   0.2727273  -0.1574592  -0.2189695), wk =   0.0030053
        k(  400) = (   0.2727273  -0.1574592  -0.1113404), wk =   0.0030053
        k(  401) = (   0.2727273  -0.1574592  -0.0037113), wk =   0.0030053
        k(  402) = (   0.2727273  -0.1574592   0.1039177), wk =   0.0030053
        k(  403) = (   0.2727273  -0.0559855   0.1756705), wk =   0.0030053
        k(  404) = (   0.2727273  -0.0559855   0.2832996), wk =   0.0030053
        k(  405) = (   0.2727273  -0.0559855   0.3909287), wk =   0.0030053
        k(  406) = (   0.2727273  -0.0559855   0.4985578), wk =   0.0030053
        k(  407) = (   0.2727273  -0.0559855   0.6061869), wk =   0.0030053
        k(  408) = (   0.2727273  -0.0559855   0.7138160), wk =   0.0030053
        k(  409) = (   0.2727273  -0.0559855  -0.3624750), wk =   0.0030053
        k(  410) = (   0.2727273  -0.0559855  -0.2548459), wk =   0.0030053
        k(  411) = (   0.2727273  -0.0559855  -0.1472168), wk =   0.0030053
        k(  412) = (   0.2727273  -0.0559855  -0.0395877), wk =   0.0030053
        k(  413) = (   0.2727273  -0.0559855   0.0680414), wk =   0.0030053
        k(  414) = (   0.2727273   0.0454882   0.1397941), wk =   0.0030053
        k(  415) = (   0.2727273   0.0454882   0.2474232), wk =   0.0030053
        k(  416) = (   0.2727273   0.0454882   0.3550523), wk =   0.0030053
        k(  417) = (   0.2727273   0.0454882   0.4626814), wk =   0.0030053
        k(  418) = (   0.2727273   0.0454882   0.5703105), wk =   0.0030053
        k(  419) = (   0.2727273   0.0454882   0.6779396), wk =   0.0030053
        k(  420) = (   0.2727273   0.0454882  -0.3983514), wk =   0.0030053
        k(  421) = (   0.2727273   0.0454882  -0.2907223), wk =   0.0030053
        k(  422) = (   0.2727273   0.0454882  -0.1830932), wk =   0.0030053
        k(  423) = (   0.2727273   0.0454882  -0.0754641), wk =   0.0030053
        k(  424) = (   0.2727273   0.0454882   0.0321650), wk =   0.0030053
        k(  425) = (   0.3636364   0.1959492   0.1385570), wk =   0.0030053
        k(  426) = (   0.3636364   0.1959492   0.2461861), wk =   0.0030053
        k(  427) = (   0.3636364   0.1959492   0.3538152), wk =   0.0030053
        k(  428) = (   0.3636364   0.1959492   0.4614443), wk =   0.0030053
        k(  429) = (   0.3636364   0.1959492   0.5690734), wk =   0.0030053
        k(  430) = (   0.3636364   0.1959492   0.6767025), wk =   0.0030053
        k(  431) = (   0.3636364   0.1959492  -0.3995885), wk =   0.0030053
        k(  432) = (   0.3636364   0.1959492  -0.2919594), wk =   0.0030053
        k(  433) = (   0.3636364   0.1959492  -0.1843303), wk =   0.0030053
        k(  434) = (   0.3636364   0.1959492  -0.0767012), wk =   0.0030053
        k(  435) = (   0.3636364   0.1959492   0.0309279), wk =   0.0030053
        k(  436) = (   0.3636364   0.2974229   0.1026806), wk =   0.0030053
        k(  437) = (   0.3636364   0.2974229   0.2103097), wk =   0.0030053
        k(  438) = (   0.3636364   0.2974229   0.3179388), wk =   0.0030053
        k(  439) = (   0.3636364   0.2974229   0.4255679), wk =   0.0030053
        k(  440) = (   0.3636364   0.2974229   0.5331970), wk =   0.0030053
        k(  441) = (   0.3636364   0.2974229   0.6408261), wk =   0.0030053
        k(  442) = (   0.3636364   0.2974229  -0.4354648), wk =   0.0030053
        k(  443) = (   0.3636364   0.2974229  -0.3278357), wk =   0.0030053
        k(  444) = (   0.3636364   0.2974229  -0.2202067), wk =   0.0030053
        k(  445) = (   0.3636364   0.2974229  -0.1125776), wk =   0.0030053
        k(  446) = (   0.3636364   0.2974229  -0.0049485), wk =   0.0030053
        k(  447) = (   0.3636364   0.3988965   0.0668043), wk =   0.0030053
        k(  448) = (   0.3636364   0.3988965   0.1744334), wk =   0.0030053
        k(  449) = (   0.3636364   0.3988965   0.2820625), wk =   0.0030053
        k(  450) = (   0.3636364   0.3988965   0.3896915), wk =   0.0030053
        k(  451) = (   0.3636364   0.3988965   0.4973206), wk =   0.0030053
        k(  452) = (   0.3636364   0.3988965   0.6049497), wk =   0.0030053
        k(  453) = (   0.3636364   0.3988965  -0.4713412), wk =   0.0030053
        k(  454) = (   0.3636364   0.3988965  -0.3637121), wk =   0.0030053
        k(  455) = (   0.3636364   0.3988965  -0.2560830), wk =   0.0030053
        k(  456) = (   0.3636364   0.3988965  -0.1484539), wk =   0.0030053
        k(  457) = (   0.3636364   0.3988965  -0.0408248), wk =   0.0030053
        k(  458) = (   0.3636364   0.5003702   0.0309279), wk =   0.0030053
        k(  459) = (   0.3636364   0.5003702   0.1385570), wk =   0.0030053
        k(  460) = (   0.3636364   0.5003702   0.2461861), wk =   0.0030053
        k(  461) = (   0.3636364   0.5003702   0.3538152), wk =   0.0030053
        k(  462) = (   0.3636364   0.5003702   0.4614443), wk =   0.0030053
        k(  463) = (   0.3636364   0.5003702   0.5690734), wk =   0.0030053
        k(  464) = (   0.3636364   0.5003702  -0.5072176), wk =   0.0030053
        k(  465) = (   0.3636364   0.5003702  -0.3995885), wk =   0.0030053
        k(  466) = (   0.3636364   0.5003702  -0.2919594), wk =   0.0030053
        k(  467) = (   0.3636364   0.5003702  -0.1843303), wk =   0.0030053
        k(  468) = (   0.3636364   0.5003702  -0.0767012), wk =   0.0030053
        k(  469) = (   0.3636364   0.6018439  -0.0049485), wk =   0.0030053
        k(  470) = (   0.3636364   0.6018439   0.1026806), wk =   0.0030053
        k(  471) = (   0.3636364   0.6018439   0.2103097), wk =   0.0030053
        k(  472) = (   0.3636364   0.6018439   0.3179388), wk =   0.0030053
        k(  473) = (   0.3636364   0.6018439   0.4255679), wk =   0.0030053
        k(  474) = (   0.3636364   0.6018439   0.5331970), wk =   0.0030053
        k(  475) = (   0.3636364   0.6018439  -0.5430939), wk =   0.0030053
        k(  476) = (   0.3636364   0.6018439  -0.4354648), wk =   0.0030053
        k(  477) = (   0.3636364   0.6018439  -0.3278357), wk =   0.0030053
        k(  478) = (   0.3636364   0.6018439  -0.2202067), wk =   0.0030053
        k(  479) = (   0.3636364   0.6018439  -0.1125776), wk =   0.0030053
        k(  480) = (   0.3636364   0.7033176  -0.0408248), wk =   0.0030053
        k(  481) = (   0.3636364   0.7033176   0.0668043), wk =   0.0030053
        k(  482) = (   0.3636364   0.7033176   0.1744334), wk =   0.0030053
        k(  483) = (   0.3636364   0.7033176   0.2820625), wk =   0.0030053
        k(  484) = (   0.3636364   0.7033176   0.3896915), wk =   0.0030053
        k(  485) = (   0.3636364   0.7033176   0.4973206), wk =   0.0030053
        k(  486) = (   0.3636364   0.7033176  -0.5789703), wk =   0.0030053
        k(  487) = (   0.3636364   0.7033176  -0.4713412), wk =   0.0030053
        k(  488) = (   0.3636364   0.7033176  -0.3637121), wk =   0.0030053
        k(  489) = (   0.3636364   0.7033176  -0.2560830), wk =   0.0030053
        k(  490) = (   0.3636364   0.7033176  -0.1484539), wk =   0.0030053
        k(  491) = (   0.3636364  -0.3114192   0.3179388), wk =   0.0030053
        k(  492) = (   0.3636364  -0.3114192   0.4255679), wk =   0.0030053
        k(  493) = (   0.3636364  -0.3114192   0.5331970), wk =   0.0030053
        k(  494) = (   0.3636364  -0.3114192   0.6408261), wk =   0.0030053
        k(  495) = (   0.3636364  -0.3114192   0.7484552), wk =   0.0030053
        k(  496) = (   0.3636364  -0.3114192   0.8560843), wk =   0.0030053
        k(  497) = (   0.3636364  -0.3114192  -0.2202067), wk =   0.0030053
        k(  498) = (   0.3636364  -0.3114192  -0.1125776), wk =   0.0030053
        k(  499) = (   0.3636364  -0.3114192  -0.0049485), wk =   0.0030053
        k(  500) = (   0.3636364  -0.3114192   0.1026806), wk =   0.0030053
        k(  501) = (   0.3636364  -0.3114192   0.2103097), wk =   0.0030053
        k(  502) = (   0.3636364  -0.2099456   0.2820625), wk =   0.0030053
        k(  503) = (   0.3636364  -0.2099456   0.3896915), wk =   0.0030053
        k(  504) = (   0.3636364  -0.2099456   0.4973206), wk =   0.0030053
        k(  505) = (   0.3636364  -0.2099456   0.6049497), wk =   0.0030053
        k(  506) = (   0.3636364  -0.2099456   0.7125788), wk =   0.0030053
        k(  507) = (   0.3636364  -0.2099456   0.8202079), wk =   0.0030053
        k(  508) = (   0.3636364  -0.2099456  -0.2560830), wk =   0.0030053
        k(  509) = (   0.3636364  -0.2099456  -0.1484539), wk =   0.0030053
        k(  510) = (   0.3636364  -0.2099456  -0.0408248), wk =   0.0030053
        k(  511) = (   0.3636364  -0.2099456   0.0668043), wk =   0.0030053
        k(  512) = (   0.3636364  -0.2099456   0.1744334), wk =   0.0030053
        k(  513) = (   0.3636364  -0.1084719   0.2461861), wk =   0.0030053
        k(  514) = (   0.3636364  -0.1084719   0.3538152), wk =   0.0030053
        k(  515) = (   0.3636364  -0.1084719   0.4614443), wk =   0.0030053
        k(  516) = (   0.3636364  -0.1084719   0.5690734), wk =   0.0030053
        k(  517) = (   0.3636364  -0.1084719   0.6767025), wk =   0.0030053
        k(  518) = (   0.3636364  -0.1084719   0.7843316), wk =   0.0030053
        k(  519) = (   0.3636364  -0.1084719  -0.2919594), wk =   0.0030053
        k(  520) = (   0.3636364  -0.1084719  -0.1843303), wk =   0.0030053
        k(  521) = (   0.3636364  -0.1084719  -0.0767012), wk =   0.0030053
        k(  522) = (   0.3636364  -0.1084719   0.0309279), wk =   0.0030053
        k(  523) = (   0.3636364  -0.1084719   0.1385570), wk =   0.0030053
        k(  524) = (   0.3636364  -0.0069982   0.2103097), wk =   0.0030053
        k(  525) = (   0.3636364  -0.0069982   0.3179388), wk =   0.0030053
        k(  526) = (   0.3636364  -0.0069982   0.4255679), wk =   0.0030053
        k(  527) = (   0.3636364  -0.0069982   0.5331970), wk =   0.0030053
        k(  528) = (   0.3636364  -0.0069982   0.6408261), wk =   0.0030053
        k(  529) = (   0.3636364  -0.0069982   0.7484552), wk =   0.0030053
        k(  530) = (   0.3636364  -0.0069982  -0.3278357), wk =   0.0030053
        k(  531) = (   0.3636364  -0.0069982  -0.2202067), wk =   0.0030053
        k(  532) = (   0.3636364  -0.0069982  -0.1125776), wk =   0.0030053
        k(  533) = (   0.3636364  -0.0069982  -0.0049485), wk =   0.0030053
        k(  534) = (   0.3636364  -0.0069982   0.1026806), wk =   0.0030053
        k(  535) = (   0.3636364   0.0944755   0.1744334), wk =   0.0030053
        k(  536) = (   0.3636364   0.0944755   0.2820625), wk =   0.0030053
        k(  537) = (   0.3636364   0.0944755   0.3896915), wk =   0.0030053
        k(  538) = (   0.3636364   0.0944755   0.4973206), wk =   0.0030053
        k(  539) = (   0.3636364   0.0944755   0.6049497), wk =   0.0030053
        k(  540) = (   0.3636364   0.0944755   0.7125788), wk =   0.0030053
        k(  541) = (   0.3636364   0.0944755  -0.3637121), wk =   0.0030053
        k(  542) = (   0.3636364   0.0944755  -0.2560830), wk =   0.0030053
        k(  543) = (   0.3636364   0.0944755  -0.1484539), wk =   0.0030053
        k(  544) = (   0.3636364   0.0944755  -0.0408248), wk =   0.0030053
        k(  545) = (   0.3636364   0.0944755   0.0668043), wk =   0.0030053
        k(  546) = (   0.4545455   0.2449365   0.1731962), wk =   0.0030053
        k(  547) = (   0.4545455   0.2449365   0.2808253), wk =   0.0030053
        k(  548) = (   0.4545455   0.2449365   0.3884544), wk =   0.0030053
        k(  549) = (   0.4545455   0.2449365   0.4960835), wk =   0.0030053
        k(  550) = (   0.4545455   0.2449365   0.6037126), wk =   0.0030053
        k(  551) = (   0.4545455   0.2449365   0.7113417), wk =   0.0030053
        k(  552) = (   0.4545455   0.2449365  -0.3649492), wk =   0.0030053
        k(  553) = (   0.4545455   0.2449365  -0.2573201), wk =   0.0030053
        k(  554) = (   0.4545455   0.2449365  -0.1496910), wk =   0.0030053
        k(  555) = (   0.4545455   0.2449365  -0.0420619), wk =   0.0030053
        k(  556) = (   0.4545455   0.2449365   0.0655671), wk =   0.0030053
        k(  557) = (   0.4545455   0.3464102   0.1373199), wk =   0.0030053
        k(  558) = (   0.4545455   0.3464102   0.2449490), wk =   0.0030053
        k(  559) = (   0.4545455   0.3464102   0.3525781), wk =   0.0030053
        k(  560) = (   0.4545455   0.3464102   0.4602072), wk =   0.0030053
        k(  561) = (   0.4545455   0.3464102   0.5678363), wk =   0.0030053
        k(  562) = (   0.4545455   0.3464102   0.6754654), wk =   0.0030053
        k(  563) = (   0.4545455   0.3464102  -0.4008256), wk =   0.0030053
        k(  564) = (   0.4545455   0.3464102  -0.2931965), wk =   0.0030053
        k(  565) = (   0.4545455   0.3464102  -0.1855674), wk =   0.0030053
        k(  566) = (   0.4545455   0.3464102  -0.0779383), wk =   0.0030053
        k(  567) = (   0.4545455   0.3464102   0.0296908), wk =   0.0030053
        k(  568) = (   0.4545455   0.4478838   0.1014435), wk =   0.0030053
        k(  569) = (   0.4545455   0.4478838   0.2090726), wk =   0.0030053
        k(  570) = (   0.4545455   0.4478838   0.3167017), wk =   0.0030053
        k(  571) = (   0.4545455   0.4478838   0.4243308), wk =   0.0030053
        k(  572) = (   0.4545455   0.4478838   0.5319599), wk =   0.0030053
        k(  573) = (   0.4545455   0.4478838   0.6395890), wk =   0.0030053
        k(  574) = (   0.4545455   0.4478838  -0.4367020), wk =   0.0030053
        k(  575) = (   0.4545455   0.4478838  -0.3290729), wk =   0.0030053
        k(  576) = (   0.4545455   0.4478838  -0.2214438), wk =   0.0030053
        k(  577) = (   0.4545455   0.4478838  -0.1138147), wk =   0.0030053
        k(  578) = (   0.4545455   0.4478838  -0.0061856), wk =   0.0030053
        k(  579) = (   0.4545455   0.5493575   0.0655671), wk =   0.0030053
        k(  580) = (   0.4545455   0.5493575   0.1731962), wk =   0.0030053
        k(  581) = (   0.4545455   0.5493575   0.2808253), wk =   0.0030053
        k(  582) = (   0.4545455   0.5493575   0.3884544), wk =   0.0030053
        k(  583) = (   0.4545455   0.5493575   0.4960835), wk =   0.0030053
        k(  584) = (   0.4545455   0.5493575   0.6037126), wk =   0.0030053
        k(  585) = (   0.4545455   0.5493575  -0.4725783), wk =   0.0030053
        k(  586) = (   0.4545455   0.5493575  -0.3649492), wk =   0.0030053
        k(  587) = (   0.4545455   0.5493575  -0.2573201), wk =   0.0030053
        k(  588) = (   0.4545455   0.5493575  -0.1496910), wk =   0.0030053
        k(  589) = (   0.4545455   0.5493575  -0.0420619), wk =   0.0030053
        k(  590) = (   0.4545455   0.6508312   0.0296908), wk =   0.0030053
        k(  591) = (   0.4545455   0.6508312   0.1373199), wk =   0.0030053
        k(  592) = (   0.4545455   0.6508312   0.2449490), wk =   0.0030053
        k(  593) = (   0.4545455   0.6508312   0.3525781), wk =   0.0030053
        k(  594) = (   0.4545455   0.6508312   0.4602072), wk =   0.0030053
        k(  595) = (   0.4545455   0.6508312   0.5678363), wk =   0.0030053
        k(  596) = (   0.4545455   0.6508312  -0.5084547), wk =   0.0030053
        k(  597) = (   0.4545455   0.6508312  -0.4008256), wk =   0.0030053
        k(  598) = (   0.4545455   0.6508312  -0.2931965), wk =   0.0030053
        k(  599) = (   0.4545455   0.6508312  -0.1855674), wk =   0.0030053
        k(  600) = (   0.4545455   0.6508312  -0.0779383), wk =   0.0030053
        k(  601) = (   0.4545455   0.7523049  -0.0061856), wk =   0.0030053
        k(  602) = (   0.4545455   0.7523049   0.1014435), wk =   0.0030053
        k(  603) = (   0.4545455   0.7523049   0.2090726), wk =   0.0030053
        k(  604) = (   0.4545455   0.7523049   0.3167017), wk =   0.0030053
        k(  605) = (   0.4545455   0.7523049   0.4243308), wk =   0.0030053
        k(  606) = (   0.4545455   0.7523049   0.5319599), wk =   0.0030053
        k(  607) = (   0.4545455   0.7523049  -0.5443311), wk =   0.0030053
        k(  608) = (   0.4545455   0.7523049  -0.4367020), wk =   0.0030053
        k(  609) = (   0.4545455   0.7523049  -0.3290729), wk =   0.0030053
        k(  610) = (   0.4545455   0.7523049  -0.2214438), wk =   0.0030053
        k(  611) = (   0.4545455   0.7523049  -0.1138147), wk =   0.0030053
        k(  612) = (   0.4545455  -0.2624319   0.3525781), wk =   0.0030053
        k(  613) = (   0.4545455  -0.2624319   0.4602072), wk =   0.0030053
        k(  614) = (   0.4545455  -0.2624319   0.5678363), wk =   0.0030053
        k(  615) = (   0.4545455  -0.2624319   0.6754654), wk =   0.0030053
        k(  616) = (   0.4545455  -0.2624319   0.7830944), wk =   0.0030053
        k(  617) = (   0.4545455  -0.2624319   0.8907235), wk =   0.0030053
        k(  618) = (   0.4545455  -0.2624319  -0.1855674), wk =   0.0030053
        k(  619) = (   0.4545455  -0.2624319  -0.0779383), wk =   0.0030053
        k(  620) = (   0.4545455  -0.2624319   0.0296908), wk =   0.0030053
        k(  621) = (   0.4545455  -0.2624319   0.1373199), wk =   0.0030053
        k(  622) = (   0.4545455  -0.2624319   0.2449490), wk =   0.0030053
        k(  623) = (   0.4545455  -0.1609583   0.3167017), wk =   0.0030053
        k(  624) = (   0.4545455  -0.1609583   0.4243308), wk =   0.0030053
        k(  625) = (   0.4545455  -0.1609583   0.5319599), wk =   0.0030053
        k(  626) = (   0.4545455  -0.1609583   0.6395890), wk =   0.0030053
        k(  627) = (   0.4545455  -0.1609583   0.7472181), wk =   0.0030053
        k(  628) = (   0.4545455  -0.1609583   0.8548472), wk =   0.0030053
        k(  629) = (   0.4545455  -0.1609583  -0.2214438), wk =   0.0030053
        k(  630) = (   0.4545455  -0.1609583  -0.1138147), wk =   0.0030053
        k(  631) = (   0.4545455  -0.1609583  -0.0061856), wk =   0.0030053
        k(  632) = (   0.4545455  -0.1609583   0.1014435), wk =   0.0030053
        k(  633) = (   0.4545455  -0.1609583   0.2090726), wk =   0.0030053
        k(  634) = (   0.4545455  -0.0594846   0.2808253), wk =   0.0030053
        k(  635) = (   0.4545455  -0.0594846   0.3884544), wk =   0.0030053
        k(  636) = (   0.4545455  -0.0594846   0.4960835), wk =   0.0030053
        k(  637) = (   0.4545455  -0.0594846   0.6037126), wk =   0.0030053
        k(  638) = (   0.4545455  -0.0594846   0.7113417), wk =   0.0030053
        k(  639) = (   0.4545455  -0.0594846   0.8189708), wk =   0.0030053
        k(  640) = (   0.4545455  -0.0594846  -0.2573201), wk =   0.0030053
        k(  641) = (   0.4545455  -0.0594846  -0.1496910), wk =   0.0030053
        k(  642) = (   0.4545455  -0.0594846  -0.0420619), wk =   0.0030053
        k(  643) = (   0.4545455  -0.0594846   0.0655671), wk =   0.0030053
        k(  644) = (   0.4545455  -0.0594846   0.1731962), wk =   0.0030053
        k(  645) = (   0.4545455   0.0419891   0.2449490), wk =   0.0030053
        k(  646) = (   0.4545455   0.0419891   0.3525781), wk =   0.0030053
        k(  647) = (   0.4545455   0.0419891   0.4602072), wk =   0.0030053
        k(  648) = (   0.4545455   0.0419891   0.5678363), wk =   0.0030053
        k(  649) = (   0.4545455   0.0419891   0.6754654), wk =   0.0030053
        k(  650) = (   0.4545455   0.0419891   0.7830944), wk =   0.0030053
        k(  651) = (   0.4545455   0.0419891  -0.2931965), wk =   0.0030053
        k(  652) = (   0.4545455   0.0419891  -0.1855674), wk =   0.0030053
        k(  653) = (   0.4545455   0.0419891  -0.0779383), wk =   0.0030053
        k(  654) = (   0.4545455   0.0419891   0.0296908), wk =   0.0030053
        k(  655) = (   0.4545455   0.0419891   0.1373199), wk =   0.0030053
        k(  656) = (   0.4545455   0.1434628   0.2090726), wk =   0.0030053
        k(  657) = (   0.4545455   0.1434628   0.3167017), wk =   0.0030053
        k(  658) = (   0.4545455   0.1434628   0.4243308), wk =   0.0030053
        k(  659) = (   0.4545455   0.1434628   0.5319599), wk =   0.0030053
        k(  660) = (   0.4545455   0.1434628   0.6395890), wk =   0.0030053
        k(  661) = (   0.4545455   0.1434628   0.7472181), wk =   0.0030053
        k(  662) = (   0.4545455   0.1434628  -0.3290729), wk =   0.0030053
        k(  663) = (   0.4545455   0.1434628  -0.2214438), wk =   0.0030053
        k(  664) = (   0.4545455   0.1434628  -0.1138147), wk =   0.0030053
        k(  665) = (   0.4545455   0.1434628  -0.0061856), wk =   0.0030053
        k(  666) = (   0.4545455   0.1434628   0.1014435), wk =   0.0030053

                       cryst. coord.
        k(    1) = (   0.0000000   0.0000000   0.0000000), wk =   0.0015026
        k(    2) = (   0.0000000   0.0000000   0.0909091), wk =   0.0030053
        k(    3) = (   0.0000000   0.0000000   0.1818182), wk =   0.0030053
        k(    4) = (   0.0000000   0.0000000   0.2727273), wk =   0.0030053
        k(    5) = (   0.0000000   0.0000000   0.3636364), wk =   0.0030053
        k(    6) = (   0.0000000   0.0000000   0.4545455), wk =   0.0030053
        k(    7) = (   0.0000000   0.0909091  -0.0000000), wk =   0.0030053
        k(    8) = (   0.0000000   0.0909091   0.0909091), wk =   0.0030053
        k(    9) = (   0.0000000   0.0909091   0.1818182), wk =   0.0030053
        k(   10) = (   0.0000000   0.0909091   0.2727273), wk =   0.0030053
        k(   11) = (   0.0000000   0.0909091   0.3636364), wk =   0.0030053
        k(   12) = (   0.0000000   0.0909091   0.4545455), wk =   0.0030053
        k(   13) = (   0.0000000   0.0909091  -0.4545455), wk =   0.0030053
        k(   14) = (   0.0000000   0.0909091  -0.3636364), wk =   0.0030053
        k(   15) = (   0.0000000   0.0909091  -0.2727273), wk =   0.0030053
        k(   16) = (   0.0000000   0.0909091  -0.1818182), wk =   0.0030053
        k(   17) = (   0.0000000   0.0909091  -0.0909091), wk =   0.0030053
        k(   18) = (   0.0000000   0.1818182  -0.0000000), wk =   0.0030053
        k(   19) = (   0.0000000   0.1818182   0.0909091), wk =   0.0030053
        k(   20) = (   0.0000000   0.1818182   0.1818182), wk =   0.0030053
        k(   21) = (   0.0000000   0.1818182   0.2727273), wk =   0.0030053
        k(   22) = (   0.0000000   0.1818182   0.3636364), wk =   0.0030053
        k(   23) = (   0.0000000   0.1818182   0.4545455), wk =   0.0030053
        k(   24) = (   0.0000000   0.1818182  -0.4545455), wk =   0.0030053
        k(   25) = (   0.0000000   0.1818182  -0.3636364), wk =   0.0030053
        k(   26) = (   0.0000000   0.1818182  -0.2727273), wk =   0.0030053
        k(   27) = (   0.0000000   0.1818182  -0.1818182), wk =   0.0030053
        k(   28) = (   0.0000000   0.1818182  -0.0909091), wk =   0.0030053
        k(   29) = (   0.0000000   0.2727273  -0.0000000), wk =   0.0030053
        k(   30) = (   0.0000000   0.2727273   0.0909091), wk =   0.0030053
        k(   31) = (   0.0000000   0.2727273   0.1818182), wk =   0.0030053
        k(   32) = (   0.0000000   0.2727273   0.2727273), wk =   0.0030053
        k(   33) = (   0.0000000   0.2727273   0.3636364), wk =   0.0030053
        k(   34) = (   0.0000000   0.2727273   0.4545455), wk =   0.0030053
        k(   35) = (   0.0000000   0.2727273  -0.4545455), wk =   0.0030053
        k(   36) = (   0.0000000   0.2727273  -0.3636364), wk =   0.0030053
        k(   37) = (   0.0000000   0.2727273  -0.2727273), wk =   0.0030053
        k(   38) = (   0.0000000   0.2727273  -0.1818182), wk =   0.0030053
        k(   39) = (   0.0000000   0.2727273  -0.0909091), wk =   0.0030053
        k(   40) = (   0.0000000   0.3636364  -0.0000000), wk =   0.0030053
        k(   41) = (   0.0000000   0.3636364   0.0909091), wk =   0.0030053
        k(   42) = (   0.0000000   0.3636364   0.1818182), wk =   0.0030053
        k(   43) = (   0.0000000   0.3636364   0.2727273), wk =   0.0030053
        k(   44) = (   0.0000000   0.3636364   0.3636364), wk =   0.0030053
        k(   45) = (   0.0000000   0.3636364   0.4545455), wk =   0.0030053
        k(   46) = (   0.0000000   0.3636364  -0.4545455), wk =   0.0030053
        k(   47) = (   0.0000000   0.3636364  -0.3636364), wk =   0.0030053
        k(   48) = (   0.0000000   0.3636364  -0.2727273), wk =   0.0030053
        k(   49) = (   0.0000000   0.3636364  -0.1818182), wk =   0.0030053
        k(   50) = (   0.0000000   0.3636364  -0.0909091), wk =   0.0030053
        k(   51) = (   0.0000000   0.4545455  -0.0000000), wk =   0.0030053
        k(   52) = (   0.0000000   0.4545455   0.0909091), wk =   0.0030053
        k(   53) = (   0.0000000   0.4545455   0.1818182), wk =   0.0030053
        k(   54) = (   0.0000000   0.4545455   0.2727273), wk =   0.0030053
        k(   55) = (   0.0000000   0.4545455   0.3636364), wk =   0.0030053
        k(   56) = (   0.0000000   0.4545455   0.4545455), wk =   0.0030053
        k(   57) = (   0.0000000   0.4545455  -0.4545455), wk =   0.0030053
        k(   58) = (   0.0000000   0.4545455  -0.3636364), wk =   0.0030053
        k(   59) = (   0.0000000   0.4545455  -0.2727273), wk =   0.0030053
        k(   60) = (   0.0000000   0.4545455  -0.1818182), wk =   0.0030053
        k(   61) = (   0.0000000   0.4545455  -0.0909091), wk =   0.0030053
        k(   62) = (   0.0909091  -0.0000000   0.0000000), wk =   0.0030053
        k(   63) = (   0.0909091  -0.0000000   0.0909091), wk =   0.0030053
        k(   64) = (   0.0909091  -0.0000000   0.1818182), wk =   0.0030053
        k(   65) = (   0.0909091  -0.0000000   0.2727273), wk =   0.0030053
        k(   66) = (   0.0909091  -0.0000000   0.3636364), wk =   0.0030053
        k(   67) = (   0.0909091  -0.0000000   0.4545455), wk =   0.0030053
        k(   68) = (   0.0909091  -0.0000000  -0.4545455), wk =   0.0030053
        k(   69) = (   0.0909091  -0.0000000  -0.3636364), wk =   0.0030053
        k(   70) = (   0.0909091  -0.0000000  -0.2727273), wk =   0.0030053
        k(   71) = (   0.0909091  -0.0000000  -0.1818182), wk =   0.0030053
        k(   72) = (   0.0909091  -0.0000000  -0.0909091), wk =   0.0030053
        k(   73) = (   0.0909091   0.0909091  -0.0000000), wk =   0.0030053
        k(   74) = (   0.0909091   0.0909091   0.0909091), wk =   0.0030053
        k(   75) = (   0.0909091   0.0909091   0.1818182), wk =   0.0030053
        k(   76) = (   0.0909091   0.0909091   0.2727273), wk =   0.0030053
        k(   77) = (   0.0909091   0.0909091   0.3636364), wk =   0.0030053
        k(   78) = (   0.0909091   0.0909091   0.4545455), wk =   0.0030053
        k(   79) = (   0.0909091   0.0909091  -0.4545455), wk =   0.0030053
        k(   80) = (   0.0909091   0.0909091  -0.3636364), wk =   0.0030053
        k(   81) = (   0.0909091   0.0909091  -0.2727273), wk =   0.0030053
        k(   82) = (   0.0909091   0.0909091  -0.1818182), wk =   0.0030053
        k(   83) = (   0.0909091   0.0909091  -0.0909091), wk =   0.0030053
        k(   84) = (   0.0909091   0.1818182   0.0000000), wk =   0.0030053
        k(   85) = (   0.0909091   0.1818182   0.0909091), wk =   0.0030053
        k(   86) = (   0.0909091   0.1818182   0.1818182), wk =   0.0030053
        k(   87) = (   0.0909091   0.1818182   0.2727273), wk =   0.0030053
        k(   88) = (   0.0909091   0.1818182   0.3636364), wk =   0.0030053
        k(   89) = (   0.0909091   0.1818182   0.4545455), wk =   0.0030053
        k(   90) = (   0.0909091   0.1818182  -0.4545455), wk =   0.0030053
        k(   91) = (   0.0909091   0.1818182  -0.3636364), wk =   0.0030053
        k(   92) = (   0.0909091   0.1818182  -0.2727273), wk =   0.0030053
        k(   93) = (   0.0909091   0.1818182  -0.1818182), wk =   0.0030053
        k(   94) = (   0.0909091   0.1818182  -0.0909091), wk =   0.0030053
        k(   95) = (   0.0909091   0.2727273  -0.0000000), wk =   0.0030053
        k(   96) = (   0.0909091   0.2727273   0.0909091), wk =   0.0030053
        k(   97) = (   0.0909091   0.2727273   0.1818182), wk =   0.0030053
        k(   98) = (   0.0909091   0.2727273   0.2727273), wk =   0.0030053
        k(   99) = (   0.0909091   0.2727273   0.3636364), wk =   0.0030053
        k(  100) = (   0.0909091   0.2727273   0.4545455), wk =   0.0030053
        k(  101) = (   0.0909091   0.2727273  -0.4545455), wk =   0.0030053
        k(  102) = (   0.0909091   0.2727273  -0.3636364), wk =   0.0030053
        k(  103) = (   0.0909091   0.2727273  -0.2727273), wk =   0.0030053
        k(  104) = (   0.0909091   0.2727273  -0.1818182), wk =   0.0030053
        k(  105) = (   0.0909091   0.2727273  -0.0909091), wk =   0.0030053
        k(  106) = (   0.0909091   0.3636364  -0.0000000), wk =   0.0030053
        k(  107) = (   0.0909091   0.3636364   0.0909091), wk =   0.0030053
        k(  108) = (   0.0909091   0.3636364   0.1818182), wk =   0.0030053
        k(  109) = (   0.0909091   0.3636364   0.2727273), wk =   0.0030053
        k(  110) = (   0.0909091   0.3636364   0.3636364), wk =   0.0030053
        k(  111) = (   0.0909091   0.3636364   0.4545455), wk =   0.0030053
        k(  112) = (   0.0909091   0.3636364  -0.4545455), wk =   0.0030053
        k(  113) = (   0.0909091   0.3636364  -0.3636364), wk =   0.0030053
        k(  114) = (   0.0909091   0.3636364  -0.2727273), wk =   0.0030053
        k(  115) = (   0.0909091   0.3636364  -0.1818182), wk =   0.0030053
        k(  116) = (   0.0909091   0.3636364  -0.0909091), wk =   0.0030053
        k(  117) = (   0.0909091   0.4545455  -0.0000000), wk =   0.0030053
        k(  118) = (   0.0909091   0.4545455   0.0909091), wk =   0.0030053
        k(  119) = (   0.0909091   0.4545455   0.1818182), wk =   0.0030053
        k(  120) = (   0.0909091   0.4545455   0.2727273), wk =   0.0030053
        k(  121) = (   0.0909091   0.4545455   0.3636364), wk =   0.0030053
        k(  122) = (   0.0909091   0.4545455   0.4545455), wk =   0.0030053
        k(  123) = (   0.0909091   0.4545455  -0.4545455), wk =   0.0030053
        k(  124) = (   0.0909091   0.4545455  -0.3636364), wk =   0.0030053
        k(  125) = (   0.0909091   0.4545455  -0.2727273), wk =   0.0030053
        k(  126) = (   0.0909091   0.4545455  -0.1818182), wk =   0.0030053
        k(  127) = (   0.0909091   0.4545455  -0.0909091), wk =   0.0030053
        k(  128) = (   0.0909091  -0.4545455   0.0000000), wk =   0.0030053
        k(  129) = (   0.0909091  -0.4545455   0.0909091), wk =   0.0030053
        k(  130) = (   0.0909091  -0.4545455   0.1818182), wk =   0.0030053
        k(  131) = (   0.0909091  -0.4545455   0.2727273), wk =   0.0030053
        k(  132) = (   0.0909091  -0.4545455   0.3636364), wk =   0.0030053
        k(  133) = (   0.0909091  -0.4545455   0.4545455), wk =   0.0030053
        k(  134) = (   0.0909091  -0.4545455  -0.4545455), wk =   0.0030053
        k(  135) = (   0.0909091  -0.4545455  -0.3636364), wk =   0.0030053
        k(  136) = (   0.0909091  -0.4545455  -0.2727273), wk =   0.0030053
        k(  137) = (   0.0909091  -0.4545455  -0.1818182), wk =   0.0030053
        k(  138) = (   0.0909091  -0.4545455  -0.0909091), wk =   0.0030053
        k(  139) = (   0.0909091  -0.3636364   0.0000000), wk =   0.0030053
        k(  140) = (   0.0909091  -0.3636364   0.0909091), wk =   0.0030053
        k(  141) = (   0.0909091  -0.3636364   0.1818182), wk =   0.0030053
        k(  142) = (   0.0909091  -0.3636364   0.2727273), wk =   0.0030053
        k(  143) = (   0.0909091  -0.3636364   0.3636364), wk =   0.0030053
        k(  144) = (   0.0909091  -0.3636364   0.4545455), wk =   0.0030053
        k(  145) = (   0.0909091  -0.3636364  -0.4545455), wk =   0.0030053
        k(  146) = (   0.0909091  -0.3636364  -0.3636364), wk =   0.0030053
        k(  147) = (   0.0909091  -0.3636364  -0.2727273), wk =   0.0030053
        k(  148) = (   0.0909091  -0.3636364  -0.1818182), wk =   0.0030053
        k(  149) = (   0.0909091  -0.3636364  -0.0909091), wk =   0.0030053
        k(  150) = (   0.0909091  -0.2727273   0.0000000), wk =   0.0030053
        k(  151) = (   0.0909091  -0.2727273   0.0909091), wk =   0.0030053
        k(  152) = (   0.0909091  -0.2727273   0.1818182), wk =   0.0030053
        k(  153) = (   0.0909091  -0.2727273   0.2727273), wk =   0.0030053
        k(  154) = (   0.0909091  -0.2727273   0.3636364), wk =   0.0030053
        k(  155) = (   0.0909091  -0.2727273   0.4545455), wk =   0.0030053
        k(  156) = (   0.0909091  -0.2727273  -0.4545455), wk =   0.0030053
        k(  157) = (   0.0909091  -0.2727273  -0.3636364), wk =   0.0030053
        k(  158) = (   0.0909091  -0.2727273  -0.2727273), wk =   0.0030053
        k(  159) = (   0.0909091  -0.2727273  -0.1818182), wk =   0.0030053
        k(  160) = (   0.0909091  -0.2727273  -0.0909091), wk =   0.0030053
        k(  161) = (   0.0909091  -0.1818182   0.0000000), wk =   0.0030053
        k(  162) = (   0.0909091  -0.1818182   0.0909091), wk =   0.0030053
        k(  163) = (   0.0909091  -0.1818182   0.1818182), wk =   0.0030053
        k(  164) = (   0.0909091  -0.1818182   0.2727273), wk =   0.0030053
        k(  165) = (   0.0909091  -0.1818182   0.3636364), wk =   0.0030053
        k(  166) = (   0.0909091  -0.1818182   0.4545455), wk =   0.0030053
        k(  167) = (   0.0909091  -0.1818182  -0.4545455), wk =   0.0030053
        k(  168) = (   0.0909091  -0.1818182  -0.3636364), wk =   0.0030053
        k(  169) = (   0.0909091  -0.1818182  -0.2727273), wk =   0.0030053
        k(  170) = (   0.0909091  -0.1818182  -0.1818182), wk =   0.0030053
        k(  171) = (   0.0909091  -0.1818182  -0.0909091), wk =   0.0030053
        k(  172) = (   0.0909091  -0.0909091   0.0000000), wk =   0.0030053
        k(  173) = (   0.0909091  -0.0909091   0.0909091), wk =   0.0030053
        k(  174) = (   0.0909091  -0.0909091   0.1818182), wk =   0.0030053
        k(  175) = (   0.0909091  -0.0909091   0.2727273), wk =   0.0030053
        k(  176) = (   0.0909091  -0.0909091   0.3636364), wk =   0.0030053
        k(  177) = (   0.0909091  -0.0909091   0.4545455), wk =   0.0030053
        k(  178) = (   0.0909091  -0.0909091  -0.4545455), wk =   0.0030053
        k(  179) = (   0.0909091  -0.0909091  -0.3636364), wk =   0.0030053
        k(  180) = (   0.0909091  -0.0909091  -0.2727273), wk =   0.0030053
        k(  181) = (   0.0909091  -0.0909091  -0.1818182), wk =   0.0030053
        k(  182) = (   0.0909091  -0.0909091  -0.0909091), wk =   0.0030053
        k(  183) = (   0.1818182  -0.0000000   0.0000000), wk =   0.0030053
        k(  184) = (   0.1818182  -0.0000000   0.0909091), wk =   0.0030053
        k(  185) = (   0.1818182  -0.0000000   0.1818182), wk =   0.0030053
        k(  186) = (   0.1818182  -0.0000000   0.2727273), wk =   0.0030053
        k(  187) = (   0.1818182  -0.0000000   0.3636364), wk =   0.0030053
        k(  188) = (   0.1818182  -0.0000000   0.4545455), wk =   0.0030053
        k(  189) = (   0.1818182  -0.0000000  -0.4545455), wk =   0.0030053
        k(  190) = (   0.1818182  -0.0000000  -0.3636364), wk =   0.0030053
        k(  191) = (   0.1818182  -0.0000000  -0.2727273), wk =   0.0030053
        k(  192) = (   0.1818182  -0.0000000  -0.1818182), wk =   0.0030053
        k(  193) = (   0.1818182  -0.0000000  -0.0909091), wk =   0.0030053
        k(  194) = (   0.1818182   0.0909091  -0.0000000), wk =   0.0030053
        k(  195) = (   0.1818182   0.0909091   0.0909091), wk =   0.0030053
        k(  196) = (   0.1818182   0.0909091   0.1818182), wk =   0.0030053
        k(  197) = (   0.1818182   0.0909091   0.2727273), wk =   0.0030053
        k(  198) = (   0.1818182   0.0909091   0.3636364), wk =   0.0030053
        k(  199) = (   0.1818182   0.0909091   0.4545455), wk =   0.0030053
        k(  200) = (   0.1818182   0.0909091  -0.4545455), wk =   0.0030053
        k(  201) = (   0.1818182   0.0909091  -0.3636364), wk =   0.0030053
        k(  202) = (   0.1818182   0.0909091  -0.2727273), wk =   0.0030053
        k(  203) = (   0.1818182   0.0909091  -0.1818182), wk =   0.0030053
        k(  204) = (   0.1818182   0.0909091  -0.0909091), wk =   0.0030053
        k(  205) = (   0.1818182   0.1818182  -0.0000000), wk =   0.0030053
        k(  206) = (   0.1818182   0.1818182   0.0909091), wk =   0.0030053
        k(  207) = (   0.1818182   0.1818182   0.1818182), wk =   0.0030053
        k(  208) = (   0.1818182   0.1818182   0.2727273), wk =   0.0030053
        k(  209) = (   0.1818182   0.1818182   0.3636364), wk =   0.0030053
        k(  210) = (   0.1818182   0.1818182   0.4545455), wk =   0.0030053
        k(  211) = (   0.1818182   0.1818182  -0.4545455), wk =   0.0030053
        k(  212) = (   0.1818182   0.1818182  -0.3636364), wk =   0.0030053
        k(  213) = (   0.1818182   0.1818182  -0.2727273), wk =   0.0030053
        k(  214) = (   0.1818182   0.1818182  -0.1818182), wk =   0.0030053
        k(  215) = (   0.1818182   0.1818182  -0.0909091), wk =   0.0030053
        k(  216) = (   0.1818182   0.2727273   0.0000000), wk =   0.0030053
        k(  217) = (   0.1818182   0.2727273   0.0909091), wk =   0.0030053
        k(  218) = (   0.1818182   0.2727273   0.1818182), wk =   0.0030053
        k(  219) = (   0.1818182   0.2727273   0.2727273), wk =   0.0030053
        k(  220) = (   0.1818182   0.2727273   0.3636364), wk =   0.0030053
        k(  221) = (   0.1818182   0.2727273   0.4545455), wk =   0.0030053
        k(  222) = (   0.1818182   0.2727273  -0.4545455), wk =   0.0030053
        k(  223) = (   0.1818182   0.2727273  -0.3636364), wk =   0.0030053
        k(  224) = (   0.1818182   0.2727273  -0.2727273), wk =   0.0030053
        k(  225) = (   0.1818182   0.2727273  -0.1818182), wk =   0.0030053
        k(  226) = (   0.1818182   0.2727273  -0.0909091), wk =   0.0030053
        k(  227) = (   0.1818182   0.3636364   0.0000000), wk =   0.0030053
        k(  228) = (   0.1818182   0.3636364   0.0909091), wk =   0.0030053
        k(  229) = (   0.1818182   0.3636364   0.1818182), wk =   0.0030053
        k(  230) = (   0.1818182   0.3636364   0.2727273), wk =   0.0030053
        k(  231) = (   0.1818182   0.3636364   0.3636364), wk =   0.0030053
        k(  232) = (   0.1818182   0.3636364   0.4545455), wk =   0.0030053
        k(  233) = (   0.1818182   0.3636364  -0.4545455), wk =   0.0030053
        k(  234) = (   0.1818182   0.3636364  -0.3636364), wk =   0.0030053
        k(  235) = (   0.1818182   0.3636364  -0.2727273), wk =   0.0030053
        k(  236) = (   0.1818182   0.3636364  -0.1818182), wk =   0.0030053
        k(  237) = (   0.1818182   0.3636364  -0.0909091), wk =   0.0030053
        k(  238) = (   0.1818182   0.4545455  -0.0000000), wk =   0.0030053
        k(  239) = (   0.1818182   0.4545455   0.0909091), wk =   0.0030053
        k(  240) = (   0.1818182   0.4545455   0.1818182), wk =   0.0030053
        k(  241) = (   0.1818182   0.4545455   0.2727273), wk =   0.0030053
        k(  242) = (   0.1818182   0.4545455   0.3636364), wk =   0.0030053
        k(  243) = (   0.1818182   0.4545455   0.4545455), wk =   0.0030053
        k(  244) = (   0.1818182   0.4545455  -0.4545455), wk =   0.0030053
        k(  245) = (   0.1818182   0.4545455  -0.3636364), wk =   0.0030053
        k(  246) = (   0.1818182   0.4545455  -0.2727273), wk =   0.0030053
        k(  247) = (   0.1818182   0.4545455  -0.1818182), wk =   0.0030053
        k(  248) = (   0.1818182   0.4545455  -0.0909091), wk =   0.0030053
        k(  249) = (   0.1818182  -0.4545455   0.0000000), wk =   0.0030053
        k(  250) = (   0.1818182  -0.4545455   0.0909091), wk =   0.0030053
        k(  251) = (   0.1818182  -0.4545455   0.1818182), wk =   0.0030053
        k(  252) = (   0.1818182  -0.4545455   0.2727273), wk =   0.0030053
        k(  253) = (   0.1818182  -0.4545455   0.3636364), wk =   0.0030053
        k(  254) = (   0.1818182  -0.4545455   0.4545455), wk =   0.0030053
        k(  255) = (   0.1818182  -0.4545455  -0.4545455), wk =   0.0030053
        k(  256) = (   0.1818182  -0.4545455  -0.3636364), wk =   0.0030053
        k(  257) = (   0.1818182  -0.4545455  -0.2727273), wk =   0.0030053
        k(  258) = (   0.1818182  -0.4545455  -0.1818182), wk =   0.0030053
        k(  259) = (   0.1818182  -0.4545455  -0.0909091), wk =   0.0030053
        k(  260) = (   0.1818182  -0.3636364   0.0000000), wk =   0.0030053
        k(  261) = (   0.1818182  -0.3636364   0.0909091), wk =   0.0030053
        k(  262) = (   0.1818182  -0.3636364   0.1818182), wk =   0.0030053
        k(  263) = (   0.1818182  -0.3636364   0.2727273), wk =   0.0030053
        k(  264) = (   0.1818182  -0.3636364   0.3636364), wk =   0.0030053
        k(  265) = (   0.1818182  -0.3636364   0.4545455), wk =   0.0030053
        k(  266) = (   0.1818182  -0.3636364  -0.4545455), wk =   0.0030053
        k(  267) = (   0.1818182  -0.3636364  -0.3636364), wk =   0.0030053
        k(  268) = (   0.1818182  -0.3636364  -0.2727273), wk =   0.0030053
        k(  269) = (   0.1818182  -0.3636364  -0.1818182), wk =   0.0030053
        k(  270) = (   0.1818182  -0.3636364  -0.0909091), wk =   0.0030053
        k(  271) = (   0.1818182  -0.2727273   0.0000000), wk =   0.0030053
        k(  272) = (   0.1818182  -0.2727273   0.0909091), wk =   0.0030053
        k(  273) = (   0.1818182  -0.2727273   0.1818182), wk =   0.0030053
        k(  274) = (   0.1818182  -0.2727273   0.2727273), wk =   0.0030053
        k(  275) = (   0.1818182  -0.2727273   0.3636364), wk =   0.0030053
        k(  276) = (   0.1818182  -0.2727273   0.4545455), wk =   0.0030053
        k(  277) = (   0.1818182  -0.2727273  -0.4545455), wk =   0.0030053
        k(  278) = (   0.1818182  -0.2727273  -0.3636364), wk =   0.0030053
        k(  279) = (   0.1818182  -0.2727273  -0.2727273), wk =   0.0030053
        k(  280) = (   0.1818182  -0.2727273  -0.1818182), wk =   0.0030053
        k(  281) = (   0.1818182  -0.2727273  -0.0909091), wk =   0.0030053
        k(  282) = (   0.1818182  -0.1818182   0.0000000), wk =   0.0030053
        k(  283) = (   0.1818182  -0.1818182   0.0909091), wk =   0.0030053
        k(  284) = (   0.1818182  -0.1818182   0.1818182), wk =   0.0030053
        k(  285) = (   0.1818182  -0.1818182   0.2727273), wk =   0.0030053
        k(  286) = (   0.1818182  -0.1818182   0.3636364), wk =   0.0030053
        k(  287) = (   0.1818182  -0.1818182   0.4545455), wk =   0.0030053
        k(  288) = (   0.1818182  -0.1818182  -0.4545455), wk =   0.0030053
        k(  289) = (   0.1818182  -0.1818182  -0.3636364), wk =   0.0030053
        k(  290) = (   0.1818182  -0.1818182  -0.2727273), wk =   0.0030053
        k(  291) = (   0.1818182  -0.1818182  -0.1818182), wk =   0.0030053
        k(  292) = (   0.1818182  -0.1818182  -0.0909091), wk =   0.0030053
        k(  293) = (   0.1818182  -0.0909091   0.0000000), wk =   0.0030053
        k(  294) = (   0.1818182  -0.0909091   0.0909091), wk =   0.0030053
        k(  295) = (   0.1818182  -0.0909091   0.1818182), wk =   0.0030053
        k(  296) = (   0.1818182  -0.0909091   0.2727273), wk =   0.0030053
        k(  297) = (   0.1818182  -0.0909091   0.3636364), wk =   0.0030053
        k(  298) = (   0.1818182  -0.0909091   0.4545455), wk =   0.0030053
        k(  299) = (   0.1818182  -0.0909091  -0.4545455), wk =   0.0030053
        k(  300) = (   0.1818182  -0.0909091  -0.3636364), wk =   0.0030053
        k(  301) = (   0.1818182  -0.0909091  -0.2727273), wk =   0.0030053
        k(  302) = (   0.1818182  -0.0909091  -0.1818182), wk =   0.0030053
        k(  303) = (   0.1818182  -0.0909091  -0.0909091), wk =   0.0030053
        k(  304) = (   0.2727273  -0.0000000   0.0000000), wk =   0.0030053
        k(  305) = (   0.2727273  -0.0000000   0.0909091), wk =   0.0030053
        k(  306) = (   0.2727273  -0.0000000   0.1818182), wk =   0.0030053
        k(  307) = (   0.2727273  -0.0000000   0.2727273), wk =   0.0030053
        k(  308) = (   0.2727273  -0.0000000   0.3636364), wk =   0.0030053
        k(  309) = (   0.2727273  -0.0000000   0.4545455), wk =   0.0030053
        k(  310) = (   0.2727273  -0.0000000  -0.4545455), wk =   0.0030053
        k(  311) = (   0.2727273  -0.0000000  -0.3636364), wk =   0.0030053
        k(  312) = (   0.2727273  -0.0000000  -0.2727273), wk =   0.0030053
        k(  313) = (   0.2727273  -0.0000000  -0.1818182), wk =   0.0030053
        k(  314) = (   0.2727273  -0.0000000  -0.0909091), wk =   0.0030053
        k(  315) = (   0.2727273   0.0909091  -0.0000000), wk =   0.0030053
        k(  316) = (   0.2727273   0.0909091   0.0909091), wk =   0.0030053
        k(  317) = (   0.2727273   0.0909091   0.1818182), wk =   0.0030053
        k(  318) = (   0.2727273   0.0909091   0.2727273), wk =   0.0030053
        k(  319) = (   0.2727273   0.0909091   0.3636364), wk =   0.0030053
        k(  320) = (   0.2727273   0.0909091   0.4545455), wk =   0.0030053
[...]

     occupation numbers 
     1.0000   1.0000   1.0000   1.0000   0.0000   0.0000   0.0000   0.0000

          k = 0.4545-0.2624-0.1856 (   931 PWs)   bands (ev):

    -5.1489   0.6236   5.3777   9.3308  18.4952  18.9664  25.2803  29.5457

     occupation numbers 
     1.0000   1.0000   1.0000   1.0010   0.0000   0.0000   0.0000   0.0000

          k = 0.4545-0.2624-0.0779 (   933 PWs)   bands (ev):

    -5.3240   1.0918   5.2462   9.2516  17.0382  20.3241  24.9886  30.1832

     occupation numbers 
     1.0000   1.0000   1.0000   1.0003   0.0000   0.0000   0.0000   0.0000

          k = 0.4545-0.2624 0.0297 (   938 PWs)   bands (ev):

    -5.3674   1.7410   5.0630   8.8207  15.4345  21.7708  23.7761  31.3240

     occupation numbers 
     1.0000   1.0000   1.0000   1.0000   0.0000   0.0000   0.0000   0.0000

          k = 0.4545-0.2624 0.1373 (   939 PWs)   bands (ev):

    -5.2427   2.0451   5.4052   8.0929  14.2034  21.4198  23.3653  32.6620

     occupation numbers 
     1.0000   1.0000   1.0000   1.0000   0.0000   0.0000   0.0000   0.0000

          k = 0.4545-0.2624 0.2449 (   946 PWs)   bands (ev):

    -4.9824   1.8728   6.2547   7.3490  13.3651  19.2980  24.5572  33.6200

     occupation numbers 
     1.0000   1.0000   1.0000   1.0000   0.0000   0.0000   0.0000   0.0000

          k = 0.4545-0.1610 0.3167 (   946 PWs)   bands (ev):

    -5.0220   1.7608   6.5823   7.4139  13.3392  18.6047  25.1554  32.4408

     occupation numbers 
     1.0000   1.0000   1.0000   1.0000   0.0000   0.0000   0.0000   0.0000

          k = 0.4545-0.1610 0.4243 (   945 PWs)   bands (ev):

    -4.6675   1.8030   6.2321   6.6242  13.6010  18.7228  25.3677  32.9078

     occupation numbers 
     1.0000   1.0000   1.0000   1.0000   0.0000   0.0000   0.0000   0.0000

          k = 0.4545-0.1610 0.5320 (   944 PWs)   bands (ev):

    -4.4831   2.2105   5.0130   6.3709  14.2774  19.9565  24.9373  32.5665

     occupation numbers 
     1.0000   1.0000   1.0000   1.0000   0.0000   0.0000   0.0000   0.0000

          k = 0.4545-0.1610 0.6396 (   945 PWs)   bands (ev):

    -4.5040   2.4974   3.9810   6.7449  15.2054  21.2240  24.1898  30.8293

     occupation numbers 
     1.0000   1.0000   1.0000   1.0000   0.0000   0.0000   0.0000   0.0000

          k = 0.4545-0.1610 0.7472 (   940 PWs)   bands (ev):

    -4.6927   1.8007   4.3300   7.5083  16.3036  21.4857  23.6577  29.6095

     occupation numbers 
     1.0000   1.0000   1.0000   1.0000   0.0000   0.0000   0.0000   0.0000

          k = 0.4545-0.1610 0.8548 (   933 PWs)   bands (ev):

    -5.0040   1.2325   4.9741   8.2968  17.4868  20.9504  23.3467  29.1827

     occupation numbers 
     1.0000   1.0000   1.0000   1.0000   0.0000   0.0000   0.0000   0.0000

          k = 0.4545-0.1610-0.2214 (   933 PWs)   bands (ev):

    -5.3630   1.1858   5.4076   8.7468  18.5204  19.9430  23.8496  29.3587

     occupation numbers 
     1.0000   1.0000   1.0000   1.0000   0.0000   0.0000   0.0000   0.0000

          k = 0.4545-0.1610-0.1138 (   934 PWs)   bands (ev):

    -5.6545   1.5753   5.4522   8.9085  17.5513  20.4336  24.9082  29.9727

     occupation numbers 
     1.0000   1.0000   1.0000   1.0000   0.0000   0.0000   0.0000   0.0000

          k = 0.4545-0.1610-0.0062 (   931 PWs)   bands (ev):

    -5.7791   2.1095   5.2987   8.9117  15.7656  21.7356  24.6055  30.8706

     occupation numbers 
     1.0000   1.0000   1.0000   1.0000   0.0000   0.0000   0.0000   0.0000

          k = 0.4545-0.1610 0.1014 (   937 PWs)   bands (ev):

    -5.6922   2.2871   5.5585   8.6272  14.3631  22.3520  23.2328  31.5017

     occupation numbers 
     1.0000   1.0000   1.0000   1.0000   0.0000   0.0000   0.0000   0.0000

          k = 0.4545-0.1610 0.2091 (   939 PWs)   bands (ev):

    -5.4115   2.0229   6.2709   8.0303  13.5824  20.0521  24.3273  32.0011

     occupation numbers 
     1.0000   1.0000   1.0000   1.0000   0.0000   0.0000   0.0000   0.0000

          k = 0.4545-0.0595 0.2808 (   945 PWs)   bands (ev):

    -5.3841   1.6907   6.6788   7.7549  14.3562  19.3815  25.1720  30.2628

     occupation numbers 
     1.0000   1.0000   1.0000   1.0000   0.0000   0.0000   0.0000   0.0000

          k = 0.4545-0.0595 0.3885 (   943 PWs)   bands (ev):

    -4.9556   1.7216   6.1743   7.0582  14.6467  18.8099  25.5873  31.0585

     occupation numbers 
     1.0000   1.0000   1.0000   1.0000   0.0000   0.0000   0.0000   0.0000

          k = 0.4545-0.0595 0.4961 (   943 PWs)   bands (ev):

    -4.6555   2.2429   5.3967   6.0398  15.3195  19.2109  25.6311  31.5956

     occupation numbers 
     1.0000   1.0000   1.0000   1.0000   0.0000   0.0000   0.0000   0.0000

          k = 0.4545-0.0595 0.6037 (   938 PWs)   bands (ev):

    -4.5787   3.1407   4.0441   5.8574  16.2030  19.7084  25.3448  29.8203

     occupation numbers 
     1.0000   1.0000   1.0000   1.0000   0.0000   0.0000   0.0000   0.0000

          k = 0.4545-0.0595 0.7113 (   941 PWs)   bands (ev):

    -4.7334   2.8194   4.1618   6.3174  17.1717  19.8111  24.6863  28.2702

     occupation numbers 
     1.0000   1.0000   1.0000   1.0000   0.0000   0.0000   0.0000   0.0000

          k = 0.4545-0.0595 0.8190 (   940 PWs)   bands (ev):

    -5.0739   2.1738   4.8896   7.1255  17.9469  20.0311  23.7056  27.4386

     occupation numbers 
     1.0000   1.0000   1.0000   1.0000   0.0000   0.0000   0.0000   0.0000

          k = 0.4545-0.0595-0.2573 (   938 PWs)   bands (ev):

    -5.4965   2.0567   5.4204   7.6706  18.3777  21.0742  22.4336  27.5421

     occupation numbers 
     1.0000   1.0000   1.0000   1.0000   0.0000   0.0000   0.0000   0.0000

          k = 0.4545-0.0595-0.1497 (   931 PWs)   bands (ev):

    -5.8624   2.3212   5.6320   7.8804  18.3032  21.3680  22.8871  28.5346

     occupation numbers 
     1.0000   1.0000   1.0000   1.0000   0.0000   0.0000   0.0000   0.0000

          k = 0.4545-0.0595-0.0421 (   937 PWs)   bands (ev):

    -6.0597   2.6212   5.5878   8.1135  16.9928  22.0744  23.9721  29.7160

     occupation numbers 
     1.0000   1.0000   1.0000   1.0000   0.0000   0.0000   0.0000   0.0000

          k = 0.4545-0.0595 0.0656 (   930 PWs)   bands (ev):

    -6.0331   2.4907   5.9137   8.2524  15.5367  23.2027  23.3639  29.3241

     occupation numbers 
     1.0000   1.0000   1.0000   1.0000   0.0000   0.0000   0.0000   0.0000

          k = 0.4545-0.0595 0.1732 (   941 PWs)   bands (ev):

    -5.7863   2.0356   6.5498   8.0819  14.6162  21.1894  24.3456  29.6229

     occupation numbers 
     1.0000   1.0000   1.0000   1.0000   0.0000   0.0000   0.0000   0.0000

          k = 0.4545 0.0420 0.2449 (   942 PWs)   bands (ev):

    -5.6469   1.3476   6.8523   8.2475  15.4876  20.3130  25.1204  28.8134

     occupation numbers 
     1.0000   1.0000   1.0000   1.0000   0.0000   0.0000   0.0000   0.0000

          k = 0.4545 0.0420 0.3526 (   941 PWs)   bands (ev):

    -5.2315   1.3429   6.1833   7.9731  15.6848  18.9573  25.6465  29.9123

     occupation numbers 
     1.0000   1.0000   1.0000   1.0000   0.0000   0.0000   0.0000   0.0000

          k = 0.4545 0.0420 0.4602 (   941 PWs)   bands (ev):

    -4.8935   1.8773   5.2767   7.1657  16.1468  18.4216  26.1496  31.1346

     occupation numbers 
     1.0000   1.0000   1.0000   1.0000   0.0000   0.0000   0.0000   0.0000

          k = 0.4545 0.0420 0.5678 (   935 PWs)   bands (ev):

    -4.7383   2.9043   4.2799   6.3959  16.5432  18.4120  26.2595  29.7224

     occupation numbers 
     1.0000   1.0000   1.0000   1.0000   0.0000   0.0000   0.0000   0.0000

          k = 0.4545 0.0420 0.6755 (   939 PWs)   bands (ev):

    -4.8080   3.3047   4.2871   6.0514  16.8934  18.4097  25.5776  28.3921

     occupation numbers 
     1.0000   1.0000   1.0000   1.0000   0.0000   0.0000   0.0000   0.0000

          k = 0.4545 0.0420 0.7831 (   938 PWs)   bands (ev):

    -5.0909   2.8076   5.3331   6.2349  17.3319  18.2608  25.1970  27.1248

     occupation numbers 
     1.0000   1.0000   1.0000   1.0000   0.0000   0.0000   0.0000   0.0000

          k = 0.4545 0.0420-0.2932 (   939 PWs)   bands (ev):

    -5.4994   2.7292   5.8720   6.6423  17.7822  18.6648  25.0401  26.1869

     occupation numbers 
     1.0000   1.0000   1.0000   1.0000   0.0000   0.0000   0.0000   0.0000

          k = 0.4545 0.0420-0.1856 (   937 PWs)   bands (ev):

    -5.8911   2.9066   6.0849   6.8513  18.2275  19.7725  23.8566  27.1946

     occupation numbers 
     1.0000   1.0000   1.0000   1.0000   0.0000   0.0000   0.0000   0.0000

          k = 0.4545 0.0420-0.0779 (   930 PWs)   bands (ev):

    -6.1410   2.9114   6.0599   7.2886  17.9877  21.0291  23.6280  28.9387

     occupation numbers 
     1.0000   1.0000   1.0000   1.0000   0.0000   0.0000   0.0000   0.0000

          k = 0.4545 0.0420 0.0297 (   927 PWs)   bands (ev):

    -6.1804   2.4274   6.4660   7.7230  16.8958  22.1860  24.0764  29.0489

     occupation numbers 
     1.0000   1.0000   1.0000   1.0000   0.0000   0.0000   0.0000   0.0000

          k = 0.4545 0.0420 0.1373 (   927 PWs)   bands (ev):

    -5.9994   1.7806   6.9704   8.0253  15.8961  22.0017  24.5059  28.2289

     occupation numbers 
     1.0000   1.0000   1.0000   1.0000   0.0000   0.0000   0.0000   0.0000

          k = 0.4545 0.1435 0.2091 (   931 PWs)   bands (ev):

    -5.7522   0.9327   6.8496   8.9228  16.2685  20.8422  25.3319  28.7357

     occupation numbers 
     1.0000   1.0000   1.0000   1.0000   0.0000   0.0000   0.0000   0.0000

          k = 0.4545 0.1435 0.3167 (   942 PWs)   bands (ev):

    -5.4187   0.9053   6.2808   8.8872  16.3286  19.2487  25.7705  29.6525

     occupation numbers 
     1.0000   1.0000   1.0000   1.0000   0.0000   0.0000   0.0000   0.0000

          k = 0.4545 0.1435 0.4243 (   940 PWs)   bands (ev):

    -5.1200   1.4263   5.3391   8.4458  16.3453  18.1998  26.3542  31.1059

     occupation numbers 
     1.0000   1.0000   1.0000   1.0000   0.0000   0.0000   0.0000   0.0000

          k = 0.4545 0.1435 0.5320 (   941 PWs)   bands (ev):

    -4.9333   2.4321   4.3208   7.8528  15.6429  18.3607  26.3992  30.5104

     occupation numbers 
     1.0000   1.0000   1.0000   1.0000   0.0000   0.0000   0.0000   0.0000

          k = 0.4545 0.1435 0.6396 (   939 PWs)   bands (ev):

    -4.9048   3.2025   4.0229   7.3564  15.0666  18.5246  25.3575  29.9230

     occupation numbers 
     1.0000   1.0000   1.0000   1.0000   0.0000   0.0000   0.0000   0.0000

          k = 0.4545 0.1435 0.7472 (   947 PWs)   bands (ev):

    -5.0662   2.8566   5.1786   7.0719  14.9403  18.2686  24.6864  29.4429

     occupation numbers 
     1.0000   1.0000   1.0000   1.0000   0.0000   0.0000   0.0000   0.0000

          k = 0.4545 0.1435-0.3291 (   946 PWs)   bands (ev):

    -5.3855   2.8475   5.8708   7.0372  15.3461  18.1995  24.7290  28.4966

     occupation numbers 
     1.0000   1.0000   1.0000   1.0000   0.0000   0.0000   0.0000   0.0000

          k = 0.4545 0.1435-0.2214 (   939 PWs)   bands (ev):

    -5.7459   3.0519   5.8106   7.2841  16.2684  18.7446  24.8654  27.8787

     occupation numbers 
     1.0000   1.0000   1.0000   1.0000   0.0000   0.0000   0.0000   0.0000

          k = 0.4545 0.1435-0.1138 (   941 PWs)   bands (ev):

    -6.0164   2.9086   5.7969   7.6746  17.4218  19.2568  24.8448  28.6575

     occupation numbers 
     1.0000   1.0000   1.0000   1.0000   0.0000   0.0000   0.0000   0.0000

          k = 0.4545 0.1435-0.0062 (   927 PWs)   bands (ev):

    -6.1132   2.2008   6.3144   8.1207  17.5865  20.0830  25.0531  29.9978

     occupation numbers 
     1.0000   1.0000   1.0000   1.0000   0.0000   0.0000   0.0000   0.0000

          k = 0.4545 0.1435 0.1014 (   930 PWs)   bands (ev):

    -6.0131   1.4252   6.8344   8.5781  16.7859  21.2226  25.2145  28.9781

     occupation numbers 
     1.0000   1.0000   1.0000   1.0000   0.0000   0.0000   0.0000   0.0000

     the Fermi energy is    10.2552 ev

!    total energy              =     -26.37435630 Ry
     estimated scf accuracy    <          6.3E-12 Ry
     smearing contrib. (-TS)   =       0.00050309 Ry
     internal energy E=F+TS    =     -26.37485939 Ry

     The total energy is F=E-TS. E is the sum of the following terms:
     one-electron contribution =       2.16090073 Ry
     hartree contribution      =       4.98232760 Ry
     xc contribution           =      -9.88622097 Ry
     ewald contribution        =     -23.63186674 Ry

     convergence has been achieved in  11 iterations

     Forces acting on atoms (cartesian axes, Ry/au):

     atom    1 type  1   force =    -0.82152063   -2.47617691    1.57770499
     atom    2 type  2   force =     0.82152063    2.47617691   -1.57770499
     The non-local contrib.  to forces
     atom    1 type  1   force =    -0.58725810   -1.81527839    1.13806548
     atom    2 type  2   force =     0.05061490    0.48465023   -0.25631213
     The ionic contribution  to forces
     atom    1 type  1   force =    -2.18326923   -5.76621236    3.78761738
     atom    2 type  2   force =     2.18326923    5.76621236   -3.78761738
     The local contribution  to forces
     atom    1 type  1   force =     1.91224494    4.99789435   -3.27995831
     atom    2 type  2   force =    -1.38819929   -3.69704931    2.41775394
     The core correction contribution to forces
     atom    1 type  1   force =     0.03676418    0.10742139   -0.06801748
     atom    2 type  2   force =    -0.02416044   -0.07762986    0.04847003
     The Hubbard contrib.    to forces
     atom    1 type  1   force =     0.00000000    0.00000000    0.00000000
     atom    2 type  2   force =     0.00000000    0.00000000    0.00000000
     The SCF correction term to forces
     atom    1 type  1   force =     0.00000020    0.00000063   -0.00000039
     atom    2 type  2   force =    -0.00000114   -0.00000397    0.00000224

     Total force =     4.311728     Total SCF correction =     0.000005


     Computing stress (Cartesian axis) and pressure

          total   stress  (Ry/bohr**3)                   (kbar)     P=     3482.68
   0.01078279   0.01198662  -0.01123704         1586.20     1763.29    -1653.03
   0.01198662   0.04275703  -0.02451916         1763.29     6289.78    -3606.89
  -0.01123704  -0.02451916   0.01748443        -1653.03    -3606.89     2572.05

     kinetic stress (kbar)  27359.16   -656.04   -338.23
                             -656.04  25925.31    730.76
                             -338.23    730.76  26064.29

     local   stress (kbar)   3242.54  -4327.21   1784.83
                            -4327.21  -9508.89   8253.75
                             1784.83   8253.75  -1703.92

     nonloc. stress (kbar)  -3298.87      2.44     83.55
                                2.44  -3211.58    -13.79
                               83.55    -13.79  -3158.23

     hartree stress (kbar)   2533.15    352.13   -104.56
                              352.13   3910.71   -784.88
                             -104.56   -784.88   2982.58

     exc-cor stress (kbar)  -1502.46     29.31    -10.52
                               29.31  -1420.89    -53.64
                              -10.52    -53.64  -1467.15

     corecor stress (kbar)  -3819.47    -38.06     32.51
                              -38.06  -3919.72     78.81
                               32.51     78.81  -3847.64

     ewald   stress (kbar) -22927.84   6400.72  -3100.61
                             6400.72  -5485.16 -11817.92
                            -3100.61 -11817.92 -16297.88

     hubbard stress (kbar)      0.00      0.00      0.00
                                0.00      0.00      0.00
                                0.00      0.00      0.00

     DFT-D   stress (kbar)      0.00      0.00      0.00
                                0.00      0.00      0.00
                                0.00      0.00      0.00

     XDM     stress (kbar)      0.00      0.00      0.00
                                0.00      0.00      0.00
                                0.00      0.00      0.00

     dft-nl  stress (kbar)      0.00      0.00      0.00
                                0.00      0.00      0.00
                                0.00      0.00      0.00

     TS-vdW  stress (kbar)      0.00      0.00      0.00
                                0.00      0.00      0.00
                                0.00      0.00      0.00



     init_run     :      0.45s CPU      1.25s WALL (       1 calls)
     electrons    :     14.27s CPU     15.57s WALL (       1 calls)
     forces       :      0.09s CPU      0.09s WALL (       1 calls)
     stress       :      0.25s CPU      0.25s WALL (       1 calls)

     Called by init_run:
     wfcinit      :      0.38s CPU      0.82s WALL (       1 calls)
     wfcinit:atom :      0.01s CPU      0.01s WALL (     666 calls)
     wfcinit:wfcr :      0.35s CPU      0.78s WALL (     666 calls)
     potinit      :      0.02s CPU      0.05s WALL (       1 calls)
     hinit0       :      0.04s CPU      0.29s WALL (       1 calls)

     Called by electrons:
     c_bands      :     12.29s CPU     13.34s WALL (      11 calls)
     sum_band     :      1.94s CPU      2.13s WALL (      11 calls)
     v_of_rho     :      0.01s CPU      0.02s WALL (      12 calls)
     v_h          :      0.00s CPU      0.00s WALL (      12 calls)
     v_xc         :      0.02s CPU      0.02s WALL (      14 calls)
     newd         :      0.01s CPU      0.05s WALL (      12 calls)
     mix_rho      :      0.00s CPU      0.05s WALL (      11 calls)

     Called by c_bands:
     init_us_2    :      0.26s CPU      0.28s WALL (   16650 calls)
     cegterg      :     11.92s CPU     12.94s WALL (    7326 calls)

     Called by sum_band:
     sum_band:wei :      0.02s CPU      0.02s WALL (      11 calls)
     sum_band:loo :      1.91s CPU      2.09s WALL (      11 calls)
     sum_band:buf :      0.02s CPU      0.02s WALL (    7326 calls)
     sum_band:ini :      0.11s CPU      0.12s WALL (    7326 calls)
     sum_band:cal :      0.10s CPU      0.11s WALL (    7326 calls)
     sum_band:bec :      0.01s CPU      0.04s WALL (    7326 calls)
     addusdens    :      0.01s CPU      0.01s WALL (      11 calls)
     addusd:skk   :      0.00s CPU      0.00s WALL (      11 calls)
     addusd:dgemm :      0.00s CPU      0.01s WALL (      11 calls)
     addusd:qvan2 :      0.00s CPU      0.01s WALL (      11 calls)

     Called by *egterg:
     cdiaghg      :      1.58s CPU      2.07s WALL (   26895 calls)
     cegterg:over :      0.46s CPU      0.51s WALL (   19569 calls)
     cegterg:upda :      0.08s CPU      0.09s WALL (   19569 calls)
     cegterg:last :      0.11s CPU      0.12s WALL (   14955 calls)
     h_psi        :      9.44s CPU     10.28s WALL (   27561 calls)
     s_psi        :      0.10s CPU      0.10s WALL (   27561 calls)
     g_psi        :      0.03s CPU      0.03s WALL (   19569 calls)

     Called by h_psi:
     h_psi:calbec :      0.36s CPU      0.44s WALL (   27561 calls)
     vloc_psi     :      8.87s CPU      9.61s WALL (   27561 calls)
     add_vuspsi   :      0.12s CPU      0.14s WALL (   27561 calls)

     General routines
     calbec       :      0.46s CPU      0.55s WALL (   38217 calls)
     fft          :      0.01s CPU      0.22s WALL (     179 calls)
     ffts         :      0.00s CPU      0.03s WALL (      23 calls)
     fftw         :      9.87s CPU     10.69s WALL (  372932 calls)
     interpolate  :      0.00s CPU      0.03s WALL (      12 calls)

     Parallel routines
     fft_scatt_xy :      0.82s CPU      0.88s WALL (  373134 calls)
     fft_scatt_yz :      3.26s CPU      3.53s WALL (  373134 calls)

     PWSCF        :     15.12s CPU     17.90s WALL


   This run was terminated on:  21:16: 1  28Sep2022            

=------------------------------------------------------------------------------=
   JOB DONE.
=------------------------------------------------------------------------------=
Note: The following floating-point exceptions are signalling: IEEE_UNDERFLOW_FLAG IEEE_DENORMAL
