
     Program PWSCF v.6.7MaX starts on 28Sep2022 at 21:17:43 

     This program is part of the open-source Quantum ESPRESSO suite
     for quantum simulation of materials; please cite
         "P. Giannozzi et al., J. Phys.:Condens. Matter 21 395502 (2009);
         "P. Giannozzi et al., J. Phys.:Condens. Matter 29 465901 (2017);
          URL http://www.quantum-espresso.org", 
     in publications or presentations arising from this work. More details at
     http://www.quantum-espresso.org/quote

     Parallel version (MPI), running on    16 processors

     MPI processes distributed on     1 nodes
     R & G space division:  proc/nbgrp/npool/nimage =      16
     Reading input from scale_3d-00.in

     Current dimensions of program PWSCF are:
     Max number of different atomic species (ntypx) = 10
     Max number of k-points (npk) =  40000
     Max angular momentum in pseudopotentials (lmaxx) =  3
     Message from routine read_pp_mesh:
     mesh size missing, using the one in header

     Subspace diagonalization in iterative solution of the eigenvalue problem:
     a serial algorithm will be used


     Parallelization info
     --------------------
     sticks:   dense  smooth     PW     G-vecs:    dense   smooth      PW
     Min          40      28      9                  676      413      76
     Max          41      29     10                  679      415      79
     Sum         649     463    151                10849     6615    1243



     bravais-lattice index     =            0
     lattice parameter (alat)  =       4.6030  a.u.
     unit-cell volume          =      68.9615 (a.u.)^3
     number of atoms/cell      =            2
     number of atomic types    =            2
     number of electrons       =         8.00
     number of Kohn-Sham states=            8
     kinetic-energy cutoff     =      80.0000  Ry
     charge density cutoff     =     440.0000  Ry
     scf convergence threshold =      2.0E-10
     mixing beta               =       0.4000
     number of iterations used =            8  plain     mixing
     Exchange-correlation= PBE
                           (   1   4   3   4   0   0   0)

     celldm(1)=   4.602995  celldm(2)=   0.000000  celldm(3)=   0.000000
     celldm(4)=   0.000000  celldm(5)=   0.000000  celldm(6)=   0.000000

     crystal axes: (cart. coord. in units of alat)
               a(1) = (   1.000000   0.000000   0.000000 )  
               a(2) = (  -0.500000   0.866025   0.000000 )  
               a(3) = (  -0.500000   0.288675   0.816497 )  

     reciprocal axes: (cart. coord. in units 2 pi/alat)
               b(1) = (  1.000000  0.577350  0.408248 )  
               b(2) = (  0.000000  1.154701 -0.408248 )  
               b(3) = (  0.000000 -0.000000  1.224745 )  


     PseudoPot. # 1 for B  read from file:
     /opt/QEpot/SSSP_precision_pseudos/B_pbe_v1.01.uspp.F.UPF
     MD5 check sum: d081ebb89d0c768e112975f650467a00
     Pseudo is Ultrasoft + core correction, Zval =  3.0
     Generated by new atomic code, or converted to UPF format
     Using radial grid of  781 points,  4 beta functions with: 
                l(1) =   0
                l(2) =   0
                l(3) =   1
                l(4) =   1
     Q(r) pseudized with  8 coefficients,  rinner =    1.100   1.100   1.100


     PseudoPot. # 2 for N  read from file:
     /opt/QEpot/SSSP_precision_pseudos/N.oncvpsp.upf
     MD5 check sum: 563d65bfb082928f0c9eb97172f6c357
     Pseudo is Norm-conserving + core correction, Zval =  5.0
     Generated using ONCVPSP code by D. R. Hamann
     Using radial grid of 1058 points,  4 beta functions with: 
                l(1) =   0
                l(2) =   0
                l(3) =   1
                l(4) =   1

     atomic species   valence    mass     pseudopotential
        B              3.00    10.81000     B ( 1.00)
        N              5.00    14.00700     N ( 1.00)

     No symmetry found


                                    s                        frac. trans.

      isym =  1     identity                                     

 cryst.   s( 1) = (     1          0          0      )
                  (     0          1          0      )
                  (     0          0          1      )

 cart.    s( 1) = (  1.0000000  0.0000000  0.0000000 )
                  (  0.0000000  1.0000000  0.0000000 )
                  (  0.0000000  0.0000000  1.0000000 )


   Cartesian axes

     site n.     atom                  positions (alat units)
         1           B   tau(   1) = (   0.0014353   0.4077053   0.0022048  )
         2           N   tau(   2) = (   0.0908926   0.2858377   0.2063289  )

   Crystallographic axes

     site n.     atom                  positions (cryst. coord.)
         1           B   tau(   1) = (  0.2377241  0.4698774  0.0027003  )
         2           N   tau(   2) = (  0.3401544  0.2458235  0.2527003  )

     number of k points=   666  Marzari-Vanderbilt smearing, width (Ry)=  0.0220
                       cart. coord. in units 2pi/alat
        k(    1) = (   0.0000000   0.0000000   0.0000000), wk =   0.0015026
        k(    2) = (   0.0000000   0.0000000   0.1113404), wk =   0.0030053
        k(    3) = (   0.0000000   0.0000000   0.2226809), wk =   0.0030053
        k(    4) = (   0.0000000   0.0000000   0.3340213), wk =   0.0030053
        k(    5) = (   0.0000000   0.0000000   0.4453618), wk =   0.0030053
        k(    6) = (   0.0000000   0.0000000   0.5567022), wk =   0.0030053
        k(    7) = (   0.0000000   0.1049728  -0.0371135), wk =   0.0030053
        k(    8) = (   0.0000000   0.1049728   0.0742270), wk =   0.0030053
        k(    9) = (   0.0000000   0.1049728   0.1855674), wk =   0.0030053
        k(   10) = (   0.0000000   0.1049728   0.2969078), wk =   0.0030053
        k(   11) = (   0.0000000   0.1049728   0.4082483), wk =   0.0030053
        k(   12) = (   0.0000000   0.1049728   0.5195887), wk =   0.0030053
        k(   13) = (   0.0000000   0.1049728  -0.5938157), wk =   0.0030053
        k(   14) = (   0.0000000   0.1049728  -0.4824753), wk =   0.0030053
        k(   15) = (   0.0000000   0.1049728  -0.3711348), wk =   0.0030053
        k(   16) = (   0.0000000   0.1049728  -0.2597944), wk =   0.0030053
        k(   17) = (   0.0000000   0.1049728  -0.1484539), wk =   0.0030053
        k(   18) = (   0.0000000   0.2099456  -0.0742270), wk =   0.0030053
        k(   19) = (   0.0000000   0.2099456   0.0371135), wk =   0.0030053
        k(   20) = (   0.0000000   0.2099456   0.1484539), wk =   0.0030053
        k(   21) = (   0.0000000   0.2099456   0.2597944), wk =   0.0030053
        k(   22) = (   0.0000000   0.2099456   0.3711348), wk =   0.0030053
        k(   23) = (   0.0000000   0.2099456   0.4824753), wk =   0.0030053
        k(   24) = (   0.0000000   0.2099456  -0.6309292), wk =   0.0030053
        k(   25) = (   0.0000000   0.2099456  -0.5195887), wk =   0.0030053
        k(   26) = (   0.0000000   0.2099456  -0.4082483), wk =   0.0030053
        k(   27) = (   0.0000000   0.2099456  -0.2969078), wk =   0.0030053
        k(   28) = (   0.0000000   0.2099456  -0.1855674), wk =   0.0030053
        k(   29) = (   0.0000000   0.3149183  -0.1113404), wk =   0.0030053
        k(   30) = (   0.0000000   0.3149183   0.0000000), wk =   0.0030053
        k(   31) = (   0.0000000   0.3149183   0.1113404), wk =   0.0030053
        k(   32) = (   0.0000000   0.3149183   0.2226809), wk =   0.0030053
        k(   33) = (   0.0000000   0.3149183   0.3340213), wk =   0.0030053
        k(   34) = (   0.0000000   0.3149183   0.4453618), wk =   0.0030053
        k(   35) = (   0.0000000   0.3149183  -0.6680427), wk =   0.0030053
        k(   36) = (   0.0000000   0.3149183  -0.5567022), wk =   0.0030053
        k(   37) = (   0.0000000   0.3149183  -0.4453618), wk =   0.0030053
        k(   38) = (   0.0000000   0.3149183  -0.3340213), wk =   0.0030053
        k(   39) = (   0.0000000   0.3149183  -0.2226809), wk =   0.0030053
        k(   40) = (   0.0000000   0.4198911  -0.1484539), wk =   0.0030053
        k(   41) = (   0.0000000   0.4198911  -0.0371135), wk =   0.0030053
        k(   42) = (   0.0000000   0.4198911   0.0742270), wk =   0.0030053
        k(   43) = (   0.0000000   0.4198911   0.1855674), wk =   0.0030053
        k(   44) = (   0.0000000   0.4198911   0.2969078), wk =   0.0030053
        k(   45) = (   0.0000000   0.4198911   0.4082483), wk =   0.0030053
        k(   46) = (   0.0000000   0.4198911  -0.7051561), wk =   0.0030053
        k(   47) = (   0.0000000   0.4198911  -0.5938157), wk =   0.0030053
        k(   48) = (   0.0000000   0.4198911  -0.4824753), wk =   0.0030053
        k(   49) = (   0.0000000   0.4198911  -0.3711348), wk =   0.0030053
        k(   50) = (   0.0000000   0.4198911  -0.2597944), wk =   0.0030053
        k(   51) = (   0.0000000   0.5248639  -0.1855674), wk =   0.0030053
        k(   52) = (   0.0000000   0.5248639  -0.0742270), wk =   0.0030053
        k(   53) = (   0.0000000   0.5248639   0.0371135), wk =   0.0030053
        k(   54) = (   0.0000000   0.5248639   0.1484539), wk =   0.0030053
        k(   55) = (   0.0000000   0.5248639   0.2597944), wk =   0.0030053
        k(   56) = (   0.0000000   0.5248639   0.3711348), wk =   0.0030053
        k(   57) = (   0.0000000   0.5248639  -0.7422696), wk =   0.0030053
        k(   58) = (   0.0000000   0.5248639  -0.6309292), wk =   0.0030053
        k(   59) = (   0.0000000   0.5248639  -0.5195887), wk =   0.0030053
        k(   60) = (   0.0000000   0.5248639  -0.4082483), wk =   0.0030053
        k(   61) = (   0.0000000   0.5248639  -0.2969078), wk =   0.0030053
        k(   62) = (   0.0909091   0.1574592   0.0000000), wk =   0.0030053
        k(   63) = (   0.0909091   0.1574592   0.1113404), wk =   0.0030053
        k(   64) = (   0.0909091   0.1574592   0.2226809), wk =   0.0030053
        k(   65) = (   0.0909091   0.1574592   0.3340213), wk =   0.0030053
        k(   66) = (   0.0909091   0.1574592   0.4453618), wk =   0.0030053
        k(   67) = (   0.0909091   0.1574592   0.5567022), wk =   0.0030053
        k(   68) = (   0.0909091   0.2624319  -0.0371135), wk =   0.0030053
        k(   69) = (   0.0909091   0.2624319   0.0742270), wk =   0.0030053
        k(   70) = (   0.0909091   0.2624319   0.1855674), wk =   0.0030053
        k(   71) = (   0.0909091   0.2624319   0.2969078), wk =   0.0030053
        k(   72) = (   0.0909091   0.2624319   0.4082483), wk =   0.0030053
        k(   73) = (   0.0909091   0.2624319   0.5195887), wk =   0.0030053
        k(   74) = (   0.0909091   0.2624319  -0.5938157), wk =   0.0030053
        k(   75) = (   0.0909091   0.2624319  -0.4824753), wk =   0.0030053
        k(   76) = (   0.0909091   0.2624319  -0.3711348), wk =   0.0030053
        k(   77) = (   0.0909091   0.2624319  -0.2597944), wk =   0.0030053
        k(   78) = (   0.0909091   0.2624319  -0.1484539), wk =   0.0030053
        k(   79) = (   0.0909091   0.3674047  -0.0742270), wk =   0.0030053
        k(   80) = (   0.0909091   0.3674047   0.0371135), wk =   0.0030053
        k(   81) = (   0.0909091   0.3674047   0.1484539), wk =   0.0030053
        k(   82) = (   0.0909091   0.3674047   0.2597944), wk =   0.0030053
        k(   83) = (   0.0909091   0.3674047   0.3711348), wk =   0.0030053
        k(   84) = (   0.0909091   0.3674047   0.4824753), wk =   0.0030053
        k(   85) = (   0.0909091   0.3674047  -0.6309292), wk =   0.0030053
        k(   86) = (   0.0909091   0.3674047  -0.5195887), wk =   0.0030053
        k(   87) = (   0.0909091   0.3674047  -0.4082483), wk =   0.0030053
        k(   88) = (   0.0909091   0.3674047  -0.2969078), wk =   0.0030053
        k(   89) = (   0.0909091   0.3674047  -0.1855674), wk =   0.0030053
        k(   90) = (   0.0909091   0.4723775  -0.1113404), wk =   0.0030053
        k(   91) = (   0.0909091   0.4723775   0.0000000), wk =   0.0030053
        k(   92) = (   0.0909091   0.4723775   0.1113404), wk =   0.0030053
        k(   93) = (   0.0909091   0.4723775   0.2226809), wk =   0.0030053
        k(   94) = (   0.0909091   0.4723775   0.3340213), wk =   0.0030053
        k(   95) = (   0.0909091   0.4723775   0.4453618), wk =   0.0030053
        k(   96) = (   0.0909091   0.4723775  -0.6680427), wk =   0.0030053
        k(   97) = (   0.0909091   0.4723775  -0.5567022), wk =   0.0030053
        k(   98) = (   0.0909091   0.4723775  -0.4453618), wk =   0.0030053
        k(   99) = (   0.0909091   0.4723775  -0.3340213), wk =   0.0030053
        k(  100) = (   0.0909091   0.4723775  -0.2226809), wk =   0.0030053
        k(  101) = (   0.0909091   0.5773503  -0.1484539), wk =   0.0030053
        k(  102) = (   0.0909091   0.5773503  -0.0371135), wk =   0.0030053
        k(  103) = (   0.0909091   0.5773503   0.0742270), wk =   0.0030053
        k(  104) = (   0.0909091   0.5773503   0.1855674), wk =   0.0030053
        k(  105) = (   0.0909091   0.5773503   0.2969078), wk =   0.0030053
        k(  106) = (   0.0909091   0.5773503   0.4082483), wk =   0.0030053
        k(  107) = (   0.1818182   0.3149183   0.0000000), wk =   0.0030053
        k(  108) = (   0.1818182   0.3149183   0.1113404), wk =   0.0030053
        k(  109) = (   0.1818182   0.3149183   0.2226809), wk =   0.0030053
        k(  110) = (   0.1818182   0.3149183   0.3340213), wk =   0.0030053
        k(  111) = (   0.1818182   0.3149183   0.4453618), wk =   0.0030053
        k(  112) = (   0.1818182   0.3149183   0.5567022), wk =   0.0030053
        k(  113) = (   0.1818182   0.4198911  -0.0371135), wk =   0.0030053
        k(  114) = (   0.1818182   0.4198911   0.0742270), wk =   0.0030053
        k(  115) = (   0.1818182   0.4198911   0.1855674), wk =   0.0030053
        k(  116) = (   0.1818182   0.4198911   0.2969078), wk =   0.0030053
        k(  117) = (   0.1818182   0.4198911   0.4082483), wk =   0.0030053
        k(  118) = (   0.1818182   0.4198911   0.5195887), wk =   0.0030053
        k(  119) = (   0.1818182   0.4198911  -0.5938157), wk =   0.0030053
        k(  120) = (   0.1818182   0.4198911  -0.4824753), wk =   0.0030053
        k(  121) = (   0.1818182   0.4198911  -0.3711348), wk =   0.0030053
        k(  122) = (   0.1818182   0.4198911  -0.2597944), wk =   0.0030053
        k(  123) = (   0.1818182   0.4198911  -0.1484539), wk =   0.0030053
        k(  124) = (   0.1818182   0.5248639  -0.0742270), wk =   0.0030053
        k(  125) = (   0.1818182   0.5248639   0.0371135), wk =   0.0030053
        k(  126) = (   0.1818182   0.5248639   0.1484539), wk =   0.0030053
        k(  127) = (   0.1818182   0.5248639   0.2597944), wk =   0.0030053
        k(  128) = (   0.1818182   0.5248639   0.3711348), wk =   0.0030053
        k(  129) = (   0.1818182   0.5248639   0.4824753), wk =   0.0030053
        k(  130) = (   0.1818182   0.5248639  -0.6309292), wk =   0.0030053
        k(  131) = (   0.1818182   0.5248639  -0.5195887), wk =   0.0030053
        k(  132) = (   0.1818182   0.5248639  -0.4082483), wk =   0.0030053
        k(  133) = (   0.1818182   0.5248639  -0.2969078), wk =   0.0030053
        k(  134) = (   0.1818182   0.5248639  -0.1855674), wk =   0.0030053
        k(  135) = (   0.2727273   0.4723775   0.0000000), wk =   0.0030053
        k(  136) = (   0.2727273   0.4723775   0.1113404), wk =   0.0030053
        k(  137) = (   0.2727273   0.4723775   0.2226809), wk =   0.0030053
        k(  138) = (   0.2727273   0.4723775   0.3340213), wk =   0.0030053
        k(  139) = (   0.2727273   0.4723775   0.4453618), wk =   0.0030053
        k(  140) = (   0.2727273   0.4723775   0.5567022), wk =   0.0030053
        k(  141) = (   0.2727273   0.5773503  -0.0371135), wk =   0.0030053
        k(  142) = (   0.2727273   0.5773503   0.0742270), wk =   0.0030053
        k(  143) = (   0.2727273   0.5773503   0.1855674), wk =   0.0030053
        k(  144) = (   0.2727273   0.5773503   0.2969078), wk =   0.0030053
        k(  145) = (   0.2727273   0.5773503   0.4082483), wk =   0.0030053
        k(  146) = (   0.2727273   0.5773503  -0.2597944), wk =   0.0030053
        k(  147) = (  -0.0909091  -0.0524864  -0.0371135), wk =   0.0030053
        k(  148) = (   0.0909091  -0.0524864  -0.0371135), wk =   0.0030053
        k(  149) = (  -0.0909091  -0.0524864   0.0742270), wk =   0.0030053
        k(  150) = (   0.0909091  -0.0524864   0.0742270), wk =   0.0030053
        k(  151) = (  -0.0909091  -0.0524864   0.1855674), wk =   0.0030053
        k(  152) = (   0.0909091  -0.0524864   0.1855674), wk =   0.0030053
        k(  153) = (  -0.0909091  -0.0524864   0.2969078), wk =   0.0030053
        k(  154) = (   0.0909091  -0.0524864   0.2969078), wk =   0.0030053
        k(  155) = (  -0.0909091  -0.0524864   0.4082483), wk =   0.0030053
        k(  156) = (   0.0909091  -0.0524864   0.4082483), wk =   0.0030053
        k(  157) = (  -0.0909091  -0.0524864   0.5195887), wk =   0.0030053
        k(  158) = (   0.0909091  -0.0524864   0.5195887), wk =   0.0030053
        k(  159) = (  -0.0909091  -0.0524864  -0.5938157), wk =   0.0030053
        k(  160) = (   0.0909091  -0.0524864  -0.5938157), wk =   0.0030053
        k(  161) = (  -0.0909091  -0.0524864  -0.4824753), wk =   0.0030053
        k(  162) = (   0.0909091  -0.0524864  -0.4824753), wk =   0.0030053
        k(  163) = (  -0.0909091  -0.0524864  -0.3711348), wk =   0.0030053
        k(  164) = (   0.0909091  -0.0524864  -0.3711348), wk =   0.0030053
        k(  165) = (  -0.0909091  -0.0524864  -0.2597944), wk =   0.0030053
        k(  166) = (   0.0909091  -0.0524864  -0.2597944), wk =   0.0030053
        k(  167) = (  -0.0909091  -0.0524864  -0.1484539), wk =   0.0030053
        k(  168) = (   0.0909091  -0.0524864  -0.1484539), wk =   0.0030053
        k(  169) = (  -0.1818182  -0.1049728  -0.0742270), wk =   0.0030053
        k(  170) = (   0.1818182  -0.1049728  -0.0742270), wk =   0.0030053
        k(  171) = (  -0.1818182  -0.1049728   0.0371135), wk =   0.0030053
        k(  172) = (   0.1818182  -0.1049728   0.0371135), wk =   0.0030053
        k(  173) = (  -0.1818182  -0.1049728   0.1484539), wk =   0.0030053
        k(  174) = (   0.1818182  -0.1049728   0.1484539), wk =   0.0030053
        k(  175) = (  -0.1818182  -0.1049728   0.2597944), wk =   0.0030053
        k(  176) = (   0.1818182  -0.1049728   0.2597944), wk =   0.0030053
        k(  177) = (  -0.1818182  -0.1049728   0.3711348), wk =   0.0030053
        k(  178) = (   0.1818182  -0.1049728   0.3711348), wk =   0.0030053
        k(  179) = (  -0.1818182  -0.1049728   0.4824753), wk =   0.0030053
        k(  180) = (   0.1818182  -0.1049728   0.4824753), wk =   0.0030053
        k(  181) = (  -0.1818182  -0.1049728  -0.6309292), wk =   0.0030053
        k(  182) = (   0.1818182  -0.1049728  -0.6309292), wk =   0.0030053
        k(  183) = (  -0.1818182  -0.1049728  -0.5195887), wk =   0.0030053
        k(  184) = (   0.1818182  -0.1049728  -0.5195887), wk =   0.0030053
        k(  185) = (  -0.1818182  -0.1049728  -0.4082483), wk =   0.0030053
        k(  186) = (   0.1818182  -0.1049728  -0.4082483), wk =   0.0030053
        k(  187) = (  -0.1818182  -0.1049728  -0.2969078), wk =   0.0030053
        k(  188) = (   0.1818182  -0.1049728  -0.2969078), wk =   0.0030053
        k(  189) = (  -0.1818182  -0.1049728  -0.1855674), wk =   0.0030053
        k(  190) = (   0.1818182  -0.1049728  -0.1855674), wk =   0.0030053
        k(  191) = (  -0.2727273  -0.1574592  -0.1113404), wk =   0.0030053
        k(  192) = (   0.2727273  -0.1574592  -0.1113404), wk =   0.0030053
        k(  193) = (  -0.2727273  -0.1574592   0.0000000), wk =   0.0030053
        k(  194) = (   0.2727273  -0.1574592   0.0000000), wk =   0.0030053
        k(  195) = (  -0.2727273  -0.1574592   0.1113404), wk =   0.0030053
        k(  196) = (   0.2727273  -0.1574592   0.1113404), wk =   0.0030053
        k(  197) = (  -0.2727273  -0.1574592   0.2226809), wk =   0.0030053
        k(  198) = (   0.2727273  -0.1574592   0.2226809), wk =   0.0030053
        k(  199) = (  -0.2727273  -0.1574592   0.3340213), wk =   0.0030053
        k(  200) = (   0.2727273  -0.1574592   0.3340213), wk =   0.0030053
        k(  201) = (  -0.2727273  -0.1574592   0.4453618), wk =   0.0030053
        k(  202) = (   0.2727273  -0.1574592   0.4453618), wk =   0.0030053
        k(  203) = (  -0.2727273  -0.1574592  -0.6680427), wk =   0.0030053
        k(  204) = (   0.2727273  -0.1574592  -0.6680427), wk =   0.0030053
        k(  205) = (  -0.2727273  -0.1574592  -0.5567022), wk =   0.0030053
        k(  206) = (   0.2727273  -0.1574592  -0.5567022), wk =   0.0030053
        k(  207) = (  -0.2727273  -0.1574592  -0.4453618), wk =   0.0030053
        k(  208) = (   0.2727273  -0.1574592  -0.4453618), wk =   0.0030053
        k(  209) = (  -0.2727273  -0.1574592  -0.3340213), wk =   0.0030053
        k(  210) = (   0.2727273  -0.1574592  -0.3340213), wk =   0.0030053
        k(  211) = (  -0.2727273  -0.1574592  -0.2226809), wk =   0.0030053
        k(  212) = (   0.2727273  -0.1574592  -0.2226809), wk =   0.0030053
        k(  213) = (  -0.3636364  -0.2099456  -0.1484539), wk =   0.0030053
        k(  214) = (   0.3636364  -0.2099456  -0.1484539), wk =   0.0030053
        k(  215) = (  -0.3636364  -0.2099456  -0.0371135), wk =   0.0030053
        k(  216) = (   0.3636364  -0.2099456  -0.0371135), wk =   0.0030053
        k(  217) = (  -0.3636364  -0.2099456   0.0742270), wk =   0.0030053
        k(  218) = (   0.3636364  -0.2099456   0.0742270), wk =   0.0030053
        k(  219) = (  -0.3636364  -0.2099456   0.1855674), wk =   0.0030053
        k(  220) = (   0.3636364  -0.2099456   0.1855674), wk =   0.0030053
        k(  221) = (  -0.3636364  -0.2099456   0.2969078), wk =   0.0030053
        k(  222) = (   0.3636364  -0.2099456   0.2969078), wk =   0.0030053
        k(  223) = (  -0.3636364  -0.2099456   0.4082483), wk =   0.0030053
        k(  224) = (   0.3636364  -0.2099456   0.4082483), wk =   0.0030053
        k(  225) = (  -0.3636364  -0.2099456  -0.7051561), wk =   0.0030053
        k(  226) = (   0.3636364  -0.2099456  -0.7051561), wk =   0.0030053
        k(  227) = (  -0.3636364  -0.2099456  -0.5938157), wk =   0.0030053
        k(  228) = (   0.3636364  -0.2099456  -0.5938157), wk =   0.0030053
        k(  229) = (  -0.3636364  -0.2099456  -0.4824753), wk =   0.0030053
        k(  230) = (   0.3636364  -0.2099456  -0.4824753), wk =   0.0030053
        k(  231) = (  -0.3636364  -0.2099456  -0.3711348), wk =   0.0030053
        k(  232) = (   0.3636364  -0.2099456  -0.3711348), wk =   0.0030053
        k(  233) = (  -0.3636364  -0.2099456  -0.2597944), wk =   0.0030053
        k(  234) = (   0.3636364  -0.2099456  -0.2597944), wk =   0.0030053
        k(  235) = (  -0.4545455  -0.2624319  -0.1855674), wk =   0.0030053
        k(  236) = (   0.4545455  -0.2624319  -0.1855674), wk =   0.0030053
        k(  237) = (  -0.4545455  -0.2624319  -0.0742270), wk =   0.0030053
        k(  238) = (   0.4545455  -0.2624319  -0.0742270), wk =   0.0030053
        k(  239) = (  -0.4545455  -0.2624319   0.0371135), wk =   0.0030053
        k(  240) = (   0.4545455  -0.2624319   0.0371135), wk =   0.0030053
        k(  241) = (  -0.4545455  -0.2624319   0.1484539), wk =   0.0030053
        k(  242) = (   0.4545455  -0.2624319   0.1484539), wk =   0.0030053
        k(  243) = (  -0.4545455  -0.2624319   0.2597944), wk =   0.0030053
        k(  244) = (   0.4545455  -0.2624319   0.2597944), wk =   0.0030053
        k(  245) = (  -0.4545455  -0.2624319   0.3711348), wk =   0.0030053
        k(  246) = (   0.4545455  -0.2624319   0.3711348), wk =   0.0030053
        k(  247) = (  -0.4545455  -0.2624319  -0.7422696), wk =   0.0030053
        k(  248) = (   0.4545455  -0.2624319  -0.7422696), wk =   0.0030053
        k(  249) = (  -0.4545455  -0.2624319  -0.6309292), wk =   0.0030053
        k(  250) = (   0.4545455  -0.2624319  -0.6309292), wk =   0.0030053
        k(  251) = (  -0.4545455  -0.2624319  -0.5195887), wk =   0.0030053
        k(  252) = (   0.4545455  -0.2624319  -0.5195887), wk =   0.0030053
        k(  253) = (  -0.4545455  -0.2624319  -0.4082483), wk =   0.0030053
        k(  254) = (   0.4545455  -0.2624319  -0.4082483), wk =   0.0030053
        k(  255) = (  -0.4545455  -0.2624319  -0.2969078), wk =   0.0030053
        k(  256) = (   0.4545455  -0.2624319  -0.2969078), wk =   0.0030053
        k(  257) = (   0.0909091  -0.1574592  -0.0000000), wk =   0.0030053
        k(  258) = (  -0.1818182   0.0000000   0.0000000), wk =   0.0030053
        k(  259) = (   0.0909091  -0.1574592  -0.1113404), wk =   0.0030053
        k(  260) = (  -0.1818182   0.0000000   0.1113404), wk =   0.0030053
        k(  261) = (   0.0909091  -0.1574592   0.1113404), wk =   0.0030053
        k(  262) = (  -0.1818182   0.0000000  -0.1113404), wk =   0.0030053
        k(  263) = (   0.0909091   0.1574592  -0.1113404), wk =   0.0030053
        k(  264) = (   0.0909091  -0.1574592  -0.2226809), wk =   0.0030053
        k(  265) = (  -0.1818182   0.0000000   0.2226809), wk =   0.0030053
        k(  266) = (   0.0909091  -0.1574592   0.2226809), wk =   0.0030053
        k(  267) = (  -0.1818182   0.0000000  -0.2226809), wk =   0.0030053
        k(  268) = (   0.0909091   0.1574592  -0.2226809), wk =   0.0030053
        k(  269) = (   0.0909091  -0.1574592  -0.3340213), wk =   0.0030053
        k(  270) = (  -0.1818182   0.0000000   0.3340213), wk =   0.0030053
        k(  271) = (   0.0909091  -0.1574592   0.3340213), wk =   0.0030053
        k(  272) = (  -0.1818182   0.0000000  -0.3340213), wk =   0.0030053
        k(  273) = (   0.0909091   0.1574592  -0.3340213), wk =   0.0030053
        k(  274) = (   0.0909091  -0.1574592  -0.4453618), wk =   0.0030053
        k(  275) = (  -0.1818182   0.0000000   0.4453618), wk =   0.0030053
        k(  276) = (   0.0909091  -0.1574592   0.4453618), wk =   0.0030053
        k(  277) = (  -0.1818182   0.0000000  -0.4453618), wk =   0.0030053
        k(  278) = (   0.0909091   0.1574592  -0.4453618), wk =   0.0030053
        k(  279) = (   0.0909091  -0.1574592  -0.5567022), wk =   0.0030053
        k(  280) = (  -0.1818182   0.0000000   0.5567022), wk =   0.0030053
        k(  281) = (   0.0909091  -0.1574592   0.5567022), wk =   0.0030053
        k(  282) = (  -0.1818182   0.0000000  -0.5567022), wk =   0.0030053
        k(  283) = (   0.0909091   0.1574592  -0.5567022), wk =   0.0030053
        k(  284) = (   0.0909091  -0.2624319   0.0371135), wk =   0.0030053
        k(  285) = (  -0.2727273  -0.0524864  -0.0371135), wk =   0.0030053
        k(  286) = (   0.1818182  -0.2099456  -0.0371135), wk =   0.0030053
        k(  287) = (  -0.2727273   0.0524864   0.0371135), wk =   0.0030053
        k(  288) = (   0.1818182   0.2099456   0.0371135), wk =   0.0030053
        k(  289) = (   0.0909091  -0.2624319  -0.0742270), wk =   0.0030053
        k(  290) = (  -0.2727273  -0.0524864   0.0742270), wk =   0.0030053
        k(  291) = (   0.1818182  -0.2099456   0.0742270), wk =   0.0030053
        k(  292) = (  -0.2727273   0.0524864  -0.0742270), wk =   0.0030053
        k(  293) = (   0.1818182   0.2099456  -0.0742270), wk =   0.0030053
        k(  294) = (   0.0909091  -0.2624319  -0.1855674), wk =   0.0030053
        k(  295) = (  -0.2727273  -0.0524864   0.1855674), wk =   0.0030053
        k(  296) = (   0.1818182  -0.2099456   0.1855674), wk =   0.0030053
        k(  297) = (  -0.2727273   0.0524864  -0.1855674), wk =   0.0030053
        k(  298) = (   0.1818182   0.2099456  -0.1855674), wk =   0.0030053
        k(  299) = (   0.0909091  -0.2624319  -0.2969078), wk =   0.0030053
        k(  300) = (  -0.2727273  -0.0524864   0.2969078), wk =   0.0030053
        k(  301) = (   0.1818182  -0.2099456   0.2969078), wk =   0.0030053
        k(  302) = (  -0.2727273   0.0524864  -0.2969078), wk =   0.0030053
        k(  303) = (   0.1818182   0.2099456  -0.2969078), wk =   0.0030053
        k(  304) = (   0.0909091  -0.2624319  -0.4082483), wk =   0.0030053
        k(  305) = (  -0.2727273  -0.0524864   0.4082483), wk =   0.0030053
        k(  306) = (   0.1818182  -0.2099456   0.4082483), wk =   0.0030053
        k(  307) = (  -0.2727273   0.0524864  -0.4082483), wk =   0.0030053
        k(  308) = (   0.1818182   0.2099456  -0.4082483), wk =   0.0030053
        k(  309) = (   0.0909091  -0.2624319  -0.5195887), wk =   0.0030053
        k(  310) = (  -0.2727273  -0.0524864   0.5195887), wk =   0.0030053
        k(  311) = (   0.1818182  -0.2099456   0.5195887), wk =   0.0030053
        k(  312) = (  -0.2727273   0.0524864  -0.5195887), wk =   0.0030053
        k(  313) = (   0.1818182   0.2099456  -0.5195887), wk =   0.0030053
        k(  314) = (   0.0909091  -0.2624319   0.5938157), wk =   0.0030053
        k(  315) = (  -0.2727273  -0.0524864  -0.5938157), wk =   0.0030053
        k(  316) = (   0.1818182  -0.2099456  -0.5938157), wk =   0.0030053
        k(  317) = (  -0.2727273   0.0524864   0.5938157), wk =   0.0030053
        k(  318) = (   0.1818182   0.2099456   0.5938157), wk =   0.0030053
        k(  319) = (   0.0909091  -0.2624319   0.4824753), wk =   0.0030053
        k(  320) = (  -0.2727273  -0.0524864  -0.4824753), wk =   0.0030053
        k(  321) = (   0.1818182  -0.2099456  -0.4824753), wk =   0.0030053
        k(  322) = (  -0.2727273   0.0524864   0.4824753), wk =   0.0030053
        k(  323) = (   0.1818182   0.2099456   0.4824753), wk =   0.0030053
        k(  324) = (   0.0909091  -0.2624319   0.3711348), wk =   0.0030053
        k(  325) = (  -0.2727273  -0.0524864  -0.3711348), wk =   0.0030053
        k(  326) = (   0.1818182  -0.2099456  -0.3711348), wk =   0.0030053
        k(  327) = (  -0.2727273   0.0524864   0.3711348), wk =   0.0030053
        k(  328) = (   0.1818182   0.2099456   0.3711348), wk =   0.0030053
        k(  329) = (   0.0909091  -0.2624319   0.2597944), wk =   0.0030053
        k(  330) = (  -0.2727273  -0.0524864  -0.2597944), wk =   0.0030053
        k(  331) = (   0.1818182  -0.2099456  -0.2597944), wk =   0.0030053
        k(  332) = (  -0.2727273   0.0524864   0.2597944), wk =   0.0030053
        k(  333) = (   0.1818182   0.2099456   0.2597944), wk =   0.0030053
        k(  334) = (   0.0909091  -0.2624319   0.1484539), wk =   0.0030053
        k(  335) = (  -0.2727273  -0.0524864  -0.1484539), wk =   0.0030053
        k(  336) = (   0.1818182  -0.2099456  -0.1484539), wk =   0.0030053
        k(  337) = (  -0.2727273   0.0524864   0.1484539), wk =   0.0030053
        k(  338) = (   0.1818182   0.2099456   0.1484539), wk =   0.0030053
        k(  339) = (   0.0909091  -0.3674047   0.0742270), wk =   0.0030053
        k(  340) = (  -0.3636364  -0.1049728  -0.0742270), wk =   0.0030053
        k(  341) = (   0.2727273  -0.2624319  -0.0742270), wk =   0.0030053
        k(  342) = (  -0.3636364   0.1049728   0.0742270), wk =   0.0030053
        k(  343) = (   0.2727273   0.2624319   0.0742270), wk =   0.0030053
        k(  344) = (   0.0909091  -0.3674047  -0.0371135), wk =   0.0030053
        k(  345) = (  -0.3636364  -0.1049728   0.0371135), wk =   0.0030053
        k(  346) = (   0.2727273  -0.2624319   0.0371135), wk =   0.0030053
        k(  347) = (  -0.3636364   0.1049728  -0.0371135), wk =   0.0030053
        k(  348) = (   0.2727273   0.2624319  -0.0371135), wk =   0.0030053
        k(  349) = (   0.0909091  -0.3674047  -0.1484539), wk =   0.0030053
        k(  350) = (  -0.3636364  -0.1049728   0.1484539), wk =   0.0030053
        k(  351) = (   0.2727273  -0.2624319   0.1484539), wk =   0.0030053
        k(  352) = (  -0.3636364   0.1049728  -0.1484539), wk =   0.0030053
        k(  353) = (   0.2727273   0.2624319  -0.1484539), wk =   0.0030053
        k(  354) = (   0.0909091  -0.3674047  -0.2597944), wk =   0.0030053
        k(  355) = (  -0.3636364  -0.1049728   0.2597944), wk =   0.0030053
        k(  356) = (   0.2727273  -0.2624319   0.2597944), wk =   0.0030053
        k(  357) = (  -0.3636364   0.1049728  -0.2597944), wk =   0.0030053
        k(  358) = (   0.2727273   0.2624319  -0.2597944), wk =   0.0030053
        k(  359) = (   0.0909091  -0.3674047  -0.3711348), wk =   0.0030053
        k(  360) = (  -0.3636364  -0.1049728   0.3711348), wk =   0.0030053
        k(  361) = (   0.2727273  -0.2624319   0.3711348), wk =   0.0030053
        k(  362) = (  -0.3636364   0.1049728  -0.3711348), wk =   0.0030053
        k(  363) = (   0.2727273   0.2624319  -0.3711348), wk =   0.0030053
        k(  364) = (   0.0909091  -0.3674047  -0.4824753), wk =   0.0030053
        k(  365) = (  -0.3636364  -0.1049728   0.4824753), wk =   0.0030053
        k(  366) = (   0.2727273  -0.2624319   0.4824753), wk =   0.0030053
        k(  367) = (  -0.3636364   0.1049728  -0.4824753), wk =   0.0030053
        k(  368) = (   0.2727273   0.2624319  -0.4824753), wk =   0.0030053
        k(  369) = (   0.0909091  -0.3674047   0.6309292), wk =   0.0030053
        k(  370) = (  -0.3636364  -0.1049728  -0.6309292), wk =   0.0030053
        k(  371) = (   0.2727273  -0.2624319  -0.6309292), wk =   0.0030053
        k(  372) = (  -0.3636364   0.1049728   0.6309292), wk =   0.0030053
        k(  373) = (   0.2727273   0.2624319   0.6309292), wk =   0.0030053
        k(  374) = (   0.0909091  -0.3674047   0.5195887), wk =   0.0030053
        k(  375) = (  -0.3636364  -0.1049728  -0.5195887), wk =   0.0030053
        k(  376) = (   0.2727273  -0.2624319  -0.5195887), wk =   0.0030053
        k(  377) = (  -0.3636364   0.1049728   0.5195887), wk =   0.0030053
        k(  378) = (   0.2727273   0.2624319   0.5195887), wk =   0.0030053
        k(  379) = (   0.0909091  -0.3674047   0.4082483), wk =   0.0030053
        k(  380) = (  -0.3636364  -0.1049728  -0.4082483), wk =   0.0030053
        k(  381) = (   0.2727273  -0.2624319  -0.4082483), wk =   0.0030053
        k(  382) = (  -0.3636364   0.1049728   0.4082483), wk =   0.0030053
        k(  383) = (   0.2727273   0.2624319   0.4082483), wk =   0.0030053
        k(  384) = (   0.0909091  -0.3674047   0.2969078), wk =   0.0030053
        k(  385) = (  -0.3636364  -0.1049728  -0.2969078), wk =   0.0030053
        k(  386) = (   0.2727273  -0.2624319  -0.2969078), wk =   0.0030053
        k(  387) = (  -0.3636364   0.1049728   0.2969078), wk =   0.0030053
        k(  388) = (   0.2727273   0.2624319   0.2969078), wk =   0.0030053
        k(  389) = (   0.0909091  -0.3674047   0.1855674), wk =   0.0030053
        k(  390) = (  -0.3636364  -0.1049728  -0.1855674), wk =   0.0030053
        k(  391) = (   0.2727273  -0.2624319  -0.1855674), wk =   0.0030053
        k(  392) = (  -0.3636364   0.1049728   0.1855674), wk =   0.0030053
        k(  393) = (   0.2727273   0.2624319   0.1855674), wk =   0.0030053
        k(  394) = (   0.0909091  -0.4723775   0.1113404), wk =   0.0030053
        k(  395) = (  -0.4545455  -0.1574592  -0.1113404), wk =   0.0030053
        k(  396) = (   0.3636364  -0.3149183  -0.1113404), wk =   0.0030053
        k(  397) = (  -0.4545455   0.1574592   0.1113404), wk =   0.0030053
        k(  398) = (   0.3636364   0.3149183   0.1113404), wk =   0.0030053
        k(  399) = (   0.0909091  -0.4723775  -0.0000000), wk =   0.0030053
        k(  400) = (  -0.4545455  -0.1574592   0.0000000), wk =   0.0030053
        k(  401) = (   0.3636364  -0.3149183   0.0000000), wk =   0.0030053
        k(  402) = (  -0.4545455   0.1574592   0.0000000), wk =   0.0030053
        k(  403) = (   0.3636364   0.3149183  -0.0000000), wk =   0.0030053
        k(  404) = (   0.0909091  -0.4723775  -0.1113404), wk =   0.0030053
        k(  405) = (  -0.4545455  -0.1574592   0.1113404), wk =   0.0030053
        k(  406) = (   0.3636364  -0.3149183   0.1113404), wk =   0.0030053
        k(  407) = (  -0.4545455   0.1574592  -0.1113404), wk =   0.0030053
        k(  408) = (   0.3636364   0.3149183  -0.1113404), wk =   0.0030053
        k(  409) = (   0.0909091  -0.4723775  -0.2226809), wk =   0.0030053
        k(  410) = (  -0.4545455  -0.1574592   0.2226809), wk =   0.0030053
        k(  411) = (   0.3636364  -0.3149183   0.2226809), wk =   0.0030053
        k(  412) = (  -0.4545455   0.1574592  -0.2226809), wk =   0.0030053
        k(  413) = (   0.3636364   0.3149183  -0.2226809), wk =   0.0030053
        k(  414) = (   0.0909091  -0.4723775  -0.3340213), wk =   0.0030053
        k(  415) = (  -0.4545455  -0.1574592   0.3340213), wk =   0.0030053
        k(  416) = (   0.3636364  -0.3149183   0.3340213), wk =   0.0030053
        k(  417) = (  -0.4545455   0.1574592  -0.3340213), wk =   0.0030053
        k(  418) = (   0.3636364   0.3149183  -0.3340213), wk =   0.0030053
        k(  419) = (   0.0909091  -0.4723775  -0.4453618), wk =   0.0030053
        k(  420) = (  -0.4545455  -0.1574592   0.4453618), wk =   0.0030053
        k(  421) = (   0.3636364  -0.3149183   0.4453618), wk =   0.0030053
        k(  422) = (  -0.4545455   0.1574592  -0.4453618), wk =   0.0030053
        k(  423) = (   0.3636364   0.3149183  -0.4453618), wk =   0.0030053
        k(  424) = (   0.0909091  -0.4723775   0.6680427), wk =   0.0030053
        k(  425) = (  -0.4545455  -0.1574592  -0.6680427), wk =   0.0030053
        k(  426) = (   0.3636364  -0.3149183  -0.6680427), wk =   0.0030053
        k(  427) = (  -0.4545455   0.1574592   0.6680427), wk =   0.0030053
        k(  428) = (   0.3636364   0.3149183   0.6680427), wk =   0.0030053
        k(  429) = (   0.0909091  -0.4723775   0.5567022), wk =   0.0030053
        k(  430) = (  -0.4545455  -0.1574592  -0.5567022), wk =   0.0030053
        k(  431) = (   0.3636364  -0.3149183  -0.5567022), wk =   0.0030053
        k(  432) = (  -0.4545455   0.1574592   0.5567022), wk =   0.0030053
        k(  433) = (   0.3636364   0.3149183   0.5567022), wk =   0.0030053
        k(  434) = (   0.0909091  -0.4723775   0.4453618), wk =   0.0030053
        k(  435) = (  -0.4545455  -0.1574592  -0.4453618), wk =   0.0030053
        k(  436) = (   0.3636364  -0.3149183  -0.4453618), wk =   0.0030053
        k(  437) = (  -0.4545455   0.1574592   0.4453618), wk =   0.0030053
        k(  438) = (   0.3636364   0.3149183   0.4453618), wk =   0.0030053
        k(  439) = (   0.0909091  -0.4723775   0.3340213), wk =   0.0030053
        k(  440) = (  -0.4545455  -0.1574592  -0.3340213), wk =   0.0030053
        k(  441) = (   0.3636364  -0.3149183  -0.3340213), wk =   0.0030053
        k(  442) = (  -0.4545455   0.1574592   0.3340213), wk =   0.0030053
        k(  443) = (   0.3636364   0.3149183   0.3340213), wk =   0.0030053
        k(  444) = (   0.0909091  -0.4723775   0.2226809), wk =   0.0030053
        k(  445) = (  -0.4545455  -0.1574592  -0.2226809), wk =   0.0030053
        k(  446) = (   0.3636364  -0.3149183  -0.2226809), wk =   0.0030053
        k(  447) = (  -0.4545455   0.1574592   0.2226809), wk =   0.0030053
        k(  448) = (   0.3636364   0.3149183   0.2226809), wk =   0.0030053
        k(  449) = (   0.0909091  -0.5773503   0.1484539), wk =   0.0030053
        k(  450) = (  -0.5454545  -0.2099456  -0.1484539), wk =   0.0030053
        k(  451) = (   0.4545455  -0.3674047  -0.1484539), wk =   0.0030053
        k(  452) = (  -0.5454545   0.2099456   0.1484539), wk =   0.0030053
        k(  453) = (   0.4545455   0.3674047   0.1484539), wk =   0.0030053
        k(  454) = (   0.0909091  -0.5773503   0.0371135), wk =   0.0030053
        k(  455) = (  -0.5454545  -0.2099456  -0.0371135), wk =   0.0030053
        k(  456) = (   0.4545455  -0.3674047  -0.0371135), wk =   0.0030053
        k(  457) = (  -0.5454545   0.2099456   0.0371135), wk =   0.0030053
        k(  458) = (   0.4545455   0.3674047   0.0371135), wk =   0.0030053
        k(  459) = (   0.0909091  -0.5773503  -0.0742270), wk =   0.0030053
        k(  460) = (  -0.5454545  -0.2099456   0.0742270), wk =   0.0030053
        k(  461) = (   0.4545455  -0.3674047   0.0742270), wk =   0.0030053
        k(  462) = (  -0.5454545   0.2099456  -0.0742270), wk =   0.0030053
        k(  463) = (   0.4545455   0.3674047  -0.0742270), wk =   0.0030053
        k(  464) = (   0.0909091  -0.5773503  -0.1855674), wk =   0.0030053
        k(  465) = (  -0.5454545  -0.2099456   0.1855674), wk =   0.0030053
        k(  466) = (   0.4545455  -0.3674047   0.1855674), wk =   0.0030053
        k(  467) = (  -0.5454545   0.2099456  -0.1855674), wk =   0.0030053
        k(  468) = (   0.4545455   0.3674047  -0.1855674), wk =   0.0030053
        k(  469) = (   0.0909091  -0.5773503  -0.2969078), wk =   0.0030053
        k(  470) = (  -0.5454545  -0.2099456   0.2969078), wk =   0.0030053
        k(  471) = (   0.4545455  -0.3674047   0.2969078), wk =   0.0030053
        k(  472) = (  -0.5454545   0.2099456  -0.2969078), wk =   0.0030053
        k(  473) = (   0.4545455   0.3674047  -0.2969078), wk =   0.0030053
        k(  474) = (  -0.5454545  -0.2099456   0.4082483), wk =   0.0030053
        k(  475) = (   0.4545455  -0.3674047   0.4082483), wk =   0.0030053
        k(  476) = (   0.1818182  -0.3149183  -0.0000000), wk =   0.0030053
        k(  477) = (  -0.3636364   0.0000000   0.0000000), wk =   0.0030053
        k(  478) = (   0.1818182  -0.3149183  -0.1113404), wk =   0.0030053
        k(  479) = (  -0.3636364   0.0000000   0.1113404), wk =   0.0030053
        k(  480) = (   0.1818182  -0.3149183   0.1113404), wk =   0.0030053
        k(  481) = (  -0.3636364   0.0000000  -0.1113404), wk =   0.0030053
        k(  482) = (   0.1818182   0.3149183  -0.1113404), wk =   0.0030053
        k(  483) = (   0.1818182  -0.3149183  -0.2226809), wk =   0.0030053
        k(  484) = (  -0.3636364   0.0000000   0.2226809), wk =   0.0030053
        k(  485) = (   0.1818182  -0.3149183   0.2226809), wk =   0.0030053
        k(  486) = (  -0.3636364   0.0000000  -0.2226809), wk =   0.0030053
        k(  487) = (   0.1818182   0.3149183  -0.2226809), wk =   0.0030053
        k(  488) = (   0.1818182  -0.3149183  -0.3340213), wk =   0.0030053
        k(  489) = (  -0.3636364   0.0000000   0.3340213), wk =   0.0030053
        k(  490) = (   0.1818182  -0.3149183   0.3340213), wk =   0.0030053
        k(  491) = (  -0.3636364   0.0000000  -0.3340213), wk =   0.0030053
        k(  492) = (   0.1818182   0.3149183  -0.3340213), wk =   0.0030053
        k(  493) = (   0.1818182  -0.3149183  -0.4453618), wk =   0.0030053
        k(  494) = (  -0.3636364   0.0000000   0.4453618), wk =   0.0030053
        k(  495) = (   0.1818182  -0.3149183   0.4453618), wk =   0.0030053
        k(  496) = (  -0.3636364   0.0000000  -0.4453618), wk =   0.0030053
        k(  497) = (   0.1818182   0.3149183  -0.4453618), wk =   0.0030053
        k(  498) = (   0.1818182  -0.3149183  -0.5567022), wk =   0.0030053
        k(  499) = (  -0.3636364   0.0000000   0.5567022), wk =   0.0030053
        k(  500) = (   0.1818182  -0.3149183   0.5567022), wk =   0.0030053
        k(  501) = (  -0.3636364   0.0000000  -0.5567022), wk =   0.0030053
        k(  502) = (   0.1818182   0.3149183  -0.5567022), wk =   0.0030053
        k(  503) = (   0.1818182  -0.4198911   0.0371135), wk =   0.0030053
        k(  504) = (  -0.4545455  -0.0524864  -0.0371135), wk =   0.0030053
        k(  505) = (   0.2727273  -0.3674047  -0.0371135), wk =   0.0030053
        k(  506) = (  -0.4545455   0.0524864   0.0371135), wk =   0.0030053
        k(  507) = (   0.2727273   0.3674047   0.0371135), wk =   0.0030053
        k(  508) = (   0.1818182  -0.4198911  -0.0742270), wk =   0.0030053
        k(  509) = (  -0.4545455  -0.0524864   0.0742270), wk =   0.0030053
        k(  510) = (   0.2727273  -0.3674047   0.0742270), wk =   0.0030053
        k(  511) = (  -0.4545455   0.0524864  -0.0742270), wk =   0.0030053
        k(  512) = (   0.2727273   0.3674047  -0.0742270), wk =   0.0030053
        k(  513) = (   0.1818182  -0.4198911  -0.1855674), wk =   0.0030053
        k(  514) = (  -0.4545455  -0.0524864   0.1855674), wk =   0.0030053
        k(  515) = (   0.2727273  -0.3674047   0.1855674), wk =   0.0030053
        k(  516) = (  -0.4545455   0.0524864  -0.1855674), wk =   0.0030053
        k(  517) = (   0.2727273   0.3674047  -0.1855674), wk =   0.0030053
        k(  518) = (   0.1818182  -0.4198911  -0.2969078), wk =   0.0030053
        k(  519) = (  -0.4545455  -0.0524864   0.2969078), wk =   0.0030053
        k(  520) = (   0.2727273  -0.3674047   0.2969078), wk =   0.0030053
        k(  521) = (  -0.4545455   0.0524864  -0.2969078), wk =   0.0030053
        k(  522) = (   0.2727273   0.3674047  -0.2969078), wk =   0.0030053
        k(  523) = (   0.1818182  -0.4198911  -0.4082483), wk =   0.0030053
        k(  524) = (  -0.4545455  -0.0524864   0.4082483), wk =   0.0030053
        k(  525) = (   0.2727273  -0.3674047   0.4082483), wk =   0.0030053
        k(  526) = (  -0.4545455   0.0524864  -0.4082483), wk =   0.0030053
        k(  527) = (   0.2727273   0.3674047  -0.4082483), wk =   0.0030053
        k(  528) = (   0.1818182  -0.4198911  -0.5195887), wk =   0.0030053
        k(  529) = (  -0.4545455  -0.0524864   0.5195887), wk =   0.0030053
        k(  530) = (   0.2727273  -0.3674047   0.5195887), wk =   0.0030053
        k(  531) = (  -0.4545455   0.0524864  -0.5195887), wk =   0.0030053
        k(  532) = (   0.2727273   0.3674047  -0.5195887), wk =   0.0030053
        k(  533) = (   0.1818182  -0.4198911   0.5938157), wk =   0.0030053
        k(  534) = (  -0.4545455  -0.0524864  -0.5938157), wk =   0.0030053
        k(  535) = (   0.2727273  -0.3674047  -0.5938157), wk =   0.0030053
        k(  536) = (  -0.4545455   0.0524864   0.5938157), wk =   0.0030053
        k(  537) = (   0.2727273   0.3674047   0.5938157), wk =   0.0030053
        k(  538) = (   0.1818182  -0.4198911   0.4824753), wk =   0.0030053
        k(  539) = (  -0.4545455  -0.0524864  -0.4824753), wk =   0.0030053
        k(  540) = (   0.2727273  -0.3674047  -0.4824753), wk =   0.0030053
        k(  541) = (  -0.4545455   0.0524864   0.4824753), wk =   0.0030053
        k(  542) = (   0.2727273   0.3674047   0.4824753), wk =   0.0030053
        k(  543) = (   0.1818182  -0.4198911   0.3711348), wk =   0.0030053
        k(  544) = (  -0.4545455  -0.0524864  -0.3711348), wk =   0.0030053
        k(  545) = (   0.2727273  -0.3674047  -0.3711348), wk =   0.0030053
        k(  546) = (  -0.4545455   0.0524864   0.3711348), wk =   0.0030053
        k(  547) = (   0.2727273   0.3674047   0.3711348), wk =   0.0030053
        k(  548) = (   0.1818182  -0.4198911   0.2597944), wk =   0.0030053
        k(  549) = (  -0.4545455  -0.0524864  -0.2597944), wk =   0.0030053
        k(  550) = (   0.2727273  -0.3674047  -0.2597944), wk =   0.0030053
        k(  551) = (  -0.4545455   0.0524864   0.2597944), wk =   0.0030053
        k(  552) = (   0.2727273   0.3674047   0.2597944), wk =   0.0030053
        k(  553) = (   0.1818182  -0.4198911   0.1484539), wk =   0.0030053
        k(  554) = (  -0.4545455  -0.0524864  -0.1484539), wk =   0.0030053
        k(  555) = (   0.2727273  -0.3674047  -0.1484539), wk =   0.0030053
        k(  556) = (  -0.4545455   0.0524864   0.1484539), wk =   0.0030053
        k(  557) = (   0.2727273   0.3674047   0.1484539), wk =   0.0030053
        k(  558) = (   0.1818182  -0.5248639   0.0742270), wk =   0.0030053
        k(  559) = (  -0.5454545  -0.1049728  -0.0742270), wk =   0.0030053
        k(  560) = (   0.3636364  -0.4198911  -0.0742270), wk =   0.0030053
        k(  561) = (  -0.5454545   0.1049728   0.0742270), wk =   0.0030053
        k(  562) = (   0.3636364   0.4198911   0.0742270), wk =   0.0030053
        k(  563) = (   0.1818182  -0.5248639  -0.0371135), wk =   0.0030053
        k(  564) = (  -0.5454545  -0.1049728   0.0371135), wk =   0.0030053
        k(  565) = (   0.3636364  -0.4198911   0.0371135), wk =   0.0030053
        k(  566) = (  -0.5454545   0.1049728  -0.0371135), wk =   0.0030053
        k(  567) = (   0.3636364   0.4198911  -0.0371135), wk =   0.0030053
        k(  568) = (   0.1818182  -0.5248639  -0.1484539), wk =   0.0030053
        k(  569) = (  -0.5454545  -0.1049728   0.1484539), wk =   0.0030053
        k(  570) = (   0.3636364  -0.4198911   0.1484539), wk =   0.0030053
        k(  571) = (  -0.5454545   0.1049728  -0.1484539), wk =   0.0030053
        k(  572) = (   0.3636364   0.4198911  -0.1484539), wk =   0.0030053
        k(  573) = (   0.1818182  -0.5248639  -0.2597944), wk =   0.0030053
        k(  574) = (  -0.5454545  -0.1049728   0.2597944), wk =   0.0030053
        k(  575) = (   0.3636364  -0.4198911   0.2597944), wk =   0.0030053
        k(  576) = (  -0.5454545   0.1049728  -0.2597944), wk =   0.0030053
        k(  577) = (   0.3636364   0.4198911  -0.2597944), wk =   0.0030053
        k(  578) = (   0.1818182  -0.5248639  -0.3711348), wk =   0.0030053
        k(  579) = (  -0.5454545  -0.1049728   0.3711348), wk =   0.0030053
        k(  580) = (   0.3636364  -0.4198911   0.3711348), wk =   0.0030053
        k(  581) = (  -0.5454545   0.1049728  -0.3711348), wk =   0.0030053
        k(  582) = (   0.3636364   0.4198911  -0.3711348), wk =   0.0030053
        k(  583) = (   0.1818182  -0.5248639  -0.4824753), wk =   0.0030053
        k(  584) = (  -0.5454545  -0.1049728   0.4824753), wk =   0.0030053
        k(  585) = (   0.3636364  -0.4198911   0.4824753), wk =   0.0030053
        k(  586) = (  -0.5454545   0.1049728  -0.4824753), wk =   0.0030053
        k(  587) = (   0.3636364   0.4198911  -0.4824753), wk =   0.0030053
        k(  588) = (   0.1818182  -0.5248639   0.6309292), wk =   0.0030053
        k(  589) = (  -0.5454545  -0.1049728  -0.6309292), wk =   0.0030053
        k(  590) = (   0.3636364  -0.4198911  -0.6309292), wk =   0.0030053
        k(  591) = (  -0.5454545   0.1049728   0.6309292), wk =   0.0030053
        k(  592) = (   0.3636364   0.4198911   0.6309292), wk =   0.0030053
        k(  593) = (   0.1818182  -0.5248639   0.5195887), wk =   0.0030053
        k(  594) = (  -0.5454545  -0.1049728  -0.5195887), wk =   0.0030053
        k(  595) = (   0.3636364  -0.4198911  -0.5195887), wk =   0.0030053
        k(  596) = (  -0.5454545   0.1049728   0.5195887), wk =   0.0030053
        k(  597) = (   0.3636364   0.4198911   0.5195887), wk =   0.0030053
        k(  598) = (   0.1818182  -0.5248639   0.4082483), wk =   0.0030053
        k(  599) = (  -0.5454545  -0.1049728  -0.4082483), wk =   0.0030053
        k(  600) = (   0.3636364  -0.4198911  -0.4082483), wk =   0.0030053
        k(  601) = (  -0.5454545   0.1049728   0.4082483), wk =   0.0030053
        k(  602) = (   0.3636364   0.4198911   0.4082483), wk =   0.0030053
        k(  603) = (   0.1818182  -0.5248639   0.2969078), wk =   0.0030053
        k(  604) = (  -0.5454545  -0.1049728  -0.2969078), wk =   0.0030053
        k(  605) = (   0.3636364  -0.4198911  -0.2969078), wk =   0.0030053
        k(  606) = (  -0.5454545   0.1049728   0.2969078), wk =   0.0030053
        k(  607) = (   0.3636364   0.4198911   0.2969078), wk =   0.0030053
        k(  608) = (   0.1818182  -0.5248639   0.1855674), wk =   0.0030053
        k(  609) = (  -0.5454545  -0.1049728  -0.1855674), wk =   0.0030053
        k(  610) = (   0.3636364  -0.4198911  -0.1855674), wk =   0.0030053
        k(  611) = (  -0.5454545   0.1049728   0.1855674), wk =   0.0030053
        k(  612) = (   0.3636364   0.4198911   0.1855674), wk =   0.0030053
        k(  613) = (   0.2727273  -0.4723775   0.0000000), wk =   0.0030053
        k(  614) = (  -0.5454545   0.0000000   0.0000000), wk =   0.0030053
        k(  615) = (   0.2727273  -0.4723775  -0.1113404), wk =   0.0030053
        k(  616) = (  -0.5454545   0.0000000   0.1113404), wk =   0.0030053
        k(  617) = (   0.2727273  -0.4723775   0.1113404), wk =   0.0030053
        k(  618) = (  -0.5454545  -0.0000000  -0.1113404), wk =   0.0030053
        k(  619) = (   0.2727273   0.4723775  -0.1113404), wk =   0.0030053
        k(  620) = (   0.2727273  -0.4723775  -0.2226809), wk =   0.0030053
        k(  621) = (  -0.5454545   0.0000000   0.2226809), wk =   0.0030053
        k(  622) = (   0.2727273  -0.4723775   0.2226809), wk =   0.0030053
        k(  623) = (  -0.5454545  -0.0000000  -0.2226809), wk =   0.0030053
        k(  624) = (   0.2727273   0.4723775  -0.2226809), wk =   0.0030053
        k(  625) = (   0.2727273  -0.4723775  -0.3340213), wk =   0.0030053
        k(  626) = (  -0.5454545   0.0000000   0.3340213), wk =   0.0030053
        k(  627) = (   0.2727273  -0.4723775   0.3340213), wk =   0.0030053
        k(  628) = (  -0.5454545  -0.0000000  -0.3340213), wk =   0.0030053
        k(  629) = (   0.2727273   0.4723775  -0.3340213), wk =   0.0030053
        k(  630) = (   0.2727273  -0.4723775  -0.4453618), wk =   0.0030053
        k(  631) = (  -0.5454545   0.0000000   0.4453618), wk =   0.0030053
        k(  632) = (   0.2727273  -0.4723775   0.4453618), wk =   0.0030053
        k(  633) = (  -0.5454545  -0.0000000  -0.4453618), wk =   0.0030053
        k(  634) = (   0.2727273   0.4723775  -0.4453618), wk =   0.0030053
        k(  635) = (   0.2727273  -0.4723775  -0.5567022), wk =   0.0030053
        k(  636) = (  -0.5454545   0.0000000   0.5567022), wk =   0.0030053
        k(  637) = (   0.2727273  -0.4723775   0.5567022), wk =   0.0030053
        k(  638) = (  -0.5454545  -0.0000000  -0.5567022), wk =   0.0030053
        k(  639) = (   0.2727273   0.4723775  -0.5567022), wk =   0.0030053
        k(  640) = (   0.2727273  -0.5773503   0.0371135), wk =   0.0030053
        k(  641) = (  -0.6363636  -0.0524864  -0.0371135), wk =   0.0030053
        k(  642) = (   0.3636364  -0.5248639  -0.0371135), wk =   0.0030053
        k(  643) = (  -0.6363636   0.0524864   0.0371135), wk =   0.0030053
        k(  644) = (   0.3636364   0.5248639   0.0371135), wk =   0.0030053
        k(  645) = (   0.2727273  -0.5773503  -0.0742270), wk =   0.0030053
        k(  646) = (  -0.6363636  -0.0524864   0.0742270), wk =   0.0030053
        k(  647) = (   0.3636364  -0.5248639   0.0742270), wk =   0.0030053
        k(  648) = (  -0.6363636   0.0524864  -0.0742270), wk =   0.0030053
        k(  649) = (   0.3636364   0.5248639  -0.0742270), wk =   0.0030053
        k(  650) = (   0.2727273  -0.5773503  -0.1855674), wk =   0.0030053
        k(  651) = (  -0.6363636  -0.0524864   0.1855674), wk =   0.0030053
        k(  652) = (   0.3636364  -0.5248639   0.1855674), wk =   0.0030053
        k(  653) = (  -0.6363636   0.0524864  -0.1855674), wk =   0.0030053
        k(  654) = (   0.3636364   0.5248639  -0.1855674), wk =   0.0030053
        k(  655) = (   0.2727273  -0.5773503  -0.2969078), wk =   0.0030053
        k(  656) = (  -0.6363636  -0.0524864   0.2969078), wk =   0.0030053
        k(  657) = (   0.3636364  -0.5248639   0.2969078), wk =   0.0030053
        k(  658) = (  -0.6363636   0.0524864  -0.2969078), wk =   0.0030053
        k(  659) = (   0.3636364   0.5248639  -0.2969078), wk =   0.0030053
        k(  660) = (  -0.6363636  -0.0524864   0.4082483), wk =   0.0030053
        k(  661) = (   0.3636364  -0.5248639   0.4082483), wk =   0.0030053
        k(  662) = (   0.2727273  -0.5773503   0.2597944), wk =   0.0030053
        k(  663) = (  -0.6363636  -0.0524864  -0.2597944), wk =   0.0030053
        k(  664) = (   0.3636364  -0.5248639  -0.2597944), wk =   0.0030053
        k(  665) = (  -0.6363636   0.0524864   0.2597944), wk =   0.0030053
        k(  666) = (   0.3636364   0.5248639   0.2597944), wk =   0.0030053

                       cryst. coord.
        k(    1) = (   0.0000000   0.0000000   0.0000000), wk =   0.0015026
        k(    2) = (   0.0000000   0.0000000   0.0909091), wk =   0.0030053
        k(    3) = (   0.0000000   0.0000000   0.1818182), wk =   0.0030053
        k(    4) = (   0.0000000   0.0000000   0.2727273), wk =   0.0030053
        k(    5) = (   0.0000000   0.0000000   0.3636364), wk =   0.0030053
        k(    6) = (   0.0000000   0.0000000   0.4545455), wk =   0.0030053
        k(    7) = (   0.0000000   0.0909091   0.0000000), wk =   0.0030053
        k(    8) = (   0.0000000   0.0909091   0.0909091), wk =   0.0030053
        k(    9) = (   0.0000000   0.0909091   0.1818182), wk =   0.0030053
        k(   10) = (   0.0000000   0.0909091   0.2727273), wk =   0.0030053
        k(   11) = (   0.0000000   0.0909091   0.3636364), wk =   0.0030053
        k(   12) = (   0.0000000   0.0909091   0.4545455), wk =   0.0030053
        k(   13) = (   0.0000000   0.0909091  -0.4545455), wk =   0.0030053
        k(   14) = (   0.0000000   0.0909091  -0.3636364), wk =   0.0030053
        k(   15) = (   0.0000000   0.0909091  -0.2727273), wk =   0.0030053
        k(   16) = (   0.0000000   0.0909091  -0.1818182), wk =   0.0030053
        k(   17) = (   0.0000000   0.0909091  -0.0909091), wk =   0.0030053
        k(   18) = (   0.0000000   0.1818182   0.0000000), wk =   0.0030053
        k(   19) = (   0.0000000   0.1818182   0.0909091), wk =   0.0030053
        k(   20) = (   0.0000000   0.1818182   0.1818182), wk =   0.0030053
        k(   21) = (   0.0000000   0.1818182   0.2727273), wk =   0.0030053
        k(   22) = (   0.0000000   0.1818182   0.3636364), wk =   0.0030053
        k(   23) = (   0.0000000   0.1818182   0.4545455), wk =   0.0030053
        k(   24) = (   0.0000000   0.1818182  -0.4545455), wk =   0.0030053
        k(   25) = (   0.0000000   0.1818182  -0.3636364), wk =   0.0030053
        k(   26) = (   0.0000000   0.1818182  -0.2727273), wk =   0.0030053
        k(   27) = (   0.0000000   0.1818182  -0.1818182), wk =   0.0030053
        k(   28) = (   0.0000000   0.1818182  -0.0909091), wk =   0.0030053
        k(   29) = (   0.0000000   0.2727273   0.0000000), wk =   0.0030053
        k(   30) = (   0.0000000   0.2727273   0.0909091), wk =   0.0030053
        k(   31) = (   0.0000000   0.2727273   0.1818182), wk =   0.0030053
        k(   32) = (   0.0000000   0.2727273   0.2727273), wk =   0.0030053
        k(   33) = (   0.0000000   0.2727273   0.3636364), wk =   0.0030053
        k(   34) = (   0.0000000   0.2727273   0.4545455), wk =   0.0030053
        k(   35) = (   0.0000000   0.2727273  -0.4545455), wk =   0.0030053
        k(   36) = (   0.0000000   0.2727273  -0.3636364), wk =   0.0030053
        k(   37) = (   0.0000000   0.2727273  -0.2727273), wk =   0.0030053
        k(   38) = (   0.0000000   0.2727273  -0.1818182), wk =   0.0030053
        k(   39) = (   0.0000000   0.2727273  -0.0909091), wk =   0.0030053
        k(   40) = (   0.0000000   0.3636364   0.0000000), wk =   0.0030053
        k(   41) = (   0.0000000   0.3636364   0.0909091), wk =   0.0030053
        k(   42) = (   0.0000000   0.3636364   0.1818182), wk =   0.0030053
        k(   43) = (   0.0000000   0.3636364   0.2727273), wk =   0.0030053
        k(   44) = (   0.0000000   0.3636364   0.3636364), wk =   0.0030053
        k(   45) = (   0.0000000   0.3636364   0.4545455), wk =   0.0030053
        k(   46) = (   0.0000000   0.3636364  -0.4545455), wk =   0.0030053
        k(   47) = (   0.0000000   0.3636364  -0.3636364), wk =   0.0030053
        k(   48) = (   0.0000000   0.3636364  -0.2727273), wk =   0.0030053
        k(   49) = (   0.0000000   0.3636364  -0.1818182), wk =   0.0030053
        k(   50) = (   0.0000000   0.3636364  -0.0909091), wk =   0.0030053
        k(   51) = (   0.0000000   0.4545455   0.0000000), wk =   0.0030053
        k(   52) = (   0.0000000   0.4545455   0.0909091), wk =   0.0030053
        k(   53) = (   0.0000000   0.4545455   0.1818182), wk =   0.0030053
        k(   54) = (   0.0000000   0.4545455   0.2727273), wk =   0.0030053
        k(   55) = (   0.0000000   0.4545455   0.3636364), wk =   0.0030053
        k(   56) = (   0.0000000   0.4545455   0.4545455), wk =   0.0030053
        k(   57) = (   0.0000000   0.4545455  -0.4545455), wk =   0.0030053
        k(   58) = (   0.0000000   0.4545455  -0.3636364), wk =   0.0030053
        k(   59) = (   0.0000000   0.4545455  -0.2727273), wk =   0.0030053
        k(   60) = (   0.0000000   0.4545455  -0.1818182), wk =   0.0030053
        k(   61) = (   0.0000000   0.4545455  -0.0909091), wk =   0.0030053
        k(   62) = (   0.0909091   0.0909091  -0.0000000), wk =   0.0030053
        k(   63) = (   0.0909091   0.0909091   0.0909091), wk =   0.0030053
        k(   64) = (   0.0909091   0.0909091   0.1818182), wk =   0.0030053
        k(   65) = (   0.0909091   0.0909091   0.2727273), wk =   0.0030053
        k(   66) = (   0.0909091   0.0909091   0.3636364), wk =   0.0030053
        k(   67) = (   0.0909091   0.0909091   0.4545455), wk =   0.0030053
        k(   68) = (   0.0909091   0.1818182  -0.0000000), wk =   0.0030053
        k(   69) = (   0.0909091   0.1818182   0.0909091), wk =   0.0030053
        k(   70) = (   0.0909091   0.1818182   0.1818182), wk =   0.0030053
        k(   71) = (   0.0909091   0.1818182   0.2727273), wk =   0.0030053
        k(   72) = (   0.0909091   0.1818182   0.3636364), wk =   0.0030053
        k(   73) = (   0.0909091   0.1818182   0.4545455), wk =   0.0030053
        k(   74) = (   0.0909091   0.1818182  -0.4545455), wk =   0.0030053
        k(   75) = (   0.0909091   0.1818182  -0.3636364), wk =   0.0030053
        k(   76) = (   0.0909091   0.1818182  -0.2727273), wk =   0.0030053
        k(   77) = (   0.0909091   0.1818182  -0.1818182), wk =   0.0030053
        k(   78) = (   0.0909091   0.1818182  -0.0909091), wk =   0.0030053
        k(   79) = (   0.0909091   0.2727273  -0.0000000), wk =   0.0030053
        k(   80) = (   0.0909091   0.2727273   0.0909091), wk =   0.0030053
        k(   81) = (   0.0909091   0.2727273   0.1818182), wk =   0.0030053
        k(   82) = (   0.0909091   0.2727273   0.2727273), wk =   0.0030053
        k(   83) = (   0.0909091   0.2727273   0.3636364), wk =   0.0030053
        k(   84) = (   0.0909091   0.2727273   0.4545455), wk =   0.0030053
        k(   85) = (   0.0909091   0.2727273  -0.4545455), wk =   0.0030053
        k(   86) = (   0.0909091   0.2727273  -0.3636364), wk =   0.0030053
        k(   87) = (   0.0909091   0.2727273  -0.2727273), wk =   0.0030053
        k(   88) = (   0.0909091   0.2727273  -0.1818182), wk =   0.0030053
        k(   89) = (   0.0909091   0.2727273  -0.0909091), wk =   0.0030053
        k(   90) = (   0.0909091   0.3636364   0.0000000), wk =   0.0030053
        k(   91) = (   0.0909091   0.3636364   0.0909091), wk =   0.0030053
        k(   92) = (   0.0909091   0.3636364   0.1818182), wk =   0.0030053
        k(   93) = (   0.0909091   0.3636364   0.2727273), wk =   0.0030053
        k(   94) = (   0.0909091   0.3636364   0.3636364), wk =   0.0030053
        k(   95) = (   0.0909091   0.3636364   0.4545455), wk =   0.0030053
        k(   96) = (   0.0909091   0.3636364  -0.4545455), wk =   0.0030053
        k(   97) = (   0.0909091   0.3636364  -0.3636364), wk =   0.0030053
        k(   98) = (   0.0909091   0.3636364  -0.2727273), wk =   0.0030053
        k(   99) = (   0.0909091   0.3636364  -0.1818182), wk =   0.0030053
        k(  100) = (   0.0909091   0.3636364  -0.0909091), wk =   0.0030053
        k(  101) = (   0.0909091   0.4545455   0.0000000), wk =   0.0030053
        k(  102) = (   0.0909091   0.4545455   0.0909091), wk =   0.0030053
        k(  103) = (   0.0909091   0.4545455   0.1818182), wk =   0.0030053
        k(  104) = (   0.0909091   0.4545455   0.2727273), wk =   0.0030053
        k(  105) = (   0.0909091   0.4545455   0.3636364), wk =   0.0030053
        k(  106) = (   0.0909091   0.4545455   0.4545455), wk =   0.0030053
        k(  107) = (   0.1818182   0.1818182  -0.0000000), wk =   0.0030053
        k(  108) = (   0.1818182   0.1818182   0.0909091), wk =   0.0030053
        k(  109) = (   0.1818182   0.1818182   0.1818182), wk =   0.0030053
        k(  110) = (   0.1818182   0.1818182   0.2727273), wk =   0.0030053
        k(  111) = (   0.1818182   0.1818182   0.3636364), wk =   0.0030053
        k(  112) = (   0.1818182   0.1818182   0.4545455), wk =   0.0030053
        k(  113) = (   0.1818182   0.2727273   0.0000000), wk =   0.0030053
        k(  114) = (   0.1818182   0.2727273   0.0909091), wk =   0.0030053
        k(  115) = (   0.1818182   0.2727273   0.1818182), wk =   0.0030053
        k(  116) = (   0.1818182   0.2727273   0.2727273), wk =   0.0030053
        k(  117) = (   0.1818182   0.2727273   0.3636364), wk =   0.0030053
        k(  118) = (   0.1818182   0.2727273   0.4545455), wk =   0.0030053
        k(  119) = (   0.1818182   0.2727273  -0.4545455), wk =   0.0030053
        k(  120) = (   0.1818182   0.2727273  -0.3636364), wk =   0.0030053
        k(  121) = (   0.1818182   0.2727273  -0.2727273), wk =   0.0030053
        k(  122) = (   0.1818182   0.2727273  -0.1818182), wk =   0.0030053
        k(  123) = (   0.1818182   0.2727273  -0.0909091), wk =   0.0030053
        k(  124) = (   0.1818182   0.3636364  -0.0000000), wk =   0.0030053
        k(  125) = (   0.1818182   0.3636364   0.0909091), wk =   0.0030053
        k(  126) = (   0.1818182   0.3636364   0.1818182), wk =   0.0030053
        k(  127) = (   0.1818182   0.3636364   0.2727273), wk =   0.0030053
        k(  128) = (   0.1818182   0.3636364   0.3636364), wk =   0.0030053
        k(  129) = (   0.1818182   0.3636364   0.4545455), wk =   0.0030053
        k(  130) = (   0.1818182   0.3636364  -0.4545455), wk =   0.0030053
        k(  131) = (   0.1818182   0.3636364  -0.3636364), wk =   0.0030053
        k(  132) = (   0.1818182   0.3636364  -0.2727273), wk =   0.0030053
        k(  133) = (   0.1818182   0.3636364  -0.1818182), wk =   0.0030053
        k(  134) = (   0.1818182   0.3636364  -0.0909091), wk =   0.0030053
        k(  135) = (   0.2727273   0.2727273  -0.0000000), wk =   0.0030053
        k(  136) = (   0.2727273   0.2727273   0.0909091), wk =   0.0030053
        k(  137) = (   0.2727273   0.2727273   0.1818182), wk =   0.0030053
        k(  138) = (   0.2727273   0.2727273   0.2727273), wk =   0.0030053
        k(  139) = (   0.2727273   0.2727273   0.3636364), wk =   0.0030053
        k(  140) = (   0.2727273   0.2727273   0.4545455), wk =   0.0030053
        k(  141) = (   0.2727273   0.3636364   0.0000000), wk =   0.0030053
        k(  142) = (   0.2727273   0.3636364   0.0909091), wk =   0.0030053
        k(  143) = (   0.2727273   0.3636364   0.1818182), wk =   0.0030053
        k(  144) = (   0.2727273   0.3636364   0.2727273), wk =   0.0030053
        k(  145) = (   0.2727273   0.3636364   0.3636364), wk =   0.0030053
        k(  146) = (   0.2727273   0.3636364  -0.1818182), wk =   0.0030053
        k(  147) = (  -0.0909091   0.0000000   0.0000000), wk =   0.0030053
        k(  148) = (   0.0909091  -0.0909091  -0.0909091), wk =   0.0030053
        k(  149) = (  -0.0909091   0.0000000   0.0909091), wk =   0.0030053
        k(  150) = (   0.0909091  -0.0909091   0.0000000), wk =   0.0030053
        k(  151) = (  -0.0909091   0.0000000   0.1818182), wk =   0.0030053
        k(  152) = (   0.0909091  -0.0909091   0.0909091), wk =   0.0030053
        k(  153) = (  -0.0909091   0.0000000   0.2727273), wk =   0.0030053
        k(  154) = (   0.0909091  -0.0909091   0.1818182), wk =   0.0030053
        k(  155) = (  -0.0909091   0.0000000   0.3636364), wk =   0.0030053
        k(  156) = (   0.0909091  -0.0909091   0.2727273), wk =   0.0030053
        k(  157) = (  -0.0909091   0.0000000   0.4545455), wk =   0.0030053
        k(  158) = (   0.0909091  -0.0909091   0.3636364), wk =   0.0030053
        k(  159) = (  -0.0909091   0.0000000  -0.4545455), wk =   0.0030053
        k(  160) = (   0.0909091  -0.0909091  -0.5454545), wk =   0.0030053
        k(  161) = (  -0.0909091   0.0000000  -0.3636364), wk =   0.0030053
        k(  162) = (   0.0909091  -0.0909091  -0.4545455), wk =   0.0030053
        k(  163) = (  -0.0909091   0.0000000  -0.2727273), wk =   0.0030053
        k(  164) = (   0.0909091  -0.0909091  -0.3636364), wk =   0.0030053
        k(  165) = (  -0.0909091   0.0000000  -0.1818182), wk =   0.0030053
        k(  166) = (   0.0909091  -0.0909091  -0.2727273), wk =   0.0030053
        k(  167) = (  -0.0909091   0.0000000  -0.0909091), wk =   0.0030053
        k(  168) = (   0.0909091  -0.0909091  -0.1818182), wk =   0.0030053
        k(  169) = (  -0.1818182   0.0000000   0.0000000), wk =   0.0030053
        k(  170) = (   0.1818182  -0.1818182  -0.1818182), wk =   0.0030053
        k(  171) = (  -0.1818182   0.0000000   0.0909091), wk =   0.0030053
        k(  172) = (   0.1818182  -0.1818182  -0.0909091), wk =   0.0030053
        k(  173) = (  -0.1818182   0.0000000   0.1818182), wk =   0.0030053
        k(  174) = (   0.1818182  -0.1818182   0.0000000), wk =   0.0030053
        k(  175) = (  -0.1818182   0.0000000   0.2727273), wk =   0.0030053
        k(  176) = (   0.1818182  -0.1818182   0.0909091), wk =   0.0030053
        k(  177) = (  -0.1818182   0.0000000   0.3636364), wk =   0.0030053
        k(  178) = (   0.1818182  -0.1818182   0.1818182), wk =   0.0030053
        k(  179) = (  -0.1818182   0.0000000   0.4545455), wk =   0.0030053
        k(  180) = (   0.1818182  -0.1818182   0.2727273), wk =   0.0030053
        k(  181) = (  -0.1818182   0.0000000  -0.4545455), wk =   0.0030053
        k(  182) = (   0.1818182  -0.1818182  -0.6363636), wk =   0.0030053
        k(  183) = (  -0.1818182   0.0000000  -0.3636364), wk =   0.0030053
        k(  184) = (   0.1818182  -0.1818182  -0.5454545), wk =   0.0030053
        k(  185) = (  -0.1818182   0.0000000  -0.2727273), wk =   0.0030053
        k(  186) = (   0.1818182  -0.1818182  -0.4545455), wk =   0.0030053
        k(  187) = (  -0.1818182   0.0000000  -0.1818182), wk =   0.0030053
        k(  188) = (   0.1818182  -0.1818182  -0.3636364), wk =   0.0030053
        k(  189) = (  -0.1818182   0.0000000  -0.0909091), wk =   0.0030053
        k(  190) = (   0.1818182  -0.1818182  -0.2727273), wk =   0.0030053
        k(  191) = (  -0.2727273   0.0000000   0.0000000), wk =   0.0030053
        k(  192) = (   0.2727273  -0.2727273  -0.2727273), wk =   0.0030053
        k(  193) = (  -0.2727273   0.0000000   0.0909091), wk =   0.0030053
        k(  194) = (   0.2727273  -0.2727273  -0.1818182), wk =   0.0030053
        k(  195) = (  -0.2727273   0.0000000   0.1818182), wk =   0.0030053
        k(  196) = (   0.2727273  -0.2727273  -0.0909091), wk =   0.0030053
        k(  197) = (  -0.2727273   0.0000000   0.2727273), wk =   0.0030053
        k(  198) = (   0.2727273  -0.2727273   0.0000000), wk =   0.0030053
        k(  199) = (  -0.2727273   0.0000000   0.3636364), wk =   0.0030053
        k(  200) = (   0.2727273  -0.2727273   0.0909091), wk =   0.0030053
        k(  201) = (  -0.2727273   0.0000000   0.4545455), wk =   0.0030053
        k(  202) = (   0.2727273  -0.2727273   0.1818182), wk =   0.0030053
        k(  203) = (  -0.2727273   0.0000000  -0.4545455), wk =   0.0030053
        k(  204) = (   0.2727273  -0.2727273  -0.7272727), wk =   0.0030053
        k(  205) = (  -0.2727273   0.0000000  -0.3636364), wk =   0.0030053
        k(  206) = (   0.2727273  -0.2727273  -0.6363636), wk =   0.0030053
        k(  207) = (  -0.2727273   0.0000000  -0.2727273), wk =   0.0030053
        k(  208) = (   0.2727273  -0.2727273  -0.5454545), wk =   0.0030053
        k(  209) = (  -0.2727273   0.0000000  -0.1818182), wk =   0.0030053
        k(  210) = (   0.2727273  -0.2727273  -0.4545455), wk =   0.0030053
        k(  211) = (  -0.2727273   0.0000000  -0.0909091), wk =   0.0030053
        k(  212) = (   0.2727273  -0.2727273  -0.3636364), wk =   0.0030053
        k(  213) = (  -0.3636364   0.0000000   0.0000000), wk =   0.0030053
        k(  214) = (   0.3636364  -0.3636364  -0.3636364), wk =   0.0030053
        k(  215) = (  -0.3636364   0.0000000   0.0909091), wk =   0.0030053
        k(  216) = (   0.3636364  -0.3636364  -0.2727273), wk =   0.0030053
        k(  217) = (  -0.3636364   0.0000000   0.1818182), wk =   0.0030053
        k(  218) = (   0.3636364  -0.3636364  -0.1818182), wk =   0.0030053
        k(  219) = (  -0.3636364   0.0000000   0.2727273), wk =   0.0030053
        k(  220) = (   0.3636364  -0.3636364  -0.0909091), wk =   0.0030053
        k(  221) = (  -0.3636364   0.0000000   0.3636364), wk =   0.0030053
        k(  222) = (   0.3636364  -0.3636364   0.0000000), wk =   0.0030053
        k(  223) = (  -0.3636364   0.0000000   0.4545455), wk =   0.0030053
        k(  224) = (   0.3636364  -0.3636364   0.0909091), wk =   0.0030053
        k(  225) = (  -0.3636364   0.0000000  -0.4545455), wk =   0.0030053
        k(  226) = (   0.3636364  -0.3636364  -0.8181818), wk =   0.0030053
        k(  227) = (  -0.3636364   0.0000000  -0.3636364), wk =   0.0030053
        k(  228) = (   0.3636364  -0.3636364  -0.7272727), wk =   0.0030053
        k(  229) = (  -0.3636364   0.0000000  -0.2727273), wk =   0.0030053
        k(  230) = (   0.3636364  -0.3636364  -0.6363636), wk =   0.0030053
        k(  231) = (  -0.3636364   0.0000000  -0.1818182), wk =   0.0030053
        k(  232) = (   0.3636364  -0.3636364  -0.5454545), wk =   0.0030053
        k(  233) = (  -0.3636364   0.0000000  -0.0909091), wk =   0.0030053
        k(  234) = (   0.3636364  -0.3636364  -0.4545455), wk =   0.0030053
        k(  235) = (  -0.4545455   0.0000000   0.0000000), wk =   0.0030053
        k(  236) = (   0.4545455  -0.4545455  -0.4545455), wk =   0.0030053
        k(  237) = (  -0.4545455   0.0000000   0.0909091), wk =   0.0030053
        k(  238) = (   0.4545455  -0.4545455  -0.3636364), wk =   0.0030053
        k(  239) = (  -0.4545455   0.0000000   0.1818182), wk =   0.0030053
        k(  240) = (   0.4545455  -0.4545455  -0.2727273), wk =   0.0030053
        k(  241) = (  -0.4545455   0.0000000   0.2727273), wk =   0.0030053
        k(  242) = (   0.4545455  -0.4545455  -0.1818182), wk =   0.0030053
        k(  243) = (  -0.4545455   0.0000000   0.3636364), wk =   0.0030053
        k(  244) = (   0.4545455  -0.4545455  -0.0909091), wk =   0.0030053
        k(  245) = (  -0.4545455   0.0000000   0.4545455), wk =   0.0030053
        k(  246) = (   0.4545455  -0.4545455   0.0000000), wk =   0.0030053
        k(  247) = (  -0.4545455   0.0000000  -0.4545455), wk =   0.0030053
        k(  248) = (   0.4545455  -0.4545455  -0.9090909), wk =   0.0030053
        k(  249) = (  -0.4545455   0.0000000  -0.3636364), wk =   0.0030053
        k(  250) = (   0.4545455  -0.4545455  -0.8181818), wk =   0.0030053
        k(  251) = (  -0.4545455   0.0000000  -0.2727273), wk =   0.0030053
        k(  252) = (   0.4545455  -0.4545455  -0.7272727), wk =   0.0030053
        k(  253) = (  -0.4545455   0.0000000  -0.1818182), wk =   0.0030053
        k(  254) = (   0.4545455  -0.4545455  -0.6363636), wk =   0.0030053
        k(  255) = (  -0.4545455   0.0000000  -0.0909091), wk =   0.0030053
        k(  256) = (   0.4545455  -0.4545455  -0.5454545), wk =   0.0030053
        k(  257) = (   0.0909091  -0.1818182  -0.0909091), wk =   0.0030053
        k(  258) = (  -0.1818182   0.0909091   0.0909091), wk =   0.0030053
        k(  259) = (   0.0909091  -0.1818182  -0.1818182), wk =   0.0030053
        k(  260) = (  -0.1818182   0.0909091   0.1818182), wk =   0.0030053
        k(  261) = (   0.0909091  -0.1818182  -0.0000000), wk =   0.0030053
        k(  262) = (  -0.1818182   0.0909091   0.0000000), wk =   0.0030053
        k(  263) = (   0.0909091   0.0909091  -0.0909091), wk =   0.0030053
        k(  264) = (   0.0909091  -0.1818182  -0.2727273), wk =   0.0030053
        k(  265) = (  -0.1818182   0.0909091   0.2727273), wk =   0.0030053
        k(  266) = (   0.0909091  -0.1818182   0.0909091), wk =   0.0030053
        k(  267) = (  -0.1818182   0.0909091  -0.0909091), wk =   0.0030053
        k(  268) = (   0.0909091   0.0909091  -0.1818182), wk =   0.0030053
        k(  269) = (   0.0909091  -0.1818182  -0.3636364), wk =   0.0030053
        k(  270) = (  -0.1818182   0.0909091   0.3636364), wk =   0.0030053
        k(  271) = (   0.0909091  -0.1818182   0.1818182), wk =   0.0030053
        k(  272) = (  -0.1818182   0.0909091  -0.1818182), wk =   0.0030053
        k(  273) = (   0.0909091   0.0909091  -0.2727273), wk =   0.0030053
        k(  274) = (   0.0909091  -0.1818182  -0.4545455), wk =   0.0030053
        k(  275) = (  -0.1818182   0.0909091   0.4545455), wk =   0.0030053
        k(  276) = (   0.0909091  -0.1818182   0.2727273), wk =   0.0030053
        k(  277) = (  -0.1818182   0.0909091  -0.2727273), wk =   0.0030053
        k(  278) = (   0.0909091   0.0909091  -0.3636364), wk =   0.0030053
        k(  279) = (   0.0909091  -0.1818182  -0.5454545), wk =   0.0030053
        k(  280) = (  -0.1818182   0.0909091   0.5454545), wk =   0.0030053
        k(  281) = (   0.0909091  -0.1818182   0.3636364), wk =   0.0030053
        k(  282) = (  -0.1818182   0.0909091  -0.3636364), wk =   0.0030053
        k(  283) = (   0.0909091   0.0909091  -0.4545455), wk =   0.0030053
        k(  284) = (   0.0909091  -0.2727273  -0.0909091), wk =   0.0030053
        k(  285) = (  -0.2727273   0.0909091   0.0909091), wk =   0.0030053
        k(  286) = (   0.1818182  -0.2727273  -0.1818182), wk =   0.0030053
        k(  287) = (  -0.2727273   0.1818182   0.1818182), wk =   0.0030053
        k(  288) = (   0.1818182   0.0909091   0.0000000), wk =   0.0030053
        k(  289) = (   0.0909091  -0.2727273  -0.1818182), wk =   0.0030053
        k(  290) = (  -0.2727273   0.0909091   0.1818182), wk =   0.0030053
        k(  291) = (   0.1818182  -0.2727273  -0.0909091), wk =   0.0030053
        k(  292) = (  -0.2727273   0.1818182   0.0909091), wk =   0.0030053
        k(  293) = (   0.1818182   0.0909091  -0.0909091), wk =   0.0030053
        k(  294) = (   0.0909091  -0.2727273  -0.2727273), wk =   0.0030053
        k(  295) = (  -0.2727273   0.0909091   0.2727273), wk =   0.0030053
        k(  296) = (   0.1818182  -0.2727273   0.0000000), wk =   0.0030053
        k(  297) = (  -0.2727273   0.1818182   0.0000000), wk =   0.0030053
        k(  298) = (   0.1818182   0.0909091  -0.1818182), wk =   0.0030053
        k(  299) = (   0.0909091  -0.2727273  -0.3636364), wk =   0.0030053
        k(  300) = (  -0.2727273   0.0909091   0.3636364), wk =   0.0030053
        k(  301) = (   0.1818182  -0.2727273   0.0909091), wk =   0.0030053
        k(  302) = (  -0.2727273   0.1818182  -0.0909091), wk =   0.0030053
        k(  303) = (   0.1818182   0.0909091  -0.2727273), wk =   0.0030053
        k(  304) = (   0.0909091  -0.2727273  -0.4545455), wk =   0.0030053
        k(  305) = (  -0.2727273   0.0909091   0.4545455), wk =   0.0030053
        k(  306) = (   0.1818182  -0.2727273   0.1818182), wk =   0.0030053
        k(  307) = (  -0.2727273   0.1818182  -0.1818182), wk =   0.0030053
        k(  308) = (   0.1818182   0.0909091  -0.3636364), wk =   0.0030053
        k(  309) = (   0.0909091  -0.2727273  -0.5454545), wk =   0.0030053
        k(  310) = (  -0.2727273   0.0909091   0.5454545), wk =   0.0030053
        k(  311) = (   0.1818182  -0.2727273   0.2727273), wk =   0.0030053
        k(  312) = (  -0.2727273   0.1818182  -0.2727273), wk =   0.0030053
        k(  313) = (   0.1818182   0.0909091  -0.4545455), wk =   0.0030053
        k(  314) = (   0.0909091  -0.2727273   0.3636364), wk =   0.0030053
        k(  315) = (  -0.2727273   0.0909091  -0.3636364), wk =   0.0030053
        k(  316) = (   0.1818182  -0.2727273  -0.6363636), wk =   0.0030053
        k(  317) = (  -0.2727273   0.1818182   0.6363636), wk =   0.0030053
        k(  318) = (   0.1818182   0.0909091   0.4545455), wk =   0.0030053
        k(  319) = (   0.0909091  -0.2727273   0.2727273), wk =   0.0030053
        k(  320) = (  -0.2727273   0.0909091  -0.2727273), wk =   0.0030053
[...]

     occupation numbers 
     1.0000   1.0000   1.0000   1.0000   0.0000   0.0000   0.0000   0.0000

          k =-0.5455-0.0000-0.1113 (   835 PWs)   bands (ev):

    -2.9094   0.9433   2.4178   9.8080  18.2717  25.5603  28.2670  32.2254

     occupation numbers 
     1.0000   1.0000   1.0000   1.0000   0.0000   0.0000   0.0000   0.0000

          k = 0.2727 0.4724-0.1113 (   835 PWs)   bands (ev):

    -3.1734   1.2073   3.6253  10.2509  15.5808  24.4772  26.7608  34.5586

     occupation numbers 
     1.0000   1.0000   1.0000   1.0000   0.0000   0.0000   0.0000   0.0000

          k = 0.2727-0.4724-0.2227 (   831 PWs)   bands (ev):

    -2.5207   0.2583   2.7676  10.3643  16.4688  25.9130  27.1324  32.5034

     occupation numbers 
     1.0000   1.0000   1.0000   1.0000   0.0000   0.0000   0.0000   0.0000

          k =-0.5455 0.0000 0.2227 (   831 PWs)   bands (ev):

    -2.5409   0.2850   2.8681  11.1085  15.9581  24.3486  26.8188  32.7526

     occupation numbers 
     1.0000   1.0000   1.0000   1.0000   0.0000   0.0000   0.0000   0.0000

          k = 0.2727-0.4724 0.2227 (   831 PWs)   bands (ev):

    -2.7356   1.4389   2.9297   9.5006  16.4848  24.3329  25.9742  33.9627

     occupation numbers 
     1.0000   1.0000   1.0000   1.0000   0.0000   0.0000   0.0000   0.0000

          k =-0.5455-0.0000-0.2227 (   831 PWs)   bands (ev):

    -2.5023   0.3897   3.0178   9.2824  18.1477  24.2684  27.8068  33.2438

     occupation numbers 
     1.0000   1.0000   1.0000   1.0000   0.0000   0.0000   0.0000   0.0000

          k = 0.2727 0.4724-0.2227 (   831 PWs)   bands (ev):

    -2.7957   1.2507   3.0612  10.9403  14.7799  24.3537  26.1120  33.3428

     occupation numbers 
     1.0000   1.0000   1.0000   1.0000   0.0000   0.0000   0.0000   0.0000

          k = 0.2727-0.4724-0.3340 (   827 PWs)   bands (ev):

    -1.8534  -0.0765   2.3573   9.8364  16.9118  25.0130  28.5663  32.1717

     occupation numbers 
     1.0000   1.0000   1.0000   1.0000   0.0000   0.0000   0.0000   0.0000

          k =-0.5455 0.0000 0.3340 (   827 PWs)   bands (ev):

    -1.8811  -0.1307   2.9470  10.9779  15.3786  23.6331  26.4734  32.8297

     occupation numbers 
     1.0000   1.0000   1.0000   1.0000   0.0000   0.0000   0.0000   0.0000

          k = 0.2727-0.4724 0.3340 (   827 PWs)   bands (ev):

    -2.2812   1.0226   3.1470   8.7602  16.8959  23.2573  26.0132  35.4610

     occupation numbers 
     1.0000   1.0000   1.0000   1.0000   0.0000   0.0000   0.0000   0.0000

          k =-0.5455-0.0000-0.3340 (   827 PWs)   bands (ev):

    -1.9836   0.1089   3.3049   8.8078  17.7308  23.1072  27.1408  34.0542

     occupation numbers 
     1.0000   1.0000   1.0000   1.0000   0.0000   0.0000   0.0000   0.0000

          k = 0.2727 0.4724-0.3340 (   827 PWs)   bands (ev):

    -2.2085   1.1291   2.3665  11.3601  14.2970  23.5817  26.7476  31.9645

     occupation numbers 
     1.0000   1.0000   1.0000   1.0000   0.0000   0.0000   0.0000   0.0000

          k = 0.2727-0.4724-0.4454 (   832 PWs)   bands (ev):

    -1.1075  -0.2100   1.8689   9.2503  17.2113  24.2767  29.3708  32.3020

     occupation numbers 
     1.0000   1.0000   1.0000   1.0000   0.0000   0.0000   0.0000   0.0000

          k =-0.5455 0.0000 0.4454 (   832 PWs)   bands (ev):

    -1.2780  -0.1426   2.6664  10.3293  15.3253  23.9655  25.6960  32.7032

     occupation numbers 
     1.0000   1.0000   1.0000   1.0000   0.0000   0.0000   0.0000   0.0000

          k = 0.2727-0.4724 0.4454 (   832 PWs)   bands (ev):

    -1.7478   0.6955   2.8682   8.3347  17.1931  22.8988  26.3278  35.5014

     occupation numbers 
     1.0000   1.0000   1.0000   1.0000   0.0000   0.0000   0.0000   0.0000

          k =-0.5455-0.0000-0.4454 (   832 PWs)   bands (ev):

    -1.5703   0.2486   3.0800   8.5835  17.1140  22.7329  26.6299  34.1548

     occupation numbers 
     1.0000   1.0000   1.0000   1.0000   0.0000   0.0000   0.0000   0.0000

          k = 0.2727 0.4724-0.4454 (   832 PWs)   bands (ev):

    -1.4973   0.8372   1.7173  11.1290  14.3692  23.5540  27.3953  30.8247

     occupation numbers 
     1.0000   1.0000   1.0000   1.0000   0.0000   0.0000   0.0000   0.0000

          k = 0.2727-0.4724-0.5567 (   839 PWs)   bands (ev):

    -0.8891   0.1008   1.7050   8.7009  17.3350  23.6636  28.4172  34.0282

     occupation numbers 
     1.0000   1.0000   1.0000   1.0000   0.0000   0.0000   0.0000   0.0000

          k =-0.5455 0.0000 0.5567 (   839 PWs)   bands (ev):

    -1.2157   0.4882   2.2653   9.4781  15.7023  24.1633  25.3854  32.8614

     occupation numbers 
     1.0000   1.0000   1.0000   1.0000   0.0000   0.0000   0.0000   0.0000

          k = 0.2727-0.4724 0.5567 (   839 PWs)   bands (ev):

    -1.2318   0.4464   2.2018   8.3415  17.3273  23.1553  27.1401  35.2582

     occupation numbers 
     1.0000   1.0000   1.0000   1.0000   0.0000   0.0000   0.0000   0.0000

          k =-0.5455-0.0000-0.5567 (   839 PWs)   bands (ev):

    -1.3512   0.6534   2.4549   8.8152  16.3652  23.2517  26.1091  33.5841

     occupation numbers 
     1.0000   1.0000   1.0000   1.0000   0.0000   0.0000   0.0000   0.0000

          k = 0.2727 0.4724-0.5567 (   839 PWs)   bands (ev):

    -0.8043   0.5137   1.1006  10.6805  14.6778  24.6242  27.1803  30.4276

     occupation numbers 
     1.0000   1.0000   1.0000   1.0000   0.0000   0.0000   0.0000   0.0000

          k = 0.2727-0.5774 0.0371 (   833 PWs)   bands (ev):

    -2.1392   1.0405   2.0788  11.0928  14.7759  24.6550  27.2148  31.4037

     occupation numbers 
     1.0000   1.0000   1.0000   1.0000   0.0000   0.0000   0.0000   0.0000

          k =-0.6364-0.0525-0.0371 (   833 PWs)   bands (ev):

    -1.8349   0.1423   1.8789  10.1002  17.1367  25.6575  28.6187  31.4519

     occupation numbers 
     1.0000   1.0000   1.0000   1.0000   0.0000   0.0000   0.0000   0.0000

          k = 0.3636-0.5249-0.0371 (   833 PWs)   bands (ev):

    -1.8313  -0.0877   2.7037  10.7856  15.5570  24.5645  27.1341  31.9018

     occupation numbers 
     1.0000   1.0000   1.0000   1.0000   0.0000   0.0000   0.0000   0.0000

          k =-0.6364 0.0525 0.0371 (   833 PWs)   bands (ev):

    -1.7729  -0.0267   1.9714  10.0378  17.3123  25.7386  28.2157  31.6226

     occupation numbers 
     1.0000   1.0000   1.0000   1.0000   0.0000   0.0000   0.0000   0.0000

          k = 0.3636 0.5249 0.0371 (   833 PWs)   bands (ev):

    -2.0939   0.0233   3.4891   9.1187  17.0600  23.3473  28.0285  33.9523

     occupation numbers 
     1.0000   1.0000   1.0000   1.0000   0.0000   0.0000   0.0000   0.0000

          k = 0.2727-0.5774-0.0742 (   827 PWs)   bands (ev):

    -1.8677   0.6966   1.9150  11.0429  14.8357  24.9902  27.3779  30.9663

     occupation numbers 
     1.0000   1.0000   1.0000   1.0000   0.0000   0.0000   0.0000   0.0000

          k =-0.6364-0.0525 0.0742 (   827 PWs)   bands (ev):

    -1.7454   0.6554   1.2988  10.5495  16.2056  26.3510  27.0855  31.1320

     occupation numbers 
     1.0000   1.0000   1.0000   1.0000   0.0000   0.0000   0.0000   0.0000

          k = 0.3636-0.5249 0.0742 (   827 PWs)   bands (ev):

    -1.9297   0.7088   2.3489  10.2106  15.7196  24.6898  26.1435  32.2990

     occupation numbers 
     1.0000   1.0000   1.0000   1.0000   0.0000   0.0000   0.0000   0.0000

          k =-0.6364 0.0525-0.0742 (   827 PWs)   bands (ev):

    -1.7419   0.5417   1.5519   9.4834  17.7985  24.9014  28.6343  32.3565

     occupation numbers 
     1.0000   1.0000   1.0000   1.0000   0.0000   0.0000   0.0000   0.0000

          k = 0.3636 0.5249-0.0742 (   827 PWs)   bands (ev):

    -2.1041   0.4900   3.2646   9.2592  16.3630  23.2852  27.1344  34.2347

     occupation numbers 
     1.0000   1.0000   1.0000   1.0000   0.0000   0.0000   0.0000   0.0000

          k = 0.2727-0.5774-0.1856 (   826 PWs)   bands (ev):

    -1.4722   0.2172   1.7877  10.6316  15.2937  26.1692  26.5075  31.1212

     occupation numbers 
     1.0000   1.0000   1.0000   1.0000   0.0000   0.0000   0.0000   0.0000

          k =-0.6364-0.0525 0.1856 (   826 PWs)   bands (ev):

    -1.4684   0.2610   1.6579  11.0109  15.1851  25.1959  27.0035  31.1309

     occupation numbers 
     1.0000   1.0000   1.0000   1.0000   0.0000   0.0000   0.0000   0.0000

          k = 0.3636-0.5249 0.1856 (   826 PWs)   bands (ev):

    -1.9052   1.2440   2.1789   9.3913  16.1950  24.1347  25.7309  33.3642

     occupation numbers 
     1.0000   1.0000   1.0000   1.0000   0.0000   0.0000   0.0000   0.0000

          k =-0.6364 0.0525-0.1856 (   826 PWs)   bands (ev):

    -1.6057   0.4258   1.9887   8.9470  17.8946  23.8837  27.8514  34.0148

     occupation numbers 
     1.0000   1.0000   1.0000   1.0000   0.0000   0.0000   0.0000   0.0000

          k = 0.3636 0.5249-0.1856 (   826 PWs)   bands (ev):

    -1.9360   0.8467   2.6589   9.8436  15.4943  23.8532  26.0447  33.6595

     occupation numbers 
     1.0000   1.0000   1.0000   1.0000   0.0000   0.0000   0.0000   0.0000

          k = 0.2727-0.5774-0.2969 (   832 PWs)   bands (ev):

    -0.9994  -0.1624   1.5169  10.1808  15.9590  25.4985  27.8790  31.0993

     occupation numbers 
     1.0000   1.0000   1.0000   1.0000   0.0000   0.0000   0.0000   0.0000

          k =-0.6364-0.0525 0.2969 (   832 PWs)   bands (ev):

    -1.1194  -0.1494   2.0301  11.3688  14.4647  23.7967  27.1558  31.4197

     occupation numbers 
     1.0000   1.0000   1.0000   1.0000   0.0000   0.0000   0.0000   0.0000

          k = 0.3636-0.5249 0.2969 (   832 PWs)   bands (ev):

    -1.7841   0.9298   2.6712   8.6953  16.8040  22.9537  26.0618  35.0494

     occupation numbers 
     1.0000   1.0000   1.0000   1.0000   0.0000   0.0000   0.0000   0.0000

          k =-0.6364 0.0525-0.2969 (   832 PWs)   bands (ev):

    -1.5271   0.2789   2.6333   8.5292  17.7211  22.9050  26.9684  35.2321

     occupation numbers 
     1.0000   1.0000   1.0000   1.0000   0.0000   0.0000   0.0000   0.0000

          k = 0.3636 0.5249-0.2969 (   832 PWs)   bands (ev):

    -1.6214   0.7634   2.1832  10.6739  14.7036  23.9756  25.6959  32.8162

     occupation numbers 
     1.0000   1.0000   1.0000   1.0000   0.0000   0.0000   0.0000   0.0000

          k =-0.6364-0.0525 0.4082 (   824 PWs)   bands (ev):

    -1.2433   0.1645   2.1289  11.3138  14.2781  23.4284  26.5626  32.0527

     occupation numbers 
     1.0000   1.0000   1.0000   1.0000   0.0000   0.0000   0.0000   0.0000

          k = 0.3636-0.5249 0.4082 (   824 PWs)   bands (ev):

    -1.6208   0.4955   2.9210   8.3927  17.3568  22.4697  26.4053  35.7055

     occupation numbers 
     1.0000   1.0000   1.0000   1.0000   0.0000   0.0000   0.0000   0.0000

          k = 0.2727-0.5774 0.2598 (   830 PWs)   bands (ev):

    -2.3555   0.7775   3.1489   9.7764  15.8585  24.2316  26.4722  34.1663

     occupation numbers 
     1.0000   1.0000   1.0000   1.0000   0.0000   0.0000   0.0000   0.0000

          k =-0.6364-0.0525-0.2598 (   830 PWs)   bands (ev):

    -1.9482  -0.3397   3.2239   9.3291  17.4793  24.0490  28.8078  33.1899

     occupation numbers 
     1.0000   1.0000   1.0000   1.0000   0.0000   0.0000   0.0000   0.0000

          k = 0.3636-0.5249-0.2598 (   830 PWs)   bands (ev):

    -1.6680  -0.5866   2.5136  10.5379  16.5490  26.1110  27.1041  31.7554

     occupation numbers 
     1.0000   1.0000   1.0000   1.0000   0.0000   0.0000   0.0000   0.0000

          k =-0.6364 0.0525 0.2598 (   830 PWs)   bands (ev):

    -1.6589  -0.6408   2.7945  10.8625  15.8578  25.1274  27.2972  31.8617

     occupation numbers 
     1.0000   1.0000   1.0000   1.0000   0.0000   0.0000   0.0000   0.0000

          k = 0.3636 0.5249 0.2598 (   830 PWs)   bands (ev):

    -1.8394  -0.3278   2.6212   9.6878  17.5689  24.9199  29.2311  32.1132

     occupation numbers 
     1.0000   1.0000   1.0000   1.0000   0.0000   0.0000   0.0000   0.0000

     the Fermi energy is    12.5023 ev

!    total energy              =     -22.04083112 Ry
     estimated scf accuracy    <          8.0E-11 Ry
     smearing contrib. (-TS)   =       0.00004876 Ry
     internal energy E=F+TS    =     -22.04087988 Ry

     The total energy is F=E-TS. E is the sum of the following terms:
     one-electron contribution =       0.49119872 Ry
     hartree contribution      =       6.31834306 Ry
     xc contribution           =     -10.66951150 Ry
     ewald contribution        =     -18.18091016 Ry

     convergence has been achieved in  11 iterations

     Forces acting on atoms (cartesian axes, Ry/au):

     atom    1 type  1   force =    -4.76508568    7.05798824  -11.73402920
     atom    2 type  2   force =     4.76508568   -7.05798824   11.73402920
     The non-local contrib.  to forces
     atom    1 type  1   force =    -0.93120883    1.87441309   -3.05423313
     atom    2 type  2   force =     0.06363923   -0.48059966    0.77192669
     The ionic contribution  to forces
     atom    1 type  1   force =    -7.07490566    9.50945717  -15.91125279
     atom    2 type  2   force =     7.07490566   -9.50945717   15.91125279
     The local contribution  to forces
     atom    1 type  1   force =     3.13280843   -4.16597450    6.96527018
     atom    2 type  2   force =    -2.31211277    2.84262133   -4.79960394
     The core correction contribution to forces
     atom    1 type  1   force =     0.10821989   -0.15990816    0.26618755
     atom    2 type  2   force =    -0.06135394    0.08945338   -0.14955774
     The Hubbard contrib.    to forces
     atom    1 type  1   force =     0.00000000    0.00000000    0.00000000
     atom    2 type  2   force =     0.00000000    0.00000000    0.00000000
     The SCF correction term to forces
     atom    1 type  1   force =    -0.00000001    0.00000049   -0.00000074
     atom    2 type  2   force =     0.00000701   -0.00000626    0.00001167

     Total force =    20.504082     Total SCF correction =     0.000015


     Computing stress (Cartesian axis) and pressure

          total   stress  (Ry/bohr**3)                   (kbar)     P=    12643.22
   0.03592937  -0.04277177   0.07016739         5285.39    -6291.94    10321.98
  -0.04277177   0.06104222  -0.08964845        -6291.94     8979.62   -13187.74
   0.07016739  -0.08964845   0.16086907        10321.98   -13187.74    23664.66

     kinetic stress (kbar)  36318.58    244.18   -600.23
                              244.18  35710.20   1751.14
                             -600.23   1751.14  34205.07

     local   stress (kbar)   1200.62   1742.12  -3341.21
                             1742.12  -2663.81   6079.81
                            -3341.21   6079.81  -9066.46

     nonloc. stress (kbar)  -4415.49      7.97    -47.15
                                7.97  -4141.81   -279.43
                              -47.15   -279.43  -3914.60

     hartree stress (kbar)   3859.40    -15.29    124.01
                              -15.29   4550.21   -525.03
                              124.01   -525.03   5068.36

     exc-cor stress (kbar)  -1945.21    -10.54     21.87
                              -10.54  -1914.34    -47.30
                               21.87    -47.30  -1866.96

     corecor stress (kbar)  -4715.81     31.02    -49.87
                               31.02  -4739.40     72.47
                              -49.87     72.47  -4816.28

     ewald   stress (kbar) -25016.69  -8291.40  14214.56
                            -8291.40 -17821.43 -20239.40
                            14214.56 -20239.40   4055.54

     hubbard stress (kbar)      0.00      0.00      0.00
                                0.00      0.00      0.00
                                0.00      0.00      0.00

     DFT-D   stress (kbar)      0.00      0.00      0.00
                                0.00      0.00      0.00
                                0.00      0.00      0.00

     XDM     stress (kbar)      0.00      0.00      0.00
                                0.00      0.00      0.00
                                0.00      0.00      0.00

     dft-nl  stress (kbar)      0.00      0.00      0.00
                                0.00      0.00      0.00
                                0.00      0.00      0.00

     TS-vdW  stress (kbar)      0.00      0.00      0.00
                                0.00      0.00      0.00
                                0.00      0.00      0.00



     init_run     :      0.41s CPU      1.25s WALL (       1 calls)
     electrons    :     14.23s CPU     15.74s WALL (       1 calls)
     forces       :      0.06s CPU      0.07s WALL (       1 calls)
     stress       :      0.18s CPU      0.18s WALL (       1 calls)

     Called by init_run:
     wfcinit      :      0.38s CPU      0.82s WALL (       1 calls)
     wfcinit:atom :      0.01s CPU      0.01s WALL (     666 calls)
     wfcinit:wfcr :      0.35s CPU      0.79s WALL (     666 calls)
     potinit      :      0.00s CPU      0.05s WALL (       1 calls)
     hinit0       :      0.02s CPU      0.29s WALL (       1 calls)

     Called by electrons:
     c_bands      :     12.30s CPU     13.35s WALL (      11 calls)
     sum_band     :      1.88s CPU      2.19s WALL (      11 calls)
     v_of_rho     :      0.01s CPU      0.02s WALL (      12 calls)
     v_h          :      0.00s CPU      0.00s WALL (      12 calls)
     v_xc         :      0.02s CPU      0.02s WALL (      14 calls)
     newd         :      0.01s CPU      0.05s WALL (      12 calls)
     mix_rho      :      0.02s CPU      0.12s WALL (      11 calls)

     Called by c_bands:
     init_us_2    :      0.23s CPU      0.25s WALL (   16650 calls)
     cegterg      :     11.96s CPU     12.98s WALL (    7326 calls)

     Called by sum_band:
     sum_band:wei :      0.02s CPU      0.02s WALL (      11 calls)
     sum_band:loo :      1.85s CPU      2.14s WALL (      11 calls)
     sum_band:buf :      0.02s CPU      0.02s WALL (    7326 calls)
     sum_band:ini :      0.10s CPU      0.11s WALL (    7326 calls)
     sum_band:cal :      0.10s CPU      0.11s WALL (    7326 calls)
     sum_band:bec :      0.01s CPU      0.13s WALL (    7326 calls)
     addusdens    :      0.01s CPU      0.02s WALL (      11 calls)
     addusd:skk   :      0.00s CPU      0.00s WALL (      11 calls)
     addusd:dgemm :      0.00s CPU      0.02s WALL (      11 calls)
     addusd:qvan2 :      0.00s CPU      0.00s WALL (      11 calls)

     Called by *egterg:
     cdiaghg      :      1.65s CPU      2.16s WALL (   27919 calls)
     cegterg:over :      0.48s CPU      0.52s WALL (   20593 calls)
     cegterg:upda :      0.08s CPU      0.08s WALL (   20593 calls)
     cegterg:last :      0.10s CPU      0.11s WALL (   15703 calls)
     h_psi        :      9.39s CPU     10.22s WALL (   28585 calls)
     s_psi        :      0.09s CPU      0.10s WALL (   28585 calls)
     g_psi        :      0.03s CPU      0.03s WALL (   20593 calls)

     Called by h_psi:
     h_psi:calbec :      0.37s CPU      0.45s WALL (   28585 calls)
     vloc_psi     :      8.81s CPU      9.54s WALL (   28585 calls)
     add_vuspsi   :      0.12s CPU      0.14s WALL (   28585 calls)

     General routines
     calbec       :      0.49s CPU      0.58s WALL (   39241 calls)
     fft          :      0.01s CPU      0.25s WALL (     179 calls)
     ffts         :      0.00s CPU      0.03s WALL (      23 calls)
     fftw         :      9.76s CPU     10.59s WALL (  377148 calls)
     interpolate  :      0.00s CPU      0.03s WALL (      12 calls)

     Parallel routines
     fft_scatt_xy :      0.82s CPU      0.89s WALL (  377350 calls)
     fft_scatt_yz :      3.19s CPU      3.46s WALL (  377350 calls)

     PWSCF        :     14.98s CPU     18.55s WALL


   This run was terminated on:  21:18: 2  28Sep2022            

=------------------------------------------------------------------------------=
   JOB DONE.
=------------------------------------------------------------------------------=
Note: The following floating-point exceptions are signalling: IEEE_UNDERFLOW_FLAG IEEE_DENORMAL
