
     Program PWSCF v.6.7MaX starts on 28Sep2022 at 21:16:14 

     This program is part of the open-source Quantum ESPRESSO suite
     for quantum simulation of materials; please cite
         "P. Giannozzi et al., J. Phys.:Condens. Matter 21 395502 (2009);
         "P. Giannozzi et al., J. Phys.:Condens. Matter 29 465901 (2017);
          URL http://www.quantum-espresso.org", 
     in publications or presentations arising from this work. More details at
     http://www.quantum-espresso.org/quote

     Parallel version (MPI), running on    16 processors

     MPI processes distributed on     1 nodes
     R & G space division:  proc/nbgrp/npool/nimage =      16
     Reading input from scale_1da-04.in

     Current dimensions of program PWSCF are:
     Max number of different atomic species (ntypx) = 10
     Max number of k-points (npk) =  40000
     Max angular momentum in pseudopotentials (lmaxx) =  3
     Message from routine read_pp_mesh:
     mesh size missing, using the one in header

     Subspace diagonalization in iterative solution of the eigenvalue problem:
     a serial algorithm will be used


     Parallelization info
     --------------------
     sticks:   dense  smooth     PW     G-vecs:    dense   smooth      PW
     Min          45      33     10                  807      500      93
     Max          47      34     11                  810      502      96
     Sum         735     533    175                12939     8005    1507



     bravais-lattice index     =            0
     lattice parameter (alat)  =       5.0068  a.u.
     unit-cell volume          =      83.1144 (a.u.)^3
     number of atoms/cell      =            2
     number of atomic types    =            2
     number of electrons       =         8.00
     number of Kohn-Sham states=            8
     kinetic-energy cutoff     =      80.0000  Ry
     charge density cutoff     =     440.0000  Ry
     scf convergence threshold =      2.0E-10
     mixing beta               =       0.4000
     number of iterations used =            8  plain     mixing
     Exchange-correlation= PBE
                           (   1   4   3   4   0   0   0)

     celldm(1)=   5.006766  celldm(2)=   0.000000  celldm(3)=   0.000000
     celldm(4)=   0.000000  celldm(5)=   0.000000  celldm(6)=   0.000000

     crystal axes: (cart. coord. in units of alat)
               a(1) = (   1.000000   0.000000   0.000000 )  
               a(2) = (   0.483871   0.838089   0.000000 )  
               a(3) = (   0.483871   0.279363   0.790158 )  

     reciprocal axes: (cart. coord. in units 2 pi/alat)
               b(1) = (  1.000000 -0.577350 -0.408248 )  
               b(2) = (  0.000000  1.193191 -0.421857 )  
               b(3) = (  0.000000  0.000000  1.265570 )  


     PseudoPot. # 1 for B  read from file:
     /opt/QEpot/SSSP_precision_pseudos/B_pbe_v1.01.uspp.F.UPF
     MD5 check sum: d081ebb89d0c768e112975f650467a00
     Pseudo is Ultrasoft + core correction, Zval =  3.0
     Generated by new atomic code, or converted to UPF format
     Using radial grid of  781 points,  4 beta functions with: 
                l(1) =   0
                l(2) =   0
                l(3) =   1
                l(4) =   1
     Q(r) pseudized with  8 coefficients,  rinner =    1.100   1.100   1.100


     PseudoPot. # 2 for N  read from file:
     /opt/QEpot/SSSP_precision_pseudos/N.oncvpsp.upf
     MD5 check sum: 563d65bfb082928f0c9eb97172f6c357
     Pseudo is Norm-conserving + core correction, Zval =  5.0
     Generated using ONCVPSP code by D. R. Hamann
     Using radial grid of 1058 points,  4 beta functions with: 
                l(1) =   0
                l(2) =   0
                l(3) =   1
                l(4) =   1

     atomic species   valence    mass     pseudopotential
        B              3.00    10.81000     B ( 1.00)
        N              5.00    14.00700     N ( 1.00)

     No symmetry found


                                    s                        frac. trans.

      isym =  1     identity                                     

 cryst.   s( 1) = (     1          0          0      )
                  (     0          1          0      )
                  (     0          0          1      )

 cart.    s( 1) = (  1.0000000  0.0000000  0.0000000 )
                  (  0.0000000  1.0000000  0.0000000 )
                  (  0.0000000  0.0000000  1.0000000 )


   Cartesian axes

     site n.     atom                  positions (alat units)
         1           B   tau(   1) = (   0.3740196   0.3747703   0.0020292  )
         2           N   tau(   2) = (   0.1110862   0.2766989   0.1995687  )

   Crystallographic axes

     site n.     atom                  positions (cryst. coord.)
         1           B   tau(   1) = (  0.1568175  0.4463163  0.0025681  )
         2           N   tau(   2) = ( -0.1301395  0.2459651  0.2525681  )

     number of k points=   666  Marzari-Vanderbilt smearing, width (Ry)=  0.0220
                       cart. coord. in units 2pi/alat
        k(    1) = (   0.0000000   0.0000000   0.0000000), wk =   0.0015026
        k(    2) = (   0.0000000   0.0000000   0.1150518), wk =   0.0030053
        k(    3) = (   0.0000000   0.0000000   0.2301036), wk =   0.0030053
        k(    4) = (   0.0000000   0.0000000   0.3451554), wk =   0.0030053
        k(    5) = (   0.0000000   0.0000000   0.4602072), wk =   0.0030053
        k(    6) = (   0.0000000   0.0000000   0.5752590), wk =   0.0030053
        k(    7) = (   0.0000000   0.1084719  -0.0383506), wk =   0.0030053
        k(    8) = (   0.0000000   0.1084719   0.0767012), wk =   0.0030053
        k(    9) = (   0.0000000   0.1084719   0.1917530), wk =   0.0030053
        k(   10) = (   0.0000000   0.1084719   0.3068048), wk =   0.0030053
        k(   11) = (   0.0000000   0.1084719   0.4218566), wk =   0.0030053
        k(   12) = (   0.0000000   0.1084719   0.5369084), wk =   0.0030053
        k(   13) = (   0.0000000   0.1084719  -0.6136096), wk =   0.0030053
        k(   14) = (   0.0000000   0.1084719  -0.4985578), wk =   0.0030053
        k(   15) = (   0.0000000   0.1084719  -0.3835060), wk =   0.0030053
        k(   16) = (   0.0000000   0.1084719  -0.2684542), wk =   0.0030053
        k(   17) = (   0.0000000   0.1084719  -0.1534024), wk =   0.0030053
        k(   18) = (   0.0000000   0.2169437  -0.0767012), wk =   0.0030053
        k(   19) = (   0.0000000   0.2169437   0.0383506), wk =   0.0030053
        k(   20) = (   0.0000000   0.2169437   0.1534024), wk =   0.0030053
        k(   21) = (   0.0000000   0.2169437   0.2684542), wk =   0.0030053
        k(   22) = (   0.0000000   0.2169437   0.3835060), wk =   0.0030053
        k(   23) = (   0.0000000   0.2169437   0.4985578), wk =   0.0030053
        k(   24) = (   0.0000000   0.2169437  -0.6519601), wk =   0.0030053
        k(   25) = (   0.0000000   0.2169437  -0.5369084), wk =   0.0030053
        k(   26) = (   0.0000000   0.2169437  -0.4218566), wk =   0.0030053
        k(   27) = (   0.0000000   0.2169437  -0.3068048), wk =   0.0030053
        k(   28) = (   0.0000000   0.2169437  -0.1917530), wk =   0.0030053
        k(   29) = (   0.0000000   0.3254156  -0.1150518), wk =   0.0030053
        k(   30) = (   0.0000000   0.3254156   0.0000000), wk =   0.0030053
        k(   31) = (   0.0000000   0.3254156   0.1150518), wk =   0.0030053
        k(   32) = (   0.0000000   0.3254156   0.2301036), wk =   0.0030053
        k(   33) = (   0.0000000   0.3254156   0.3451554), wk =   0.0030053
        k(   34) = (   0.0000000   0.3254156   0.4602072), wk =   0.0030053
        k(   35) = (   0.0000000   0.3254156  -0.6903107), wk =   0.0030053
        k(   36) = (   0.0000000   0.3254156  -0.5752590), wk =   0.0030053
        k(   37) = (   0.0000000   0.3254156  -0.4602072), wk =   0.0030053
        k(   38) = (   0.0000000   0.3254156  -0.3451554), wk =   0.0030053
        k(   39) = (   0.0000000   0.3254156  -0.2301036), wk =   0.0030053
        k(   40) = (   0.0000000   0.4338875  -0.1534024), wk =   0.0030053
        k(   41) = (   0.0000000   0.4338875  -0.0383506), wk =   0.0030053
        k(   42) = (   0.0000000   0.4338875   0.0767012), wk =   0.0030053
        k(   43) = (   0.0000000   0.4338875   0.1917530), wk =   0.0030053
        k(   44) = (   0.0000000   0.4338875   0.3068048), wk =   0.0030053
        k(   45) = (   0.0000000   0.4338875   0.4218566), wk =   0.0030053
        k(   46) = (   0.0000000   0.4338875  -0.7286613), wk =   0.0030053
        k(   47) = (   0.0000000   0.4338875  -0.6136096), wk =   0.0030053
        k(   48) = (   0.0000000   0.4338875  -0.4985578), wk =   0.0030053
        k(   49) = (   0.0000000   0.4338875  -0.3835060), wk =   0.0030053
        k(   50) = (   0.0000000   0.4338875  -0.2684542), wk =   0.0030053
        k(   51) = (   0.0000000   0.5423593  -0.1917530), wk =   0.0030053
        k(   52) = (   0.0000000   0.5423593  -0.0767012), wk =   0.0030053
        k(   53) = (   0.0000000   0.5423593   0.0383506), wk =   0.0030053
        k(   54) = (   0.0000000   0.5423593   0.1534024), wk =   0.0030053
        k(   55) = (   0.0000000   0.5423593   0.2684542), wk =   0.0030053
        k(   56) = (   0.0000000   0.5423593   0.3835060), wk =   0.0030053
        k(   57) = (   0.0000000   0.5423593  -0.7670119), wk =   0.0030053
        k(   58) = (   0.0000000   0.5423593  -0.6519601), wk =   0.0030053
        k(   59) = (   0.0000000   0.5423593  -0.5369084), wk =   0.0030053
        k(   60) = (   0.0000000   0.5423593  -0.4218566), wk =   0.0030053
        k(   61) = (   0.0000000   0.5423593  -0.3068048), wk =   0.0030053
        k(   62) = (   0.0909091  -0.0524864  -0.0371135), wk =   0.0030053
        k(   63) = (   0.0909091  -0.0524864   0.0779383), wk =   0.0030053
        k(   64) = (   0.0909091  -0.0524864   0.1929901), wk =   0.0030053
        k(   65) = (   0.0909091  -0.0524864   0.3080419), wk =   0.0030053
        k(   66) = (   0.0909091  -0.0524864   0.4230937), wk =   0.0030053
        k(   67) = (   0.0909091  -0.0524864   0.5381455), wk =   0.0030053
        k(   68) = (   0.0909091  -0.0524864  -0.6123724), wk =   0.0030053
        k(   69) = (   0.0909091  -0.0524864  -0.4973206), wk =   0.0030053
        k(   70) = (   0.0909091  -0.0524864  -0.3822689), wk =   0.0030053
        k(   71) = (   0.0909091  -0.0524864  -0.2672171), wk =   0.0030053
        k(   72) = (   0.0909091  -0.0524864  -0.1521653), wk =   0.0030053
        k(   73) = (   0.0909091   0.0559855  -0.0754641), wk =   0.0030053
        k(   74) = (   0.0909091   0.0559855   0.0395877), wk =   0.0030053
        k(   75) = (   0.0909091   0.0559855   0.1546395), wk =   0.0030053
        k(   76) = (   0.0909091   0.0559855   0.2696913), wk =   0.0030053
        k(   77) = (   0.0909091   0.0559855   0.3847431), wk =   0.0030053
        k(   78) = (   0.0909091   0.0559855   0.4997949), wk =   0.0030053
        k(   79) = (   0.0909091   0.0559855  -0.6507230), wk =   0.0030053
        k(   80) = (   0.0909091   0.0559855  -0.5356712), wk =   0.0030053
        k(   81) = (   0.0909091   0.0559855  -0.4206195), wk =   0.0030053
        k(   82) = (   0.0909091   0.0559855  -0.3055677), wk =   0.0030053
        k(   83) = (   0.0909091   0.0559855  -0.1905159), wk =   0.0030053
        k(   84) = (   0.0909091   0.1644573  -0.1138147), wk =   0.0030053
        k(   85) = (   0.0909091   0.1644573   0.0012371), wk =   0.0030053
        k(   86) = (   0.0909091   0.1644573   0.1162889), wk =   0.0030053
        k(   87) = (   0.0909091   0.1644573   0.2313407), wk =   0.0030053
        k(   88) = (   0.0909091   0.1644573   0.3463925), wk =   0.0030053
        k(   89) = (   0.0909091   0.1644573   0.4614443), wk =   0.0030053
        k(   90) = (   0.0909091   0.1644573  -0.6890736), wk =   0.0030053
        k(   91) = (   0.0909091   0.1644573  -0.5740218), wk =   0.0030053
        k(   92) = (   0.0909091   0.1644573  -0.4589700), wk =   0.0030053
        k(   93) = (   0.0909091   0.1644573  -0.3439183), wk =   0.0030053
        k(   94) = (   0.0909091   0.1644573  -0.2288665), wk =   0.0030053
        k(   95) = (   0.0909091   0.2729292  -0.1521653), wk =   0.0030053
        k(   96) = (   0.0909091   0.2729292  -0.0371135), wk =   0.0030053
        k(   97) = (   0.0909091   0.2729292   0.0779383), wk =   0.0030053
        k(   98) = (   0.0909091   0.2729292   0.1929901), wk =   0.0030053
        k(   99) = (   0.0909091   0.2729292   0.3080419), wk =   0.0030053
        k(  100) = (   0.0909091   0.2729292   0.4230937), wk =   0.0030053
        k(  101) = (   0.0909091   0.2729292  -0.7274242), wk =   0.0030053
        k(  102) = (   0.0909091   0.2729292  -0.6123724), wk =   0.0030053
        k(  103) = (   0.0909091   0.2729292  -0.4973206), wk =   0.0030053
        k(  104) = (   0.0909091   0.2729292  -0.3822689), wk =   0.0030053
        k(  105) = (   0.0909091   0.2729292  -0.2672171), wk =   0.0030053
        k(  106) = (   0.0909091   0.3814011  -0.1905159), wk =   0.0030053
        k(  107) = (   0.0909091   0.3814011  -0.0754641), wk =   0.0030053
        k(  108) = (   0.0909091   0.3814011   0.0395877), wk =   0.0030053
        k(  109) = (   0.0909091   0.3814011   0.1546395), wk =   0.0030053
        k(  110) = (   0.0909091   0.3814011   0.2696913), wk =   0.0030053
        k(  111) = (   0.0909091   0.3814011   0.3847431), wk =   0.0030053
        k(  112) = (   0.0909091   0.3814011  -0.7657748), wk =   0.0030053
        k(  113) = (   0.0909091   0.3814011  -0.6507230), wk =   0.0030053
        k(  114) = (   0.0909091   0.3814011  -0.5356712), wk =   0.0030053
        k(  115) = (   0.0909091   0.3814011  -0.4206195), wk =   0.0030053
        k(  116) = (   0.0909091   0.3814011  -0.3055677), wk =   0.0030053
        k(  117) = (   0.0909091   0.4898730  -0.2288665), wk =   0.0030053
        k(  118) = (   0.0909091   0.4898730  -0.1138147), wk =   0.0030053
        k(  119) = (   0.0909091   0.4898730   0.0012371), wk =   0.0030053
        k(  120) = (   0.0909091   0.4898730   0.1162889), wk =   0.0030053
        k(  121) = (   0.0909091   0.4898730   0.2313407), wk =   0.0030053
        k(  122) = (   0.0909091   0.4898730   0.3463925), wk =   0.0030053
        k(  123) = (   0.0909091   0.4898730  -0.8041254), wk =   0.0030053
        k(  124) = (   0.0909091   0.4898730  -0.6890736), wk =   0.0030053
        k(  125) = (   0.0909091   0.4898730  -0.5740218), wk =   0.0030053
        k(  126) = (   0.0909091   0.4898730  -0.4589700), wk =   0.0030053
        k(  127) = (   0.0909091   0.4898730  -0.3439183), wk =   0.0030053
        k(  128) = (   0.0909091  -0.5948457   0.1546395), wk =   0.0030053
        k(  129) = (   0.0909091  -0.5948457   0.2696913), wk =   0.0030053
        k(  130) = (   0.0909091  -0.5948457   0.3847431), wk =   0.0030053
        k(  131) = (   0.0909091  -0.5948457   0.4997949), wk =   0.0030053
        k(  132) = (   0.0909091  -0.5948457   0.6148467), wk =   0.0030053
        k(  133) = (   0.0909091  -0.5948457   0.7298985), wk =   0.0030053
        k(  134) = (   0.0909091  -0.5948457  -0.4206195), wk =   0.0030053
        k(  135) = (   0.0909091  -0.5948457  -0.3055677), wk =   0.0030053
        k(  136) = (   0.0909091  -0.5948457  -0.1905159), wk =   0.0030053
        k(  137) = (   0.0909091  -0.5948457  -0.0754641), wk =   0.0030053
        k(  138) = (   0.0909091  -0.5948457   0.0395877), wk =   0.0030053
        k(  139) = (   0.0909091  -0.4863739   0.1162889), wk =   0.0030053
        k(  140) = (   0.0909091  -0.4863739   0.2313407), wk =   0.0030053
        k(  141) = (   0.0909091  -0.4863739   0.3463925), wk =   0.0030053
        k(  142) = (   0.0909091  -0.4863739   0.4614443), wk =   0.0030053
        k(  143) = (   0.0909091  -0.4863739   0.5764961), wk =   0.0030053
        k(  144) = (   0.0909091  -0.4863739   0.6915479), wk =   0.0030053
        k(  145) = (   0.0909091  -0.4863739  -0.4589700), wk =   0.0030053
        k(  146) = (   0.0909091  -0.4863739  -0.3439183), wk =   0.0030053
        k(  147) = (   0.0909091  -0.4863739  -0.2288665), wk =   0.0030053
        k(  148) = (   0.0909091  -0.4863739  -0.1138147), wk =   0.0030053
        k(  149) = (   0.0909091  -0.4863739   0.0012371), wk =   0.0030053
        k(  150) = (   0.0909091  -0.3779020   0.0779383), wk =   0.0030053
        k(  151) = (   0.0909091  -0.3779020   0.1929901), wk =   0.0030053
        k(  152) = (   0.0909091  -0.3779020   0.3080419), wk =   0.0030053
        k(  153) = (   0.0909091  -0.3779020   0.4230937), wk =   0.0030053
        k(  154) = (   0.0909091  -0.3779020   0.5381455), wk =   0.0030053
        k(  155) = (   0.0909091  -0.3779020   0.6531973), wk =   0.0030053
        k(  156) = (   0.0909091  -0.3779020  -0.4973206), wk =   0.0030053
        k(  157) = (   0.0909091  -0.3779020  -0.3822689), wk =   0.0030053
        k(  158) = (   0.0909091  -0.3779020  -0.2672171), wk =   0.0030053
        k(  159) = (   0.0909091  -0.3779020  -0.1521653), wk =   0.0030053
        k(  160) = (   0.0909091  -0.3779020  -0.0371135), wk =   0.0030053
        k(  161) = (   0.0909091  -0.2694301   0.0395877), wk =   0.0030053
        k(  162) = (   0.0909091  -0.2694301   0.1546395), wk =   0.0030053
        k(  163) = (   0.0909091  -0.2694301   0.2696913), wk =   0.0030053
        k(  164) = (   0.0909091  -0.2694301   0.3847431), wk =   0.0030053
        k(  165) = (   0.0909091  -0.2694301   0.4997949), wk =   0.0030053
        k(  166) = (   0.0909091  -0.2694301   0.6148467), wk =   0.0030053
        k(  167) = (   0.0909091  -0.2694301  -0.5356712), wk =   0.0030053
        k(  168) = (   0.0909091  -0.2694301  -0.4206195), wk =   0.0030053
        k(  169) = (   0.0909091  -0.2694301  -0.3055677), wk =   0.0030053
        k(  170) = (   0.0909091  -0.2694301  -0.1905159), wk =   0.0030053
        k(  171) = (   0.0909091  -0.2694301  -0.0754641), wk =   0.0030053
        k(  172) = (   0.0909091  -0.1609583   0.0012371), wk =   0.0030053
        k(  173) = (   0.0909091  -0.1609583   0.1162889), wk =   0.0030053
        k(  174) = (   0.0909091  -0.1609583   0.2313407), wk =   0.0030053
        k(  175) = (   0.0909091  -0.1609583   0.3463925), wk =   0.0030053
        k(  176) = (   0.0909091  -0.1609583   0.4614443), wk =   0.0030053
        k(  177) = (   0.0909091  -0.1609583   0.5764961), wk =   0.0030053
        k(  178) = (   0.0909091  -0.1609583  -0.5740218), wk =   0.0030053
        k(  179) = (   0.0909091  -0.1609583  -0.4589700), wk =   0.0030053
        k(  180) = (   0.0909091  -0.1609583  -0.3439183), wk =   0.0030053
        k(  181) = (   0.0909091  -0.1609583  -0.2288665), wk =   0.0030053
        k(  182) = (   0.0909091  -0.1609583  -0.1138147), wk =   0.0030053
        k(  183) = (   0.1818182  -0.1049728  -0.0742270), wk =   0.0030053
        k(  184) = (   0.1818182  -0.1049728   0.0408248), wk =   0.0030053
        k(  185) = (   0.1818182  -0.1049728   0.1558766), wk =   0.0030053
        k(  186) = (   0.1818182  -0.1049728   0.2709284), wk =   0.0030053
        k(  187) = (   0.1818182  -0.1049728   0.3859802), wk =   0.0030053
        k(  188) = (   0.1818182  -0.1049728   0.5010320), wk =   0.0030053
        k(  189) = (   0.1818182  -0.1049728  -0.6494859), wk =   0.0030053
        k(  190) = (   0.1818182  -0.1049728  -0.5344341), wk =   0.0030053
        k(  191) = (   0.1818182  -0.1049728  -0.4193823), wk =   0.0030053
        k(  192) = (   0.1818182  -0.1049728  -0.3043305), wk =   0.0030053
        k(  193) = (   0.1818182  -0.1049728  -0.1892788), wk =   0.0030053
        k(  194) = (   0.1818182   0.0034991  -0.1125776), wk =   0.0030053
        k(  195) = (   0.1818182   0.0034991   0.0024742), wk =   0.0030053
        k(  196) = (   0.1818182   0.0034991   0.1175260), wk =   0.0030053
        k(  197) = (   0.1818182   0.0034991   0.2325778), wk =   0.0030053
        k(  198) = (   0.1818182   0.0034991   0.3476296), wk =   0.0030053
        k(  199) = (   0.1818182   0.0034991   0.4626814), wk =   0.0030053
        k(  200) = (   0.1818182   0.0034991  -0.6878365), wk =   0.0030053
        k(  201) = (   0.1818182   0.0034991  -0.5727847), wk =   0.0030053
        k(  202) = (   0.1818182   0.0034991  -0.4577329), wk =   0.0030053
        k(  203) = (   0.1818182   0.0034991  -0.3426811), wk =   0.0030053
        k(  204) = (   0.1818182   0.0034991  -0.2276293), wk =   0.0030053
        k(  205) = (   0.1818182   0.1119710  -0.1509282), wk =   0.0030053
        k(  206) = (   0.1818182   0.1119710  -0.0358764), wk =   0.0030053
        k(  207) = (   0.1818182   0.1119710   0.0791754), wk =   0.0030053
        k(  208) = (   0.1818182   0.1119710   0.1942272), wk =   0.0030053
        k(  209) = (   0.1818182   0.1119710   0.3092790), wk =   0.0030053
        k(  210) = (   0.1818182   0.1119710   0.4243308), wk =   0.0030053
        k(  211) = (   0.1818182   0.1119710  -0.7261871), wk =   0.0030053
        k(  212) = (   0.1818182   0.1119710  -0.6111353), wk =   0.0030053
        k(  213) = (   0.1818182   0.1119710  -0.4960835), wk =   0.0030053
        k(  214) = (   0.1818182   0.1119710  -0.3810317), wk =   0.0030053
        k(  215) = (   0.1818182   0.1119710  -0.2659799), wk =   0.0030053
        k(  216) = (   0.1818182   0.2204428  -0.1892788), wk =   0.0030053
        k(  217) = (   0.1818182   0.2204428  -0.0742270), wk =   0.0030053
        k(  218) = (   0.1818182   0.2204428   0.0408248), wk =   0.0030053
        k(  219) = (   0.1818182   0.2204428   0.1558766), wk =   0.0030053
        k(  220) = (   0.1818182   0.2204428   0.2709284), wk =   0.0030053
        k(  221) = (   0.1818182   0.2204428   0.3859802), wk =   0.0030053
        k(  222) = (   0.1818182   0.2204428  -0.7645377), wk =   0.0030053
        k(  223) = (   0.1818182   0.2204428  -0.6494859), wk =   0.0030053
        k(  224) = (   0.1818182   0.2204428  -0.5344341), wk =   0.0030053
        k(  225) = (   0.1818182   0.2204428  -0.4193823), wk =   0.0030053
        k(  226) = (   0.1818182   0.2204428  -0.3043305), wk =   0.0030053
        k(  227) = (   0.1818182   0.3289147  -0.2276293), wk =   0.0030053
        k(  228) = (   0.1818182   0.3289147  -0.1125776), wk =   0.0030053
        k(  229) = (   0.1818182   0.3289147   0.0024742), wk =   0.0030053
        k(  230) = (   0.1818182   0.3289147   0.1175260), wk =   0.0030053
        k(  231) = (   0.1818182   0.3289147   0.2325778), wk =   0.0030053
        k(  232) = (   0.1818182   0.3289147   0.3476296), wk =   0.0030053
        k(  233) = (   0.1818182   0.3289147  -0.8028883), wk =   0.0030053
        k(  234) = (   0.1818182   0.3289147  -0.6878365), wk =   0.0030053
        k(  235) = (   0.1818182   0.3289147  -0.5727847), wk =   0.0030053
        k(  236) = (   0.1818182   0.3289147  -0.4577329), wk =   0.0030053
        k(  237) = (   0.1818182   0.3289147  -0.3426811), wk =   0.0030053
        k(  238) = (   0.1818182   0.4373866  -0.2659799), wk =   0.0030053
        k(  239) = (   0.1818182   0.4373866  -0.1509282), wk =   0.0030053
        k(  240) = (   0.1818182   0.4373866  -0.0358764), wk =   0.0030053
        k(  241) = (   0.1818182   0.4373866   0.0791754), wk =   0.0030053
        k(  242) = (   0.1818182   0.4373866   0.1942272), wk =   0.0030053
        k(  243) = (   0.1818182   0.4373866   0.3092790), wk =   0.0030053
        k(  244) = (   0.1818182   0.4373866  -0.8412389), wk =   0.0030053
        k(  245) = (   0.1818182   0.4373866  -0.7261871), wk =   0.0030053
        k(  246) = (   0.1818182   0.4373866  -0.6111353), wk =   0.0030053
        k(  247) = (   0.1818182   0.4373866  -0.4960835), wk =   0.0030053
        k(  248) = (   0.1818182   0.4373866  -0.3810317), wk =   0.0030053
        k(  249) = (   0.1818182  -0.6473321   0.1175260), wk =   0.0030053
        k(  250) = (   0.1818182  -0.6473321   0.2325778), wk =   0.0030053
        k(  251) = (   0.1818182  -0.6473321   0.3476296), wk =   0.0030053
        k(  252) = (   0.1818182  -0.6473321   0.4626814), wk =   0.0030053
        k(  253) = (   0.1818182  -0.6473321   0.5777332), wk =   0.0030053
        k(  254) = (   0.1818182  -0.6473321   0.6927850), wk =   0.0030053
        k(  255) = (   0.1818182  -0.6473321  -0.4577329), wk =   0.0030053
        k(  256) = (   0.1818182  -0.6473321  -0.3426811), wk =   0.0030053
        k(  257) = (   0.1818182  -0.6473321  -0.2276293), wk =   0.0030053
        k(  258) = (   0.1818182  -0.6473321  -0.1125776), wk =   0.0030053
        k(  259) = (   0.1818182  -0.6473321   0.0024742), wk =   0.0030053
        k(  260) = (   0.1818182  -0.5388603   0.0791754), wk =   0.0030053
        k(  261) = (   0.1818182  -0.5388603   0.1942272), wk =   0.0030053
        k(  262) = (   0.1818182  -0.5388603   0.3092790), wk =   0.0030053
        k(  263) = (   0.1818182  -0.5388603   0.4243308), wk =   0.0030053
        k(  264) = (   0.1818182  -0.5388603   0.5393826), wk =   0.0030053
        k(  265) = (   0.1818182  -0.5388603   0.6544344), wk =   0.0030053
        k(  266) = (   0.1818182  -0.5388603  -0.4960835), wk =   0.0030053
        k(  267) = (   0.1818182  -0.5388603  -0.3810317), wk =   0.0030053
        k(  268) = (   0.1818182  -0.5388603  -0.2659799), wk =   0.0030053
        k(  269) = (   0.1818182  -0.5388603  -0.1509282), wk =   0.0030053
        k(  270) = (   0.1818182  -0.5388603  -0.0358764), wk =   0.0030053
        k(  271) = (   0.1818182  -0.4303884   0.0408248), wk =   0.0030053
        k(  272) = (   0.1818182  -0.4303884   0.1558766), wk =   0.0030053
        k(  273) = (   0.1818182  -0.4303884   0.2709284), wk =   0.0030053
        k(  274) = (   0.1818182  -0.4303884   0.3859802), wk =   0.0030053
        k(  275) = (   0.1818182  -0.4303884   0.5010320), wk =   0.0030053
        k(  276) = (   0.1818182  -0.4303884   0.6160838), wk =   0.0030053
        k(  277) = (   0.1818182  -0.4303884  -0.5344341), wk =   0.0030053
        k(  278) = (   0.1818182  -0.4303884  -0.4193823), wk =   0.0030053
        k(  279) = (   0.1818182  -0.4303884  -0.3043305), wk =   0.0030053
        k(  280) = (   0.1818182  -0.4303884  -0.1892788), wk =   0.0030053
        k(  281) = (   0.1818182  -0.4303884  -0.0742270), wk =   0.0030053
        k(  282) = (   0.1818182  -0.3219165   0.0024742), wk =   0.0030053
        k(  283) = (   0.1818182  -0.3219165   0.1175260), wk =   0.0030053
        k(  284) = (   0.1818182  -0.3219165   0.2325778), wk =   0.0030053
        k(  285) = (   0.1818182  -0.3219165   0.3476296), wk =   0.0030053
        k(  286) = (   0.1818182  -0.3219165   0.4626814), wk =   0.0030053
        k(  287) = (   0.1818182  -0.3219165   0.5777332), wk =   0.0030053
        k(  288) = (   0.1818182  -0.3219165  -0.5727847), wk =   0.0030053
        k(  289) = (   0.1818182  -0.3219165  -0.4577329), wk =   0.0030053
        k(  290) = (   0.1818182  -0.3219165  -0.3426811), wk =   0.0030053
        k(  291) = (   0.1818182  -0.3219165  -0.2276293), wk =   0.0030053
        k(  292) = (   0.1818182  -0.3219165  -0.1125776), wk =   0.0030053
        k(  293) = (   0.1818182  -0.2134446  -0.0358764), wk =   0.0030053
        k(  294) = (   0.1818182  -0.2134446   0.0791754), wk =   0.0030053
        k(  295) = (   0.1818182  -0.2134446   0.1942272), wk =   0.0030053
        k(  296) = (   0.1818182  -0.2134446   0.3092790), wk =   0.0030053
        k(  297) = (   0.1818182  -0.2134446   0.4243308), wk =   0.0030053
        k(  298) = (   0.1818182  -0.2134446   0.5393826), wk =   0.0030053
        k(  299) = (   0.1818182  -0.2134446  -0.6111353), wk =   0.0030053
        k(  300) = (   0.1818182  -0.2134446  -0.4960835), wk =   0.0030053
        k(  301) = (   0.1818182  -0.2134446  -0.3810317), wk =   0.0030053
        k(  302) = (   0.1818182  -0.2134446  -0.2659799), wk =   0.0030053
        k(  303) = (   0.1818182  -0.2134446  -0.1509282), wk =   0.0030053
        k(  304) = (   0.2727273  -0.1574592  -0.1113404), wk =   0.0030053
        k(  305) = (   0.2727273  -0.1574592   0.0037113), wk =   0.0030053
        k(  306) = (   0.2727273  -0.1574592   0.1187631), wk =   0.0030053
        k(  307) = (   0.2727273  -0.1574592   0.2338149), wk =   0.0030053
        k(  308) = (   0.2727273  -0.1574592   0.3488667), wk =   0.0030053
        k(  309) = (   0.2727273  -0.1574592   0.4639185), wk =   0.0030053
        k(  310) = (   0.2727273  -0.1574592  -0.6865994), wk =   0.0030053
        k(  311) = (   0.2727273  -0.1574592  -0.5715476), wk =   0.0030053
        k(  312) = (   0.2727273  -0.1574592  -0.4564958), wk =   0.0030053
        k(  313) = (   0.2727273  -0.1574592  -0.3414440), wk =   0.0030053
        k(  314) = (   0.2727273  -0.1574592  -0.2263922), wk =   0.0030053
        k(  315) = (   0.2727273  -0.0489873  -0.1496910), wk =   0.0030053
        k(  316) = (   0.2727273  -0.0489873  -0.0346392), wk =   0.0030053
        k(  317) = (   0.2727273  -0.0489873   0.0804125), wk =   0.0030053
        k(  318) = (   0.2727273  -0.0489873   0.1954643), wk =   0.0030053
        k(  319) = (   0.2727273  -0.0489873   0.3105161), wk =   0.0030053
        k(  320) = (   0.2727273  -0.0489873   0.4255679), wk =   0.0030053
        k(  321) = (   0.2727273  -0.0489873  -0.7249500), wk =   0.0030053
        k(  322) = (   0.2727273  -0.0489873  -0.6098982), wk =   0.0030053
        k(  323) = (   0.2727273  -0.0489873  -0.4948464), wk =   0.0030053
        k(  324) = (   0.2727273  -0.0489873  -0.3797946), wk =   0.0030053
        k(  325) = (   0.2727273  -0.0489873  -0.2647428), wk =   0.0030053
        k(  326) = (   0.2727273   0.0594846  -0.1880416), wk =   0.0030053
        k(  327) = (   0.2727273   0.0594846  -0.0729898), wk =   0.0030053
        k(  328) = (   0.2727273   0.0594846   0.0420619), wk =   0.0030053
        k(  329) = (   0.2727273   0.0594846   0.1571137), wk =   0.0030053
        k(  330) = (   0.2727273   0.0594846   0.2721655), wk =   0.0030053
        k(  331) = (   0.2727273   0.0594846   0.3872173), wk =   0.0030053
        k(  332) = (   0.2727273   0.0594846  -0.7633006), wk =   0.0030053
        k(  333) = (   0.2727273   0.0594846  -0.6482488), wk =   0.0030053
        k(  334) = (   0.2727273   0.0594846  -0.5331970), wk =   0.0030053
        k(  335) = (   0.2727273   0.0594846  -0.4181452), wk =   0.0030053
        k(  336) = (   0.2727273   0.0594846  -0.3030934), wk =   0.0030053
        k(  337) = (   0.2727273   0.1679564  -0.2263922), wk =   0.0030053
        k(  338) = (   0.2727273   0.1679564  -0.1113404), wk =   0.0030053
        k(  339) = (   0.2727273   0.1679564   0.0037113), wk =   0.0030053
        k(  340) = (   0.2727273   0.1679564   0.1187631), wk =   0.0030053
        k(  341) = (   0.2727273   0.1679564   0.2338149), wk =   0.0030053
        k(  342) = (   0.2727273   0.1679564   0.3488667), wk =   0.0030053
        k(  343) = (   0.2727273   0.1679564  -0.8016512), wk =   0.0030053
        k(  344) = (   0.2727273   0.1679564  -0.6865994), wk =   0.0030053
        k(  345) = (   0.2727273   0.1679564  -0.5715476), wk =   0.0030053
        k(  346) = (   0.2727273   0.1679564  -0.4564958), wk =   0.0030053
        k(  347) = (   0.2727273   0.1679564  -0.3414440), wk =   0.0030053
        k(  348) = (   0.2727273   0.2764283  -0.2647428), wk =   0.0030053
        k(  349) = (   0.2727273   0.2764283  -0.1496910), wk =   0.0030053
        k(  350) = (   0.2727273   0.2764283  -0.0346392), wk =   0.0030053
        k(  351) = (   0.2727273   0.2764283   0.0804125), wk =   0.0030053
        k(  352) = (   0.2727273   0.2764283   0.1954643), wk =   0.0030053
        k(  353) = (   0.2727273   0.2764283   0.3105161), wk =   0.0030053
        k(  354) = (   0.2727273   0.2764283  -0.8400018), wk =   0.0030053
        k(  355) = (   0.2727273   0.2764283  -0.7249500), wk =   0.0030053
        k(  356) = (   0.2727273   0.2764283  -0.6098982), wk =   0.0030053
        k(  357) = (   0.2727273   0.2764283  -0.4948464), wk =   0.0030053
        k(  358) = (   0.2727273   0.2764283  -0.3797946), wk =   0.0030053
        k(  359) = (   0.2727273   0.3849002  -0.3030934), wk =   0.0030053
        k(  360) = (   0.2727273   0.3849002  -0.1880416), wk =   0.0030053
        k(  361) = (   0.2727273   0.3849002  -0.0729898), wk =   0.0030053
        k(  362) = (   0.2727273   0.3849002   0.0420619), wk =   0.0030053
        k(  363) = (   0.2727273   0.3849002   0.1571137), wk =   0.0030053
        k(  364) = (   0.2727273   0.3849002   0.2721655), wk =   0.0030053
        k(  365) = (   0.2727273   0.3849002  -0.8783524), wk =   0.0030053
        k(  366) = (   0.2727273   0.3849002  -0.7633006), wk =   0.0030053
        k(  367) = (   0.2727273   0.3849002  -0.6482488), wk =   0.0030053
        k(  368) = (   0.2727273   0.3849002  -0.5331970), wk =   0.0030053
        k(  369) = (   0.2727273   0.3849002  -0.4181452), wk =   0.0030053
        k(  370) = (   0.2727273  -0.6998185   0.0804125), wk =   0.0030053
        k(  371) = (   0.2727273  -0.6998185   0.1954643), wk =   0.0030053
        k(  372) = (   0.2727273  -0.6998185   0.3105161), wk =   0.0030053
        k(  373) = (   0.2727273  -0.6998185   0.4255679), wk =   0.0030053
        k(  374) = (   0.2727273  -0.6998185   0.5406197), wk =   0.0030053
        k(  375) = (   0.2727273  -0.6998185   0.6556715), wk =   0.0030053
        k(  376) = (   0.2727273  -0.6998185  -0.4948464), wk =   0.0030053
        k(  377) = (   0.2727273  -0.6998185  -0.3797946), wk =   0.0030053
        k(  378) = (   0.2727273  -0.6998185  -0.2647428), wk =   0.0030053
        k(  379) = (   0.2727273  -0.6998185  -0.1496910), wk =   0.0030053
        k(  380) = (   0.2727273  -0.6998185  -0.0346392), wk =   0.0030053
        k(  381) = (   0.2727273  -0.5913466   0.0420619), wk =   0.0030053
        k(  382) = (   0.2727273  -0.5913466   0.1571137), wk =   0.0030053
        k(  383) = (   0.2727273  -0.5913466   0.2721655), wk =   0.0030053
        k(  384) = (   0.2727273  -0.5913466   0.3872173), wk =   0.0030053
        k(  385) = (   0.2727273  -0.5913466   0.5022691), wk =   0.0030053
        k(  386) = (   0.2727273  -0.5913466   0.6173209), wk =   0.0030053
        k(  387) = (   0.2727273  -0.5913466  -0.5331970), wk =   0.0030053
        k(  388) = (   0.2727273  -0.5913466  -0.4181452), wk =   0.0030053
        k(  389) = (   0.2727273  -0.5913466  -0.3030934), wk =   0.0030053
        k(  390) = (   0.2727273  -0.5913466  -0.1880416), wk =   0.0030053
        k(  391) = (   0.2727273  -0.5913466  -0.0729898), wk =   0.0030053
        k(  392) = (   0.2727273  -0.4828748   0.0037113), wk =   0.0030053
        k(  393) = (   0.2727273  -0.4828748   0.1187631), wk =   0.0030053
        k(  394) = (   0.2727273  -0.4828748   0.2338149), wk =   0.0030053
        k(  395) = (   0.2727273  -0.4828748   0.3488667), wk =   0.0030053
        k(  396) = (   0.2727273  -0.4828748   0.4639185), wk =   0.0030053
        k(  397) = (   0.2727273  -0.4828748   0.5789703), wk =   0.0030053
        k(  398) = (   0.2727273  -0.4828748  -0.5715476), wk =   0.0030053
        k(  399) = (   0.2727273  -0.4828748  -0.4564958), wk =   0.0030053
        k(  400) = (   0.2727273  -0.4828748  -0.3414440), wk =   0.0030053
        k(  401) = (   0.2727273  -0.4828748  -0.2263922), wk =   0.0030053
        k(  402) = (   0.2727273  -0.4828748  -0.1113404), wk =   0.0030053
        k(  403) = (   0.2727273  -0.3744029  -0.0346392), wk =   0.0030053
        k(  404) = (   0.2727273  -0.3744029   0.0804125), wk =   0.0030053
        k(  405) = (   0.2727273  -0.3744029   0.1954643), wk =   0.0030053
        k(  406) = (   0.2727273  -0.3744029   0.3105161), wk =   0.0030053
        k(  407) = (   0.2727273  -0.3744029   0.4255679), wk =   0.0030053
        k(  408) = (   0.2727273  -0.3744029   0.5406197), wk =   0.0030053
        k(  409) = (   0.2727273  -0.3744029  -0.6098982), wk =   0.0030053
        k(  410) = (   0.2727273  -0.3744029  -0.4948464), wk =   0.0030053
        k(  411) = (   0.2727273  -0.3744029  -0.3797946), wk =   0.0030053
        k(  412) = (   0.2727273  -0.3744029  -0.2647428), wk =   0.0030053
        k(  413) = (   0.2727273  -0.3744029  -0.1496910), wk =   0.0030053
        k(  414) = (   0.2727273  -0.2659310  -0.0729898), wk =   0.0030053
        k(  415) = (   0.2727273  -0.2659310   0.0420619), wk =   0.0030053
        k(  416) = (   0.2727273  -0.2659310   0.1571137), wk =   0.0030053
        k(  417) = (   0.2727273  -0.2659310   0.2721655), wk =   0.0030053
        k(  418) = (   0.2727273  -0.2659310   0.3872173), wk =   0.0030053
        k(  419) = (   0.2727273  -0.2659310   0.5022691), wk =   0.0030053
        k(  420) = (   0.2727273  -0.2659310  -0.6482488), wk =   0.0030053
        k(  421) = (   0.2727273  -0.2659310  -0.5331970), wk =   0.0030053
        k(  422) = (   0.2727273  -0.2659310  -0.4181452), wk =   0.0030053
        k(  423) = (   0.2727273  -0.2659310  -0.3030934), wk =   0.0030053
        k(  424) = (   0.2727273  -0.2659310  -0.1880416), wk =   0.0030053
        k(  425) = (   0.3636364  -0.2099456  -0.1484539), wk =   0.0030053
        k(  426) = (   0.3636364  -0.2099456  -0.0334021), wk =   0.0030053
        k(  427) = (   0.3636364  -0.2099456   0.0816497), wk =   0.0030053
        k(  428) = (   0.3636364  -0.2099456   0.1967014), wk =   0.0030053
        k(  429) = (   0.3636364  -0.2099456   0.3117532), wk =   0.0030053
        k(  430) = (   0.3636364  -0.2099456   0.4268050), wk =   0.0030053
        k(  431) = (   0.3636364  -0.2099456  -0.7237129), wk =   0.0030053
        k(  432) = (   0.3636364  -0.2099456  -0.6086611), wk =   0.0030053
        k(  433) = (   0.3636364  -0.2099456  -0.4936093), wk =   0.0030053
        k(  434) = (   0.3636364  -0.2099456  -0.3785575), wk =   0.0030053
        k(  435) = (   0.3636364  -0.2099456  -0.2635057), wk =   0.0030053
        k(  436) = (   0.3636364  -0.1014737  -0.1868045), wk =   0.0030053
        k(  437) = (   0.3636364  -0.1014737  -0.0717527), wk =   0.0030053
        k(  438) = (   0.3636364  -0.1014737   0.0432991), wk =   0.0030053
        k(  439) = (   0.3636364  -0.1014737   0.1583509), wk =   0.0030053
        k(  440) = (   0.3636364  -0.1014737   0.2734026), wk =   0.0030053
        k(  441) = (   0.3636364  -0.1014737   0.3884544), wk =   0.0030053
        k(  442) = (   0.3636364  -0.1014737  -0.7620635), wk =   0.0030053
        k(  443) = (   0.3636364  -0.1014737  -0.6470117), wk =   0.0030053
        k(  444) = (   0.3636364  -0.1014737  -0.5319599), wk =   0.0030053
        k(  445) = (   0.3636364  -0.1014737  -0.4169081), wk =   0.0030053
        k(  446) = (   0.3636364  -0.1014737  -0.3018563), wk =   0.0030053
        k(  447) = (   0.3636364   0.0069982  -0.2251551), wk =   0.0030053
        k(  448) = (   0.3636364   0.0069982  -0.1101033), wk =   0.0030053
        k(  449) = (   0.3636364   0.0069982   0.0049485), wk =   0.0030053
        k(  450) = (   0.3636364   0.0069982   0.1200003), wk =   0.0030053
        k(  451) = (   0.3636364   0.0069982   0.2350520), wk =   0.0030053
        k(  452) = (   0.3636364   0.0069982   0.3501038), wk =   0.0030053
        k(  453) = (   0.3636364   0.0069982  -0.8004141), wk =   0.0030053
        k(  454) = (   0.3636364   0.0069982  -0.6853623), wk =   0.0030053
        k(  455) = (   0.3636364   0.0069982  -0.5703105), wk =   0.0030053
        k(  456) = (   0.3636364   0.0069982  -0.4552587), wk =   0.0030053
        k(  457) = (   0.3636364   0.0069982  -0.3402069), wk =   0.0030053
        k(  458) = (   0.3636364   0.1154701  -0.2635057), wk =   0.0030053
        k(  459) = (   0.3636364   0.1154701  -0.1484539), wk =   0.0030053
        k(  460) = (   0.3636364   0.1154701  -0.0334021), wk =   0.0030053
        k(  461) = (   0.3636364   0.1154701   0.0816497), wk =   0.0030053
        k(  462) = (   0.3636364   0.1154701   0.1967014), wk =   0.0030053
        k(  463) = (   0.3636364   0.1154701   0.3117532), wk =   0.0030053
        k(  464) = (   0.3636364   0.1154701  -0.8387647), wk =   0.0030053
        k(  465) = (   0.3636364   0.1154701  -0.7237129), wk =   0.0030053
        k(  466) = (   0.3636364   0.1154701  -0.6086611), wk =   0.0030053
        k(  467) = (   0.3636364   0.1154701  -0.4936093), wk =   0.0030053
        k(  468) = (   0.3636364   0.1154701  -0.3785575), wk =   0.0030053
        k(  469) = (   0.3636364   0.2239419  -0.3018563), wk =   0.0030053
        k(  470) = (   0.3636364   0.2239419  -0.1868045), wk =   0.0030053
        k(  471) = (   0.3636364   0.2239419  -0.0717527), wk =   0.0030053
        k(  472) = (   0.3636364   0.2239419   0.0432991), wk =   0.0030053
        k(  473) = (   0.3636364   0.2239419   0.1583509), wk =   0.0030053
        k(  474) = (   0.3636364   0.2239419   0.2734026), wk =   0.0030053
        k(  475) = (   0.3636364   0.2239419  -0.8771153), wk =   0.0030053
        k(  476) = (   0.3636364   0.2239419  -0.7620635), wk =   0.0030053
        k(  477) = (   0.3636364   0.2239419  -0.6470117), wk =   0.0030053
        k(  478) = (   0.3636364   0.2239419  -0.5319599), wk =   0.0030053
        k(  479) = (   0.3636364   0.2239419  -0.4169081), wk =   0.0030053
        k(  480) = (   0.3636364   0.3324138  -0.3402069), wk =   0.0030053
        k(  481) = (   0.3636364   0.3324138  -0.2251551), wk =   0.0030053
        k(  482) = (   0.3636364   0.3324138  -0.1101033), wk =   0.0030053
        k(  483) = (   0.3636364   0.3324138   0.0049485), wk =   0.0030053
        k(  484) = (   0.3636364   0.3324138   0.1200003), wk =   0.0030053
        k(  485) = (   0.3636364   0.3324138   0.2350520), wk =   0.0030053
        k(  486) = (   0.3636364   0.3324138  -0.9154659), wk =   0.0030053
        k(  487) = (   0.3636364   0.3324138  -0.8004141), wk =   0.0030053
        k(  488) = (   0.3636364   0.3324138  -0.6853623), wk =   0.0030053
        k(  489) = (   0.3636364   0.3324138  -0.5703105), wk =   0.0030053
        k(  490) = (   0.3636364   0.3324138  -0.4552587), wk =   0.0030053
        k(  491) = (   0.3636364  -0.7523049   0.0432991), wk =   0.0030053
        k(  492) = (   0.3636364  -0.7523049   0.1583509), wk =   0.0030053
        k(  493) = (   0.3636364  -0.7523049   0.2734026), wk =   0.0030053
        k(  494) = (   0.3636364  -0.7523049   0.3884544), wk =   0.0030053
        k(  495) = (   0.3636364  -0.7523049   0.5035062), wk =   0.0030053
        k(  496) = (   0.3636364  -0.7523049   0.6185580), wk =   0.0030053
        k(  497) = (   0.3636364  -0.7523049  -0.5319599), wk =   0.0030053
        k(  498) = (   0.3636364  -0.7523049  -0.4169081), wk =   0.0030053
        k(  499) = (   0.3636364  -0.7523049  -0.3018563), wk =   0.0030053
        k(  500) = (   0.3636364  -0.7523049  -0.1868045), wk =   0.0030053
        k(  501) = (   0.3636364  -0.7523049  -0.0717527), wk =   0.0030053
        k(  502) = (   0.3636364  -0.6438330   0.0049485), wk =   0.0030053
        k(  503) = (   0.3636364  -0.6438330   0.1200003), wk =   0.0030053
        k(  504) = (   0.3636364  -0.6438330   0.2350520), wk =   0.0030053
        k(  505) = (   0.3636364  -0.6438330   0.3501038), wk =   0.0030053
        k(  506) = (   0.3636364  -0.6438330   0.4651556), wk =   0.0030053
        k(  507) = (   0.3636364  -0.6438330   0.5802074), wk =   0.0030053
        k(  508) = (   0.3636364  -0.6438330  -0.5703105), wk =   0.0030053
        k(  509) = (   0.3636364  -0.6438330  -0.4552587), wk =   0.0030053
        k(  510) = (   0.3636364  -0.6438330  -0.3402069), wk =   0.0030053
        k(  511) = (   0.3636364  -0.6438330  -0.2251551), wk =   0.0030053
        k(  512) = (   0.3636364  -0.6438330  -0.1101033), wk =   0.0030053
        k(  513) = (   0.3636364  -0.5353612  -0.0334021), wk =   0.0030053
        k(  514) = (   0.3636364  -0.5353612   0.0816497), wk =   0.0030053
        k(  515) = (   0.3636364  -0.5353612   0.1967014), wk =   0.0030053
        k(  516) = (   0.3636364  -0.5353612   0.3117532), wk =   0.0030053
        k(  517) = (   0.3636364  -0.5353612   0.4268050), wk =   0.0030053
        k(  518) = (   0.3636364  -0.5353612   0.5418568), wk =   0.0030053
        k(  519) = (   0.3636364  -0.5353612  -0.6086611), wk =   0.0030053
        k(  520) = (   0.3636364  -0.5353612  -0.4936093), wk =   0.0030053
        k(  521) = (   0.3636364  -0.5353612  -0.3785575), wk =   0.0030053
        k(  522) = (   0.3636364  -0.5353612  -0.2635057), wk =   0.0030053
        k(  523) = (   0.3636364  -0.5353612  -0.1484539), wk =   0.0030053
        k(  524) = (   0.3636364  -0.4268893  -0.0717527), wk =   0.0030053
        k(  525) = (   0.3636364  -0.4268893   0.0432991), wk =   0.0030053
        k(  526) = (   0.3636364  -0.4268893   0.1583509), wk =   0.0030053
        k(  527) = (   0.3636364  -0.4268893   0.2734026), wk =   0.0030053
        k(  528) = (   0.3636364  -0.4268893   0.3884544), wk =   0.0030053
        k(  529) = (   0.3636364  -0.4268893   0.5035062), wk =   0.0030053
        k(  530) = (   0.3636364  -0.4268893  -0.6470117), wk =   0.0030053
        k(  531) = (   0.3636364  -0.4268893  -0.5319599), wk =   0.0030053
        k(  532) = (   0.3636364  -0.4268893  -0.4169081), wk =   0.0030053
        k(  533) = (   0.3636364  -0.4268893  -0.3018563), wk =   0.0030053
        k(  534) = (   0.3636364  -0.4268893  -0.1868045), wk =   0.0030053
        k(  535) = (   0.3636364  -0.3184174  -0.1101033), wk =   0.0030053
        k(  536) = (   0.3636364  -0.3184174   0.0049485), wk =   0.0030053
        k(  537) = (   0.3636364  -0.3184174   0.1200003), wk =   0.0030053
        k(  538) = (   0.3636364  -0.3184174   0.2350520), wk =   0.0030053
        k(  539) = (   0.3636364  -0.3184174   0.3501038), wk =   0.0030053
        k(  540) = (   0.3636364  -0.3184174   0.4651556), wk =   0.0030053
        k(  541) = (   0.3636364  -0.3184174  -0.6853623), wk =   0.0030053
        k(  542) = (   0.3636364  -0.3184174  -0.5703105), wk =   0.0030053
        k(  543) = (   0.3636364  -0.3184174  -0.4552587), wk =   0.0030053
        k(  544) = (   0.3636364  -0.3184174  -0.3402069), wk =   0.0030053
        k(  545) = (   0.3636364  -0.3184174  -0.2251551), wk =   0.0030053
        k(  546) = (   0.4545455  -0.2624319  -0.1855674), wk =   0.0030053
        k(  547) = (   0.4545455  -0.2624319  -0.0705156), wk =   0.0030053
        k(  548) = (   0.4545455  -0.2624319   0.0445362), wk =   0.0030053
        k(  549) = (   0.4545455  -0.2624319   0.1595880), wk =   0.0030053
        k(  550) = (   0.4545455  -0.2624319   0.2746398), wk =   0.0030053
        k(  551) = (   0.4545455  -0.2624319   0.3896915), wk =   0.0030053
        k(  552) = (   0.4545455  -0.2624319  -0.7608264), wk =   0.0030053
        k(  553) = (   0.4545455  -0.2624319  -0.6457746), wk =   0.0030053
        k(  554) = (   0.4545455  -0.2624319  -0.5307228), wk =   0.0030053
        k(  555) = (   0.4545455  -0.2624319  -0.4156710), wk =   0.0030053
        k(  556) = (   0.4545455  -0.2624319  -0.3006192), wk =   0.0030053
        k(  557) = (   0.4545455  -0.1539601  -0.2239180), wk =   0.0030053
        k(  558) = (   0.4545455  -0.1539601  -0.1088662), wk =   0.0030053
        k(  559) = (   0.4545455  -0.1539601   0.0061856), wk =   0.0030053
        k(  560) = (   0.4545455  -0.1539601   0.1212374), wk =   0.0030053
        k(  561) = (   0.4545455  -0.1539601   0.2362892), wk =   0.0030053
        k(  562) = (   0.4545455  -0.1539601   0.3513410), wk =   0.0030053
        k(  563) = (   0.4545455  -0.1539601  -0.7991770), wk =   0.0030053
        k(  564) = (   0.4545455  -0.1539601  -0.6841252), wk =   0.0030053
        k(  565) = (   0.4545455  -0.1539601  -0.5690734), wk =   0.0030053
        k(  566) = (   0.4545455  -0.1539601  -0.4540216), wk =   0.0030053
        k(  567) = (   0.4545455  -0.1539601  -0.3389698), wk =   0.0030053
        k(  568) = (   0.4545455  -0.0454882  -0.2622686), wk =   0.0030053
        k(  569) = (   0.4545455  -0.0454882  -0.1472168), wk =   0.0030053
        k(  570) = (   0.4545455  -0.0454882  -0.0321650), wk =   0.0030053
        k(  571) = (   0.4545455  -0.0454882   0.0828868), wk =   0.0030053
        k(  572) = (   0.4545455  -0.0454882   0.1979386), wk =   0.0030053
        k(  573) = (   0.4545455  -0.0454882   0.3129904), wk =   0.0030053
        k(  574) = (   0.4545455  -0.0454882  -0.8375276), wk =   0.0030053
        k(  575) = (   0.4545455  -0.0454882  -0.7224758), wk =   0.0030053
        k(  576) = (   0.4545455  -0.0454882  -0.6074240), wk =   0.0030053
        k(  577) = (   0.4545455  -0.0454882  -0.4923722), wk =   0.0030053
        k(  578) = (   0.4545455  -0.0454882  -0.3773204), wk =   0.0030053
        k(  579) = (   0.4545455   0.0629837  -0.3006192), wk =   0.0030053
        k(  580) = (   0.4545455   0.0629837  -0.1855674), wk =   0.0030053
        k(  581) = (   0.4545455   0.0629837  -0.0705156), wk =   0.0030053
        k(  582) = (   0.4545455   0.0629837   0.0445362), wk =   0.0030053
        k(  583) = (   0.4545455   0.0629837   0.1595880), wk =   0.0030053
        k(  584) = (   0.4545455   0.0629837   0.2746398), wk =   0.0030053
        k(  585) = (   0.4545455   0.0629837  -0.8758782), wk =   0.0030053
        k(  586) = (   0.4545455   0.0629837  -0.7608264), wk =   0.0030053
        k(  587) = (   0.4545455   0.0629837  -0.6457746), wk =   0.0030053
        k(  588) = (   0.4545455   0.0629837  -0.5307228), wk =   0.0030053
        k(  589) = (   0.4545455   0.0629837  -0.4156710), wk =   0.0030053
        k(  590) = (   0.4545455   0.1714555  -0.3389698), wk =   0.0030053
        k(  591) = (   0.4545455   0.1714555  -0.2239180), wk =   0.0030053
        k(  592) = (   0.4545455   0.1714555  -0.1088662), wk =   0.0030053
        k(  593) = (   0.4545455   0.1714555   0.0061856), wk =   0.0030053
        k(  594) = (   0.4545455   0.1714555   0.1212374), wk =   0.0030053
        k(  595) = (   0.4545455   0.1714555   0.2362892), wk =   0.0030053
        k(  596) = (   0.4545455   0.1714555  -0.9142287), wk =   0.0030053
        k(  597) = (   0.4545455   0.1714555  -0.7991770), wk =   0.0030053
        k(  598) = (   0.4545455   0.1714555  -0.6841252), wk =   0.0030053
        k(  599) = (   0.4545455   0.1714555  -0.5690734), wk =   0.0030053
        k(  600) = (   0.4545455   0.1714555  -0.4540216), wk =   0.0030053
        k(  601) = (   0.4545455   0.2799274  -0.3773204), wk =   0.0030053
        k(  602) = (   0.4545455   0.2799274  -0.2622686), wk =   0.0030053
        k(  603) = (   0.4545455   0.2799274  -0.1472168), wk =   0.0030053
        k(  604) = (   0.4545455   0.2799274  -0.0321650), wk =   0.0030053
        k(  605) = (   0.4545455   0.2799274   0.0828868), wk =   0.0030053
        k(  606) = (   0.4545455   0.2799274   0.1979386), wk =   0.0030053
        k(  607) = (   0.4545455   0.2799274  -0.9525793), wk =   0.0030053
        k(  608) = (   0.4545455   0.2799274  -0.8375276), wk =   0.0030053
        k(  609) = (   0.4545455   0.2799274  -0.7224758), wk =   0.0030053
        k(  610) = (   0.4545455   0.2799274  -0.6074240), wk =   0.0030053
        k(  611) = (   0.4545455   0.2799274  -0.4923722), wk =   0.0030053
        k(  612) = (   0.4545455  -0.8047913   0.0061856), wk =   0.0030053
        k(  613) = (   0.4545455  -0.8047913   0.1212374), wk =   0.0030053
        k(  614) = (   0.4545455  -0.8047913   0.2362892), wk =   0.0030053
        k(  615) = (   0.4545455  -0.8047913   0.3513410), wk =   0.0030053
        k(  616) = (   0.4545455  -0.8047913   0.4663927), wk =   0.0030053
        k(  617) = (   0.4545455  -0.8047913   0.5814445), wk =   0.0030053
        k(  618) = (   0.4545455  -0.8047913  -0.5690734), wk =   0.0030053
        k(  619) = (   0.4545455  -0.8047913  -0.4540216), wk =   0.0030053
        k(  620) = (   0.4545455  -0.8047913  -0.3389698), wk =   0.0030053
        k(  621) = (   0.4545455  -0.8047913  -0.2239180), wk =   0.0030053
        k(  622) = (   0.4545455  -0.8047913  -0.1088662), wk =   0.0030053
        k(  623) = (   0.4545455  -0.6963194  -0.0321650), wk =   0.0030053
        k(  624) = (   0.4545455  -0.6963194   0.0828868), wk =   0.0030053
        k(  625) = (   0.4545455  -0.6963194   0.1979386), wk =   0.0030053
        k(  626) = (   0.4545455  -0.6963194   0.3129904), wk =   0.0030053
        k(  627) = (   0.4545455  -0.6963194   0.4280421), wk =   0.0030053
        k(  628) = (   0.4545455  -0.6963194   0.5430939), wk =   0.0030053
        k(  629) = (   0.4545455  -0.6963194  -0.6074240), wk =   0.0030053
        k(  630) = (   0.4545455  -0.6963194  -0.4923722), wk =   0.0030053
        k(  631) = (   0.4545455  -0.6963194  -0.3773204), wk =   0.0030053
        k(  632) = (   0.4545455  -0.6963194  -0.2622686), wk =   0.0030053
        k(  633) = (   0.4545455  -0.6963194  -0.1472168), wk =   0.0030053
        k(  634) = (   0.4545455  -0.5878475  -0.0705156), wk =   0.0030053
        k(  635) = (   0.4545455  -0.5878475   0.0445362), wk =   0.0030053
        k(  636) = (   0.4545455  -0.5878475   0.1595880), wk =   0.0030053
        k(  637) = (   0.4545455  -0.5878475   0.2746398), wk =   0.0030053
        k(  638) = (   0.4545455  -0.5878475   0.3896915), wk =   0.0030053
        k(  639) = (   0.4545455  -0.5878475   0.5047433), wk =   0.0030053
        k(  640) = (   0.4545455  -0.5878475  -0.6457746), wk =   0.0030053
        k(  641) = (   0.4545455  -0.5878475  -0.5307228), wk =   0.0030053
        k(  642) = (   0.4545455  -0.5878475  -0.4156710), wk =   0.0030053
        k(  643) = (   0.4545455  -0.5878475  -0.3006192), wk =   0.0030053
        k(  644) = (   0.4545455  -0.5878475  -0.1855674), wk =   0.0030053
        k(  645) = (   0.4545455  -0.4793757  -0.1088662), wk =   0.0030053
        k(  646) = (   0.4545455  -0.4793757   0.0061856), wk =   0.0030053
        k(  647) = (   0.4545455  -0.4793757   0.1212374), wk =   0.0030053
        k(  648) = (   0.4545455  -0.4793757   0.2362892), wk =   0.0030053
        k(  649) = (   0.4545455  -0.4793757   0.3513410), wk =   0.0030053
        k(  650) = (   0.4545455  -0.4793757   0.4663927), wk =   0.0030053
        k(  651) = (   0.4545455  -0.4793757  -0.6841252), wk =   0.0030053
        k(  652) = (   0.4545455  -0.4793757  -0.5690734), wk =   0.0030053
        k(  653) = (   0.4545455  -0.4793757  -0.4540216), wk =   0.0030053
        k(  654) = (   0.4545455  -0.4793757  -0.3389698), wk =   0.0030053
        k(  655) = (   0.4545455  -0.4793757  -0.2239180), wk =   0.0030053
        k(  656) = (   0.4545455  -0.3709038  -0.1472168), wk =   0.0030053
        k(  657) = (   0.4545455  -0.3709038  -0.0321650), wk =   0.0030053
        k(  658) = (   0.4545455  -0.3709038   0.0828868), wk =   0.0030053
        k(  659) = (   0.4545455  -0.3709038   0.1979386), wk =   0.0030053
        k(  660) = (   0.4545455  -0.3709038   0.3129904), wk =   0.0030053
        k(  661) = (   0.4545455  -0.3709038   0.4280421), wk =   0.0030053
        k(  662) = (   0.4545455  -0.3709038  -0.7224758), wk =   0.0030053
        k(  663) = (   0.4545455  -0.3709038  -0.6074240), wk =   0.0030053
        k(  664) = (   0.4545455  -0.3709038  -0.4923722), wk =   0.0030053
        k(  665) = (   0.4545455  -0.3709038  -0.3773204), wk =   0.0030053
        k(  666) = (   0.4545455  -0.3709038  -0.2622686), wk =   0.0030053

                       cryst. coord.
        k(    1) = (   0.0000000   0.0000000   0.0000000), wk =   0.0015026
        k(    2) = (   0.0000000   0.0000000   0.0909091), wk =   0.0030053
        k(    3) = (   0.0000000   0.0000000   0.1818182), wk =   0.0030053
        k(    4) = (   0.0000000   0.0000000   0.2727273), wk =   0.0030053
        k(    5) = (   0.0000000   0.0000000   0.3636364), wk =   0.0030053
        k(    6) = (   0.0000000   0.0000000   0.4545455), wk =   0.0030053
        k(    7) = (   0.0000000   0.0909091   0.0000000), wk =   0.0030053
        k(    8) = (   0.0000000   0.0909091   0.0909091), wk =   0.0030053
        k(    9) = (   0.0000000   0.0909091   0.1818182), wk =   0.0030053
        k(   10) = (   0.0000000   0.0909091   0.2727273), wk =   0.0030053
        k(   11) = (   0.0000000   0.0909091   0.3636364), wk =   0.0030053
        k(   12) = (   0.0000000   0.0909091   0.4545455), wk =   0.0030053
        k(   13) = (   0.0000000   0.0909091  -0.4545455), wk =   0.0030053
        k(   14) = (   0.0000000   0.0909091  -0.3636364), wk =   0.0030053
        k(   15) = (   0.0000000   0.0909091  -0.2727273), wk =   0.0030053
        k(   16) = (   0.0000000   0.0909091  -0.1818182), wk =   0.0030053
        k(   17) = (   0.0000000   0.0909091  -0.0909091), wk =   0.0030053
        k(   18) = (   0.0000000   0.1818182   0.0000000), wk =   0.0030053
        k(   19) = (   0.0000000   0.1818182   0.0909091), wk =   0.0030053
        k(   20) = (   0.0000000   0.1818182   0.1818182), wk =   0.0030053
        k(   21) = (   0.0000000   0.1818182   0.2727273), wk =   0.0030053
        k(   22) = (   0.0000000   0.1818182   0.3636364), wk =   0.0030053
        k(   23) = (   0.0000000   0.1818182   0.4545455), wk =   0.0030053
        k(   24) = (   0.0000000   0.1818182  -0.4545455), wk =   0.0030053
        k(   25) = (   0.0000000   0.1818182  -0.3636364), wk =   0.0030053
        k(   26) = (   0.0000000   0.1818182  -0.2727273), wk =   0.0030053
        k(   27) = (   0.0000000   0.1818182  -0.1818182), wk =   0.0030053
        k(   28) = (   0.0000000   0.1818182  -0.0909091), wk =   0.0030053
        k(   29) = (   0.0000000   0.2727273   0.0000000), wk =   0.0030053
        k(   30) = (   0.0000000   0.2727273   0.0909091), wk =   0.0030053
        k(   31) = (   0.0000000   0.2727273   0.1818182), wk =   0.0030053
        k(   32) = (   0.0000000   0.2727273   0.2727273), wk =   0.0030053
        k(   33) = (   0.0000000   0.2727273   0.3636364), wk =   0.0030053
        k(   34) = (   0.0000000   0.2727273   0.4545455), wk =   0.0030053
        k(   35) = (   0.0000000   0.2727273  -0.4545455), wk =   0.0030053
        k(   36) = (   0.0000000   0.2727273  -0.3636364), wk =   0.0030053
        k(   37) = (   0.0000000   0.2727273  -0.2727273), wk =   0.0030053
        k(   38) = (   0.0000000   0.2727273  -0.1818182), wk =   0.0030053
        k(   39) = (   0.0000000   0.2727273  -0.0909091), wk =   0.0030053
        k(   40) = (   0.0000000   0.3636364   0.0000000), wk =   0.0030053
        k(   41) = (   0.0000000   0.3636364   0.0909091), wk =   0.0030053
        k(   42) = (   0.0000000   0.3636364   0.1818182), wk =   0.0030053
        k(   43) = (   0.0000000   0.3636364   0.2727273), wk =   0.0030053
        k(   44) = (   0.0000000   0.3636364   0.3636364), wk =   0.0030053
        k(   45) = (   0.0000000   0.3636364   0.4545455), wk =   0.0030053
        k(   46) = (   0.0000000   0.3636364  -0.4545455), wk =   0.0030053
        k(   47) = (   0.0000000   0.3636364  -0.3636364), wk =   0.0030053
        k(   48) = (   0.0000000   0.3636364  -0.2727273), wk =   0.0030053
        k(   49) = (   0.0000000   0.3636364  -0.1818182), wk =   0.0030053
        k(   50) = (   0.0000000   0.3636364  -0.0909091), wk =   0.0030053
        k(   51) = (   0.0000000   0.4545455   0.0000000), wk =   0.0030053
        k(   52) = (   0.0000000   0.4545455   0.0909091), wk =   0.0030053
        k(   53) = (   0.0000000   0.4545455   0.1818182), wk =   0.0030053
        k(   54) = (   0.0000000   0.4545455   0.2727273), wk =   0.0030053
        k(   55) = (   0.0000000   0.4545455   0.3636364), wk =   0.0030053
        k(   56) = (   0.0000000   0.4545455   0.4545455), wk =   0.0030053
        k(   57) = (   0.0000000   0.4545455  -0.4545455), wk =   0.0030053
        k(   58) = (   0.0000000   0.4545455  -0.3636364), wk =   0.0030053
        k(   59) = (   0.0000000   0.4545455  -0.2727273), wk =   0.0030053
        k(   60) = (   0.0000000   0.4545455  -0.1818182), wk =   0.0030053
        k(   61) = (   0.0000000   0.4545455  -0.0909091), wk =   0.0030053
        k(   62) = (   0.0909091  -0.0000000  -0.0000000), wk =   0.0030053
        k(   63) = (   0.0909091  -0.0000000   0.0909091), wk =   0.0030053
        k(   64) = (   0.0909091  -0.0000000   0.1818182), wk =   0.0030053
        k(   65) = (   0.0909091  -0.0000000   0.2727273), wk =   0.0030053
        k(   66) = (   0.0909091  -0.0000000   0.3636364), wk =   0.0030053
        k(   67) = (   0.0909091  -0.0000000   0.4545455), wk =   0.0030053
        k(   68) = (   0.0909091  -0.0000000  -0.4545455), wk =   0.0030053
        k(   69) = (   0.0909091  -0.0000000  -0.3636364), wk =   0.0030053
        k(   70) = (   0.0909091  -0.0000000  -0.2727273), wk =   0.0030053
        k(   71) = (   0.0909091  -0.0000000  -0.1818182), wk =   0.0030053
        k(   72) = (   0.0909091  -0.0000000  -0.0909091), wk =   0.0030053
        k(   73) = (   0.0909091   0.0909091   0.0000000), wk =   0.0030053
        k(   74) = (   0.0909091   0.0909091   0.0909091), wk =   0.0030053
        k(   75) = (   0.0909091   0.0909091   0.1818182), wk =   0.0030053
        k(   76) = (   0.0909091   0.0909091   0.2727273), wk =   0.0030053
        k(   77) = (   0.0909091   0.0909091   0.3636364), wk =   0.0030053
        k(   78) = (   0.0909091   0.0909091   0.4545455), wk =   0.0030053
        k(   79) = (   0.0909091   0.0909091  -0.4545455), wk =   0.0030053
        k(   80) = (   0.0909091   0.0909091  -0.3636364), wk =   0.0030053
        k(   81) = (   0.0909091   0.0909091  -0.2727273), wk =   0.0030053
        k(   82) = (   0.0909091   0.0909091  -0.1818182), wk =   0.0030053
        k(   83) = (   0.0909091   0.0909091  -0.0909091), wk =   0.0030053
        k(   84) = (   0.0909091   0.1818182   0.0000000), wk =   0.0030053
        k(   85) = (   0.0909091   0.1818182   0.0909091), wk =   0.0030053
        k(   86) = (   0.0909091   0.1818182   0.1818182), wk =   0.0030053
        k(   87) = (   0.0909091   0.1818182   0.2727273), wk =   0.0030053
        k(   88) = (   0.0909091   0.1818182   0.3636364), wk =   0.0030053
        k(   89) = (   0.0909091   0.1818182   0.4545455), wk =   0.0030053
        k(   90) = (   0.0909091   0.1818182  -0.4545455), wk =   0.0030053
        k(   91) = (   0.0909091   0.1818182  -0.3636364), wk =   0.0030053
        k(   92) = (   0.0909091   0.1818182  -0.2727273), wk =   0.0030053
        k(   93) = (   0.0909091   0.1818182  -0.1818182), wk =   0.0030053
        k(   94) = (   0.0909091   0.1818182  -0.0909091), wk =   0.0030053
        k(   95) = (   0.0909091   0.2727273   0.0000000), wk =   0.0030053
        k(   96) = (   0.0909091   0.2727273   0.0909091), wk =   0.0030053
        k(   97) = (   0.0909091   0.2727273   0.1818182), wk =   0.0030053
        k(   98) = (   0.0909091   0.2727273   0.2727273), wk =   0.0030053
        k(   99) = (   0.0909091   0.2727273   0.3636364), wk =   0.0030053
        k(  100) = (   0.0909091   0.2727273   0.4545455), wk =   0.0030053
        k(  101) = (   0.0909091   0.2727273  -0.4545455), wk =   0.0030053
        k(  102) = (   0.0909091   0.2727273  -0.3636364), wk =   0.0030053
        k(  103) = (   0.0909091   0.2727273  -0.2727273), wk =   0.0030053
        k(  104) = (   0.0909091   0.2727273  -0.1818182), wk =   0.0030053
        k(  105) = (   0.0909091   0.2727273  -0.0909091), wk =   0.0030053
        k(  106) = (   0.0909091   0.3636364   0.0000000), wk =   0.0030053
        k(  107) = (   0.0909091   0.3636364   0.0909091), wk =   0.0030053
        k(  108) = (   0.0909091   0.3636364   0.1818182), wk =   0.0030053
        k(  109) = (   0.0909091   0.3636364   0.2727273), wk =   0.0030053
        k(  110) = (   0.0909091   0.3636364   0.3636364), wk =   0.0030053
        k(  111) = (   0.0909091   0.3636364   0.4545455), wk =   0.0030053
        k(  112) = (   0.0909091   0.3636364  -0.4545455), wk =   0.0030053
        k(  113) = (   0.0909091   0.3636364  -0.3636364), wk =   0.0030053
        k(  114) = (   0.0909091   0.3636364  -0.2727273), wk =   0.0030053
        k(  115) = (   0.0909091   0.3636364  -0.1818182), wk =   0.0030053
        k(  116) = (   0.0909091   0.3636364  -0.0909091), wk =   0.0030053
        k(  117) = (   0.0909091   0.4545455   0.0000000), wk =   0.0030053
        k(  118) = (   0.0909091   0.4545455   0.0909091), wk =   0.0030053
        k(  119) = (   0.0909091   0.4545455   0.1818182), wk =   0.0030053
        k(  120) = (   0.0909091   0.4545455   0.2727273), wk =   0.0030053
        k(  121) = (   0.0909091   0.4545455   0.3636364), wk =   0.0030053
        k(  122) = (   0.0909091   0.4545455   0.4545455), wk =   0.0030053
        k(  123) = (   0.0909091   0.4545455  -0.4545455), wk =   0.0030053
        k(  124) = (   0.0909091   0.4545455  -0.3636364), wk =   0.0030053
        k(  125) = (   0.0909091   0.4545455  -0.2727273), wk =   0.0030053
        k(  126) = (   0.0909091   0.4545455  -0.1818182), wk =   0.0030053
        k(  127) = (   0.0909091   0.4545455  -0.0909091), wk =   0.0030053
        k(  128) = (   0.0909091  -0.4545455   0.0000000), wk =   0.0030053
        k(  129) = (   0.0909091  -0.4545455   0.0909091), wk =   0.0030053
        k(  130) = (   0.0909091  -0.4545455   0.1818182), wk =   0.0030053
        k(  131) = (   0.0909091  -0.4545455   0.2727273), wk =   0.0030053
        k(  132) = (   0.0909091  -0.4545455   0.3636364), wk =   0.0030053
        k(  133) = (   0.0909091  -0.4545455   0.4545455), wk =   0.0030053
        k(  134) = (   0.0909091  -0.4545455  -0.4545455), wk =   0.0030053
        k(  135) = (   0.0909091  -0.4545455  -0.3636364), wk =   0.0030053
        k(  136) = (   0.0909091  -0.4545455  -0.2727273), wk =   0.0030053
        k(  137) = (   0.0909091  -0.4545455  -0.1818182), wk =   0.0030053
        k(  138) = (   0.0909091  -0.4545455  -0.0909091), wk =   0.0030053
        k(  139) = (   0.0909091  -0.3636364  -0.0000000), wk =   0.0030053
        k(  140) = (   0.0909091  -0.3636364   0.0909091), wk =   0.0030053
        k(  141) = (   0.0909091  -0.3636364   0.1818182), wk =   0.0030053
        k(  142) = (   0.0909091  -0.3636364   0.2727273), wk =   0.0030053
        k(  143) = (   0.0909091  -0.3636364   0.3636364), wk =   0.0030053
        k(  144) = (   0.0909091  -0.3636364   0.4545455), wk =   0.0030053
        k(  145) = (   0.0909091  -0.3636364  -0.4545455), wk =   0.0030053
        k(  146) = (   0.0909091  -0.3636364  -0.3636364), wk =   0.0030053
        k(  147) = (   0.0909091  -0.3636364  -0.2727273), wk =   0.0030053
        k(  148) = (   0.0909091  -0.3636364  -0.1818182), wk =   0.0030053
        k(  149) = (   0.0909091  -0.3636364  -0.0909091), wk =   0.0030053
        k(  150) = (   0.0909091  -0.2727273  -0.0000000), wk =   0.0030053
        k(  151) = (   0.0909091  -0.2727273   0.0909091), wk =   0.0030053
        k(  152) = (   0.0909091  -0.2727273   0.1818182), wk =   0.0030053
        k(  153) = (   0.0909091  -0.2727273   0.2727273), wk =   0.0030053
        k(  154) = (   0.0909091  -0.2727273   0.3636364), wk =   0.0030053
        k(  155) = (   0.0909091  -0.2727273   0.4545455), wk =   0.0030053
        k(  156) = (   0.0909091  -0.2727273  -0.4545455), wk =   0.0030053
        k(  157) = (   0.0909091  -0.2727273  -0.3636364), wk =   0.0030053
        k(  158) = (   0.0909091  -0.2727273  -0.2727273), wk =   0.0030053
        k(  159) = (   0.0909091  -0.2727273  -0.1818182), wk =   0.0030053
        k(  160) = (   0.0909091  -0.2727273  -0.0909091), wk =   0.0030053
        k(  161) = (   0.0909091  -0.1818182  -0.0000000), wk =   0.0030053
        k(  162) = (   0.0909091  -0.1818182   0.0909091), wk =   0.0030053
        k(  163) = (   0.0909091  -0.1818182   0.1818182), wk =   0.0030053
        k(  164) = (   0.0909091  -0.1818182   0.2727273), wk =   0.0030053
        k(  165) = (   0.0909091  -0.1818182   0.3636364), wk =   0.0030053
        k(  166) = (   0.0909091  -0.1818182   0.4545455), wk =   0.0030053
        k(  167) = (   0.0909091  -0.1818182  -0.4545455), wk =   0.0030053
        k(  168) = (   0.0909091  -0.1818182  -0.3636364), wk =   0.0030053
        k(  169) = (   0.0909091  -0.1818182  -0.2727273), wk =   0.0030053
        k(  170) = (   0.0909091  -0.1818182  -0.1818182), wk =   0.0030053
        k(  171) = (   0.0909091  -0.1818182  -0.0909091), wk =   0.0030053
        k(  172) = (   0.0909091  -0.0909091  -0.0000000), wk =   0.0030053
        k(  173) = (   0.0909091  -0.0909091   0.0909091), wk =   0.0030053
        k(  174) = (   0.0909091  -0.0909091   0.1818182), wk =   0.0030053
        k(  175) = (   0.0909091  -0.0909091   0.2727273), wk =   0.0030053
        k(  176) = (   0.0909091  -0.0909091   0.3636364), wk =   0.0030053
        k(  177) = (   0.0909091  -0.0909091   0.4545455), wk =   0.0030053
        k(  178) = (   0.0909091  -0.0909091  -0.4545455), wk =   0.0030053
        k(  179) = (   0.0909091  -0.0909091  -0.3636364), wk =   0.0030053
        k(  180) = (   0.0909091  -0.0909091  -0.2727273), wk =   0.0030053
        k(  181) = (   0.0909091  -0.0909091  -0.1818182), wk =   0.0030053
        k(  182) = (   0.0909091  -0.0909091  -0.0909091), wk =   0.0030053
        k(  183) = (   0.1818182  -0.0000000  -0.0000000), wk =   0.0030053
        k(  184) = (   0.1818182  -0.0000000   0.0909091), wk =   0.0030053
        k(  185) = (   0.1818182  -0.0000000   0.1818182), wk =   0.0030053
        k(  186) = (   0.1818182  -0.0000000   0.2727273), wk =   0.0030053
        k(  187) = (   0.1818182  -0.0000000   0.3636364), wk =   0.0030053
        k(  188) = (   0.1818182  -0.0000000   0.4545455), wk =   0.0030053
        k(  189) = (   0.1818182  -0.0000000  -0.4545455), wk =   0.0030053
        k(  190) = (   0.1818182  -0.0000000  -0.3636364), wk =   0.0030053
        k(  191) = (   0.1818182  -0.0000000  -0.2727273), wk =   0.0030053
        k(  192) = (   0.1818182  -0.0000000  -0.1818182), wk =   0.0030053
        k(  193) = (   0.1818182  -0.0000000  -0.0909091), wk =   0.0030053
        k(  194) = (   0.1818182   0.0909091   0.0000000), wk =   0.0030053
        k(  195) = (   0.1818182   0.0909091   0.0909091), wk =   0.0030053
        k(  196) = (   0.1818182   0.0909091   0.1818182), wk =   0.0030053
        k(  197) = (   0.1818182   0.0909091   0.2727273), wk =   0.0030053
        k(  198) = (   0.1818182   0.0909091   0.3636364), wk =   0.0030053
        k(  199) = (   0.1818182   0.0909091   0.4545455), wk =   0.0030053
        k(  200) = (   0.1818182   0.0909091  -0.4545455), wk =   0.0030053
        k(  201) = (   0.1818182   0.0909091  -0.3636364), wk =   0.0030053
        k(  202) = (   0.1818182   0.0909091  -0.2727273), wk =   0.0030053
        k(  203) = (   0.1818182   0.0909091  -0.1818182), wk =   0.0030053
        k(  204) = (   0.1818182   0.0909091  -0.0909091), wk =   0.0030053
        k(  205) = (   0.1818182   0.1818182   0.0000000), wk =   0.0030053
        k(  206) = (   0.1818182   0.1818182   0.0909091), wk =   0.0030053
        k(  207) = (   0.1818182   0.1818182   0.1818182), wk =   0.0030053
        k(  208) = (   0.1818182   0.1818182   0.2727273), wk =   0.0030053
        k(  209) = (   0.1818182   0.1818182   0.3636364), wk =   0.0030053
        k(  210) = (   0.1818182   0.1818182   0.4545455), wk =   0.0030053
        k(  211) = (   0.1818182   0.1818182  -0.4545455), wk =   0.0030053
        k(  212) = (   0.1818182   0.1818182  -0.3636364), wk =   0.0030053
        k(  213) = (   0.1818182   0.1818182  -0.2727273), wk =   0.0030053
        k(  214) = (   0.1818182   0.1818182  -0.1818182), wk =   0.0030053
        k(  215) = (   0.1818182   0.1818182  -0.0909091), wk =   0.0030053
        k(  216) = (   0.1818182   0.2727273   0.0000000), wk =   0.0030053
        k(  217) = (   0.1818182   0.2727273   0.0909091), wk =   0.0030053
        k(  218) = (   0.1818182   0.2727273   0.1818182), wk =   0.0030053
        k(  219) = (   0.1818182   0.2727273   0.2727273), wk =   0.0030053
        k(  220) = (   0.1818182   0.2727273   0.3636364), wk =   0.0030053
        k(  221) = (   0.1818182   0.2727273   0.4545455), wk =   0.0030053
        k(  222) = (   0.1818182   0.2727273  -0.4545455), wk =   0.0030053
        k(  223) = (   0.1818182   0.2727273  -0.3636364), wk =   0.0030053
        k(  224) = (   0.1818182   0.2727273  -0.2727273), wk =   0.0030053
        k(  225) = (   0.1818182   0.2727273  -0.1818182), wk =   0.0030053
        k(  226) = (   0.1818182   0.2727273  -0.0909091), wk =   0.0030053
        k(  227) = (   0.1818182   0.3636364   0.0000000), wk =   0.0030053
        k(  228) = (   0.1818182   0.3636364   0.0909091), wk =   0.0030053
        k(  229) = (   0.1818182   0.3636364   0.1818182), wk =   0.0030053
        k(  230) = (   0.1818182   0.3636364   0.2727273), wk =   0.0030053
        k(  231) = (   0.1818182   0.3636364   0.3636364), wk =   0.0030053
        k(  232) = (   0.1818182   0.3636364   0.4545455), wk =   0.0030053
        k(  233) = (   0.1818182   0.3636364  -0.4545455), wk =   0.0030053
        k(  234) = (   0.1818182   0.3636364  -0.3636364), wk =   0.0030053
        k(  235) = (   0.1818182   0.3636364  -0.2727273), wk =   0.0030053
        k(  236) = (   0.1818182   0.3636364  -0.1818182), wk =   0.0030053
        k(  237) = (   0.1818182   0.3636364  -0.0909091), wk =   0.0030053
        k(  238) = (   0.1818182   0.4545455   0.0000000), wk =   0.0030053
        k(  239) = (   0.1818182   0.4545455   0.0909091), wk =   0.0030053
        k(  240) = (   0.1818182   0.4545455   0.1818182), wk =   0.0030053
        k(  241) = (   0.1818182   0.4545455   0.2727273), wk =   0.0030053
        k(  242) = (   0.1818182   0.4545455   0.3636364), wk =   0.0030053
        k(  243) = (   0.1818182   0.4545455   0.4545455), wk =   0.0030053
        k(  244) = (   0.1818182   0.4545455  -0.4545455), wk =   0.0030053
        k(  245) = (   0.1818182   0.4545455  -0.3636364), wk =   0.0030053
        k(  246) = (   0.1818182   0.4545455  -0.2727273), wk =   0.0030053
        k(  247) = (   0.1818182   0.4545455  -0.1818182), wk =   0.0030053
        k(  248) = (   0.1818182   0.4545455  -0.0909091), wk =   0.0030053
        k(  249) = (   0.1818182  -0.4545455  -0.0000000), wk =   0.0030053
        k(  250) = (   0.1818182  -0.4545455   0.0909091), wk =   0.0030053
        k(  251) = (   0.1818182  -0.4545455   0.1818182), wk =   0.0030053
        k(  252) = (   0.1818182  -0.4545455   0.2727273), wk =   0.0030053
        k(  253) = (   0.1818182  -0.4545455   0.3636364), wk =   0.0030053
        k(  254) = (   0.1818182  -0.4545455   0.4545455), wk =   0.0030053
        k(  255) = (   0.1818182  -0.4545455  -0.4545455), wk =   0.0030053
        k(  256) = (   0.1818182  -0.4545455  -0.3636364), wk =   0.0030053
        k(  257) = (   0.1818182  -0.4545455  -0.2727273), wk =   0.0030053
        k(  258) = (   0.1818182  -0.4545455  -0.1818182), wk =   0.0030053
        k(  259) = (   0.1818182  -0.4545455  -0.0909091), wk =   0.0030053
        k(  260) = (   0.1818182  -0.3636364  -0.0000000), wk =   0.0030053
        k(  261) = (   0.1818182  -0.3636364   0.0909091), wk =   0.0030053
        k(  262) = (   0.1818182  -0.3636364   0.1818182), wk =   0.0030053
        k(  263) = (   0.1818182  -0.3636364   0.2727273), wk =   0.0030053
        k(  264) = (   0.1818182  -0.3636364   0.3636364), wk =   0.0030053
        k(  265) = (   0.1818182  -0.3636364   0.4545455), wk =   0.0030053
        k(  266) = (   0.1818182  -0.3636364  -0.4545455), wk =   0.0030053
        k(  267) = (   0.1818182  -0.3636364  -0.3636364), wk =   0.0030053
        k(  268) = (   0.1818182  -0.3636364  -0.2727273), wk =   0.0030053
        k(  269) = (   0.1818182  -0.3636364  -0.1818182), wk =   0.0030053
        k(  270) = (   0.1818182  -0.3636364  -0.0909091), wk =   0.0030053
        k(  271) = (   0.1818182  -0.2727273  -0.0000000), wk =   0.0030053
        k(  272) = (   0.1818182  -0.2727273   0.0909091), wk =   0.0030053
        k(  273) = (   0.1818182  -0.2727273   0.1818182), wk =   0.0030053
        k(  274) = (   0.1818182  -0.2727273   0.2727273), wk =   0.0030053
        k(  275) = (   0.1818182  -0.2727273   0.3636364), wk =   0.0030053
        k(  276) = (   0.1818182  -0.2727273   0.4545455), wk =   0.0030053
        k(  277) = (   0.1818182  -0.2727273  -0.4545455), wk =   0.0030053
        k(  278) = (   0.1818182  -0.2727273  -0.3636364), wk =   0.0030053
        k(  279) = (   0.1818182  -0.2727273  -0.2727273), wk =   0.0030053
        k(  280) = (   0.1818182  -0.2727273  -0.1818182), wk =   0.0030053
        k(  281) = (   0.1818182  -0.2727273  -0.0909091), wk =   0.0030053
        k(  282) = (   0.1818182  -0.1818182  -0.0000000), wk =   0.0030053
        k(  283) = (   0.1818182  -0.1818182   0.0909091), wk =   0.0030053
        k(  284) = (   0.1818182  -0.1818182   0.1818182), wk =   0.0030053
        k(  285) = (   0.1818182  -0.1818182   0.2727273), wk =   0.0030053
        k(  286) = (   0.1818182  -0.1818182   0.3636364), wk =   0.0030053
        k(  287) = (   0.1818182  -0.1818182   0.4545455), wk =   0.0030053
        k(  288) = (   0.1818182  -0.1818182  -0.4545455), wk =   0.0030053
        k(  289) = (   0.1818182  -0.1818182  -0.3636364), wk =   0.0030053
        k(  290) = (   0.1818182  -0.1818182  -0.2727273), wk =   0.0030053
        k(  291) = (   0.1818182  -0.1818182  -0.1818182), wk =   0.0030053
        k(  292) = (   0.1818182  -0.1818182  -0.0909091), wk =   0.0030053
        k(  293) = (   0.1818182  -0.0909091  -0.0000000), wk =   0.0030053
        k(  294) = (   0.1818182  -0.0909091   0.0909091), wk =   0.0030053
        k(  295) = (   0.1818182  -0.0909091   0.1818182), wk =   0.0030053
        k(  296) = (   0.1818182  -0.0909091   0.2727273), wk =   0.0030053
        k(  297) = (   0.1818182  -0.0909091   0.3636364), wk =   0.0030053
        k(  298) = (   0.1818182  -0.0909091   0.4545455), wk =   0.0030053
        k(  299) = (   0.1818182  -0.0909091  -0.4545455), wk =   0.0030053
        k(  300) = (   0.1818182  -0.0909091  -0.3636364), wk =   0.0030053
        k(  301) = (   0.1818182  -0.0909091  -0.2727273), wk =   0.0030053
        k(  302) = (   0.1818182  -0.0909091  -0.1818182), wk =   0.0030053
        k(  303) = (   0.1818182  -0.0909091  -0.0909091), wk =   0.0030053
        k(  304) = (   0.2727273  -0.0000000   0.0000000), wk =   0.0030053
        k(  305) = (   0.2727273  -0.0000000   0.0909091), wk =   0.0030053
        k(  306) = (   0.2727273  -0.0000000   0.1818182), wk =   0.0030053
        k(  307) = (   0.2727273  -0.0000000   0.2727273), wk =   0.0030053
        k(  308) = (   0.2727273  -0.0000000   0.3636364), wk =   0.0030053
        k(  309) = (   0.2727273  -0.0000000   0.4545455), wk =   0.0030053
        k(  310) = (   0.2727273  -0.0000000  -0.4545455), wk =   0.0030053
        k(  311) = (   0.2727273  -0.0000000  -0.3636364), wk =   0.0030053
        k(  312) = (   0.2727273  -0.0000000  -0.2727273), wk =   0.0030053
        k(  313) = (   0.2727273  -0.0000000  -0.1818182), wk =   0.0030053
        k(  314) = (   0.2727273  -0.0000000  -0.0909091), wk =   0.0030053
        k(  315) = (   0.2727273   0.0909091   0.0000000), wk =   0.0030053
        k(  316) = (   0.2727273   0.0909091   0.0909091), wk =   0.0030053
        k(  317) = (   0.2727273   0.0909091   0.1818182), wk =   0.0030053
        k(  318) = (   0.2727273   0.0909091   0.2727273), wk =   0.0030053
        k(  319) = (   0.2727273   0.0909091   0.3636364), wk =   0.0030053
        k(  320) = (   0.2727273   0.0909091   0.4545455), wk =   0.0030053
[...]

     occupation numbers 
     1.0000   1.0000   1.0000   1.0000   0.0000   0.0000   0.0000   0.0000

          k = 0.4545-0.8048-0.5691 (  1005 PWs)   bands (ev):

    -6.3449   0.4287   6.3782   7.7428  13.6248  20.6960  22.5056  29.1373

     occupation numbers 
     1.0000   1.0000   1.0000   1.0000   0.0000   0.0000   0.0000   0.0000

          k = 0.4545-0.8048-0.4540 (  1001 PWs)   bands (ev):

    -6.3618   0.9818   5.6889   7.2176  14.0441  21.1493  22.9640  27.4239

     occupation numbers 
     1.0000   1.0000   1.0000   1.0000   0.0000   0.0000   0.0000   0.0000

          k = 0.4545-0.8048-0.3390 (  1011 PWs)   bands (ev):

    -6.3333   1.9359   4.7790   6.2831  14.5254  21.5792  23.7519  26.8763

     occupation numbers 
     1.0000   1.0000   1.0000   1.0000   0.0000   0.0000   0.0000   0.0000

          k = 0.4545-0.8048-0.2239 (  1008 PWs)   bands (ev):

    -6.2429   2.8534   4.1455   5.3889  14.7493  21.4834  23.8646  26.6807

     occupation numbers 
     1.0000   1.0000   1.0000   1.0000   0.0000   0.0000   0.0000   0.0000

          k = 0.4545-0.8048-0.1089 (  1007 PWs)   bands (ev):

    -6.1253   2.7435   4.4255   5.0090  14.7146  21.2260  22.4416  27.7838

     occupation numbers 
     1.0000   1.0000   1.0000   1.0000   0.0000   0.0000   0.0000   0.0000

          k = 0.4545-0.6963-0.0322 (  1009 PWs)   bands (ev):

    -6.0888   2.7497   3.7112   5.5422  14.8906  21.9044  22.4322  27.6998

     occupation numbers 
     1.0000   1.0000   1.0000   1.0000   0.0000   0.0000   0.0000   0.0000

          k = 0.4545-0.6963 0.0829 (  1007 PWs)   bands (ev):

    -5.8929   2.8450   3.5533   5.0581  15.0324  21.7768  22.8923  27.1724

     occupation numbers 
     1.0000   1.0000   1.0000   1.0000   0.0000   0.0000   0.0000   0.0000

          k = 0.4545-0.6963 0.1979 (  1005 PWs)   bands (ev):

    -5.7869   3.0367   3.4458   4.6797  15.0318  21.7181  24.0254  26.2561

     occupation numbers 
     1.0000   1.0000   1.0000   1.0000   0.0000   0.0000   0.0000   0.0000

          k = 0.4545-0.6963 0.3130 (  1008 PWs)   bands (ev):

    -5.7843   2.3447   3.5920   5.5476  14.6347  21.3254  24.3356  26.6918

     occupation numbers 
     1.0000   1.0000   1.0000   1.0000   0.0000   0.0000   0.0000   0.0000

          k = 0.4545-0.6963 0.4280 (   998 PWs)   bands (ev):

    -5.8718   1.3828   4.3937   6.6447  13.8820  20.6667  24.5981  26.3151

     occupation numbers 
     1.0000   1.0000   1.0000   1.0000   0.0000   0.0000   0.0000   0.0000

          k = 0.4545-0.6963 0.5431 (  1004 PWs)   bands (ev):

    -6.0368   0.8751   5.1972   7.4791  13.2005  20.2865  23.5804  27.3957

     occupation numbers 
     1.0000   1.0000   1.0000   1.0000   0.0000   0.0000   0.0000   0.0000

          k = 0.4545-0.6963-0.6074 (  1001 PWs)   bands (ev):

    -6.2477   0.9208   5.4514   7.9057  13.0052  20.3573  22.5884  29.4122

     occupation numbers 
     1.0000   1.0000   1.0000   1.0000   0.0000   0.0000   0.0000   0.0000

          k = 0.4545-0.6963-0.4924 (  1008 PWs)   bands (ev):

    -6.4346   1.4745   4.9317   7.8976  13.2930  20.7615  22.5951  29.7282

     occupation numbers 
     1.0000   1.0000   1.0000   1.0000   0.0000   0.0000   0.0000   0.0000

          k = 0.4545-0.6963-0.3773 (  1012 PWs)   bands (ev):

    -6.5231   2.3734   4.1569   7.2003  13.9022  21.4438  23.3225  27.9126

     occupation numbers 
     1.0000   1.0000   1.0000   1.0000   0.0000   0.0000   0.0000   0.0000

          k = 0.4545-0.6963-0.2623 (  1015 PWs)   bands (ev):

    -6.4768   3.0431   3.8473   6.1398  14.4675  22.1605  23.9218  26.1615

     occupation numbers 
     1.0000   1.0000   1.0000   1.0000   0.0000   0.0000   0.0000   0.0000

          k = 0.4545-0.6963-0.1472 (  1009 PWs)   bands (ev):

    -6.3115   2.8241   4.1677   5.4988  14.7628  22.3735  22.9052  26.5825

     occupation numbers 
     1.0000   1.0000   1.0000   1.0000   0.0000   0.0000   0.0000   0.0000

          k = 0.4545-0.5878-0.0705 (  1009 PWs)   bands (ev):

    -6.2537   1.8001   4.6473   6.1085  14.7672  22.6238  23.2167  26.3610

     occupation numbers 
     1.0000   1.0000   1.0000   1.0000   0.0000   0.0000   0.0000   0.0000

          k = 0.4545-0.5878 0.0445 (  1006 PWs)   bands (ev):

    -5.9474   2.0459   4.0029   5.6549  14.8497  22.3629  23.6032  26.3015

     occupation numbers 
     1.0000   1.0000   1.0000   1.0000   0.0000   0.0000   0.0000   0.0000

          k = 0.4545-0.5878 0.1596 (  1001 PWs)   bands (ev):

    -5.6634   2.2705   3.8457   4.9428  14.6125  21.8466  24.4075  26.0866

     occupation numbers 
     1.0000   1.0000   1.0000   1.0000   0.0000   0.0000   0.0000   0.0000

          k = 0.4545-0.5878 0.2746 (  1005 PWs)   bands (ev):

    -5.4893   2.1155   3.6606   5.2753  14.0022  20.5851  24.9201  27.2459

     occupation numbers 
     1.0000   1.0000   1.0000   1.0000   0.0000   0.0000   0.0000   0.0000

          k = 0.4545-0.5878 0.3897 (  1008 PWs)   bands (ev):

    -5.4973   1.6464   3.8175   6.3292  13.1355  19.4499  25.3773  27.6432

     occupation numbers 
     1.0000   1.0000   1.0000   1.0000   0.0000   0.0000   0.0000   0.0000

          k = 0.4545-0.5878 0.5047 (  1006 PWs)   bands (ev):

    -5.7036   1.3638   4.3826   7.1389  12.4566  19.0063  24.8992  27.7741

     occupation numbers 
     1.0000   1.0000   1.0000   1.0000   0.0000   0.0000   0.0000   0.0000

          k = 0.4545-0.5878-0.6458 (  1011 PWs)   bands (ev):

    -6.0336   1.5248   4.6927   7.5314  12.3541  19.4101  23.3771  28.8705

     occupation numbers 
     1.0000   1.0000   1.0000   1.0000   0.0000   0.0000   0.0000   0.0000

          k = 0.4545-0.5878-0.5307 (  1012 PWs)   bands (ev):

    -6.3584   2.0782   4.2322   7.9939  12.5587  20.5093  22.1886  30.0835

     occupation numbers 
     1.0000   1.0000   1.0000   1.0000   0.0000   0.0000   0.0000   0.0000

          k = 0.4545-0.5878-0.4157 (  1006 PWs)   bands (ev):

    -6.5707   2.6086   3.7509   8.0203  13.0481  21.2428  22.5089  29.4554

     occupation numbers 
     1.0000   1.0000   1.0000   1.0000   0.0000   0.0000   0.0000   0.0000

          k = 0.4545-0.5878-0.3006 (  1008 PWs)   bands (ev):

    -6.6181   2.2468   4.3964   7.2879  13.8066  21.7128  23.7102  27.0507

     occupation numbers 
     1.0000   1.0000   1.0000   1.0000   0.0000   0.0000   0.0000   0.0000

          k = 0.4545-0.5878-0.1856 (  1011 PWs)   bands (ev):

    -6.4995   1.8569   5.0603   6.3779  14.4300  22.4849  23.8365  25.7263

     occupation numbers 
     1.0000   1.0000   1.0000   1.0000   0.0000   0.0000   0.0000   0.0000

          k = 0.4545-0.4794-0.1089 (  1011 PWs)   bands (ev):

    -6.4656   0.8376   6.1621   6.7804  14.1698  22.5937  24.3104  24.7743

     occupation numbers 
     1.0000   1.0000   1.0000   1.0000   0.0000   0.0000   0.0000   0.0000

          k = 0.4545-0.4794 0.0062 (  1007 PWs)   bands (ev):

    -6.1839   1.0861   5.2225   6.5515  14.2487  22.7069  23.5180  25.6893

     occupation numbers 
     1.0000   1.0000   1.0000   1.0000   0.0000   0.0000   0.0000   0.0000

          k = 0.4545-0.4794 0.1212 (  1008 PWs)   bands (ev):

    -5.8305   1.4279   4.5411   6.0761  13.8685  21.0456  24.6944  26.5737

     occupation numbers 
     1.0000   1.0000   1.0000   1.0000   0.0000   0.0000   0.0000   0.0000

          k = 0.4545-0.4794 0.2363 (  1009 PWs)   bands (ev):

    -5.4902   1.4115   4.4256   5.8961  13.1644  19.1543  25.6452  27.9399

     occupation numbers 
     1.0000   1.0000   1.0000   1.0000   0.0000   0.0000   0.0000   0.0000

          k = 0.4545-0.4794 0.3513 (  1003 PWs)   bands (ev):

    -5.3005   1.1324   4.5774   6.3866  12.3390  17.6335  26.0610  29.0419

     occupation numbers 
     1.0000   1.0000   1.0000   1.0000   0.0000   0.0000   0.0000   0.0000

          k = 0.4545-0.4794 0.4664 (  1002 PWs)   bands (ev):

    -5.3890   1.1033   4.8700   6.8204  11.8206  17.0062  26.0571  28.7131

     occupation numbers 
     1.0000   1.0000   1.0000   1.0000   0.0000   0.0000   0.0000   0.0000

          k = 0.4545-0.4794-0.6841 (  1008 PWs)   bands (ev):

    -5.7232   1.4735   4.9998   6.8676  11.9121  17.5216  24.9347  28.6341

     occupation numbers 
     1.0000   1.0000   1.0000   1.0000   0.0000   0.0000   0.0000   0.0000

          k = 0.4545-0.4794-0.5691 (  1015 PWs)   bands (ev):

    -6.1301   1.9837   4.4832   7.4748  12.1554  19.0213  23.2100  29.3860

     occupation numbers 
     1.0000   1.0000   1.0000   1.0000   0.0000   0.0000   0.0000   0.0000

          k = 0.4545-0.4794-0.4540 (  1008 PWs)   bands (ev):

    -6.4571   1.9417   4.4797   8.1644  12.4388  20.8699  21.9586  30.1832

     occupation numbers 
     1.0000   1.0000   1.0000   1.0000   0.0000   0.0000   0.0000   0.0000

          k = 0.4545-0.4794-0.3390 (   999 PWs)   bands (ev):

    -6.6279   1.3644   5.2824   8.1621  12.9993  21.3686  22.7419  28.7741

     occupation numbers 
     1.0000   1.0000   1.0000   1.0000   0.0000   0.0000   0.0000   0.0000

          k = 0.4545-0.4794-0.2239 (  1004 PWs)   bands (ev):

    -6.6251   0.9251   6.1226   7.4345  13.6889  21.8400  23.8778  26.2721

     occupation numbers 
     1.0000   1.0000   1.0000   1.0000   0.0000   0.0000   0.0000   0.0000

          k = 0.4545-0.3709-0.1472 (  1012 PWs)   bands (ev):

    -6.6788   0.3125   7.3295   7.6442  13.3089  21.9979  23.4761  26.5532

     occupation numbers 
     1.0000   1.0000   1.0000   1.0000   0.0000   0.0000   0.0000   0.0000

          k = 0.4545-0.3709-0.0322 (  1008 PWs)   bands (ev):

    -6.5229   0.5872   6.3866   7.6160  13.4099  21.8986  23.4861  26.3112

     occupation numbers 
     1.0000   1.0000   1.0000   1.0000   0.0000   0.0000   0.0000   0.0000

          k = 0.4545-0.3709 0.0829 (  1005 PWs)   bands (ev):

    -6.2206   1.0192   5.3812   7.4315  13.0249  20.0852  24.7056  27.1221

     occupation numbers 
     1.0000   1.0000   1.0000   1.0000   0.0000   0.0000   0.0000   0.0000

          k = 0.4545-0.3709 0.1979 (  1013 PWs)   bands (ev):

    -5.8136   1.1452   5.0008   7.2298  12.3392  17.8952  26.0051  28.1837

     occupation numbers 
     1.0000   1.0000   1.0000   1.0000   0.0000   0.0000   0.0000   0.0000

          k = 0.4545-0.3709 0.3130 (  1008 PWs)   bands (ev):

    -5.4183   0.8088   5.3795   7.1378  11.7190  15.9713  26.4363  29.5907

     occupation numbers 
     1.0000   1.0000   1.0000   1.0000   0.0000   0.0000   0.0000   0.0000

          k = 0.4545-0.3709 0.4280 (  1004 PWs)   bands (ev):

    -5.2396   0.6068   5.9719   6.8005  11.5227  15.0153  26.4991  29.8609

     occupation numbers 
     1.0000   1.0000   1.0000   1.0000   0.0000   0.0000   0.0000   0.0000

          k = 0.4545-0.3709-0.7225 (  1007 PWs)   bands (ev):

    -5.4102   0.9141   5.8449   6.6120  11.6345  15.6290  26.1680  29.0768

     occupation numbers 
     1.0000   1.0000   1.0000   1.0000   0.0000   0.0000   0.0000   0.0000

          k = 0.4545-0.3709-0.6074 (  1009 PWs)   bands (ev):

    -5.8045   1.4497   4.8847   7.3285  11.8045  17.4328  24.8137  29.0224

     occupation numbers 
     1.0000   1.0000   1.0000   1.0000   0.0000   0.0000   0.0000   0.0000

          k = 0.4545-0.3709-0.4924 (  1011 PWs)   bands (ev):

    -6.2150   1.4135   4.9004   8.0188  12.1253  19.5505  23.1321  29.7820

     occupation numbers 
     1.0000   1.0000   1.0000   1.0000   0.0000   0.0000   0.0000   0.0000

          k = 0.4545-0.3709-0.3773 (  1004 PWs)   bands (ev):

    -6.5210   0.8405   5.8257   8.4257  12.5446  21.1623  22.2817  30.5790

     occupation numbers 
     1.0000   1.0000   1.0000   1.0012   0.0000   0.0000   0.0000   0.0000

          k = 0.4545-0.3709-0.2623 (  1011 PWs)   bands (ev):

    -6.6785   0.3956   6.8258   8.2820  12.9489  21.5048  23.0149  28.5667

     occupation numbers 
     1.0000   1.0000   1.0000   1.0001   0.0000   0.0000   0.0000   0.0000

     the Fermi energy is     9.3419 ev

!    total energy              =     -26.25522044 Ry
     estimated scf accuracy    <          1.2E-10 Ry
     smearing contrib. (-TS)   =       0.00041951 Ry
     internal energy E=F+TS    =     -26.25563994 Ry

     The total energy is F=E-TS. E is the sum of the following terms:
     one-electron contribution =       1.07621305 Ry
     hartree contribution      =       5.31332999 Ry
     xc contribution           =      -9.83695754 Ry
     ewald contribution        =     -22.80822544 Ry

     convergence has been achieved in  10 iterations

     Forces acting on atoms (cartesian axes, Ry/au):

     atom    1 type  1   force =     2.46074227    0.85559869   -1.85161311
     atom    2 type  2   force =    -2.46074227   -0.85559869    1.85161311
     The non-local contrib.  to forces
     atom    1 type  1   force =     1.93504680    0.66149555   -1.44948843
     atom    2 type  2   force =    -0.25606319   -0.02307706    0.22195872
     The ionic contribution  to forces
     atom    1 type  1   force =     6.06336729    2.30409507   -4.51567670
     atom    2 type  2   force =    -6.06336729   -2.30409507    4.51567670
     The local contribution  to forces
     atom    1 type  1   force =    -5.42675351   -2.06944436    4.03032050
     atom    2 type  2   force =     3.78805088    1.44724113   -2.83207494
     The core correction contribution to forces
     atom    1 type  1   force =    -0.11092002   -0.04055102    0.08323489
     atom    2 type  2   force =     0.07065243    0.02432814   -0.05395175
     The Hubbard contrib.    to forces
     atom    1 type  1   force =     0.00000000    0.00000000    0.00000000
     atom    2 type  2   force =     0.00000000    0.00000000    0.00000000
     The SCF correction term to forces
     atom    1 type  1   force =     0.00000249    0.00000129   -0.00000218
     atom    2 type  2   force =    -0.00001433    0.00000201    0.00000556

     Total force =     4.520127     Total SCF correction =     0.000016


     Computing stress (Cartesian axis) and pressure

          total   stress  (Ry/bohr**3)                   (kbar)     P=     3332.00
   0.03875492   0.01567587  -0.02895696         5701.05     2306.00    -4259.72
   0.01567587   0.00671706  -0.01242438         2306.00      988.11    -1827.69
  -0.02895696  -0.01242438   0.02247947        -4259.72    -1827.69     3306.84

     kinetic stress (kbar)  24692.18    381.89   -156.58
                              381.89  24713.34   -419.85
                             -156.58   -419.85  24682.99

     local   stress (kbar)  -6982.62  -3179.07   7019.03
                            -3179.07   1261.45   2187.04
                             7019.03   2187.04  -3442.67

     nonloc. stress (kbar)  -3091.63   -160.58    149.58
                             -160.58  -2981.21    138.10
                              149.58    138.10  -3023.68

     hartree stress (kbar)   3356.57    257.17   -511.68
                              257.17   2787.11   -156.90
                             -511.68   -156.90   3260.44

     exc-cor stress (kbar)  -1312.17     18.41    -45.29
                               18.41  -1368.20    -12.25
                              -45.29    -12.25  -1338.19

     corecor stress (kbar)  -3667.05    -42.72     86.65
                              -42.72  -3565.55     33.21
                               86.65     33.21  -3616.56

     ewald   stress (kbar)  -7294.23   5030.90 -10801.43
                             5030.90 -19858.83  -3597.03
                           -10801.43  -3597.03 -13215.48

     hubbard stress (kbar)      0.00      0.00      0.00
                                0.00      0.00      0.00
                                0.00      0.00      0.00

     DFT-D   stress (kbar)      0.00      0.00      0.00
                                0.00      0.00      0.00
                                0.00      0.00      0.00

     XDM     stress (kbar)      0.00      0.00      0.00
                                0.00      0.00      0.00
                                0.00      0.00      0.00

     dft-nl  stress (kbar)      0.00      0.00      0.00
                                0.00      0.00      0.00
                                0.00      0.00      0.00

     TS-vdW  stress (kbar)      0.00      0.00      0.00
                                0.00      0.00      0.00
                                0.00      0.00      0.00



     init_run     :      0.48s CPU      1.43s WALL (       1 calls)
     electrons    :     13.47s CPU     14.93s WALL (       1 calls)
     forces       :      0.10s CPU      0.10s WALL (       1 calls)
     stress       :      0.27s CPU      0.27s WALL (       1 calls)

     Called by init_run:
     wfcinit      :      0.40s CPU      0.88s WALL (       1 calls)
     wfcinit:atom :      0.01s CPU      0.01s WALL (     666 calls)
     wfcinit:wfcr :      0.37s CPU      0.84s WALL (     666 calls)
     potinit      :      0.02s CPU      0.05s WALL (       1 calls)
     hinit0       :      0.05s CPU      0.36s WALL (       1 calls)

     Called by electrons:
     c_bands      :     11.58s CPU     12.54s WALL (      10 calls)
     sum_band     :      1.84s CPU      2.12s WALL (      10 calls)
     v_of_rho     :      0.03s CPU      0.04s WALL (      11 calls)
     v_h          :      0.00s CPU      0.00s WALL (      11 calls)
     v_xc         :      0.03s CPU      0.04s WALL (      13 calls)
     newd         :      0.01s CPU      0.07s WALL (      11 calls)
     mix_rho      :      0.00s CPU      0.18s WALL (      10 calls)

     Called by c_bands:
     init_us_2    :      0.24s CPU      0.26s WALL (   15318 calls)
     cegterg      :     11.23s CPU     12.16s WALL (    6660 calls)

     Called by sum_band:
     sum_band:wei :      0.02s CPU      0.02s WALL (      10 calls)
     sum_band:loo :      1.81s CPU      2.03s WALL (      10 calls)
     sum_band:buf :      0.02s CPU      0.02s WALL (    6660 calls)
     sum_band:ini :      0.10s CPU      0.11s WALL (    6660 calls)
     sum_band:cal :      0.09s CPU      0.10s WALL (    6660 calls)
     sum_band:bec :      0.01s CPU      0.09s WALL (    6660 calls)
     addusdens    :      0.01s CPU      0.06s WALL (      10 calls)
     addusd:skk   :      0.00s CPU      0.00s WALL (      10 calls)
     addusd:dgemm :      0.00s CPU      0.05s WALL (      10 calls)
     addusd:qvan2 :      0.00s CPU      0.01s WALL (      10 calls)

     Called by *egterg:
     cdiaghg      :      1.45s CPU      1.98s WALL (   24802 calls)
     cegterg:over :      0.43s CPU      0.47s WALL (   18142 calls)
     cegterg:upda :      0.07s CPU      0.08s WALL (   18142 calls)
     cegterg:last :      0.10s CPU      0.11s WALL (   13846 calls)
     h_psi        :      8.98s CPU      9.74s WALL (   25468 calls)
     s_psi        :      0.09s CPU      0.10s WALL (   25468 calls)
     g_psi        :      0.03s CPU      0.03s WALL (   18142 calls)

     Called by h_psi:
     h_psi:calbec :      0.33s CPU      0.39s WALL (   25468 calls)
     vloc_psi     :      8.46s CPU      9.14s WALL (   25468 calls)
     add_vuspsi   :      0.12s CPU      0.13s WALL (   25468 calls)

     General routines
     calbec       :      0.44s CPU      0.51s WALL (   35458 calls)
     fft          :      0.02s CPU      0.29s WALL (     166 calls)
     ffts         :      0.00s CPU      0.00s WALL (      21 calls)
     fftw         :      9.39s CPU     10.14s WALL (  339742 calls)
     interpolate  :      0.00s CPU      0.00s WALL (      11 calls)

     Parallel routines
     fft_scatt_xy :      0.83s CPU      0.90s WALL (  339929 calls)
     fft_scatt_yz :      2.98s CPU      3.22s WALL (  339929 calls)

     PWSCF        :     14.38s CPU     18.71s WALL


   This run was terminated on:  21:16:33  28Sep2022            

=------------------------------------------------------------------------------=
   JOB DONE.
=------------------------------------------------------------------------------=
Note: The following floating-point exceptions are signalling: IEEE_UNDERFLOW_FLAG IEEE_DENORMAL
