
     Program PWSCF v.6.7MaX starts on 28Sep2022 at 21:18:13 

     This program is part of the open-source Quantum ESPRESSO suite
     for quantum simulation of materials; please cite
         "P. Giannozzi et al., J. Phys.:Condens. Matter 21 395502 (2009);
         "P. Giannozzi et al., J. Phys.:Condens. Matter 29 465901 (2017);
          URL http://www.quantum-espresso.org", 
     in publications or presentations arising from this work. More details at
     http://www.quantum-espresso.org/quote

     Parallel version (MPI), running on    16 processors

     MPI processes distributed on     1 nodes
     R & G space division:  proc/nbgrp/npool/nimage =      16
     Reading input from scale_3d-03.in

     Current dimensions of program PWSCF are:
     Max number of different atomic species (ntypx) = 10
     Max number of k-points (npk) =  40000
     Max angular momentum in pseudopotentials (lmaxx) =  3
     Message from routine read_pp_mesh:
     mesh size missing, using the one in header

     Subspace diagonalization in iterative solution of the eigenvalue problem:
     a serial algorithm will be used


     Parallelization info
     --------------------
     sticks:   dense  smooth     PW     G-vecs:    dense   smooth      PW
     Min          46      33     10                  831      505      90
     Max          47      34     11                  834      507      94
     Sum         745     535    163                13323     8099    1459



     bravais-lattice index     =            0
     lattice parameter (alat)  =       4.9260  a.u.
     unit-cell volume          =      84.5223 (a.u.)^3
     number of atoms/cell      =            2
     number of atomic types    =            2
     number of electrons       =         8.00
     number of Kohn-Sham states=            8
     kinetic-energy cutoff     =      80.0000  Ry
     charge density cutoff     =     440.0000  Ry
     scf convergence threshold =      2.0E-10
     mixing beta               =       0.4000
     number of iterations used =            8  plain     mixing
     Exchange-correlation= PBE
                           (   1   4   3   4   0   0   0)

     celldm(1)=   4.926012  celldm(2)=   0.000000  celldm(3)=   0.000000
     celldm(4)=   0.000000  celldm(5)=   0.000000  celldm(6)=   0.000000

     crystal axes: (cart. coord. in units of alat)
               a(1) = (   1.000000   0.000000   0.000000 )  
               a(2) = (  -0.500000   0.866025   0.000000 )  
               a(3) = (  -0.500000   0.288675   0.816497 )  

     reciprocal axes: (cart. coord. in units 2 pi/alat)
               b(1) = (  1.000000  0.577350  0.408248 )  
               b(2) = (  0.000000  1.154701 -0.408248 )  
               b(3) = (  0.000000 -0.000000  1.224745 )  


     PseudoPot. # 1 for B  read from file:
     /opt/QEpot/SSSP_precision_pseudos/B_pbe_v1.01.uspp.F.UPF
     MD5 check sum: d081ebb89d0c768e112975f650467a00
     Pseudo is Ultrasoft + core correction, Zval =  3.0
     Generated by new atomic code, or converted to UPF format
     Using radial grid of  781 points,  4 beta functions with: 
                l(1) =   0
                l(2) =   0
                l(3) =   1
                l(4) =   1
     Q(r) pseudized with  8 coefficients,  rinner =    1.100   1.100   1.100


     PseudoPot. # 2 for N  read from file:
     /opt/QEpot/SSSP_precision_pseudos/N.oncvpsp.upf
     MD5 check sum: 563d65bfb082928f0c9eb97172f6c357
     Pseudo is Norm-conserving + core correction, Zval =  5.0
     Generated using ONCVPSP code by D. R. Hamann
     Using radial grid of 1058 points,  4 beta functions with: 
                l(1) =   0
                l(2) =   0
                l(3) =   1
                l(4) =   1

     atomic species   valence    mass     pseudopotential
        B              3.00    10.81000     B ( 1.00)
        N              5.00    14.00700     N ( 1.00)

     No symmetry found


                                    s                        frac. trans.

      isym =  1     identity                                     

 cryst.   s( 1) = (     1          0          0      )
                  (     0          1          0      )
                  (     0          0          1      )

 cart.    s( 1) = (  1.0000000  0.0000000  0.0000000 )
                  (  0.0000000  1.0000000  0.0000000 )
                  (  0.0000000  0.0000000  1.0000000 )


   Cartesian axes

     site n.     atom                  positions (alat units)
         1           B   tau(   1) = (   0.3806891   0.0026957   0.3823638  )
         2           N   tau(   2) = (   0.1134453   0.2913708   0.2028661  )

   Crystallographic axes

     site n.     atom                  positions (cryst. coord.)
         1           B   tau(   1) = (  0.5383449 -0.1529867  0.4682982  )
         2           N   tau(   2) = (  0.3644881  0.2536263  0.2484592  )

     number of k points=   666  Marzari-Vanderbilt smearing, width (Ry)=  0.0220
                       cart. coord. in units 2pi/alat
        k(    1) = (   0.0000000   0.0000000   0.0000000), wk =   0.0015026
        k(    2) = (   0.0000000   0.0000000   0.1113404), wk =   0.0030053
        k(    3) = (   0.0000000   0.0000000   0.2226809), wk =   0.0030053
        k(    4) = (   0.0000000   0.0000000   0.3340213), wk =   0.0030053
        k(    5) = (   0.0000000   0.0000000   0.4453618), wk =   0.0030053
        k(    6) = (   0.0000000   0.0000000   0.5567022), wk =   0.0030053
        k(    7) = (   0.0000000   0.1049728  -0.0371135), wk =   0.0030053
        k(    8) = (   0.0000000   0.1049728   0.0742270), wk =   0.0030053
        k(    9) = (   0.0000000   0.1049728   0.1855674), wk =   0.0030053
        k(   10) = (   0.0000000   0.1049728   0.2969078), wk =   0.0030053
        k(   11) = (   0.0000000   0.1049728   0.4082483), wk =   0.0030053
        k(   12) = (   0.0000000   0.1049728   0.5195887), wk =   0.0030053
        k(   13) = (   0.0000000   0.1049728  -0.5938157), wk =   0.0030053
        k(   14) = (   0.0000000   0.1049728  -0.4824753), wk =   0.0030053
        k(   15) = (   0.0000000   0.1049728  -0.3711348), wk =   0.0030053
        k(   16) = (   0.0000000   0.1049728  -0.2597944), wk =   0.0030053
        k(   17) = (   0.0000000   0.1049728  -0.1484539), wk =   0.0030053
        k(   18) = (   0.0000000   0.2099456  -0.0742270), wk =   0.0030053
        k(   19) = (   0.0000000   0.2099456   0.0371135), wk =   0.0030053
        k(   20) = (   0.0000000   0.2099456   0.1484539), wk =   0.0030053
        k(   21) = (   0.0000000   0.2099456   0.2597944), wk =   0.0030053
        k(   22) = (   0.0000000   0.2099456   0.3711348), wk =   0.0030053
        k(   23) = (   0.0000000   0.2099456   0.4824753), wk =   0.0030053
        k(   24) = (   0.0000000   0.2099456  -0.6309292), wk =   0.0030053
        k(   25) = (   0.0000000   0.2099456  -0.5195887), wk =   0.0030053
        k(   26) = (   0.0000000   0.2099456  -0.4082483), wk =   0.0030053
        k(   27) = (   0.0000000   0.2099456  -0.2969078), wk =   0.0030053
        k(   28) = (   0.0000000   0.2099456  -0.1855674), wk =   0.0030053
        k(   29) = (   0.0000000   0.3149183  -0.1113404), wk =   0.0030053
        k(   30) = (   0.0000000   0.3149183  -0.0000000), wk =   0.0030053
        k(   31) = (   0.0000000   0.3149183   0.1113404), wk =   0.0030053
        k(   32) = (   0.0000000   0.3149183   0.2226809), wk =   0.0030053
        k(   33) = (   0.0000000   0.3149183   0.3340213), wk =   0.0030053
        k(   34) = (   0.0000000   0.3149183   0.4453618), wk =   0.0030053
        k(   35) = (   0.0000000   0.3149183  -0.6680427), wk =   0.0030053
        k(   36) = (   0.0000000   0.3149183  -0.5567022), wk =   0.0030053
        k(   37) = (   0.0000000   0.3149183  -0.4453618), wk =   0.0030053
        k(   38) = (   0.0000000   0.3149183  -0.3340213), wk =   0.0030053
        k(   39) = (   0.0000000   0.3149183  -0.2226809), wk =   0.0030053
        k(   40) = (   0.0000000   0.4198911  -0.1484539), wk =   0.0030053
        k(   41) = (   0.0000000   0.4198911  -0.0371135), wk =   0.0030053
        k(   42) = (   0.0000000   0.4198911   0.0742270), wk =   0.0030053
        k(   43) = (   0.0000000   0.4198911   0.1855674), wk =   0.0030053
        k(   44) = (   0.0000000   0.4198911   0.2969078), wk =   0.0030053
        k(   45) = (   0.0000000   0.4198911   0.4082483), wk =   0.0030053
        k(   46) = (   0.0000000   0.4198911  -0.7051561), wk =   0.0030053
        k(   47) = (   0.0000000   0.4198911  -0.5938157), wk =   0.0030053
        k(   48) = (   0.0000000   0.4198911  -0.4824753), wk =   0.0030053
        k(   49) = (   0.0000000   0.4198911  -0.3711348), wk =   0.0030053
        k(   50) = (   0.0000000   0.4198911  -0.2597944), wk =   0.0030053
        k(   51) = (   0.0000000   0.5248639  -0.1855674), wk =   0.0030053
        k(   52) = (   0.0000000   0.5248639  -0.0742270), wk =   0.0030053
        k(   53) = (   0.0000000   0.5248639   0.0371135), wk =   0.0030053
        k(   54) = (   0.0000000   0.5248639   0.1484539), wk =   0.0030053
        k(   55) = (   0.0000000   0.5248639   0.2597944), wk =   0.0030053
        k(   56) = (   0.0000000   0.5248639   0.3711348), wk =   0.0030053
        k(   57) = (   0.0000000   0.5248639  -0.7422696), wk =   0.0030053
        k(   58) = (   0.0000000   0.5248639  -0.6309292), wk =   0.0030053
        k(   59) = (   0.0000000   0.5248639  -0.5195887), wk =   0.0030053
        k(   60) = (   0.0000000   0.5248639  -0.4082483), wk =   0.0030053
        k(   61) = (   0.0000000   0.5248639  -0.2969078), wk =   0.0030053
        k(   62) = (   0.0909091   0.1574592  -0.0000000), wk =   0.0030053
        k(   63) = (   0.0909091   0.1574592   0.1113404), wk =   0.0030053
        k(   64) = (   0.0909091   0.1574592   0.2226809), wk =   0.0030053
        k(   65) = (   0.0909091   0.1574592   0.3340213), wk =   0.0030053
        k(   66) = (   0.0909091   0.1574592   0.4453618), wk =   0.0030053
        k(   67) = (   0.0909091   0.1574592   0.5567022), wk =   0.0030053
        k(   68) = (   0.0909091   0.2624319  -0.0371135), wk =   0.0030053
        k(   69) = (   0.0909091   0.2624319   0.0742270), wk =   0.0030053
        k(   70) = (   0.0909091   0.2624319   0.1855674), wk =   0.0030053
        k(   71) = (   0.0909091   0.2624319   0.2969078), wk =   0.0030053
        k(   72) = (   0.0909091   0.2624319   0.4082483), wk =   0.0030053
        k(   73) = (   0.0909091   0.2624319   0.5195887), wk =   0.0030053
        k(   74) = (   0.0909091   0.2624319  -0.5938157), wk =   0.0030053
        k(   75) = (   0.0909091   0.2624319  -0.4824753), wk =   0.0030053
        k(   76) = (   0.0909091   0.2624319  -0.3711348), wk =   0.0030053
        k(   77) = (   0.0909091   0.2624319  -0.2597944), wk =   0.0030053
        k(   78) = (   0.0909091   0.2624319  -0.1484539), wk =   0.0030053
        k(   79) = (   0.0909091   0.3674047  -0.0742270), wk =   0.0030053
        k(   80) = (   0.0909091   0.3674047   0.0371135), wk =   0.0030053
        k(   81) = (   0.0909091   0.3674047   0.1484539), wk =   0.0030053
        k(   82) = (   0.0909091   0.3674047   0.2597944), wk =   0.0030053
        k(   83) = (   0.0909091   0.3674047   0.3711348), wk =   0.0030053
        k(   84) = (   0.0909091   0.3674047   0.4824753), wk =   0.0030053
        k(   85) = (   0.0909091   0.3674047  -0.6309292), wk =   0.0030053
        k(   86) = (   0.0909091   0.3674047  -0.5195887), wk =   0.0030053
        k(   87) = (   0.0909091   0.3674047  -0.4082483), wk =   0.0030053
        k(   88) = (   0.0909091   0.3674047  -0.2969078), wk =   0.0030053
        k(   89) = (   0.0909091   0.3674047  -0.1855674), wk =   0.0030053
        k(   90) = (   0.0909091   0.4723775  -0.1113404), wk =   0.0030053
        k(   91) = (   0.0909091   0.4723775  -0.0000000), wk =   0.0030053
        k(   92) = (   0.0909091   0.4723775   0.1113404), wk =   0.0030053
        k(   93) = (   0.0909091   0.4723775   0.2226809), wk =   0.0030053
        k(   94) = (   0.0909091   0.4723775   0.3340213), wk =   0.0030053
        k(   95) = (   0.0909091   0.4723775   0.4453618), wk =   0.0030053
        k(   96) = (   0.0909091   0.4723775  -0.6680427), wk =   0.0030053
        k(   97) = (   0.0909091   0.4723775  -0.5567022), wk =   0.0030053
        k(   98) = (   0.0909091   0.4723775  -0.4453618), wk =   0.0030053
        k(   99) = (   0.0909091   0.4723775  -0.3340213), wk =   0.0030053
        k(  100) = (   0.0909091   0.4723775  -0.2226809), wk =   0.0030053
        k(  101) = (   0.0909091   0.5773503  -0.1484539), wk =   0.0030053
        k(  102) = (   0.0909091   0.5773503  -0.0371135), wk =   0.0030053
        k(  103) = (   0.0909091   0.5773503   0.0742270), wk =   0.0030053
        k(  104) = (   0.0909091   0.5773503   0.1855674), wk =   0.0030053
        k(  105) = (   0.0909091   0.5773503   0.2969078), wk =   0.0030053
        k(  106) = (   0.0909091   0.5773503   0.4082483), wk =   0.0030053
        k(  107) = (   0.1818182   0.3149183  -0.0000000), wk =   0.0030053
        k(  108) = (   0.1818182   0.3149183   0.1113404), wk =   0.0030053
        k(  109) = (   0.1818182   0.3149183   0.2226809), wk =   0.0030053
        k(  110) = (   0.1818182   0.3149183   0.3340213), wk =   0.0030053
        k(  111) = (   0.1818182   0.3149183   0.4453618), wk =   0.0030053
        k(  112) = (   0.1818182   0.3149183   0.5567022), wk =   0.0030053
        k(  113) = (   0.1818182   0.4198911  -0.0371135), wk =   0.0030053
        k(  114) = (   0.1818182   0.4198911   0.0742270), wk =   0.0030053
        k(  115) = (   0.1818182   0.4198911   0.1855674), wk =   0.0030053
        k(  116) = (   0.1818182   0.4198911   0.2969078), wk =   0.0030053
        k(  117) = (   0.1818182   0.4198911   0.4082483), wk =   0.0030053
        k(  118) = (   0.1818182   0.4198911   0.5195887), wk =   0.0030053
        k(  119) = (   0.1818182   0.4198911  -0.5938157), wk =   0.0030053
        k(  120) = (   0.1818182   0.4198911  -0.4824753), wk =   0.0030053
        k(  121) = (   0.1818182   0.4198911  -0.3711348), wk =   0.0030053
        k(  122) = (   0.1818182   0.4198911  -0.2597944), wk =   0.0030053
        k(  123) = (   0.1818182   0.4198911  -0.1484539), wk =   0.0030053
        k(  124) = (   0.1818182   0.5248639  -0.0742270), wk =   0.0030053
        k(  125) = (   0.1818182   0.5248639   0.0371135), wk =   0.0030053
        k(  126) = (   0.1818182   0.5248639   0.1484539), wk =   0.0030053
        k(  127) = (   0.1818182   0.5248639   0.2597944), wk =   0.0030053
        k(  128) = (   0.1818182   0.5248639   0.3711348), wk =   0.0030053
        k(  129) = (   0.1818182   0.5248639   0.4824753), wk =   0.0030053
        k(  130) = (   0.1818182   0.5248639  -0.6309292), wk =   0.0030053
        k(  131) = (   0.1818182   0.5248639  -0.5195887), wk =   0.0030053
        k(  132) = (   0.1818182   0.5248639  -0.4082483), wk =   0.0030053
        k(  133) = (   0.1818182   0.5248639  -0.2969078), wk =   0.0030053
        k(  134) = (   0.1818182   0.5248639  -0.1855674), wk =   0.0030053
        k(  135) = (   0.2727273   0.4723775  -0.0000000), wk =   0.0030053
        k(  136) = (   0.2727273   0.4723775   0.1113404), wk =   0.0030053
        k(  137) = (   0.2727273   0.4723775   0.2226809), wk =   0.0030053
        k(  138) = (   0.2727273   0.4723775   0.3340213), wk =   0.0030053
        k(  139) = (   0.2727273   0.4723775   0.4453618), wk =   0.0030053
        k(  140) = (   0.2727273   0.4723775   0.5567022), wk =   0.0030053
        k(  141) = (   0.2727273   0.5773503  -0.0371135), wk =   0.0030053
        k(  142) = (   0.2727273   0.5773503   0.0742270), wk =   0.0030053
        k(  143) = (   0.2727273   0.5773503   0.1855674), wk =   0.0030053
        k(  144) = (   0.2727273   0.5773503   0.2969078), wk =   0.0030053
        k(  145) = (   0.2727273   0.5773503   0.4082483), wk =   0.0030053
        k(  146) = (   0.2727273   0.5773503  -0.2597944), wk =   0.0030053
        k(  147) = (  -0.0909091  -0.0524864  -0.0371135), wk =   0.0030053
        k(  148) = (   0.0909091  -0.0524864  -0.0371135), wk =   0.0030053
        k(  149) = (  -0.0909091  -0.0524864   0.0742270), wk =   0.0030053
        k(  150) = (   0.0909091  -0.0524864   0.0742270), wk =   0.0030053
        k(  151) = (  -0.0909091  -0.0524864   0.1855674), wk =   0.0030053
        k(  152) = (   0.0909091  -0.0524864   0.1855674), wk =   0.0030053
        k(  153) = (  -0.0909091  -0.0524864   0.2969078), wk =   0.0030053
        k(  154) = (   0.0909091  -0.0524864   0.2969078), wk =   0.0030053
        k(  155) = (  -0.0909091  -0.0524864   0.4082483), wk =   0.0030053
        k(  156) = (   0.0909091  -0.0524864   0.4082483), wk =   0.0030053
        k(  157) = (  -0.0909091  -0.0524864   0.5195887), wk =   0.0030053
        k(  158) = (   0.0909091  -0.0524864   0.5195887), wk =   0.0030053
        k(  159) = (  -0.0909091  -0.0524864  -0.5938157), wk =   0.0030053
        k(  160) = (   0.0909091  -0.0524864  -0.5938157), wk =   0.0030053
        k(  161) = (  -0.0909091  -0.0524864  -0.4824753), wk =   0.0030053
        k(  162) = (   0.0909091  -0.0524864  -0.4824753), wk =   0.0030053
        k(  163) = (  -0.0909091  -0.0524864  -0.3711348), wk =   0.0030053
        k(  164) = (   0.0909091  -0.0524864  -0.3711348), wk =   0.0030053
        k(  165) = (  -0.0909091  -0.0524864  -0.2597944), wk =   0.0030053
        k(  166) = (   0.0909091  -0.0524864  -0.2597944), wk =   0.0030053
        k(  167) = (  -0.0909091  -0.0524864  -0.1484539), wk =   0.0030053
        k(  168) = (   0.0909091  -0.0524864  -0.1484539), wk =   0.0030053
        k(  169) = (  -0.1818182  -0.1049728  -0.0742270), wk =   0.0030053
        k(  170) = (   0.1818182  -0.1049728  -0.0742270), wk =   0.0030053
        k(  171) = (  -0.1818182  -0.1049728   0.0371135), wk =   0.0030053
        k(  172) = (   0.1818182  -0.1049728   0.0371135), wk =   0.0030053
        k(  173) = (  -0.1818182  -0.1049728   0.1484539), wk =   0.0030053
        k(  174) = (   0.1818182  -0.1049728   0.1484539), wk =   0.0030053
        k(  175) = (  -0.1818182  -0.1049728   0.2597944), wk =   0.0030053
        k(  176) = (   0.1818182  -0.1049728   0.2597944), wk =   0.0030053
        k(  177) = (  -0.1818182  -0.1049728   0.3711348), wk =   0.0030053
        k(  178) = (   0.1818182  -0.1049728   0.3711348), wk =   0.0030053
        k(  179) = (  -0.1818182  -0.1049728   0.4824753), wk =   0.0030053
        k(  180) = (   0.1818182  -0.1049728   0.4824753), wk =   0.0030053
        k(  181) = (  -0.1818182  -0.1049728  -0.6309292), wk =   0.0030053
        k(  182) = (   0.1818182  -0.1049728  -0.6309292), wk =   0.0030053
        k(  183) = (  -0.1818182  -0.1049728  -0.5195887), wk =   0.0030053
        k(  184) = (   0.1818182  -0.1049728  -0.5195887), wk =   0.0030053
        k(  185) = (  -0.1818182  -0.1049728  -0.4082483), wk =   0.0030053
        k(  186) = (   0.1818182  -0.1049728  -0.4082483), wk =   0.0030053
        k(  187) = (  -0.1818182  -0.1049728  -0.2969078), wk =   0.0030053
        k(  188) = (   0.1818182  -0.1049728  -0.2969078), wk =   0.0030053
        k(  189) = (  -0.1818182  -0.1049728  -0.1855674), wk =   0.0030053
        k(  190) = (   0.1818182  -0.1049728  -0.1855674), wk =   0.0030053
        k(  191) = (  -0.2727273  -0.1574592  -0.1113404), wk =   0.0030053
        k(  192) = (   0.2727273  -0.1574592  -0.1113404), wk =   0.0030053
        k(  193) = (  -0.2727273  -0.1574592  -0.0000000), wk =   0.0030053
        k(  194) = (   0.2727273  -0.1574592   0.0000000), wk =   0.0030053
        k(  195) = (  -0.2727273  -0.1574592   0.1113404), wk =   0.0030053
        k(  196) = (   0.2727273  -0.1574592   0.1113404), wk =   0.0030053
        k(  197) = (  -0.2727273  -0.1574592   0.2226809), wk =   0.0030053
        k(  198) = (   0.2727273  -0.1574592   0.2226809), wk =   0.0030053
        k(  199) = (  -0.2727273  -0.1574592   0.3340213), wk =   0.0030053
        k(  200) = (   0.2727273  -0.1574592   0.3340213), wk =   0.0030053
        k(  201) = (  -0.2727273  -0.1574592   0.4453618), wk =   0.0030053
        k(  202) = (   0.2727273  -0.1574592   0.4453618), wk =   0.0030053
        k(  203) = (  -0.2727273  -0.1574592  -0.6680427), wk =   0.0030053
        k(  204) = (   0.2727273  -0.1574592  -0.6680427), wk =   0.0030053
        k(  205) = (  -0.2727273  -0.1574592  -0.5567022), wk =   0.0030053
        k(  206) = (   0.2727273  -0.1574592  -0.5567022), wk =   0.0030053
        k(  207) = (  -0.2727273  -0.1574592  -0.4453618), wk =   0.0030053
        k(  208) = (   0.2727273  -0.1574592  -0.4453618), wk =   0.0030053
        k(  209) = (  -0.2727273  -0.1574592  -0.3340213), wk =   0.0030053
        k(  210) = (   0.2727273  -0.1574592  -0.3340213), wk =   0.0030053
        k(  211) = (  -0.2727273  -0.1574592  -0.2226809), wk =   0.0030053
        k(  212) = (   0.2727273  -0.1574592  -0.2226809), wk =   0.0030053
        k(  213) = (  -0.3636364  -0.2099456  -0.1484539), wk =   0.0030053
        k(  214) = (   0.3636364  -0.2099456  -0.1484539), wk =   0.0030053
        k(  215) = (  -0.3636364  -0.2099456  -0.0371135), wk =   0.0030053
        k(  216) = (   0.3636364  -0.2099456  -0.0371135), wk =   0.0030053
        k(  217) = (  -0.3636364  -0.2099456   0.0742270), wk =   0.0030053
        k(  218) = (   0.3636364  -0.2099456   0.0742270), wk =   0.0030053
        k(  219) = (  -0.3636364  -0.2099456   0.1855674), wk =   0.0030053
        k(  220) = (   0.3636364  -0.2099456   0.1855674), wk =   0.0030053
        k(  221) = (  -0.3636364  -0.2099456   0.2969078), wk =   0.0030053
        k(  222) = (   0.3636364  -0.2099456   0.2969078), wk =   0.0030053
        k(  223) = (  -0.3636364  -0.2099456   0.4082483), wk =   0.0030053
        k(  224) = (   0.3636364  -0.2099456   0.4082483), wk =   0.0030053
        k(  225) = (  -0.3636364  -0.2099456  -0.7051561), wk =   0.0030053
        k(  226) = (   0.3636364  -0.2099456  -0.7051561), wk =   0.0030053
        k(  227) = (  -0.3636364  -0.2099456  -0.5938157), wk =   0.0030053
        k(  228) = (   0.3636364  -0.2099456  -0.5938157), wk =   0.0030053
        k(  229) = (  -0.3636364  -0.2099456  -0.4824753), wk =   0.0030053
        k(  230) = (   0.3636364  -0.2099456  -0.4824753), wk =   0.0030053
        k(  231) = (  -0.3636364  -0.2099456  -0.3711348), wk =   0.0030053
        k(  232) = (   0.3636364  -0.2099456  -0.3711348), wk =   0.0030053
        k(  233) = (  -0.3636364  -0.2099456  -0.2597944), wk =   0.0030053
        k(  234) = (   0.3636364  -0.2099456  -0.2597944), wk =   0.0030053
        k(  235) = (  -0.4545455  -0.2624319  -0.1855674), wk =   0.0030053
        k(  236) = (   0.4545455  -0.2624319  -0.1855674), wk =   0.0030053
        k(  237) = (  -0.4545455  -0.2624319  -0.0742270), wk =   0.0030053
        k(  238) = (   0.4545455  -0.2624319  -0.0742270), wk =   0.0030053
        k(  239) = (  -0.4545455  -0.2624319   0.0371135), wk =   0.0030053
        k(  240) = (   0.4545455  -0.2624319   0.0371135), wk =   0.0030053
        k(  241) = (  -0.4545455  -0.2624319   0.1484539), wk =   0.0030053
        k(  242) = (   0.4545455  -0.2624319   0.1484539), wk =   0.0030053
        k(  243) = (  -0.4545455  -0.2624319   0.2597944), wk =   0.0030053
        k(  244) = (   0.4545455  -0.2624319   0.2597944), wk =   0.0030053
        k(  245) = (  -0.4545455  -0.2624319   0.3711348), wk =   0.0030053
        k(  246) = (   0.4545455  -0.2624319   0.3711348), wk =   0.0030053
        k(  247) = (  -0.4545455  -0.2624319  -0.7422696), wk =   0.0030053
        k(  248) = (   0.4545455  -0.2624319  -0.7422696), wk =   0.0030053
        k(  249) = (  -0.4545455  -0.2624319  -0.6309292), wk =   0.0030053
        k(  250) = (   0.4545455  -0.2624319  -0.6309292), wk =   0.0030053
        k(  251) = (  -0.4545455  -0.2624319  -0.5195887), wk =   0.0030053
        k(  252) = (   0.4545455  -0.2624319  -0.5195887), wk =   0.0030053
        k(  253) = (  -0.4545455  -0.2624319  -0.4082483), wk =   0.0030053
        k(  254) = (   0.4545455  -0.2624319  -0.4082483), wk =   0.0030053
        k(  255) = (  -0.4545455  -0.2624319  -0.2969078), wk =   0.0030053
        k(  256) = (   0.4545455  -0.2624319  -0.2969078), wk =   0.0030053
        k(  257) = (   0.0909091  -0.1574592   0.0000000), wk =   0.0030053
        k(  258) = (  -0.1818182  -0.0000000  -0.0000000), wk =   0.0030053
        k(  259) = (   0.0909091  -0.1574592  -0.1113404), wk =   0.0030053
        k(  260) = (  -0.1818182  -0.0000000   0.1113404), wk =   0.0030053
        k(  261) = (   0.0909091  -0.1574592   0.1113404), wk =   0.0030053
        k(  262) = (  -0.1818182  -0.0000000  -0.1113404), wk =   0.0030053
        k(  263) = (   0.0909091   0.1574592  -0.1113404), wk =   0.0030053
        k(  264) = (   0.0909091  -0.1574592  -0.2226809), wk =   0.0030053
        k(  265) = (  -0.1818182  -0.0000000   0.2226809), wk =   0.0030053
        k(  266) = (   0.0909091  -0.1574592   0.2226809), wk =   0.0030053
        k(  267) = (  -0.1818182  -0.0000000  -0.2226809), wk =   0.0030053
        k(  268) = (   0.0909091   0.1574592  -0.2226809), wk =   0.0030053
        k(  269) = (   0.0909091  -0.1574592  -0.3340213), wk =   0.0030053
        k(  270) = (  -0.1818182  -0.0000000   0.3340213), wk =   0.0030053
        k(  271) = (   0.0909091  -0.1574592   0.3340213), wk =   0.0030053
        k(  272) = (  -0.1818182  -0.0000000  -0.3340213), wk =   0.0030053
        k(  273) = (   0.0909091   0.1574592  -0.3340213), wk =   0.0030053
        k(  274) = (   0.0909091  -0.1574592  -0.4453618), wk =   0.0030053
        k(  275) = (  -0.1818182  -0.0000000   0.4453618), wk =   0.0030053
        k(  276) = (   0.0909091  -0.1574592   0.4453618), wk =   0.0030053
        k(  277) = (  -0.1818182  -0.0000000  -0.4453618), wk =   0.0030053
        k(  278) = (   0.0909091   0.1574592  -0.4453618), wk =   0.0030053
        k(  279) = (   0.0909091  -0.1574592  -0.5567022), wk =   0.0030053
        k(  280) = (  -0.1818182  -0.0000000   0.5567022), wk =   0.0030053
        k(  281) = (   0.0909091  -0.1574592   0.5567022), wk =   0.0030053
        k(  282) = (  -0.1818182  -0.0000000  -0.5567022), wk =   0.0030053
        k(  283) = (   0.0909091   0.1574592  -0.5567022), wk =   0.0030053
        k(  284) = (   0.0909091  -0.2624319   0.0371135), wk =   0.0030053
        k(  285) = (  -0.2727273  -0.0524864  -0.0371135), wk =   0.0030053
        k(  286) = (   0.1818182  -0.2099456  -0.0371135), wk =   0.0030053
        k(  287) = (  -0.2727273   0.0524864   0.0371135), wk =   0.0030053
        k(  288) = (   0.1818182   0.2099456   0.0371135), wk =   0.0030053
        k(  289) = (   0.0909091  -0.2624319  -0.0742270), wk =   0.0030053
        k(  290) = (  -0.2727273  -0.0524864   0.0742270), wk =   0.0030053
        k(  291) = (   0.1818182  -0.2099456   0.0742270), wk =   0.0030053
        k(  292) = (  -0.2727273   0.0524864  -0.0742270), wk =   0.0030053
        k(  293) = (   0.1818182   0.2099456  -0.0742270), wk =   0.0030053
        k(  294) = (   0.0909091  -0.2624319  -0.1855674), wk =   0.0030053
        k(  295) = (  -0.2727273  -0.0524864   0.1855674), wk =   0.0030053
        k(  296) = (   0.1818182  -0.2099456   0.1855674), wk =   0.0030053
        k(  297) = (  -0.2727273   0.0524864  -0.1855674), wk =   0.0030053
        k(  298) = (   0.1818182   0.2099456  -0.1855674), wk =   0.0030053
        k(  299) = (   0.0909091  -0.2624319  -0.2969078), wk =   0.0030053
        k(  300) = (  -0.2727273  -0.0524864   0.2969078), wk =   0.0030053
        k(  301) = (   0.1818182  -0.2099456   0.2969078), wk =   0.0030053
        k(  302) = (  -0.2727273   0.0524864  -0.2969078), wk =   0.0030053
        k(  303) = (   0.1818182   0.2099456  -0.2969078), wk =   0.0030053
        k(  304) = (   0.0909091  -0.2624319  -0.4082483), wk =   0.0030053
        k(  305) = (  -0.2727273  -0.0524864   0.4082483), wk =   0.0030053
        k(  306) = (   0.1818182  -0.2099456   0.4082483), wk =   0.0030053
        k(  307) = (  -0.2727273   0.0524864  -0.4082483), wk =   0.0030053
        k(  308) = (   0.1818182   0.2099456  -0.4082483), wk =   0.0030053
        k(  309) = (   0.0909091  -0.2624319  -0.5195887), wk =   0.0030053
        k(  310) = (  -0.2727273  -0.0524864   0.5195887), wk =   0.0030053
        k(  311) = (   0.1818182  -0.2099456   0.5195887), wk =   0.0030053
        k(  312) = (  -0.2727273   0.0524864  -0.5195887), wk =   0.0030053
        k(  313) = (   0.1818182   0.2099456  -0.5195887), wk =   0.0030053
        k(  314) = (   0.0909091  -0.2624319   0.5938157), wk =   0.0030053
        k(  315) = (  -0.2727273  -0.0524864  -0.5938157), wk =   0.0030053
        k(  316) = (   0.1818182  -0.2099456  -0.5938157), wk =   0.0030053
        k(  317) = (  -0.2727273   0.0524864   0.5938157), wk =   0.0030053
        k(  318) = (   0.1818182   0.2099456   0.5938157), wk =   0.0030053
        k(  319) = (   0.0909091  -0.2624319   0.4824753), wk =   0.0030053
        k(  320) = (  -0.2727273  -0.0524864  -0.4824753), wk =   0.0030053
        k(  321) = (   0.1818182  -0.2099456  -0.4824753), wk =   0.0030053
        k(  322) = (  -0.2727273   0.0524864   0.4824753), wk =   0.0030053
        k(  323) = (   0.1818182   0.2099456   0.4824753), wk =   0.0030053
        k(  324) = (   0.0909091  -0.2624319   0.3711348), wk =   0.0030053
        k(  325) = (  -0.2727273  -0.0524864  -0.3711348), wk =   0.0030053
        k(  326) = (   0.1818182  -0.2099456  -0.3711348), wk =   0.0030053
        k(  327) = (  -0.2727273   0.0524864   0.3711348), wk =   0.0030053
        k(  328) = (   0.1818182   0.2099456   0.3711348), wk =   0.0030053
        k(  329) = (   0.0909091  -0.2624319   0.2597944), wk =   0.0030053
        k(  330) = (  -0.2727273  -0.0524864  -0.2597944), wk =   0.0030053
        k(  331) = (   0.1818182  -0.2099456  -0.2597944), wk =   0.0030053
        k(  332) = (  -0.2727273   0.0524864   0.2597944), wk =   0.0030053
        k(  333) = (   0.1818182   0.2099456   0.2597944), wk =   0.0030053
        k(  334) = (   0.0909091  -0.2624319   0.1484539), wk =   0.0030053
        k(  335) = (  -0.2727273  -0.0524864  -0.1484539), wk =   0.0030053
        k(  336) = (   0.1818182  -0.2099456  -0.1484539), wk =   0.0030053
        k(  337) = (  -0.2727273   0.0524864   0.1484539), wk =   0.0030053
        k(  338) = (   0.1818182   0.2099456   0.1484539), wk =   0.0030053
        k(  339) = (   0.0909091  -0.3674047   0.0742270), wk =   0.0030053
        k(  340) = (  -0.3636364  -0.1049728  -0.0742270), wk =   0.0030053
        k(  341) = (   0.2727273  -0.2624319  -0.0742270), wk =   0.0030053
        k(  342) = (  -0.3636364   0.1049728   0.0742270), wk =   0.0030053
        k(  343) = (   0.2727273   0.2624319   0.0742270), wk =   0.0030053
        k(  344) = (   0.0909091  -0.3674047  -0.0371135), wk =   0.0030053
        k(  345) = (  -0.3636364  -0.1049728   0.0371135), wk =   0.0030053
        k(  346) = (   0.2727273  -0.2624319   0.0371135), wk =   0.0030053
        k(  347) = (  -0.3636364   0.1049728  -0.0371135), wk =   0.0030053
        k(  348) = (   0.2727273   0.2624319  -0.0371135), wk =   0.0030053
        k(  349) = (   0.0909091  -0.3674047  -0.1484539), wk =   0.0030053
        k(  350) = (  -0.3636364  -0.1049728   0.1484539), wk =   0.0030053
        k(  351) = (   0.2727273  -0.2624319   0.1484539), wk =   0.0030053
        k(  352) = (  -0.3636364   0.1049728  -0.1484539), wk =   0.0030053
        k(  353) = (   0.2727273   0.2624319  -0.1484539), wk =   0.0030053
        k(  354) = (   0.0909091  -0.3674047  -0.2597944), wk =   0.0030053
        k(  355) = (  -0.3636364  -0.1049728   0.2597944), wk =   0.0030053
        k(  356) = (   0.2727273  -0.2624319   0.2597944), wk =   0.0030053
        k(  357) = (  -0.3636364   0.1049728  -0.2597944), wk =   0.0030053
        k(  358) = (   0.2727273   0.2624319  -0.2597944), wk =   0.0030053
        k(  359) = (   0.0909091  -0.3674047  -0.3711348), wk =   0.0030053
        k(  360) = (  -0.3636364  -0.1049728   0.3711348), wk =   0.0030053
        k(  361) = (   0.2727273  -0.2624319   0.3711348), wk =   0.0030053
        k(  362) = (  -0.3636364   0.1049728  -0.3711348), wk =   0.0030053
        k(  363) = (   0.2727273   0.2624319  -0.3711348), wk =   0.0030053
        k(  364) = (   0.0909091  -0.3674047  -0.4824753), wk =   0.0030053
        k(  365) = (  -0.3636364  -0.1049728   0.4824753), wk =   0.0030053
        k(  366) = (   0.2727273  -0.2624319   0.4824753), wk =   0.0030053
        k(  367) = (  -0.3636364   0.1049728  -0.4824753), wk =   0.0030053
        k(  368) = (   0.2727273   0.2624319  -0.4824753), wk =   0.0030053
        k(  369) = (   0.0909091  -0.3674047   0.6309292), wk =   0.0030053
        k(  370) = (  -0.3636364  -0.1049728  -0.6309292), wk =   0.0030053
        k(  371) = (   0.2727273  -0.2624319  -0.6309292), wk =   0.0030053
        k(  372) = (  -0.3636364   0.1049728   0.6309292), wk =   0.0030053
        k(  373) = (   0.2727273   0.2624319   0.6309292), wk =   0.0030053
        k(  374) = (   0.0909091  -0.3674047   0.5195887), wk =   0.0030053
        k(  375) = (  -0.3636364  -0.1049728  -0.5195887), wk =   0.0030053
        k(  376) = (   0.2727273  -0.2624319  -0.5195887), wk =   0.0030053
        k(  377) = (  -0.3636364   0.1049728   0.5195887), wk =   0.0030053
        k(  378) = (   0.2727273   0.2624319   0.5195887), wk =   0.0030053
        k(  379) = (   0.0909091  -0.3674047   0.4082483), wk =   0.0030053
        k(  380) = (  -0.3636364  -0.1049728  -0.4082483), wk =   0.0030053
        k(  381) = (   0.2727273  -0.2624319  -0.4082483), wk =   0.0030053
        k(  382) = (  -0.3636364   0.1049728   0.4082483), wk =   0.0030053
        k(  383) = (   0.2727273   0.2624319   0.4082483), wk =   0.0030053
        k(  384) = (   0.0909091  -0.3674047   0.2969078), wk =   0.0030053
        k(  385) = (  -0.3636364  -0.1049728  -0.2969078), wk =   0.0030053
        k(  386) = (   0.2727273  -0.2624319  -0.2969078), wk =   0.0030053
        k(  387) = (  -0.3636364   0.1049728   0.2969078), wk =   0.0030053
        k(  388) = (   0.2727273   0.2624319   0.2969078), wk =   0.0030053
        k(  389) = (   0.0909091  -0.3674047   0.1855674), wk =   0.0030053
        k(  390) = (  -0.3636364  -0.1049728  -0.1855674), wk =   0.0030053
        k(  391) = (   0.2727273  -0.2624319  -0.1855674), wk =   0.0030053
        k(  392) = (  -0.3636364   0.1049728   0.1855674), wk =   0.0030053
        k(  393) = (   0.2727273   0.2624319   0.1855674), wk =   0.0030053
        k(  394) = (   0.0909091  -0.4723775   0.1113404), wk =   0.0030053
        k(  395) = (  -0.4545455  -0.1574592  -0.1113404), wk =   0.0030053
        k(  396) = (   0.3636364  -0.3149183  -0.1113404), wk =   0.0030053
        k(  397) = (  -0.4545455   0.1574592   0.1113404), wk =   0.0030053
        k(  398) = (   0.3636364   0.3149183   0.1113404), wk =   0.0030053
        k(  399) = (   0.0909091  -0.4723775   0.0000000), wk =   0.0030053
        k(  400) = (  -0.4545455  -0.1574592  -0.0000000), wk =   0.0030053
        k(  401) = (   0.3636364  -0.3149183   0.0000000), wk =   0.0030053
        k(  402) = (  -0.4545455   0.1574592  -0.0000000), wk =   0.0030053
        k(  403) = (   0.3636364   0.3149183   0.0000000), wk =   0.0030053
        k(  404) = (   0.0909091  -0.4723775  -0.1113404), wk =   0.0030053
        k(  405) = (  -0.4545455  -0.1574592   0.1113404), wk =   0.0030053
        k(  406) = (   0.3636364  -0.3149183   0.1113404), wk =   0.0030053
        k(  407) = (  -0.4545455   0.1574592  -0.1113404), wk =   0.0030053
        k(  408) = (   0.3636364   0.3149183  -0.1113404), wk =   0.0030053
        k(  409) = (   0.0909091  -0.4723775  -0.2226809), wk =   0.0030053
        k(  410) = (  -0.4545455  -0.1574592   0.2226809), wk =   0.0030053
        k(  411) = (   0.3636364  -0.3149183   0.2226809), wk =   0.0030053
        k(  412) = (  -0.4545455   0.1574592  -0.2226809), wk =   0.0030053
        k(  413) = (   0.3636364   0.3149183  -0.2226809), wk =   0.0030053
        k(  414) = (   0.0909091  -0.4723775  -0.3340213), wk =   0.0030053
        k(  415) = (  -0.4545455  -0.1574592   0.3340213), wk =   0.0030053
        k(  416) = (   0.3636364  -0.3149183   0.3340213), wk =   0.0030053
        k(  417) = (  -0.4545455   0.1574592  -0.3340213), wk =   0.0030053
        k(  418) = (   0.3636364   0.3149183  -0.3340213), wk =   0.0030053
        k(  419) = (   0.0909091  -0.4723775  -0.4453618), wk =   0.0030053
        k(  420) = (  -0.4545455  -0.1574592   0.4453618), wk =   0.0030053
        k(  421) = (   0.3636364  -0.3149183   0.4453618), wk =   0.0030053
        k(  422) = (  -0.4545455   0.1574592  -0.4453618), wk =   0.0030053
        k(  423) = (   0.3636364   0.3149183  -0.4453618), wk =   0.0030053
        k(  424) = (   0.0909091  -0.4723775   0.6680427), wk =   0.0030053
        k(  425) = (  -0.4545455  -0.1574592  -0.6680427), wk =   0.0030053
        k(  426) = (   0.3636364  -0.3149183  -0.6680427), wk =   0.0030053
        k(  427) = (  -0.4545455   0.1574592   0.6680427), wk =   0.0030053
        k(  428) = (   0.3636364   0.3149183   0.6680427), wk =   0.0030053
        k(  429) = (   0.0909091  -0.4723775   0.5567022), wk =   0.0030053
        k(  430) = (  -0.4545455  -0.1574592  -0.5567022), wk =   0.0030053
        k(  431) = (   0.3636364  -0.3149183  -0.5567022), wk =   0.0030053
        k(  432) = (  -0.4545455   0.1574592   0.5567022), wk =   0.0030053
        k(  433) = (   0.3636364   0.3149183   0.5567022), wk =   0.0030053
        k(  434) = (   0.0909091  -0.4723775   0.4453618), wk =   0.0030053
        k(  435) = (  -0.4545455  -0.1574592  -0.4453618), wk =   0.0030053
        k(  436) = (   0.3636364  -0.3149183  -0.4453618), wk =   0.0030053
        k(  437) = (  -0.4545455   0.1574592   0.4453618), wk =   0.0030053
        k(  438) = (   0.3636364   0.3149183   0.4453618), wk =   0.0030053
        k(  439) = (   0.0909091  -0.4723775   0.3340213), wk =   0.0030053
        k(  440) = (  -0.4545455  -0.1574592  -0.3340213), wk =   0.0030053
        k(  441) = (   0.3636364  -0.3149183  -0.3340213), wk =   0.0030053
        k(  442) = (  -0.4545455   0.1574592   0.3340213), wk =   0.0030053
        k(  443) = (   0.3636364   0.3149183   0.3340213), wk =   0.0030053
        k(  444) = (   0.0909091  -0.4723775   0.2226809), wk =   0.0030053
        k(  445) = (  -0.4545455  -0.1574592  -0.2226809), wk =   0.0030053
        k(  446) = (   0.3636364  -0.3149183  -0.2226809), wk =   0.0030053
        k(  447) = (  -0.4545455   0.1574592   0.2226809), wk =   0.0030053
        k(  448) = (   0.3636364   0.3149183   0.2226809), wk =   0.0030053
        k(  449) = (   0.0909091  -0.5773503   0.1484539), wk =   0.0030053
        k(  450) = (  -0.5454545  -0.2099456  -0.1484539), wk =   0.0030053
        k(  451) = (   0.4545455  -0.3674047  -0.1484539), wk =   0.0030053
        k(  452) = (  -0.5454545   0.2099456   0.1484539), wk =   0.0030053
        k(  453) = (   0.4545455   0.3674047   0.1484539), wk =   0.0030053
        k(  454) = (   0.0909091  -0.5773503   0.0371135), wk =   0.0030053
        k(  455) = (  -0.5454545  -0.2099456  -0.0371135), wk =   0.0030053
        k(  456) = (   0.4545455  -0.3674047  -0.0371135), wk =   0.0030053
        k(  457) = (  -0.5454545   0.2099456   0.0371135), wk =   0.0030053
        k(  458) = (   0.4545455   0.3674047   0.0371135), wk =   0.0030053
        k(  459) = (   0.0909091  -0.5773503  -0.0742270), wk =   0.0030053
        k(  460) = (  -0.5454545  -0.2099456   0.0742270), wk =   0.0030053
        k(  461) = (   0.4545455  -0.3674047   0.0742270), wk =   0.0030053
        k(  462) = (  -0.5454545   0.2099456  -0.0742270), wk =   0.0030053
        k(  463) = (   0.4545455   0.3674047  -0.0742270), wk =   0.0030053
        k(  464) = (   0.0909091  -0.5773503  -0.1855674), wk =   0.0030053
        k(  465) = (  -0.5454545  -0.2099456   0.1855674), wk =   0.0030053
        k(  466) = (   0.4545455  -0.3674047   0.1855674), wk =   0.0030053
        k(  467) = (  -0.5454545   0.2099456  -0.1855674), wk =   0.0030053
        k(  468) = (   0.4545455   0.3674047  -0.1855674), wk =   0.0030053
        k(  469) = (   0.0909091  -0.5773503  -0.2969078), wk =   0.0030053
        k(  470) = (  -0.5454545  -0.2099456   0.2969078), wk =   0.0030053
        k(  471) = (   0.4545455  -0.3674047   0.2969078), wk =   0.0030053
        k(  472) = (  -0.5454545   0.2099456  -0.2969078), wk =   0.0030053
        k(  473) = (   0.4545455   0.3674047  -0.2969078), wk =   0.0030053
        k(  474) = (  -0.5454545  -0.2099456   0.4082483), wk =   0.0030053
        k(  475) = (   0.4545455  -0.3674047   0.4082483), wk =   0.0030053
        k(  476) = (   0.1818182  -0.3149183   0.0000000), wk =   0.0030053
        k(  477) = (  -0.3636364  -0.0000000  -0.0000000), wk =   0.0030053
        k(  478) = (   0.1818182  -0.3149183  -0.1113404), wk =   0.0030053
        k(  479) = (  -0.3636364  -0.0000000   0.1113404), wk =   0.0030053
        k(  480) = (   0.1818182  -0.3149183   0.1113404), wk =   0.0030053
        k(  481) = (  -0.3636364  -0.0000000  -0.1113404), wk =   0.0030053
        k(  482) = (   0.1818182   0.3149183  -0.1113404), wk =   0.0030053
        k(  483) = (   0.1818182  -0.3149183  -0.2226809), wk =   0.0030053
        k(  484) = (  -0.3636364  -0.0000000   0.2226809), wk =   0.0030053
        k(  485) = (   0.1818182  -0.3149183   0.2226809), wk =   0.0030053
        k(  486) = (  -0.3636364  -0.0000000  -0.2226809), wk =   0.0030053
        k(  487) = (   0.1818182   0.3149183  -0.2226809), wk =   0.0030053
        k(  488) = (   0.1818182  -0.3149183  -0.3340213), wk =   0.0030053
        k(  489) = (  -0.3636364  -0.0000000   0.3340213), wk =   0.0030053
        k(  490) = (   0.1818182  -0.3149183   0.3340213), wk =   0.0030053
        k(  491) = (  -0.3636364  -0.0000000  -0.3340213), wk =   0.0030053
        k(  492) = (   0.1818182   0.3149183  -0.3340213), wk =   0.0030053
        k(  493) = (   0.1818182  -0.3149183  -0.4453618), wk =   0.0030053
        k(  494) = (  -0.3636364  -0.0000000   0.4453618), wk =   0.0030053
        k(  495) = (   0.1818182  -0.3149183   0.4453618), wk =   0.0030053
        k(  496) = (  -0.3636364  -0.0000000  -0.4453618), wk =   0.0030053
        k(  497) = (   0.1818182   0.3149183  -0.4453618), wk =   0.0030053
        k(  498) = (   0.1818182  -0.3149183  -0.5567022), wk =   0.0030053
        k(  499) = (  -0.3636364  -0.0000000   0.5567022), wk =   0.0030053
        k(  500) = (   0.1818182  -0.3149183   0.5567022), wk =   0.0030053
        k(  501) = (  -0.3636364  -0.0000000  -0.5567022), wk =   0.0030053
        k(  502) = (   0.1818182   0.3149183  -0.5567022), wk =   0.0030053
        k(  503) = (   0.1818182  -0.4198911   0.0371135), wk =   0.0030053
        k(  504) = (  -0.4545455  -0.0524864  -0.0371135), wk =   0.0030053
        k(  505) = (   0.2727273  -0.3674047  -0.0371135), wk =   0.0030053
        k(  506) = (  -0.4545455   0.0524864   0.0371135), wk =   0.0030053
        k(  507) = (   0.2727273   0.3674047   0.0371135), wk =   0.0030053
        k(  508) = (   0.1818182  -0.4198911  -0.0742270), wk =   0.0030053
        k(  509) = (  -0.4545455  -0.0524864   0.0742270), wk =   0.0030053
        k(  510) = (   0.2727273  -0.3674047   0.0742270), wk =   0.0030053
        k(  511) = (  -0.4545455   0.0524864  -0.0742270), wk =   0.0030053
        k(  512) = (   0.2727273   0.3674047  -0.0742270), wk =   0.0030053
        k(  513) = (   0.1818182  -0.4198911  -0.1855674), wk =   0.0030053
        k(  514) = (  -0.4545455  -0.0524864   0.1855674), wk =   0.0030053
        k(  515) = (   0.2727273  -0.3674047   0.1855674), wk =   0.0030053
        k(  516) = (  -0.4545455   0.0524864  -0.1855674), wk =   0.0030053
        k(  517) = (   0.2727273   0.3674047  -0.1855674), wk =   0.0030053
        k(  518) = (   0.1818182  -0.4198911  -0.2969078), wk =   0.0030053
        k(  519) = (  -0.4545455  -0.0524864   0.2969078), wk =   0.0030053
        k(  520) = (   0.2727273  -0.3674047   0.2969078), wk =   0.0030053
        k(  521) = (  -0.4545455   0.0524864  -0.2969078), wk =   0.0030053
        k(  522) = (   0.2727273   0.3674047  -0.2969078), wk =   0.0030053
        k(  523) = (   0.1818182  -0.4198911  -0.4082483), wk =   0.0030053
        k(  524) = (  -0.4545455  -0.0524864   0.4082483), wk =   0.0030053
        k(  525) = (   0.2727273  -0.3674047   0.4082483), wk =   0.0030053
        k(  526) = (  -0.4545455   0.0524864  -0.4082483), wk =   0.0030053
        k(  527) = (   0.2727273   0.3674047  -0.4082483), wk =   0.0030053
        k(  528) = (   0.1818182  -0.4198911  -0.5195887), wk =   0.0030053
        k(  529) = (  -0.4545455  -0.0524864   0.5195887), wk =   0.0030053
        k(  530) = (   0.2727273  -0.3674047   0.5195887), wk =   0.0030053
        k(  531) = (  -0.4545455   0.0524864  -0.5195887), wk =   0.0030053
        k(  532) = (   0.2727273   0.3674047  -0.5195887), wk =   0.0030053
        k(  533) = (   0.1818182  -0.4198911   0.5938157), wk =   0.0030053
        k(  534) = (  -0.4545455  -0.0524864  -0.5938157), wk =   0.0030053
        k(  535) = (   0.2727273  -0.3674047  -0.5938157), wk =   0.0030053
        k(  536) = (  -0.4545455   0.0524864   0.5938157), wk =   0.0030053
        k(  537) = (   0.2727273   0.3674047   0.5938157), wk =   0.0030053
        k(  538) = (   0.1818182  -0.4198911   0.4824753), wk =   0.0030053
        k(  539) = (  -0.4545455  -0.0524864  -0.4824753), wk =   0.0030053
        k(  540) = (   0.2727273  -0.3674047  -0.4824753), wk =   0.0030053
        k(  541) = (  -0.4545455   0.0524864   0.4824753), wk =   0.0030053
        k(  542) = (   0.2727273   0.3674047   0.4824753), wk =   0.0030053
        k(  543) = (   0.1818182  -0.4198911   0.3711348), wk =   0.0030053
        k(  544) = (  -0.4545455  -0.0524864  -0.3711348), wk =   0.0030053
        k(  545) = (   0.2727273  -0.3674047  -0.3711348), wk =   0.0030053
        k(  546) = (  -0.4545455   0.0524864   0.3711348), wk =   0.0030053
        k(  547) = (   0.2727273   0.3674047   0.3711348), wk =   0.0030053
        k(  548) = (   0.1818182  -0.4198911   0.2597944), wk =   0.0030053
        k(  549) = (  -0.4545455  -0.0524864  -0.2597944), wk =   0.0030053
        k(  550) = (   0.2727273  -0.3674047  -0.2597944), wk =   0.0030053
        k(  551) = (  -0.4545455   0.0524864   0.2597944), wk =   0.0030053
        k(  552) = (   0.2727273   0.3674047   0.2597944), wk =   0.0030053
        k(  553) = (   0.1818182  -0.4198911   0.1484539), wk =   0.0030053
        k(  554) = (  -0.4545455  -0.0524864  -0.1484539), wk =   0.0030053
        k(  555) = (   0.2727273  -0.3674047  -0.1484539), wk =   0.0030053
        k(  556) = (  -0.4545455   0.0524864   0.1484539), wk =   0.0030053
        k(  557) = (   0.2727273   0.3674047   0.1484539), wk =   0.0030053
        k(  558) = (   0.1818182  -0.5248639   0.0742270), wk =   0.0030053
        k(  559) = (  -0.5454545  -0.1049728  -0.0742270), wk =   0.0030053
        k(  560) = (   0.3636364  -0.4198911  -0.0742270), wk =   0.0030053
        k(  561) = (  -0.5454545   0.1049728   0.0742270), wk =   0.0030053
        k(  562) = (   0.3636364   0.4198911   0.0742270), wk =   0.0030053
        k(  563) = (   0.1818182  -0.5248639  -0.0371135), wk =   0.0030053
        k(  564) = (  -0.5454545  -0.1049728   0.0371135), wk =   0.0030053
        k(  565) = (   0.3636364  -0.4198911   0.0371135), wk =   0.0030053
        k(  566) = (  -0.5454545   0.1049728  -0.0371135), wk =   0.0030053
        k(  567) = (   0.3636364   0.4198911  -0.0371135), wk =   0.0030053
        k(  568) = (   0.1818182  -0.5248639  -0.1484539), wk =   0.0030053
        k(  569) = (  -0.5454545  -0.1049728   0.1484539), wk =   0.0030053
        k(  570) = (   0.3636364  -0.4198911   0.1484539), wk =   0.0030053
        k(  571) = (  -0.5454545   0.1049728  -0.1484539), wk =   0.0030053
        k(  572) = (   0.3636364   0.4198911  -0.1484539), wk =   0.0030053
        k(  573) = (   0.1818182  -0.5248639  -0.2597944), wk =   0.0030053
        k(  574) = (  -0.5454545  -0.1049728   0.2597944), wk =   0.0030053
        k(  575) = (   0.3636364  -0.4198911   0.2597944), wk =   0.0030053
        k(  576) = (  -0.5454545   0.1049728  -0.2597944), wk =   0.0030053
        k(  577) = (   0.3636364   0.4198911  -0.2597944), wk =   0.0030053
        k(  578) = (   0.1818182  -0.5248639  -0.3711348), wk =   0.0030053
        k(  579) = (  -0.5454545  -0.1049728   0.3711348), wk =   0.0030053
        k(  580) = (   0.3636364  -0.4198911   0.3711348), wk =   0.0030053
        k(  581) = (  -0.5454545   0.1049728  -0.3711348), wk =   0.0030053
        k(  582) = (   0.3636364   0.4198911  -0.3711348), wk =   0.0030053
        k(  583) = (   0.1818182  -0.5248639  -0.4824753), wk =   0.0030053
        k(  584) = (  -0.5454545  -0.1049728   0.4824753), wk =   0.0030053
        k(  585) = (   0.3636364  -0.4198911   0.4824753), wk =   0.0030053
        k(  586) = (  -0.5454545   0.1049728  -0.4824753), wk =   0.0030053
        k(  587) = (   0.3636364   0.4198911  -0.4824753), wk =   0.0030053
        k(  588) = (   0.1818182  -0.5248639   0.6309292), wk =   0.0030053
        k(  589) = (  -0.5454545  -0.1049728  -0.6309292), wk =   0.0030053
        k(  590) = (   0.3636364  -0.4198911  -0.6309292), wk =   0.0030053
        k(  591) = (  -0.5454545   0.1049728   0.6309292), wk =   0.0030053
        k(  592) = (   0.3636364   0.4198911   0.6309292), wk =   0.0030053
        k(  593) = (   0.1818182  -0.5248639   0.5195887), wk =   0.0030053
        k(  594) = (  -0.5454545  -0.1049728  -0.5195887), wk =   0.0030053
        k(  595) = (   0.3636364  -0.4198911  -0.5195887), wk =   0.0030053
        k(  596) = (  -0.5454545   0.1049728   0.5195887), wk =   0.0030053
        k(  597) = (   0.3636364   0.4198911   0.5195887), wk =   0.0030053
        k(  598) = (   0.1818182  -0.5248639   0.4082483), wk =   0.0030053
        k(  599) = (  -0.5454545  -0.1049728  -0.4082483), wk =   0.0030053
        k(  600) = (   0.3636364  -0.4198911  -0.4082483), wk =   0.0030053
        k(  601) = (  -0.5454545   0.1049728   0.4082483), wk =   0.0030053
        k(  602) = (   0.3636364   0.4198911   0.4082483), wk =   0.0030053
        k(  603) = (   0.1818182  -0.5248639   0.2969078), wk =   0.0030053
        k(  604) = (  -0.5454545  -0.1049728  -0.2969078), wk =   0.0030053
        k(  605) = (   0.3636364  -0.4198911  -0.2969078), wk =   0.0030053
        k(  606) = (  -0.5454545   0.1049728   0.2969078), wk =   0.0030053
        k(  607) = (   0.3636364   0.4198911   0.2969078), wk =   0.0030053
        k(  608) = (   0.1818182  -0.5248639   0.1855674), wk =   0.0030053
        k(  609) = (  -0.5454545  -0.1049728  -0.1855674), wk =   0.0030053
        k(  610) = (   0.3636364  -0.4198911  -0.1855674), wk =   0.0030053
        k(  611) = (  -0.5454545   0.1049728   0.1855674), wk =   0.0030053
        k(  612) = (   0.3636364   0.4198911   0.1855674), wk =   0.0030053
        k(  613) = (   0.2727273  -0.4723775   0.0000000), wk =   0.0030053
        k(  614) = (  -0.5454545  -0.0000000  -0.0000000), wk =   0.0030053
        k(  615) = (   0.2727273  -0.4723775  -0.1113404), wk =   0.0030053
        k(  616) = (  -0.5454545  -0.0000000   0.1113404), wk =   0.0030053
        k(  617) = (   0.2727273  -0.4723775   0.1113404), wk =   0.0030053
        k(  618) = (  -0.5454545  -0.0000000  -0.1113404), wk =   0.0030053
        k(  619) = (   0.2727273   0.4723775  -0.1113404), wk =   0.0030053
        k(  620) = (   0.2727273  -0.4723775  -0.2226809), wk =   0.0030053
        k(  621) = (  -0.5454545  -0.0000000   0.2226809), wk =   0.0030053
        k(  622) = (   0.2727273  -0.4723775   0.2226809), wk =   0.0030053
        k(  623) = (  -0.5454545  -0.0000000  -0.2226809), wk =   0.0030053
        k(  624) = (   0.2727273   0.4723775  -0.2226809), wk =   0.0030053
        k(  625) = (   0.2727273  -0.4723775  -0.3340213), wk =   0.0030053
        k(  626) = (  -0.5454545  -0.0000000   0.3340213), wk =   0.0030053
        k(  627) = (   0.2727273  -0.4723775   0.3340213), wk =   0.0030053
        k(  628) = (  -0.5454545  -0.0000000  -0.3340213), wk =   0.0030053
        k(  629) = (   0.2727273   0.4723775  -0.3340213), wk =   0.0030053
        k(  630) = (   0.2727273  -0.4723775  -0.4453618), wk =   0.0030053
        k(  631) = (  -0.5454545  -0.0000000   0.4453618), wk =   0.0030053
        k(  632) = (   0.2727273  -0.4723775   0.4453618), wk =   0.0030053
        k(  633) = (  -0.5454545  -0.0000000  -0.4453618), wk =   0.0030053
        k(  634) = (   0.2727273   0.4723775  -0.4453618), wk =   0.0030053
        k(  635) = (   0.2727273  -0.4723775  -0.5567022), wk =   0.0030053
        k(  636) = (  -0.5454545  -0.0000000   0.5567022), wk =   0.0030053
        k(  637) = (   0.2727273  -0.4723775   0.5567022), wk =   0.0030053
        k(  638) = (  -0.5454545  -0.0000000  -0.5567022), wk =   0.0030053
        k(  639) = (   0.2727273   0.4723775  -0.5567022), wk =   0.0030053
        k(  640) = (   0.2727273  -0.5773503   0.0371135), wk =   0.0030053
        k(  641) = (  -0.6363636  -0.0524864  -0.0371135), wk =   0.0030053
        k(  642) = (   0.3636364  -0.5248639  -0.0371135), wk =   0.0030053
        k(  643) = (  -0.6363636   0.0524864   0.0371135), wk =   0.0030053
        k(  644) = (   0.3636364   0.5248639   0.0371135), wk =   0.0030053
        k(  645) = (   0.2727273  -0.5773503  -0.0742270), wk =   0.0030053
        k(  646) = (  -0.6363636  -0.0524864   0.0742270), wk =   0.0030053
        k(  647) = (   0.3636364  -0.5248639   0.0742270), wk =   0.0030053
        k(  648) = (  -0.6363636   0.0524864  -0.0742270), wk =   0.0030053
        k(  649) = (   0.3636364   0.5248639  -0.0742270), wk =   0.0030053
        k(  650) = (   0.2727273  -0.5773503  -0.1855674), wk =   0.0030053
        k(  651) = (  -0.6363636  -0.0524864   0.1855674), wk =   0.0030053
        k(  652) = (   0.3636364  -0.5248639   0.1855674), wk =   0.0030053
        k(  653) = (  -0.6363636   0.0524864  -0.1855674), wk =   0.0030053
        k(  654) = (   0.3636364   0.5248639  -0.1855674), wk =   0.0030053
        k(  655) = (   0.2727273  -0.5773503  -0.2969078), wk =   0.0030053
        k(  656) = (  -0.6363636  -0.0524864   0.2969078), wk =   0.0030053
        k(  657) = (   0.3636364  -0.5248639   0.2969078), wk =   0.0030053
        k(  658) = (  -0.6363636   0.0524864  -0.2969078), wk =   0.0030053
        k(  659) = (   0.3636364   0.5248639  -0.2969078), wk =   0.0030053
        k(  660) = (  -0.6363636  -0.0524864   0.4082483), wk =   0.0030053
        k(  661) = (   0.3636364  -0.5248639   0.4082483), wk =   0.0030053
        k(  662) = (   0.2727273  -0.5773503   0.2597944), wk =   0.0030053
        k(  663) = (  -0.6363636  -0.0524864  -0.2597944), wk =   0.0030053
        k(  664) = (   0.3636364  -0.5248639  -0.2597944), wk =   0.0030053
        k(  665) = (  -0.6363636   0.0524864   0.2597944), wk =   0.0030053
        k(  666) = (   0.3636364   0.5248639   0.2597944), wk =   0.0030053

                       cryst. coord.
        k(    1) = (   0.0000000   0.0000000   0.0000000), wk =   0.0015026
        k(    2) = (   0.0000000   0.0000000   0.0909091), wk =   0.0030053
        k(    3) = (   0.0000000   0.0000000   0.1818182), wk =   0.0030053
        k(    4) = (   0.0000000   0.0000000   0.2727273), wk =   0.0030053
        k(    5) = (   0.0000000   0.0000000   0.3636364), wk =   0.0030053
        k(    6) = (   0.0000000   0.0000000   0.4545455), wk =   0.0030053
        k(    7) = (   0.0000000   0.0909091  -0.0000000), wk =   0.0030053
        k(    8) = (   0.0000000   0.0909091   0.0909091), wk =   0.0030053
        k(    9) = (   0.0000000   0.0909091   0.1818182), wk =   0.0030053
        k(   10) = (   0.0000000   0.0909091   0.2727273), wk =   0.0030053
        k(   11) = (   0.0000000   0.0909091   0.3636364), wk =   0.0030053
        k(   12) = (   0.0000000   0.0909091   0.4545455), wk =   0.0030053
        k(   13) = (   0.0000000   0.0909091  -0.4545455), wk =   0.0030053
        k(   14) = (   0.0000000   0.0909091  -0.3636364), wk =   0.0030053
        k(   15) = (   0.0000000   0.0909091  -0.2727273), wk =   0.0030053
        k(   16) = (   0.0000000   0.0909091  -0.1818182), wk =   0.0030053
        k(   17) = (   0.0000000   0.0909091  -0.0909091), wk =   0.0030053
        k(   18) = (   0.0000000   0.1818182  -0.0000000), wk =   0.0030053
        k(   19) = (   0.0000000   0.1818182   0.0909091), wk =   0.0030053
        k(   20) = (   0.0000000   0.1818182   0.1818182), wk =   0.0030053
        k(   21) = (   0.0000000   0.1818182   0.2727273), wk =   0.0030053
        k(   22) = (   0.0000000   0.1818182   0.3636364), wk =   0.0030053
        k(   23) = (   0.0000000   0.1818182   0.4545455), wk =   0.0030053
        k(   24) = (   0.0000000   0.1818182  -0.4545455), wk =   0.0030053
        k(   25) = (   0.0000000   0.1818182  -0.3636364), wk =   0.0030053
        k(   26) = (   0.0000000   0.1818182  -0.2727273), wk =   0.0030053
        k(   27) = (   0.0000000   0.1818182  -0.1818182), wk =   0.0030053
        k(   28) = (   0.0000000   0.1818182  -0.0909091), wk =   0.0030053
        k(   29) = (   0.0000000   0.2727273   0.0000000), wk =   0.0030053
        k(   30) = (   0.0000000   0.2727273   0.0909091), wk =   0.0030053
        k(   31) = (   0.0000000   0.2727273   0.1818182), wk =   0.0030053
        k(   32) = (   0.0000000   0.2727273   0.2727273), wk =   0.0030053
        k(   33) = (   0.0000000   0.2727273   0.3636364), wk =   0.0030053
        k(   34) = (   0.0000000   0.2727273   0.4545455), wk =   0.0030053
        k(   35) = (   0.0000000   0.2727273  -0.4545455), wk =   0.0030053
        k(   36) = (   0.0000000   0.2727273  -0.3636364), wk =   0.0030053
        k(   37) = (   0.0000000   0.2727273  -0.2727273), wk =   0.0030053
        k(   38) = (   0.0000000   0.2727273  -0.1818182), wk =   0.0030053
        k(   39) = (   0.0000000   0.2727273  -0.0909091), wk =   0.0030053
        k(   40) = (   0.0000000   0.3636364  -0.0000000), wk =   0.0030053
        k(   41) = (   0.0000000   0.3636364   0.0909091), wk =   0.0030053
        k(   42) = (   0.0000000   0.3636364   0.1818182), wk =   0.0030053
        k(   43) = (   0.0000000   0.3636364   0.2727273), wk =   0.0030053
        k(   44) = (   0.0000000   0.3636364   0.3636364), wk =   0.0030053
        k(   45) = (   0.0000000   0.3636364   0.4545455), wk =   0.0030053
        k(   46) = (   0.0000000   0.3636364  -0.4545455), wk =   0.0030053
        k(   47) = (   0.0000000   0.3636364  -0.3636364), wk =   0.0030053
        k(   48) = (   0.0000000   0.3636364  -0.2727273), wk =   0.0030053
        k(   49) = (   0.0000000   0.3636364  -0.1818182), wk =   0.0030053
        k(   50) = (   0.0000000   0.3636364  -0.0909091), wk =   0.0030053
        k(   51) = (   0.0000000   0.4545455  -0.0000000), wk =   0.0030053
        k(   52) = (   0.0000000   0.4545455   0.0909091), wk =   0.0030053
        k(   53) = (   0.0000000   0.4545455   0.1818182), wk =   0.0030053
        k(   54) = (   0.0000000   0.4545455   0.2727273), wk =   0.0030053
        k(   55) = (   0.0000000   0.4545455   0.3636364), wk =   0.0030053
        k(   56) = (   0.0000000   0.4545455   0.4545455), wk =   0.0030053
        k(   57) = (   0.0000000   0.4545455  -0.4545455), wk =   0.0030053
        k(   58) = (   0.0000000   0.4545455  -0.3636364), wk =   0.0030053
        k(   59) = (   0.0000000   0.4545455  -0.2727273), wk =   0.0030053
        k(   60) = (   0.0000000   0.4545455  -0.1818182), wk =   0.0030053
        k(   61) = (   0.0000000   0.4545455  -0.0909091), wk =   0.0030053
        k(   62) = (   0.0909091   0.0909091  -0.0000000), wk =   0.0030053
        k(   63) = (   0.0909091   0.0909091   0.0909091), wk =   0.0030053
        k(   64) = (   0.0909091   0.0909091   0.1818182), wk =   0.0030053
        k(   65) = (   0.0909091   0.0909091   0.2727273), wk =   0.0030053
        k(   66) = (   0.0909091   0.0909091   0.3636364), wk =   0.0030053
        k(   67) = (   0.0909091   0.0909091   0.4545455), wk =   0.0030053
        k(   68) = (   0.0909091   0.1818182   0.0000000), wk =   0.0030053
        k(   69) = (   0.0909091   0.1818182   0.0909091), wk =   0.0030053
        k(   70) = (   0.0909091   0.1818182   0.1818182), wk =   0.0030053
        k(   71) = (   0.0909091   0.1818182   0.2727273), wk =   0.0030053
        k(   72) = (   0.0909091   0.1818182   0.3636364), wk =   0.0030053
        k(   73) = (   0.0909091   0.1818182   0.4545455), wk =   0.0030053
        k(   74) = (   0.0909091   0.1818182  -0.4545455), wk =   0.0030053
        k(   75) = (   0.0909091   0.1818182  -0.3636364), wk =   0.0030053
        k(   76) = (   0.0909091   0.1818182  -0.2727273), wk =   0.0030053
        k(   77) = (   0.0909091   0.1818182  -0.1818182), wk =   0.0030053
        k(   78) = (   0.0909091   0.1818182  -0.0909091), wk =   0.0030053
        k(   79) = (   0.0909091   0.2727273   0.0000000), wk =   0.0030053
        k(   80) = (   0.0909091   0.2727273   0.0909091), wk =   0.0030053
        k(   81) = (   0.0909091   0.2727273   0.1818182), wk =   0.0030053
        k(   82) = (   0.0909091   0.2727273   0.2727273), wk =   0.0030053
        k(   83) = (   0.0909091   0.2727273   0.3636364), wk =   0.0030053
        k(   84) = (   0.0909091   0.2727273   0.4545455), wk =   0.0030053
        k(   85) = (   0.0909091   0.2727273  -0.4545455), wk =   0.0030053
        k(   86) = (   0.0909091   0.2727273  -0.3636364), wk =   0.0030053
        k(   87) = (   0.0909091   0.2727273  -0.2727273), wk =   0.0030053
        k(   88) = (   0.0909091   0.2727273  -0.1818182), wk =   0.0030053
        k(   89) = (   0.0909091   0.2727273  -0.0909091), wk =   0.0030053
        k(   90) = (   0.0909091   0.3636364  -0.0000000), wk =   0.0030053
        k(   91) = (   0.0909091   0.3636364   0.0909091), wk =   0.0030053
        k(   92) = (   0.0909091   0.3636364   0.1818182), wk =   0.0030053
        k(   93) = (   0.0909091   0.3636364   0.2727273), wk =   0.0030053
        k(   94) = (   0.0909091   0.3636364   0.3636364), wk =   0.0030053
        k(   95) = (   0.0909091   0.3636364   0.4545455), wk =   0.0030053
        k(   96) = (   0.0909091   0.3636364  -0.4545455), wk =   0.0030053
        k(   97) = (   0.0909091   0.3636364  -0.3636364), wk =   0.0030053
        k(   98) = (   0.0909091   0.3636364  -0.2727273), wk =   0.0030053
        k(   99) = (   0.0909091   0.3636364  -0.1818182), wk =   0.0030053
        k(  100) = (   0.0909091   0.3636364  -0.0909091), wk =   0.0030053
        k(  101) = (   0.0909091   0.4545455  -0.0000000), wk =   0.0030053
        k(  102) = (   0.0909091   0.4545455   0.0909091), wk =   0.0030053
        k(  103) = (   0.0909091   0.4545455   0.1818182), wk =   0.0030053
        k(  104) = (   0.0909091   0.4545455   0.2727273), wk =   0.0030053
        k(  105) = (   0.0909091   0.4545455   0.3636364), wk =   0.0030053
        k(  106) = (   0.0909091   0.4545455   0.4545455), wk =   0.0030053
        k(  107) = (   0.1818182   0.1818182  -0.0000000), wk =   0.0030053
        k(  108) = (   0.1818182   0.1818182   0.0909091), wk =   0.0030053
        k(  109) = (   0.1818182   0.1818182   0.1818182), wk =   0.0030053
        k(  110) = (   0.1818182   0.1818182   0.2727273), wk =   0.0030053
        k(  111) = (   0.1818182   0.1818182   0.3636364), wk =   0.0030053
        k(  112) = (   0.1818182   0.1818182   0.4545455), wk =   0.0030053
        k(  113) = (   0.1818182   0.2727273   0.0000000), wk =   0.0030053
        k(  114) = (   0.1818182   0.2727273   0.0909091), wk =   0.0030053
        k(  115) = (   0.1818182   0.2727273   0.1818182), wk =   0.0030053
        k(  116) = (   0.1818182   0.2727273   0.2727273), wk =   0.0030053
        k(  117) = (   0.1818182   0.2727273   0.3636364), wk =   0.0030053
        k(  118) = (   0.1818182   0.2727273   0.4545455), wk =   0.0030053
        k(  119) = (   0.1818182   0.2727273  -0.4545455), wk =   0.0030053
        k(  120) = (   0.1818182   0.2727273  -0.3636364), wk =   0.0030053
        k(  121) = (   0.1818182   0.2727273  -0.2727273), wk =   0.0030053
        k(  122) = (   0.1818182   0.2727273  -0.1818182), wk =   0.0030053
        k(  123) = (   0.1818182   0.2727273  -0.0909091), wk =   0.0030053
        k(  124) = (   0.1818182   0.3636364   0.0000000), wk =   0.0030053
        k(  125) = (   0.1818182   0.3636364   0.0909091), wk =   0.0030053
        k(  126) = (   0.1818182   0.3636364   0.1818182), wk =   0.0030053
        k(  127) = (   0.1818182   0.3636364   0.2727273), wk =   0.0030053
        k(  128) = (   0.1818182   0.3636364   0.3636364), wk =   0.0030053
        k(  129) = (   0.1818182   0.3636364   0.4545455), wk =   0.0030053
        k(  130) = (   0.1818182   0.3636364  -0.4545455), wk =   0.0030053
        k(  131) = (   0.1818182   0.3636364  -0.3636364), wk =   0.0030053
        k(  132) = (   0.1818182   0.3636364  -0.2727273), wk =   0.0030053
        k(  133) = (   0.1818182   0.3636364  -0.1818182), wk =   0.0030053
        k(  134) = (   0.1818182   0.3636364  -0.0909091), wk =   0.0030053
        k(  135) = (   0.2727273   0.2727273  -0.0000000), wk =   0.0030053
        k(  136) = (   0.2727273   0.2727273   0.0909091), wk =   0.0030053
        k(  137) = (   0.2727273   0.2727273   0.1818182), wk =   0.0030053
        k(  138) = (   0.2727273   0.2727273   0.2727273), wk =   0.0030053
        k(  139) = (   0.2727273   0.2727273   0.3636364), wk =   0.0030053
        k(  140) = (   0.2727273   0.2727273   0.4545455), wk =   0.0030053
        k(  141) = (   0.2727273   0.3636364  -0.0000000), wk =   0.0030053
        k(  142) = (   0.2727273   0.3636364   0.0909091), wk =   0.0030053
        k(  143) = (   0.2727273   0.3636364   0.1818182), wk =   0.0030053
        k(  144) = (   0.2727273   0.3636364   0.2727273), wk =   0.0030053
        k(  145) = (   0.2727273   0.3636364   0.3636364), wk =   0.0030053
        k(  146) = (   0.2727273   0.3636364  -0.1818182), wk =   0.0030053
        k(  147) = (  -0.0909091  -0.0000000  -0.0000000), wk =   0.0030053
        k(  148) = (   0.0909091  -0.0909091  -0.0909091), wk =   0.0030053
        k(  149) = (  -0.0909091  -0.0000000   0.0909091), wk =   0.0030053
        k(  150) = (   0.0909091  -0.0909091   0.0000000), wk =   0.0030053
        k(  151) = (  -0.0909091  -0.0000000   0.1818182), wk =   0.0030053
        k(  152) = (   0.0909091  -0.0909091   0.0909091), wk =   0.0030053
        k(  153) = (  -0.0909091  -0.0000000   0.2727273), wk =   0.0030053
        k(  154) = (   0.0909091  -0.0909091   0.1818182), wk =   0.0030053
        k(  155) = (  -0.0909091  -0.0000000   0.3636364), wk =   0.0030053
        k(  156) = (   0.0909091  -0.0909091   0.2727273), wk =   0.0030053
        k(  157) = (  -0.0909091  -0.0000000   0.4545455), wk =   0.0030053
        k(  158) = (   0.0909091  -0.0909091   0.3636364), wk =   0.0030053
        k(  159) = (  -0.0909091  -0.0000000  -0.4545455), wk =   0.0030053
        k(  160) = (   0.0909091  -0.0909091  -0.5454545), wk =   0.0030053
        k(  161) = (  -0.0909091  -0.0000000  -0.3636364), wk =   0.0030053
        k(  162) = (   0.0909091  -0.0909091  -0.4545455), wk =   0.0030053
        k(  163) = (  -0.0909091  -0.0000000  -0.2727273), wk =   0.0030053
        k(  164) = (   0.0909091  -0.0909091  -0.3636364), wk =   0.0030053
        k(  165) = (  -0.0909091  -0.0000000  -0.1818182), wk =   0.0030053
        k(  166) = (   0.0909091  -0.0909091  -0.2727273), wk =   0.0030053
        k(  167) = (  -0.0909091  -0.0000000  -0.0909091), wk =   0.0030053
        k(  168) = (   0.0909091  -0.0909091  -0.1818182), wk =   0.0030053
        k(  169) = (  -0.1818182  -0.0000000  -0.0000000), wk =   0.0030053
        k(  170) = (   0.1818182  -0.1818182  -0.1818182), wk =   0.0030053
        k(  171) = (  -0.1818182  -0.0000000   0.0909091), wk =   0.0030053
        k(  172) = (   0.1818182  -0.1818182  -0.0909091), wk =   0.0030053
        k(  173) = (  -0.1818182  -0.0000000   0.1818182), wk =   0.0030053
        k(  174) = (   0.1818182  -0.1818182   0.0000000), wk =   0.0030053
        k(  175) = (  -0.1818182  -0.0000000   0.2727273), wk =   0.0030053
        k(  176) = (   0.1818182  -0.1818182   0.0909091), wk =   0.0030053
        k(  177) = (  -0.1818182  -0.0000000   0.3636364), wk =   0.0030053
        k(  178) = (   0.1818182  -0.1818182   0.1818182), wk =   0.0030053
        k(  179) = (  -0.1818182  -0.0000000   0.4545455), wk =   0.0030053
        k(  180) = (   0.1818182  -0.1818182   0.2727273), wk =   0.0030053
        k(  181) = (  -0.1818182  -0.0000000  -0.4545455), wk =   0.0030053
        k(  182) = (   0.1818182  -0.1818182  -0.6363636), wk =   0.0030053
        k(  183) = (  -0.1818182  -0.0000000  -0.3636364), wk =   0.0030053
        k(  184) = (   0.1818182  -0.1818182  -0.5454545), wk =   0.0030053
        k(  185) = (  -0.1818182  -0.0000000  -0.2727273), wk =   0.0030053
        k(  186) = (   0.1818182  -0.1818182  -0.4545455), wk =   0.0030053
        k(  187) = (  -0.1818182  -0.0000000  -0.1818182), wk =   0.0030053
        k(  188) = (   0.1818182  -0.1818182  -0.3636364), wk =   0.0030053
        k(  189) = (  -0.1818182  -0.0000000  -0.0909091), wk =   0.0030053
        k(  190) = (   0.1818182  -0.1818182  -0.2727273), wk =   0.0030053
        k(  191) = (  -0.2727273   0.0000000   0.0000000), wk =   0.0030053
        k(  192) = (   0.2727273  -0.2727273  -0.2727273), wk =   0.0030053
        k(  193) = (  -0.2727273   0.0000000   0.0909091), wk =   0.0030053
        k(  194) = (   0.2727273  -0.2727273  -0.1818182), wk =   0.0030053
        k(  195) = (  -0.2727273   0.0000000   0.1818182), wk =   0.0030053
        k(  196) = (   0.2727273  -0.2727273  -0.0909091), wk =   0.0030053
        k(  197) = (  -0.2727273   0.0000000   0.2727273), wk =   0.0030053
        k(  198) = (   0.2727273  -0.2727273   0.0000000), wk =   0.0030053
        k(  199) = (  -0.2727273   0.0000000   0.3636364), wk =   0.0030053
        k(  200) = (   0.2727273  -0.2727273   0.0909091), wk =   0.0030053
        k(  201) = (  -0.2727273   0.0000000   0.4545455), wk =   0.0030053
        k(  202) = (   0.2727273  -0.2727273   0.1818182), wk =   0.0030053
        k(  203) = (  -0.2727273   0.0000000  -0.4545455), wk =   0.0030053
        k(  204) = (   0.2727273  -0.2727273  -0.7272727), wk =   0.0030053
        k(  205) = (  -0.2727273   0.0000000  -0.3636364), wk =   0.0030053
        k(  206) = (   0.2727273  -0.2727273  -0.6363636), wk =   0.0030053
        k(  207) = (  -0.2727273   0.0000000  -0.2727273), wk =   0.0030053
        k(  208) = (   0.2727273  -0.2727273  -0.5454545), wk =   0.0030053
        k(  209) = (  -0.2727273   0.0000000  -0.1818182), wk =   0.0030053
        k(  210) = (   0.2727273  -0.2727273  -0.4545455), wk =   0.0030053
        k(  211) = (  -0.2727273   0.0000000  -0.0909091), wk =   0.0030053
        k(  212) = (   0.2727273  -0.2727273  -0.3636364), wk =   0.0030053
        k(  213) = (  -0.3636364  -0.0000000  -0.0000000), wk =   0.0030053
        k(  214) = (   0.3636364  -0.3636364  -0.3636364), wk =   0.0030053
        k(  215) = (  -0.3636364  -0.0000000   0.0909091), wk =   0.0030053
        k(  216) = (   0.3636364  -0.3636364  -0.2727273), wk =   0.0030053
        k(  217) = (  -0.3636364  -0.0000000   0.1818182), wk =   0.0030053
        k(  218) = (   0.3636364  -0.3636364  -0.1818182), wk =   0.0030053
        k(  219) = (  -0.3636364  -0.0000000   0.2727273), wk =   0.0030053
        k(  220) = (   0.3636364  -0.3636364  -0.0909091), wk =   0.0030053
        k(  221) = (  -0.3636364  -0.0000000   0.3636364), wk =   0.0030053
        k(  222) = (   0.3636364  -0.3636364   0.0000000), wk =   0.0030053
        k(  223) = (  -0.3636364  -0.0000000   0.4545455), wk =   0.0030053
        k(  224) = (   0.3636364  -0.3636364   0.0909091), wk =   0.0030053
        k(  225) = (  -0.3636364  -0.0000000  -0.4545455), wk =   0.0030053
        k(  226) = (   0.3636364  -0.3636364  -0.8181818), wk =   0.0030053
        k(  227) = (  -0.3636364  -0.0000000  -0.3636364), wk =   0.0030053
        k(  228) = (   0.3636364  -0.3636364  -0.7272727), wk =   0.0030053
        k(  229) = (  -0.3636364  -0.0000000  -0.2727273), wk =   0.0030053
        k(  230) = (   0.3636364  -0.3636364  -0.6363636), wk =   0.0030053
        k(  231) = (  -0.3636364  -0.0000000  -0.1818182), wk =   0.0030053
        k(  232) = (   0.3636364  -0.3636364  -0.5454545), wk =   0.0030053
        k(  233) = (  -0.3636364  -0.0000000  -0.0909091), wk =   0.0030053
        k(  234) = (   0.3636364  -0.3636364  -0.4545455), wk =   0.0030053
        k(  235) = (  -0.4545455   0.0000000  -0.0000000), wk =   0.0030053
        k(  236) = (   0.4545455  -0.4545455  -0.4545455), wk =   0.0030053
        k(  237) = (  -0.4545455   0.0000000   0.0909091), wk =   0.0030053
        k(  238) = (   0.4545455  -0.4545455  -0.3636364), wk =   0.0030053
        k(  239) = (  -0.4545455   0.0000000   0.1818182), wk =   0.0030053
        k(  240) = (   0.4545455  -0.4545455  -0.2727273), wk =   0.0030053
        k(  241) = (  -0.4545455   0.0000000   0.2727273), wk =   0.0030053
        k(  242) = (   0.4545455  -0.4545455  -0.1818182), wk =   0.0030053
        k(  243) = (  -0.4545455   0.0000000   0.3636364), wk =   0.0030053
        k(  244) = (   0.4545455  -0.4545455  -0.0909091), wk =   0.0030053
        k(  245) = (  -0.4545455   0.0000000   0.4545455), wk =   0.0030053
        k(  246) = (   0.4545455  -0.4545455   0.0000000), wk =   0.0030053
        k(  247) = (  -0.4545455   0.0000000  -0.4545455), wk =   0.0030053
        k(  248) = (   0.4545455  -0.4545455  -0.9090909), wk =   0.0030053
        k(  249) = (  -0.4545455   0.0000000  -0.3636364), wk =   0.0030053
        k(  250) = (   0.4545455  -0.4545455  -0.8181818), wk =   0.0030053
        k(  251) = (  -0.4545455   0.0000000  -0.2727273), wk =   0.0030053
        k(  252) = (   0.4545455  -0.4545455  -0.7272727), wk =   0.0030053
        k(  253) = (  -0.4545455   0.0000000  -0.1818182), wk =   0.0030053
        k(  254) = (   0.4545455  -0.4545455  -0.6363636), wk =   0.0030053
        k(  255) = (  -0.4545455   0.0000000  -0.0909091), wk =   0.0030053
        k(  256) = (   0.4545455  -0.4545455  -0.5454545), wk =   0.0030053
        k(  257) = (   0.0909091  -0.1818182  -0.0909091), wk =   0.0030053
        k(  258) = (  -0.1818182   0.0909091   0.0909091), wk =   0.0030053
        k(  259) = (   0.0909091  -0.1818182  -0.1818182), wk =   0.0030053
        k(  260) = (  -0.1818182   0.0909091   0.1818182), wk =   0.0030053
        k(  261) = (   0.0909091  -0.1818182   0.0000000), wk =   0.0030053
        k(  262) = (  -0.1818182   0.0909091  -0.0000000), wk =   0.0030053
        k(  263) = (   0.0909091   0.0909091  -0.0909091), wk =   0.0030053
        k(  264) = (   0.0909091  -0.1818182  -0.2727273), wk =   0.0030053
        k(  265) = (  -0.1818182   0.0909091   0.2727273), wk =   0.0030053
        k(  266) = (   0.0909091  -0.1818182   0.0909091), wk =   0.0030053
        k(  267) = (  -0.1818182   0.0909091  -0.0909091), wk =   0.0030053
        k(  268) = (   0.0909091   0.0909091  -0.1818182), wk =   0.0030053
        k(  269) = (   0.0909091  -0.1818182  -0.3636364), wk =   0.0030053
        k(  270) = (  -0.1818182   0.0909091   0.3636364), wk =   0.0030053
        k(  271) = (   0.0909091  -0.1818182   0.1818182), wk =   0.0030053
        k(  272) = (  -0.1818182   0.0909091  -0.1818182), wk =   0.0030053
        k(  273) = (   0.0909091   0.0909091  -0.2727273), wk =   0.0030053
        k(  274) = (   0.0909091  -0.1818182  -0.4545455), wk =   0.0030053
        k(  275) = (  -0.1818182   0.0909091   0.4545455), wk =   0.0030053
        k(  276) = (   0.0909091  -0.1818182   0.2727273), wk =   0.0030053
        k(  277) = (  -0.1818182   0.0909091  -0.2727273), wk =   0.0030053
        k(  278) = (   0.0909091   0.0909091  -0.3636364), wk =   0.0030053
        k(  279) = (   0.0909091  -0.1818182  -0.5454545), wk =   0.0030053
        k(  280) = (  -0.1818182   0.0909091   0.5454545), wk =   0.0030053
        k(  281) = (   0.0909091  -0.1818182   0.3636364), wk =   0.0030053
        k(  282) = (  -0.1818182   0.0909091  -0.3636364), wk =   0.0030053
        k(  283) = (   0.0909091   0.0909091  -0.4545455), wk =   0.0030053
        k(  284) = (   0.0909091  -0.2727273  -0.0909091), wk =   0.0030053
        k(  285) = (  -0.2727273   0.0909091   0.0909091), wk =   0.0030053
        k(  286) = (   0.1818182  -0.2727273  -0.1818182), wk =   0.0030053
        k(  287) = (  -0.2727273   0.1818182   0.1818182), wk =   0.0030053
        k(  288) = (   0.1818182   0.0909091   0.0000000), wk =   0.0030053
        k(  289) = (   0.0909091  -0.2727273  -0.1818182), wk =   0.0030053
        k(  290) = (  -0.2727273   0.0909091   0.1818182), wk =   0.0030053
        k(  291) = (   0.1818182  -0.2727273  -0.0909091), wk =   0.0030053
        k(  292) = (  -0.2727273   0.1818182   0.0909091), wk =   0.0030053
        k(  293) = (   0.1818182   0.0909091  -0.0909091), wk =   0.0030053
        k(  294) = (   0.0909091  -0.2727273  -0.2727273), wk =   0.0030053
        k(  295) = (  -0.2727273   0.0909091   0.2727273), wk =   0.0030053
        k(  296) = (   0.1818182  -0.2727273  -0.0000000), wk =   0.0030053
        k(  297) = (  -0.2727273   0.1818182   0.0000000), wk =   0.0030053
        k(  298) = (   0.1818182   0.0909091  -0.1818182), wk =   0.0030053
        k(  299) = (   0.0909091  -0.2727273  -0.3636364), wk =   0.0030053
        k(  300) = (  -0.2727273   0.0909091   0.3636364), wk =   0.0030053
        k(  301) = (   0.1818182  -0.2727273   0.0909091), wk =   0.0030053
        k(  302) = (  -0.2727273   0.1818182  -0.0909091), wk =   0.0030053
        k(  303) = (   0.1818182   0.0909091  -0.2727273), wk =   0.0030053
        k(  304) = (   0.0909091  -0.2727273  -0.4545455), wk =   0.0030053
        k(  305) = (  -0.2727273   0.0909091   0.4545455), wk =   0.0030053
        k(  306) = (   0.1818182  -0.2727273   0.1818182), wk =   0.0030053
        k(  307) = (  -0.2727273   0.1818182  -0.1818182), wk =   0.0030053
        k(  308) = (   0.1818182   0.0909091  -0.3636364), wk =   0.0030053
        k(  309) = (   0.0909091  -0.2727273  -0.5454545), wk =   0.0030053
        k(  310) = (  -0.2727273   0.0909091   0.5454545), wk =   0.0030053
        k(  311) = (   0.1818182  -0.2727273   0.2727273), wk =   0.0030053
        k(  312) = (  -0.2727273   0.1818182  -0.2727273), wk =   0.0030053
        k(  313) = (   0.1818182   0.0909091  -0.4545455), wk =   0.0030053
        k(  314) = (   0.0909091  -0.2727273   0.3636364), wk =   0.0030053
        k(  315) = (  -0.2727273   0.0909091  -0.3636364), wk =   0.0030053
        k(  316) = (   0.1818182  -0.2727273  -0.6363636), wk =   0.0030053
        k(  317) = (  -0.2727273   0.1818182   0.6363636), wk =   0.0030053
        k(  318) = (   0.1818182   0.0909091   0.4545455), wk =   0.0030053
        k(  319) = (   0.0909091  -0.2727273   0.2727273), wk =   0.0030053
        k(  320) = (  -0.2727273   0.0909091  -0.2727273), wk =   0.0030053
[...]

    -5.8505   0.6397   5.9388   8.7488  14.6346  19.4062  22.7957  27.6360

     occupation numbers 
     1.0000   1.0000   1.0000   1.0000   0.0000   0.0000   0.0000   0.0000

          k = 0.3636 0.4199 0.2969 (  1025 PWs)   bands (ev):

    -5.6540   1.3969   4.4207   9.0326  14.2175  19.3795  22.2026  28.0884

     occupation numbers 
     1.0000   1.0000   1.0000   1.0000   0.0000   0.0000   0.0000   0.0000

          k = 0.1818-0.5249 0.1856 (  1027 PWs)   bands (ev):

    -6.1985   0.6154   6.8258   8.5377  15.1400  19.8949  23.2756  26.7440

     occupation numbers 
     1.0000   1.0000   1.0000   1.0000   0.0000   0.0000   0.0000   0.0000

          k =-0.5455-0.1050-0.1856 (  1027 PWs)   bands (ev):

    -5.9088   1.4802   4.4662   9.1287  15.7455  19.4865  21.8426  26.6728

     occupation numbers 
     1.0000   1.0000   1.0000   1.0000   0.0000   0.0000   0.0000   0.0000

          k = 0.3636-0.4199-0.1856 (  1027 PWs)   bands (ev):

    -6.0944   0.6939   6.7335   8.7690  14.1817  18.9806  24.0034  27.0694

     occupation numbers 
     1.0000   1.0000   1.0000   1.0000   0.0000   0.0000   0.0000   0.0000

          k =-0.5455 0.1050 0.1856 (  1027 PWs)   bands (ev):

    -6.0308   0.6426   6.7054   8.6251  14.2027  19.4256  23.2108  27.2312

     occupation numbers 
     1.0000   1.0000   1.0000   1.0000   0.0000   0.0000   0.0000   0.0000

          k = 0.3636 0.4199 0.1856 (  1027 PWs)   bands (ev):

    -5.8644   1.2886   4.5990   9.3018  15.7782  18.9909  21.7589  26.3688

     occupation numbers 
     1.0000   1.0000   1.0000   1.0000   0.0000   0.0000   0.0000   0.0000

          k = 0.2727-0.4724 0.0000 (  1023 PWs)   bands (ev):

    -6.2834   1.9095   4.8823   9.0726  14.5648  20.2047  22.6487  28.3811

     occupation numbers 
     1.0000   1.0000   1.0000   1.0000   0.0000   0.0000   0.0000   0.0000

          k =-0.5455-0.0000-0.0000 (  1023 PWs)   bands (ev):

    -6.0929   2.3498   4.3272   8.6614  14.1154  20.1818  22.5768  28.2223

     occupation numbers 
     1.0000   1.0000   1.0000   1.0000   0.0000   0.0000   0.0000   0.0000

          k = 0.2727-0.4724-0.1113 (  1026 PWs)   bands (ev):

    -6.1420   1.6722   5.3760   8.7016  14.0850  19.1876  23.3583  28.1345

     occupation numbers 
     1.0000   1.0000   1.0000   1.0000   0.0000   0.0000   0.0000   0.0000

          k =-0.5455-0.0000 0.1113 (  1026 PWs)   bands (ev):

    -5.9709   1.7384   5.1458   8.3747  13.6703  20.3895  22.1541  27.9680

     occupation numbers 
     1.0000   1.0000   1.0000   1.0000   0.0000   0.0000   0.0000   0.0000

          k = 0.2727-0.4724 0.1113 (  1026 PWs)   bands (ev):

    -6.2439   1.6736   5.2647   8.5078  15.0429  20.5773  22.7394  27.3122

     occupation numbers 
     1.0000   1.0000   1.0000   1.0000   0.0000   0.0000   0.0000   0.0000

          k =-0.5455-0.0000-0.1113 (  1026 PWs)   bands (ev):

    -6.0424   2.5934   3.9222   8.2900  15.2412  19.8853  22.3777  27.6988

     occupation numbers 
     1.0000   1.0000   1.0000   1.0000   0.0000   0.0000   0.0000   0.0000

          k = 0.2727 0.4724-0.1113 (  1026 PWs)   bands (ev):

    -6.0016   1.2818   5.4335   7.9971  16.3136  19.9662  21.7981  26.4584

     occupation numbers 
     1.0000   1.0000   1.0000   1.0000   0.0000   0.0000   0.0000   0.0000

          k = 0.2727-0.4724-0.2227 (  1028 PWs)   bands (ev):

    -5.8582   1.3434   5.9856   8.0228  13.3899  18.3406  24.5269  27.7269

     occupation numbers 
     1.0000   1.0000   1.0000   1.0000   0.0000   0.0000   0.0000   0.0000

          k =-0.5455-0.0000 0.2227 (  1028 PWs)   bands (ev):

    -5.7110   1.3172   5.2713   8.1465  13.7756  19.6401  22.2767  28.3781

     occupation numbers 
     1.0000   1.0000   1.0000   1.0000   0.0000   0.0000   0.0000   0.0000

          k = 0.2727-0.4724 0.2227 (  1028 PWs)   bands (ev):

    -6.0394   1.3525   5.8683   7.5400  15.2669  20.2166  23.0683  27.0951

     occupation numbers 
     1.0000   1.0000   1.0000   1.0000   0.0000   0.0000   0.0000   0.0000

          k =-0.5455-0.0000-0.2227 (  1028 PWs)   bands (ev):

    -5.8398   2.3811   3.8356   7.9131  15.7275  20.4723  21.8419  26.1736

     occupation numbers 
     1.0000   1.0000   1.0000   1.0000   0.0000   0.0000   0.0000   0.0000

          k = 0.2727 0.4724-0.2227 (  1028 PWs)   bands (ev):

    -5.7641   1.0871   5.3762   7.9757  15.1366  19.6637  22.4284  27.6417

     occupation numbers 
     1.0000   1.0000   1.0000   1.0000   0.0000   0.0000   0.0000   0.0000

          k = 0.2727-0.4724-0.3340 (  1028 PWs)   bands (ev):

    -5.5231   1.3163   5.5120   7.7476  13.1681  17.8885  24.8997  28.4615

     occupation numbers 
     1.0000   1.0000   1.0000   1.0000   0.0000   0.0000   0.0000   0.0000

          k =-0.5455-0.0000 0.3340 (  1028 PWs)   bands (ev):

    -5.4010   1.3269   4.3347   8.3495  13.9126  19.0301  22.9012  28.7302

     occupation numbers 
     1.0000   1.0000   1.0000   1.0000   0.0000   0.0000   0.0000   0.0000

          k = 0.2727-0.4724 0.3340 (  1028 PWs)   bands (ev):

    -5.7340   1.3280   5.4952   7.1027  15.2456  19.9427  23.1364  27.3982

     occupation numbers 
     1.0000   1.0000   1.0000   1.0000   0.0000   0.0000   0.0000   0.0000

          k =-0.5455-0.0000-0.3340 (  1028 PWs)   bands (ev):

    -5.5518   2.3661   3.4422   7.4986  15.6767  21.1952  21.4957  26.0136

     occupation numbers 
     1.0000   1.0000   1.0000   1.0000   0.0000   0.0000   0.0000   0.0000

          k = 0.2727 0.4724-0.3340 (  1028 PWs)   bands (ev):

    -5.4362   1.2724   4.4102   8.3947  13.8220  19.4400  22.8805  28.8085

     occupation numbers 
     1.0000   1.0000   1.0000   1.0000   0.0000   0.0000   0.0000   0.0000

          k = 0.2727-0.4724-0.4454 (  1020 PWs)   bands (ev):

    -5.2536   1.6923   4.7061   6.8094  14.2785  17.7726  24.3841  29.1207

     occupation numbers 
     1.0000   1.0000   1.0000   1.0000   0.0000   0.0000   0.0000   0.0000

          k =-0.5455-0.0000 0.4454 (  1020 PWs)   bands (ev):

    -5.1493   1.8458   3.3425   7.6314  14.6407  19.1056  23.3984  28.2390

     occupation numbers 
     1.0000   1.0000   1.0000   1.0000   0.0000   0.0000   0.0000   0.0000

          k = 0.2727-0.4724 0.4454 (  1020 PWs)   bands (ev):

    -5.4234   1.6921   4.6738   6.5271  15.4918  19.9778  22.9965  27.0658

     occupation numbers 
     1.0000   1.0000   1.0000   1.0000   0.0000   0.0000   0.0000   0.0000

          k =-0.5455-0.0000-0.4454 (  1020 PWs)   bands (ev):

    -5.2698   2.4447   3.3177   6.5161  16.0441  20.6685  21.8544  27.0366

     occupation numbers 
     1.0000   1.0000   1.0000   1.0000   0.0000   0.0000   0.0000   0.0000

          k = 0.2727 0.4724-0.4454 (  1020 PWs)   bands (ev):

    -5.1197   1.9024   3.4755   7.7887  13.3288  19.8887  22.4562  29.0007

     occupation numbers 
     1.0000   1.0000   1.0000   1.0000   0.0000   0.0000   0.0000   0.0000

          k = 0.2727-0.4724-0.5567 (  1028 PWs)   bands (ev):

    -5.1377   2.2471   4.1953   5.7567  15.5742  18.3005  23.6650  28.1408

     occupation numbers 
     1.0000   1.0000   1.0000   1.0000   0.0000   0.0000   0.0000   0.0000

          k =-0.5455-0.0000 0.5567 (  1028 PWs)   bands (ev):

    -5.0333   2.4580   3.0384   6.2918  15.7102  19.5276  23.3482  27.4958

     occupation numbers 
     1.0000   1.0000   1.0000   1.0000   0.0000   0.0000   0.0000   0.0000

          k = 0.2727-0.4724 0.5567 (  1028 PWs)   bands (ev):

    -5.2027   2.2419   4.1656   5.7222  15.8217  19.5321  23.0345  27.0465

     occupation numbers 
     1.0000   1.0000   1.0000   1.0000   0.0000   0.0000   0.0000   0.0000

          k =-0.5455-0.0000-0.5567 (  1028 PWs)   bands (ev):

    -5.0788   2.3474   3.6776   5.5762  16.2800  20.0692  22.5507  27.4282

     occupation numbers 
     1.0000   1.0000   1.0000   1.0000   0.0000   0.0000   0.0000   0.0000

          k = 0.2727 0.4724-0.5567 (  1028 PWs)   bands (ev):

    -4.9157   2.5292   3.2595   6.5006  13.2480  20.8970  21.5772  28.7768

     occupation numbers 
     1.0000   1.0000   1.0000   1.0000   0.0000   0.0000   0.0000   0.0000

          k = 0.2727-0.5774 0.0371 (  1023 PWs)   bands (ev):

    -5.6160   1.5322   4.1345   8.6431  14.0823  21.0393  21.8458  28.3224

     occupation numbers 
     1.0000   1.0000   1.0000   1.0000   0.0000   0.0000   0.0000   0.0000

          k =-0.6364-0.0525-0.0371 (  1023 PWs)   bands (ev):

    -5.4461   2.4695   3.2011   8.3441  13.4669  19.6882  22.8940  29.1176

     occupation numbers 
     1.0000   1.0000   1.0000   1.0000   0.0000   0.0000   0.0000   0.0000

          k = 0.3636-0.5249-0.0371 (  1023 PWs)   bands (ev):

    -5.5957   1.5978   4.0458   8.6110  14.1628  20.3920  22.3076  28.2937

     occupation numbers 
     1.0000   1.0000   1.0000   1.0000   0.0000   0.0000   0.0000   0.0000

          k =-0.6364 0.0525 0.0371 (  1023 PWs)   bands (ev):

    -5.5374   1.6110   4.5700   8.0423  13.5203  19.3027  23.9233  28.1939

     occupation numbers 
     1.0000   1.0000   1.0000   1.0000   0.0000   0.0000   0.0000   0.0000

          k = 0.3636 0.5249 0.0371 (  1023 PWs)   bands (ev):

    -5.5129   1.9119   3.5128   7.9276  16.1858  20.6194  21.7186  25.7873

     occupation numbers 
     1.0000   1.0000   1.0000   1.0000   0.0000   0.0000   0.0000   0.0000

          k = 0.2727-0.5774-0.0742 (  1021 PWs)   bands (ev):

    -5.4798   1.9396   3.8259   8.1664  13.6374  20.7128  21.8571  28.6917

     occupation numbers 
     1.0000   1.0000   1.0000   1.0000   0.0000   0.0000   0.0000   0.0000

          k =-0.6364-0.0525 0.0742 (  1021 PWs)   bands (ev):

    -5.3298   2.3244   3.5571   7.7689  13.0098  20.2345  22.6204  28.8185

     occupation numbers 
     1.0000   1.0000   1.0000   1.0000   0.0000   0.0000   0.0000   0.0000

          k = 0.3636-0.5249 0.0742 (  1021 PWs)   bands (ev):

    -5.5579   1.9559   3.6640   7.9780  14.8381  20.8938  22.3533  27.4400

     occupation numbers 
     1.0000   1.0000   1.0000   1.0000   0.0000   0.0000   0.0000   0.0000

          k =-0.6364 0.0525-0.0742 (  1021 PWs)   bands (ev):

    -5.4820   2.2934   3.7639   7.3509  14.7459  19.1304  23.4582  28.4834

     occupation numbers 
     1.0000   1.0000   1.0000   1.0000   0.0000   0.0000   0.0000   0.0000

          k = 0.3636 0.5249-0.0742 (  1021 PWs)   bands (ev):

    -5.4274   1.7468   3.9214   7.1913  16.3985  20.2000  22.1364  26.5734

     occupation numbers 
     1.0000   1.0000   1.0000   1.0000   0.0000   0.0000   0.0000   0.0000

          k = 0.2727-0.5774-0.1856 (  1030 PWs)   bands (ev):

    -5.3087   1.8021   4.4999   7.1886  13.2762  19.5615  23.0648  28.4440

     occupation numbers 
     1.0000   1.0000   1.0000   1.0000   0.0000   0.0000   0.0000   0.0000

          k =-0.6364-0.0525 0.1856 (  1030 PWs)   bands (ev):

    -5.1953   1.9212   4.1236   7.0816  13.2734  20.6235  21.8621  28.5918

     occupation numbers 
     1.0000   1.0000   1.0000   1.0000   0.0000   0.0000   0.0000   0.0000

          k = 0.3636-0.5249 0.1856 (  1030 PWs)   bands (ev):

    -5.4762   1.7514   4.3241   6.8733  15.4842  21.3743  21.9015  27.0688

     occupation numbers 
     1.0000   1.0000   1.0000   1.0000   0.0000   0.0000   0.0000   0.0000

          k =-0.6364 0.0525-0.1856 (  1030 PWs)   bands (ev):

    -5.4068   2.6185   3.4371   6.7374  15.7451  19.5626  22.7443  27.0745

     occupation numbers 
     1.0000   1.0000   1.0000   1.0000   0.0000   0.0000   0.0000   0.0000

          k = 0.3636 0.5249-0.1856 (  1030 PWs)   bands (ev):

    -5.2975   1.5879   4.2494   6.7340  15.9124  19.7925  22.7277  27.2002

     occupation numbers 
     1.0000   1.0000   1.0000   1.0000   0.0000   0.0000   0.0000   0.0000

          k = 0.2727-0.5774-0.2969 (  1020 PWs)   bands (ev):

    -5.1689   1.7547   4.5027   7.2713  12.6736  18.6258  24.1657  28.9201

     occupation numbers 
     1.0000   1.0000   1.0000   1.0000   0.0000   0.0000   0.0000   0.0000

          k =-0.6364-0.0525 0.2969 (  1020 PWs)   bands (ev):

    -5.0986   1.9495   3.4603   7.6983  13.3523  19.7248  22.4851  28.9398

     occupation numbers 
     1.0000   1.0000   1.0000   1.0000   0.0000   0.0000   0.0000   0.0000

          k = 0.3636-0.5249 0.2969 (  1020 PWs)   bands (ev):

    -5.3847   1.6744   4.4264   6.6378  15.5172  21.0320  21.9322  27.4554

     occupation numbers 
     1.0000   1.0000   1.0000   1.0000   0.0000   0.0000   0.0000   0.0000

          k =-0.6364 0.0525-0.2969 (  1020 PWs)   bands (ev):

    -5.3437   2.4022   3.3788   6.9065  15.5853  20.4706  22.3425  26.3660

     occupation numbers 
     1.0000   1.0000   1.0000   1.0000   0.0000   0.0000   0.0000   0.0000

          k = 0.3636 0.5249-0.2969 (  1020 PWs)   bands (ev):

    -5.1662   1.7856   3.4622   7.5605  14.6341  19.3439  23.4002  27.9997

     occupation numbers 
     1.0000   1.0000   1.0000   1.0000   0.0000   0.0000   0.0000   0.0000

          k =-0.6364-0.0525 0.4082 (  1017 PWs)   bands (ev):

    -5.0877   2.3200   2.6493   8.2330  13.5343  19.2040  23.2566  29.0489

     occupation numbers 
     1.0000   1.0000   1.0000   1.0000   0.0000   0.0000   0.0000   0.0000

          k = 0.3636-0.5249 0.4082 (  1017 PWs)   bands (ev):

    -5.3319   1.9561   3.7402   7.0682  15.3148  20.7043  22.2677  27.0184

     occupation numbers 
     1.0000   1.0000   1.0000   1.0000   0.0000   0.0000   0.0000   0.0000

          k = 0.2727-0.5774 0.2598 (  1027 PWs)   bands (ev):

    -5.6868   0.9323   5.4715   7.5204  15.7718  20.6621  22.1016  26.7648

     occupation numbers 
     1.0000   1.0000   1.0000   1.0000   0.0000   0.0000   0.0000   0.0000

          k =-0.6364-0.0525-0.2598 (  1027 PWs)   bands (ev):

    -5.5409   1.8329   3.6990   8.1031  15.9228  20.0992  21.7178  26.1183

     occupation numbers 
     1.0000   1.0000   1.0000   1.0000   0.0000   0.0000   0.0000   0.0000

          k = 0.3636-0.5249-0.2598 (  1027 PWs)   bands (ev):

    -5.5703   1.1660   5.3293   8.0025  13.3900  19.6029  23.4810  27.7030

     occupation numbers 
     1.0000   1.0000   1.0000   1.0000   0.0000   0.0000   0.0000   0.0000

          k =-0.6364 0.0525 0.2598 (  1027 PWs)   bands (ev):

    -5.5922   1.1736   5.0121   8.2658  13.8164  19.9563  22.5780  28.1164

     occupation numbers 
     1.0000   1.0000   1.0000   1.0000   0.0000   0.0000   0.0000   0.0000

          k = 0.3636 0.5249 0.2598 (  1027 PWs)   bands (ev):

    -5.5174   1.9659   3.6923   8.1809  14.9129  19.4671  22.4228  27.6066

     occupation numbers 
     1.0000   1.0000   1.0000   1.0000   0.0000   0.0000   0.0000   0.0000

     the Fermi energy is    11.0373 ev

!    total energy              =     -27.03443031 Ry
     estimated scf accuracy    <          1.3E-10 Ry
     smearing contrib. (-TS)   =       0.00024671 Ry
     internal energy E=F+TS    =     -27.03467701 Ry

     The total energy is F=E-TS. E is the sum of the following terms:
     one-electron contribution =       3.01983825 Ry
     hartree contribution      =       4.24500554 Ry
     xc contribution           =      -9.46583985 Ry
     ewald contribution        =     -24.83368095 Ry

     convergence has been achieved in  10 iterations

     Forces acting on atoms (cartesian axes, Ry/au):

     atom    1 type  1   force =     0.47937613   -0.64427531    0.30995548
     atom    2 type  2   force =    -0.47937613    0.64427531   -0.30995548
     The non-local contrib.  to forces
     atom    1 type  1   force =     0.64499215   -0.74103138    0.44796115
     atom    2 type  2   force =     0.17168085    0.16440572    0.20154680
     The ionic contribution  to forces
     atom    1 type  1   force =     2.48413697   -2.19289204    1.88265873
     atom    2 type  2   force =    -2.48413697    2.19289204   -1.88265873
     The local contribution  to forces
     atom    1 type  1   force =    -2.61010415    2.24768340   -1.99258313
     atom    2 type  2   force =     1.81560856   -1.68412306    1.36136657
     The core correction contribution to forces
     atom    1 type  1   force =    -0.03965050    0.04196795   -0.02808327
     atom    2 type  2   force =     0.01748196   -0.02890726    0.00979840
     The Hubbard contrib.    to forces
     atom    1 type  1   force =     0.00000000    0.00000000    0.00000000
     atom    2 type  2   force =     0.00000000    0.00000000    0.00000000
     The SCF correction term to forces
     atom    1 type  1   force =     0.00000227   -0.00000305    0.00000131
     atom    2 type  2   force =    -0.00000992    0.00000805   -0.00000921

     Total force =     1.217345     Total SCF correction =     0.000016


     Computing stress (Cartesian axis) and pressure

          total   stress  (Ry/bohr**3)                   (kbar)     P=     1014.83
   0.00941881  -0.00577373   0.00718052         1385.55     -849.34     1056.29
  -0.00577373   0.00589466  -0.00484732         -849.34      867.13     -713.07
   0.00718052  -0.00484732   0.00538257         1056.29     -713.07      791.80

     kinetic stress (kbar)  22455.13    903.45    324.11
                              903.45  21230.17    283.41
                              324.11    283.41  22635.47

     local   stress (kbar)  -1343.69   7243.81  -1824.45
                             7243.81  -5946.87   3687.90
                            -1824.45   3687.90   1666.47

     nonloc. stress (kbar)  -2748.30    -42.19   -137.69
                              -42.19  -2499.24     35.56
                             -137.69     35.56  -2730.93

     hartree stress (kbar)   2340.34   -844.55     50.86
                             -844.55   3039.95   -417.31
                               50.86   -417.31   2007.84

     exc-cor stress (kbar)  -1189.36    -46.16     12.39
                              -46.16  -1159.53    -23.54
                               12.39    -23.54  -1208.69

     corecor stress (kbar)  -3431.05     50.18    -30.62
                               50.18  -3446.56     29.50
                              -30.62     29.50  -3405.40

     ewald   stress (kbar) -14697.51  -8113.88   2661.70
                            -8113.88 -10350.78  -4308.58
                             2661.70  -4308.58 -18172.96

     hubbard stress (kbar)      0.00      0.00      0.00
                                0.00      0.00      0.00
                                0.00      0.00      0.00

     DFT-D   stress (kbar)      0.00      0.00      0.00
                                0.00      0.00      0.00
                                0.00      0.00      0.00

     XDM     stress (kbar)      0.00      0.00      0.00
                                0.00      0.00      0.00
                                0.00      0.00      0.00

     dft-nl  stress (kbar)      0.00      0.00      0.00
                                0.00      0.00      0.00
                                0.00      0.00      0.00

     TS-vdW  stress (kbar)      0.00      0.00      0.00
                                0.00      0.00      0.00
                                0.00      0.00      0.00


At line 35 of file stop_run.f90 (unit = 90, file = './aiida.restart9')
Fortran runtime error: File cannot be deleted

Error termination. Backtrace:
#0  0x7f6e0b361171 in ???
#1  0x7f6e0b361d19 in ???
#2  0x7f6e0b362521 in ???
#3  0x7f6e0b55ac14 in ???
#4  0x54fbf4 in ???
#5  0x4059c9 in ???
#6  0x4056dc in ???
#7  0x7f6e0a7dccf2 in ???
#8  0x40570d in ???
#9  0xffffffffffffffff in ???

===================================================================================
=   BAD TERMINATION OF ONE OF YOUR APPLICATION PROCESSES
=   PID 266534 RUNNING AT node29
=   EXIT CODE: 9
=   CLEANING UP REMAINING PROCESSES
=   YOU CAN IGNORE THE BELOW CLEANUP MESSAGES
===================================================================================
YOUR APPLICATION TERMINATED WITH THE EXIT STRING: Killed (signal 9)
This typically refers to a problem with your application.
Please see the FAQ page for debugging suggestions
