
     Program PWSCF v.6.7MaX starts on 28Sep2022 at 21:17:42 

     This program is part of the open-source Quantum ESPRESSO suite
     for quantum simulation of materials; please cite
         "P. Giannozzi et al., J. Phys.:Condens. Matter 21 395502 (2009);
         "P. Giannozzi et al., J. Phys.:Condens. Matter 29 465901 (2017);
          URL http://www.quantum-espresso.org", 
     in publications or presentations arising from this work. More details at
     http://www.quantum-espresso.org/quote

     Parallel version (MPI), running on    16 processors

     MPI processes distributed on     1 nodes
     R & G space division:  proc/nbgrp/npool/nimage =      16
     Reading input from scale_2dab-04.in

     Current dimensions of program PWSCF are:
     Max number of different atomic species (ntypx) = 10
     Max number of k-points (npk) =  40000
     Max angular momentum in pseudopotentials (lmaxx) =  3
     Message from routine read_pp_mesh:
     mesh size missing, using the one in header

     Subspace diagonalization in iterative solution of the eigenvalue problem:
     a serial algorithm will be used


     Parallelization info
     --------------------
     sticks:   dense  smooth     PW     G-vecs:    dense   smooth      PW
     Min          47      34     11                  836      516      99
     Max          48      35     12                  838      520     102
     Sum         757     559    187                13391     8291    1611



     bravais-lattice index     =            0
     lattice parameter (alat)  =       5.0068  a.u.
     unit-cell volume          =      85.8848 (a.u.)^3
     number of atoms/cell      =            2
     number of atomic types    =            2
     number of electrons       =         8.00
     number of Kohn-Sham states=            8
     kinetic-energy cutoff     =      80.0000  Ry
     charge density cutoff     =     440.0000  Ry
     scf convergence threshold =      2.0E-10
     mixing beta               =       0.4000
     number of iterations used =            8  plain     mixing
     Exchange-correlation= PBE
                           (   1   4   3   4   0   0   0)

     celldm(1)=   5.006766  celldm(2)=   0.000000  celldm(3)=   0.000000
     celldm(4)=   0.000000  celldm(5)=   0.000000  celldm(6)=   0.000000

     crystal axes: (cart. coord. in units of alat)
               a(1) = (   1.000000   0.000000   0.000000 )  
               a(2) = (  -0.500000   0.866025   0.000000 )  
               a(3) = (   0.483871   0.279363   0.790158 )  

     reciprocal axes: (cart. coord. in units 2 pi/alat)
               b(1) = (  1.000000  0.577350 -0.816497 )  
               b(2) = (  0.000000  1.154701 -0.408248 )  
               b(3) = (  0.000000 -0.000000  1.265570 )  


     PseudoPot. # 1 for B  read from file:
     /opt/QEpot/SSSP_precision_pseudos/B_pbe_v1.01.uspp.F.UPF
     MD5 check sum: d081ebb89d0c768e112975f650467a00
     Pseudo is Ultrasoft + core correction, Zval =  3.0
     Generated by new atomic code, or converted to UPF format
     Using radial grid of  781 points,  4 beta functions with: 
                l(1) =   0
                l(2) =   0
                l(3) =   1
                l(4) =   1
     Q(r) pseudized with  8 coefficients,  rinner =    1.100   1.100   1.100


     PseudoPot. # 2 for N  read from file:
     /opt/QEpot/SSSP_precision_pseudos/N.oncvpsp.upf
     MD5 check sum: 563d65bfb082928f0c9eb97172f6c357
     Pseudo is Norm-conserving + core correction, Zval =  5.0
     Generated using ONCVPSP code by D. R. Hamann
     Using radial grid of 1058 points,  4 beta functions with: 
                l(1) =   0
                l(2) =   0
                l(3) =   1
                l(4) =   1

     atomic species   valence    mass     pseudopotential
        B              3.00    10.81000     B ( 1.00)
        N              5.00    14.00700     N ( 1.00)

     No symmetry found


                                    s                        frac. trans.

      isym =  1     identity                                     

 cryst.   s( 1) = (     1          0          0      )
                  (     0          1          0      )
                  (     0          0          1      )

 cart.    s( 1) = (  1.0000000  0.0000000  0.0000000 )
                  (  0.0000000  1.0000000  0.0000000 )
                  (  0.0000000  0.0000000  1.0000000 )


   Cartesian axes

     site n.     atom                  positions (alat units)
         1           B   tau(   1) = (   0.3754695   0.0007005   0.3758950  )
         2           N   tau(   2) = (   0.1165684   0.2870476   0.1960000  )

   Crystallographic axes

     site n.     atom                  positions (cryst. coord.)
         1           B   tau(   1) = (  0.0689570 -0.1526496  0.4757213  )
         2           N   tau(   2) = (  0.1222620  0.2514374  0.2480517  )

     number of k points=   666  Marzari-Vanderbilt smearing, width (Ry)=  0.0220
                       cart. coord. in units 2pi/alat
        k(    1) = (   0.0000000   0.0000000   0.0000000), wk =   0.0015026
        k(    2) = (   0.0000000   0.0000000   0.1150518), wk =   0.0030053
        k(    3) = (   0.0000000   0.0000000   0.2301036), wk =   0.0030053
        k(    4) = (   0.0000000   0.0000000   0.3451554), wk =   0.0030053
        k(    5) = (   0.0000000   0.0000000   0.4602072), wk =   0.0030053
        k(    6) = (   0.0000000   0.0000000   0.5752590), wk =   0.0030053
        k(    7) = (   0.0000000   0.1049728  -0.0371135), wk =   0.0030053
        k(    8) = (   0.0000000   0.1049728   0.0779383), wk =   0.0030053
        k(    9) = (   0.0000000   0.1049728   0.1929901), wk =   0.0030053
        k(   10) = (   0.0000000   0.1049728   0.3080419), wk =   0.0030053
        k(   11) = (   0.0000000   0.1049728   0.4230937), wk =   0.0030053
        k(   12) = (   0.0000000   0.1049728   0.5381455), wk =   0.0030053
        k(   13) = (   0.0000000   0.1049728  -0.6123724), wk =   0.0030053
        k(   14) = (   0.0000000   0.1049728  -0.4973206), wk =   0.0030053
        k(   15) = (   0.0000000   0.1049728  -0.3822689), wk =   0.0030053
        k(   16) = (   0.0000000   0.1049728  -0.2672171), wk =   0.0030053
        k(   17) = (   0.0000000   0.1049728  -0.1521653), wk =   0.0030053
        k(   18) = (   0.0000000   0.2099456  -0.0742270), wk =   0.0030053
        k(   19) = (   0.0000000   0.2099456   0.0408248), wk =   0.0030053
        k(   20) = (   0.0000000   0.2099456   0.1558766), wk =   0.0030053
        k(   21) = (   0.0000000   0.2099456   0.2709284), wk =   0.0030053
        k(   22) = (   0.0000000   0.2099456   0.3859802), wk =   0.0030053
        k(   23) = (   0.0000000   0.2099456   0.5010320), wk =   0.0030053
        k(   24) = (   0.0000000   0.2099456  -0.6494859), wk =   0.0030053
        k(   25) = (   0.0000000   0.2099456  -0.5344341), wk =   0.0030053
        k(   26) = (   0.0000000   0.2099456  -0.4193823), wk =   0.0030053
        k(   27) = (   0.0000000   0.2099456  -0.3043305), wk =   0.0030053
        k(   28) = (   0.0000000   0.2099456  -0.1892788), wk =   0.0030053
        k(   29) = (   0.0000000   0.3149183  -0.1113404), wk =   0.0030053
        k(   30) = (   0.0000000   0.3149183   0.0037113), wk =   0.0030053
        k(   31) = (   0.0000000   0.3149183   0.1187631), wk =   0.0030053
        k(   32) = (   0.0000000   0.3149183   0.2338149), wk =   0.0030053
        k(   33) = (   0.0000000   0.3149183   0.3488667), wk =   0.0030053
        k(   34) = (   0.0000000   0.3149183   0.4639185), wk =   0.0030053
        k(   35) = (   0.0000000   0.3149183  -0.6865994), wk =   0.0030053
        k(   36) = (   0.0000000   0.3149183  -0.5715476), wk =   0.0030053
        k(   37) = (   0.0000000   0.3149183  -0.4564958), wk =   0.0030053
        k(   38) = (   0.0000000   0.3149183  -0.3414440), wk =   0.0030053
        k(   39) = (   0.0000000   0.3149183  -0.2263922), wk =   0.0030053
        k(   40) = (   0.0000000   0.4198911  -0.1484539), wk =   0.0030053
        k(   41) = (   0.0000000   0.4198911  -0.0334021), wk =   0.0030053
        k(   42) = (   0.0000000   0.4198911   0.0816497), wk =   0.0030053
        k(   43) = (   0.0000000   0.4198911   0.1967014), wk =   0.0030053
        k(   44) = (   0.0000000   0.4198911   0.3117532), wk =   0.0030053
        k(   45) = (   0.0000000   0.4198911   0.4268050), wk =   0.0030053
        k(   46) = (   0.0000000   0.4198911  -0.7237129), wk =   0.0030053
        k(   47) = (   0.0000000   0.4198911  -0.6086611), wk =   0.0030053
        k(   48) = (   0.0000000   0.4198911  -0.4936093), wk =   0.0030053
        k(   49) = (   0.0000000   0.4198911  -0.3785575), wk =   0.0030053
        k(   50) = (   0.0000000   0.4198911  -0.2635057), wk =   0.0030053
        k(   51) = (   0.0000000   0.5248639  -0.1855674), wk =   0.0030053
        k(   52) = (   0.0000000   0.5248639  -0.0705156), wk =   0.0030053
        k(   53) = (   0.0000000   0.5248639   0.0445362), wk =   0.0030053
        k(   54) = (   0.0000000   0.5248639   0.1595880), wk =   0.0030053
        k(   55) = (   0.0000000   0.5248639   0.2746398), wk =   0.0030053
        k(   56) = (   0.0000000   0.5248639   0.3896915), wk =   0.0030053
        k(   57) = (   0.0000000   0.5248639  -0.7608264), wk =   0.0030053
        k(   58) = (   0.0000000   0.5248639  -0.6457746), wk =   0.0030053
        k(   59) = (   0.0000000   0.5248639  -0.5307228), wk =   0.0030053
        k(   60) = (   0.0000000   0.5248639  -0.4156710), wk =   0.0030053
        k(   61) = (   0.0000000   0.5248639  -0.3006192), wk =   0.0030053
        k(   62) = (   0.0909091   0.0524864  -0.0742270), wk =   0.0030053
        k(   63) = (   0.0909091   0.0524864   0.0408248), wk =   0.0030053
        k(   64) = (   0.0909091   0.0524864   0.1558766), wk =   0.0030053
        k(   65) = (   0.0909091   0.0524864   0.2709284), wk =   0.0030053
        k(   66) = (   0.0909091   0.0524864   0.3859802), wk =   0.0030053
        k(   67) = (   0.0909091   0.0524864   0.5010320), wk =   0.0030053
        k(   68) = (   0.0909091   0.0524864  -0.6494859), wk =   0.0030053
        k(   69) = (   0.0909091   0.0524864  -0.5344341), wk =   0.0030053
        k(   70) = (   0.0909091   0.0524864  -0.4193823), wk =   0.0030053
        k(   71) = (   0.0909091   0.0524864  -0.3043305), wk =   0.0030053
        k(   72) = (   0.0909091   0.0524864  -0.1892788), wk =   0.0030053
        k(   73) = (   0.0909091   0.1574592  -0.1113404), wk =   0.0030053
        k(   74) = (   0.0909091   0.1574592   0.0037113), wk =   0.0030053
        k(   75) = (   0.0909091   0.1574592   0.1187631), wk =   0.0030053
        k(   76) = (   0.0909091   0.1574592   0.2338149), wk =   0.0030053
        k(   77) = (   0.0909091   0.1574592   0.3488667), wk =   0.0030053
        k(   78) = (   0.0909091   0.1574592   0.4639185), wk =   0.0030053
        k(   79) = (   0.0909091   0.1574592  -0.6865994), wk =   0.0030053
        k(   80) = (   0.0909091   0.1574592  -0.5715476), wk =   0.0030053
        k(   81) = (   0.0909091   0.1574592  -0.4564958), wk =   0.0030053
        k(   82) = (   0.0909091   0.1574592  -0.3414440), wk =   0.0030053
        k(   83) = (   0.0909091   0.1574592  -0.2263922), wk =   0.0030053
        k(   84) = (   0.0909091   0.2624319  -0.1484539), wk =   0.0030053
        k(   85) = (   0.0909091   0.2624319  -0.0334021), wk =   0.0030053
        k(   86) = (   0.0909091   0.2624319   0.0816497), wk =   0.0030053
        k(   87) = (   0.0909091   0.2624319   0.1967014), wk =   0.0030053
        k(   88) = (   0.0909091   0.2624319   0.3117532), wk =   0.0030053
        k(   89) = (   0.0909091   0.2624319   0.4268050), wk =   0.0030053
        k(   90) = (   0.0909091   0.2624319  -0.7237129), wk =   0.0030053
        k(   91) = (   0.0909091   0.2624319  -0.6086611), wk =   0.0030053
        k(   92) = (   0.0909091   0.2624319  -0.4936093), wk =   0.0030053
        k(   93) = (   0.0909091   0.2624319  -0.3785575), wk =   0.0030053
        k(   94) = (   0.0909091   0.2624319  -0.2635057), wk =   0.0030053
        k(   95) = (   0.0909091   0.3674047  -0.1855674), wk =   0.0030053
        k(   96) = (   0.0909091   0.3674047  -0.0705156), wk =   0.0030053
        k(   97) = (   0.0909091   0.3674047   0.0445362), wk =   0.0030053
        k(   98) = (   0.0909091   0.3674047   0.1595880), wk =   0.0030053
        k(   99) = (   0.0909091   0.3674047   0.2746398), wk =   0.0030053
        k(  100) = (   0.0909091   0.3674047   0.3896915), wk =   0.0030053
        k(  101) = (   0.0909091   0.3674047  -0.7608264), wk =   0.0030053
        k(  102) = (   0.0909091   0.3674047  -0.6457746), wk =   0.0030053
        k(  103) = (   0.0909091   0.3674047  -0.5307228), wk =   0.0030053
        k(  104) = (   0.0909091   0.3674047  -0.4156710), wk =   0.0030053
        k(  105) = (   0.0909091   0.3674047  -0.3006192), wk =   0.0030053
        k(  106) = (   0.0909091   0.4723775  -0.2226809), wk =   0.0030053
        k(  107) = (   0.0909091   0.4723775  -0.1076291), wk =   0.0030053
        k(  108) = (   0.0909091   0.4723775   0.0074227), wk =   0.0030053
        k(  109) = (   0.0909091   0.4723775   0.1224745), wk =   0.0030053
        k(  110) = (   0.0909091   0.4723775   0.2375263), wk =   0.0030053
        k(  111) = (   0.0909091   0.4723775   0.3525781), wk =   0.0030053
        k(  112) = (   0.0909091   0.4723775  -0.7979398), wk =   0.0030053
        k(  113) = (   0.0909091   0.4723775  -0.6828880), wk =   0.0030053
        k(  114) = (   0.0909091   0.4723775  -0.5678363), wk =   0.0030053
        k(  115) = (   0.0909091   0.4723775  -0.4527845), wk =   0.0030053
        k(  116) = (   0.0909091   0.4723775  -0.3377327), wk =   0.0030053
        k(  117) = (   0.0909091   0.5773503  -0.2597944), wk =   0.0030053
        k(  118) = (   0.0909091   0.5773503  -0.1447426), wk =   0.0030053
        k(  119) = (   0.0909091   0.5773503  -0.0296908), wk =   0.0030053
        k(  120) = (   0.0909091   0.5773503   0.0853610), wk =   0.0030053
        k(  121) = (   0.0909091   0.5773503   0.2004128), wk =   0.0030053
        k(  122) = (   0.0909091   0.5773503   0.3154646), wk =   0.0030053
        k(  123) = (   0.0909091   0.5773503  -0.8350533), wk =   0.0030053
        k(  124) = (   0.0909091   0.5773503  -0.7200015), wk =   0.0030053
        k(  125) = (   0.0909091   0.5773503  -0.6049497), wk =   0.0030053
        k(  126) = (   0.0909091   0.5773503  -0.4898979), wk =   0.0030053
        k(  127) = (   0.0909091   0.5773503  -0.3748462), wk =   0.0030053
        k(  128) = (   0.0909091  -0.4723775   0.1113404), wk =   0.0030053
        k(  129) = (   0.0909091  -0.4723775   0.2263922), wk =   0.0030053
        k(  130) = (   0.0909091  -0.4723775   0.3414440), wk =   0.0030053
        k(  131) = (   0.0909091  -0.4723775   0.4564958), wk =   0.0030053
        k(  132) = (   0.0909091  -0.4723775   0.5715476), wk =   0.0030053
        k(  133) = (   0.0909091  -0.4723775   0.6865994), wk =   0.0030053
        k(  134) = (   0.0909091  -0.4723775  -0.4639185), wk =   0.0030053
        k(  135) = (   0.0909091  -0.4723775  -0.3488667), wk =   0.0030053
        k(  136) = (   0.0909091  -0.4723775  -0.2338149), wk =   0.0030053
        k(  137) = (   0.0909091  -0.4723775  -0.1187631), wk =   0.0030053
        k(  138) = (   0.0909091  -0.4723775  -0.0037113), wk =   0.0030053
        k(  139) = (   0.0909091  -0.3674047   0.0742270), wk =   0.0030053
        k(  140) = (   0.0909091  -0.3674047   0.1892788), wk =   0.0030053
        k(  141) = (   0.0909091  -0.3674047   0.3043305), wk =   0.0030053
        k(  142) = (   0.0909091  -0.3674047   0.4193823), wk =   0.0030053
        k(  143) = (   0.0909091  -0.3674047   0.5344341), wk =   0.0030053
        k(  144) = (   0.0909091  -0.3674047   0.6494859), wk =   0.0030053
        k(  145) = (   0.0909091  -0.3674047  -0.5010320), wk =   0.0030053
        k(  146) = (   0.0909091  -0.3674047  -0.3859802), wk =   0.0030053
        k(  147) = (   0.0909091  -0.3674047  -0.2709284), wk =   0.0030053
        k(  148) = (   0.0909091  -0.3674047  -0.1558766), wk =   0.0030053
        k(  149) = (   0.0909091  -0.3674047  -0.0408248), wk =   0.0030053
        k(  150) = (   0.0909091  -0.2624319   0.0371135), wk =   0.0030053
        k(  151) = (   0.0909091  -0.2624319   0.1521653), wk =   0.0030053
        k(  152) = (   0.0909091  -0.2624319   0.2672171), wk =   0.0030053
        k(  153) = (   0.0909091  -0.2624319   0.3822689), wk =   0.0030053
        k(  154) = (   0.0909091  -0.2624319   0.4973206), wk =   0.0030053
        k(  155) = (   0.0909091  -0.2624319   0.6123724), wk =   0.0030053
        k(  156) = (   0.0909091  -0.2624319  -0.5381455), wk =   0.0030053
        k(  157) = (   0.0909091  -0.2624319  -0.4230937), wk =   0.0030053
        k(  158) = (   0.0909091  -0.2624319  -0.3080419), wk =   0.0030053
        k(  159) = (   0.0909091  -0.2624319  -0.1929901), wk =   0.0030053
        k(  160) = (   0.0909091  -0.2624319  -0.0779383), wk =   0.0030053
        k(  161) = (   0.0909091  -0.1574592   0.0000000), wk =   0.0030053
        k(  162) = (   0.0909091  -0.1574592   0.1150518), wk =   0.0030053
        k(  163) = (   0.0909091  -0.1574592   0.2301036), wk =   0.0030053
        k(  164) = (   0.0909091  -0.1574592   0.3451554), wk =   0.0030053
        k(  165) = (   0.0909091  -0.1574592   0.4602072), wk =   0.0030053
        k(  166) = (   0.0909091  -0.1574592   0.5752590), wk =   0.0030053
        k(  167) = (   0.1818182   0.1049728  -0.1484539), wk =   0.0030053
        k(  168) = (   0.1818182   0.1049728  -0.0334021), wk =   0.0030053
        k(  169) = (   0.1818182   0.1049728   0.0816497), wk =   0.0030053
        k(  170) = (   0.1818182   0.1049728   0.1967014), wk =   0.0030053
        k(  171) = (   0.1818182   0.1049728   0.3117532), wk =   0.0030053
        k(  172) = (   0.1818182   0.1049728   0.4268050), wk =   0.0030053
        k(  173) = (   0.1818182   0.1049728  -0.7237129), wk =   0.0030053
        k(  174) = (   0.1818182   0.1049728  -0.6086611), wk =   0.0030053
        k(  175) = (   0.1818182   0.1049728  -0.4936093), wk =   0.0030053
        k(  176) = (   0.1818182   0.1049728  -0.3785575), wk =   0.0030053
        k(  177) = (   0.1818182   0.1049728  -0.2635057), wk =   0.0030053
        k(  178) = (   0.1818182   0.2099456  -0.1855674), wk =   0.0030053
        k(  179) = (   0.1818182   0.2099456  -0.0705156), wk =   0.0030053
        k(  180) = (   0.1818182   0.2099456   0.0445362), wk =   0.0030053
        k(  181) = (   0.1818182   0.2099456   0.1595880), wk =   0.0030053
        k(  182) = (   0.1818182   0.2099456   0.2746398), wk =   0.0030053
        k(  183) = (   0.1818182   0.2099456   0.3896915), wk =   0.0030053
        k(  184) = (   0.1818182   0.2099456  -0.7608264), wk =   0.0030053
        k(  185) = (   0.1818182   0.2099456  -0.6457746), wk =   0.0030053
        k(  186) = (   0.1818182   0.2099456  -0.5307228), wk =   0.0030053
        k(  187) = (   0.1818182   0.2099456  -0.4156710), wk =   0.0030053
        k(  188) = (   0.1818182   0.2099456  -0.3006192), wk =   0.0030053
        k(  189) = (   0.1818182   0.3149183  -0.2226809), wk =   0.0030053
        k(  190) = (   0.1818182   0.3149183  -0.1076291), wk =   0.0030053
        k(  191) = (   0.1818182   0.3149183   0.0074227), wk =   0.0030053
        k(  192) = (   0.1818182   0.3149183   0.1224745), wk =   0.0030053
        k(  193) = (   0.1818182   0.3149183   0.2375263), wk =   0.0030053
        k(  194) = (   0.1818182   0.3149183   0.3525781), wk =   0.0030053
        k(  195) = (   0.1818182   0.3149183  -0.7979398), wk =   0.0030053
        k(  196) = (   0.1818182   0.3149183  -0.6828880), wk =   0.0030053
        k(  197) = (   0.1818182   0.3149183  -0.5678363), wk =   0.0030053
        k(  198) = (   0.1818182   0.3149183  -0.4527845), wk =   0.0030053
        k(  199) = (   0.1818182   0.3149183  -0.3377327), wk =   0.0030053
        k(  200) = (   0.1818182   0.4198911  -0.2597944), wk =   0.0030053
        k(  201) = (   0.1818182   0.4198911  -0.1447426), wk =   0.0030053
        k(  202) = (   0.1818182   0.4198911  -0.0296908), wk =   0.0030053
        k(  203) = (   0.1818182   0.4198911   0.0853610), wk =   0.0030053
        k(  204) = (   0.1818182   0.4198911   0.2004128), wk =   0.0030053
        k(  205) = (   0.1818182   0.4198911   0.3154646), wk =   0.0030053
        k(  206) = (   0.1818182   0.4198911  -0.8350533), wk =   0.0030053
        k(  207) = (   0.1818182   0.4198911  -0.7200015), wk =   0.0030053
        k(  208) = (   0.1818182   0.4198911  -0.6049497), wk =   0.0030053
        k(  209) = (   0.1818182   0.4198911  -0.4898979), wk =   0.0030053
        k(  210) = (   0.1818182   0.4198911  -0.3748462), wk =   0.0030053
        k(  211) = (   0.1818182   0.5248639  -0.2969078), wk =   0.0030053
        k(  212) = (   0.1818182   0.5248639  -0.1818561), wk =   0.0030053
        k(  213) = (   0.1818182   0.5248639  -0.0668043), wk =   0.0030053
        k(  214) = (   0.1818182   0.5248639   0.0482475), wk =   0.0030053
        k(  215) = (   0.1818182   0.5248639   0.1632993), wk =   0.0030053
        k(  216) = (   0.1818182   0.5248639   0.2783511), wk =   0.0030053
        k(  217) = (   0.1818182   0.5248639  -0.8721668), wk =   0.0030053
        k(  218) = (   0.1818182   0.5248639  -0.7571150), wk =   0.0030053
        k(  219) = (   0.1818182   0.5248639  -0.6420632), wk =   0.0030053
        k(  220) = (   0.1818182   0.5248639  -0.5270114), wk =   0.0030053
        k(  221) = (   0.1818182   0.5248639  -0.4119596), wk =   0.0030053
        k(  222) = (   0.1818182   0.6298367  -0.3340213), wk =   0.0030053
        k(  223) = (   0.1818182   0.6298367  -0.2189695), wk =   0.0030053
        k(  224) = (   0.1818182   0.6298367  -0.1039177), wk =   0.0030053
        k(  225) = (   0.1818182   0.6298367   0.0111340), wk =   0.0030053
        k(  226) = (   0.1818182   0.6298367   0.1261858), wk =   0.0030053
        k(  227) = (   0.1818182   0.6298367   0.2412376), wk =   0.0030053
        k(  228) = (   0.1818182   0.6298367  -0.9092803), wk =   0.0030053
        k(  229) = (   0.1818182   0.6298367  -0.7942285), wk =   0.0030053
        k(  230) = (   0.1818182   0.6298367  -0.6791767), wk =   0.0030053
        k(  231) = (   0.1818182   0.6298367  -0.5641249), wk =   0.0030053
        k(  232) = (   0.1818182   0.6298367  -0.4490731), wk =   0.0030053
        k(  233) = (   0.1818182  -0.4198911   0.0371135), wk =   0.0030053
        k(  234) = (   0.1818182  -0.4198911   0.1521653), wk =   0.0030053
        k(  235) = (   0.1818182  -0.4198911   0.2672171), wk =   0.0030053
        k(  236) = (   0.1818182  -0.4198911   0.3822689), wk =   0.0030053
        k(  237) = (   0.1818182  -0.4198911   0.4973206), wk =   0.0030053
        k(  238) = (   0.1818182  -0.4198911   0.6123724), wk =   0.0030053
        k(  239) = (   0.1818182  -0.4198911  -0.5381455), wk =   0.0030053
        k(  240) = (   0.1818182  -0.4198911  -0.4230937), wk =   0.0030053
        k(  241) = (   0.1818182  -0.4198911  -0.3080419), wk =   0.0030053
        k(  242) = (   0.1818182  -0.4198911  -0.1929901), wk =   0.0030053
        k(  243) = (   0.1818182  -0.4198911  -0.0779383), wk =   0.0030053
        k(  244) = (   0.1818182  -0.3149183   0.0000000), wk =   0.0030053
        k(  245) = (   0.1818182  -0.3149183   0.1150518), wk =   0.0030053
        k(  246) = (   0.1818182  -0.3149183   0.2301036), wk =   0.0030053
        k(  247) = (   0.1818182  -0.3149183   0.3451554), wk =   0.0030053
        k(  248) = (   0.1818182  -0.3149183   0.4602072), wk =   0.0030053
        k(  249) = (   0.1818182  -0.3149183   0.5752590), wk =   0.0030053
        k(  250) = (   0.2727273   0.1574592  -0.2226809), wk =   0.0030053
        k(  251) = (   0.2727273   0.1574592  -0.1076291), wk =   0.0030053
        k(  252) = (   0.2727273   0.1574592   0.0074227), wk =   0.0030053
        k(  253) = (   0.2727273   0.1574592   0.1224745), wk =   0.0030053
        k(  254) = (   0.2727273   0.1574592   0.2375263), wk =   0.0030053
        k(  255) = (   0.2727273   0.1574592   0.3525781), wk =   0.0030053
        k(  256) = (   0.2727273   0.1574592  -0.7979398), wk =   0.0030053
        k(  257) = (   0.2727273   0.1574592  -0.6828880), wk =   0.0030053
        k(  258) = (   0.2727273   0.1574592  -0.5678363), wk =   0.0030053
        k(  259) = (   0.2727273   0.1574592  -0.4527845), wk =   0.0030053
        k(  260) = (   0.2727273   0.1574592  -0.3377327), wk =   0.0030053
        k(  261) = (   0.2727273   0.2624319  -0.2597944), wk =   0.0030053
        k(  262) = (   0.2727273   0.2624319  -0.1447426), wk =   0.0030053
        k(  263) = (   0.2727273   0.2624319  -0.0296908), wk =   0.0030053
        k(  264) = (   0.2727273   0.2624319   0.0853610), wk =   0.0030053
        k(  265) = (   0.2727273   0.2624319   0.2004128), wk =   0.0030053
        k(  266) = (   0.2727273   0.2624319   0.3154646), wk =   0.0030053
        k(  267) = (   0.2727273   0.2624319  -0.8350533), wk =   0.0030053
        k(  268) = (   0.2727273   0.2624319  -0.7200015), wk =   0.0030053
        k(  269) = (   0.2727273   0.2624319  -0.6049497), wk =   0.0030053
        k(  270) = (   0.2727273   0.2624319  -0.4898979), wk =   0.0030053
        k(  271) = (   0.2727273   0.2624319  -0.3748462), wk =   0.0030053
        k(  272) = (   0.2727273   0.3674047  -0.2969078), wk =   0.0030053
        k(  273) = (   0.2727273   0.3674047  -0.1818561), wk =   0.0030053
        k(  274) = (   0.2727273   0.3674047  -0.0668043), wk =   0.0030053
        k(  275) = (   0.2727273   0.3674047   0.0482475), wk =   0.0030053
        k(  276) = (   0.2727273   0.3674047   0.1632993), wk =   0.0030053
        k(  277) = (   0.2727273   0.3674047   0.2783511), wk =   0.0030053
        k(  278) = (   0.2727273   0.3674047  -0.8721668), wk =   0.0030053
        k(  279) = (   0.2727273   0.3674047  -0.7571150), wk =   0.0030053
        k(  280) = (   0.2727273   0.3674047  -0.6420632), wk =   0.0030053
        k(  281) = (   0.2727273   0.3674047  -0.5270114), wk =   0.0030053
        k(  282) = (   0.2727273   0.3674047  -0.4119596), wk =   0.0030053
        k(  283) = (   0.2727273   0.4723775  -0.3340213), wk =   0.0030053
        k(  284) = (   0.2727273   0.4723775  -0.2189695), wk =   0.0030053
        k(  285) = (   0.2727273   0.4723775  -0.1039177), wk =   0.0030053
        k(  286) = (   0.2727273   0.4723775   0.0111340), wk =   0.0030053
        k(  287) = (   0.2727273   0.4723775   0.1261858), wk =   0.0030053
        k(  288) = (   0.2727273   0.4723775   0.2412376), wk =   0.0030053
        k(  289) = (   0.2727273   0.4723775  -0.9092803), wk =   0.0030053
        k(  290) = (   0.2727273   0.4723775  -0.7942285), wk =   0.0030053
        k(  291) = (   0.2727273   0.4723775  -0.6791767), wk =   0.0030053
        k(  292) = (   0.2727273   0.4723775  -0.5641249), wk =   0.0030053
        k(  293) = (   0.2727273   0.4723775  -0.4490731), wk =   0.0030053
        k(  294) = (   0.2727273   0.5773503  -0.3711348), wk =   0.0030053
        k(  295) = (   0.2727273   0.5773503  -0.2560830), wk =   0.0030053
        k(  296) = (   0.2727273   0.5773503  -0.1410312), wk =   0.0030053
        k(  297) = (   0.2727273   0.5773503  -0.0259794), wk =   0.0030053
        k(  298) = (   0.2727273   0.5773503   0.0890724), wk =   0.0030053
        k(  299) = (   0.2727273   0.5773503   0.2041241), wk =   0.0030053
        k(  300) = (   0.2727273   0.5773503  -0.9463938), wk =   0.0030053
        k(  301) = (   0.2727273   0.5773503  -0.8313420), wk =   0.0030053
        k(  302) = (   0.2727273   0.5773503  -0.7162902), wk =   0.0030053
        k(  303) = (   0.2727273   0.5773503  -0.6012384), wk =   0.0030053
        k(  304) = (   0.2727273   0.5773503  -0.4861866), wk =   0.0030053
        k(  305) = (   0.2727273   0.6823230  -0.4082483), wk =   0.0030053
        k(  306) = (   0.2727273   0.6823230  -0.2931965), wk =   0.0030053
        k(  307) = (   0.2727273   0.6823230  -0.1781447), wk =   0.0030053
        k(  308) = (   0.2727273   0.6823230  -0.0630929), wk =   0.0030053
        k(  309) = (   0.2727273   0.6823230   0.0519589), wk =   0.0030053
        k(  310) = (   0.2727273   0.6823230   0.1670107), wk =   0.0030053
        k(  311) = (   0.3636364   0.2099456  -0.2969078), wk =   0.0030053
        k(  312) = (   0.3636364   0.2099456  -0.1818561), wk =   0.0030053
        k(  313) = (   0.3636364   0.2099456  -0.0668043), wk =   0.0030053
        k(  314) = (   0.3636364   0.2099456   0.0482475), wk =   0.0030053
        k(  315) = (   0.3636364   0.2099456   0.1632993), wk =   0.0030053
        k(  316) = (   0.3636364   0.2099456   0.2783511), wk =   0.0030053
        k(  317) = (   0.3636364   0.2099456  -0.8721668), wk =   0.0030053
        k(  318) = (   0.3636364   0.2099456  -0.7571150), wk =   0.0030053
        k(  319) = (   0.3636364   0.2099456  -0.6420632), wk =   0.0030053
        k(  320) = (   0.3636364   0.2099456  -0.5270114), wk =   0.0030053
        k(  321) = (   0.3636364   0.2099456  -0.4119596), wk =   0.0030053
        k(  322) = (   0.3636364   0.3149183  -0.3340213), wk =   0.0030053
        k(  323) = (   0.3636364   0.3149183  -0.2189695), wk =   0.0030053
        k(  324) = (   0.3636364   0.3149183  -0.1039177), wk =   0.0030053
        k(  325) = (   0.3636364   0.3149183   0.0111340), wk =   0.0030053
        k(  326) = (   0.3636364   0.3149183   0.1261858), wk =   0.0030053
        k(  327) = (   0.3636364   0.3149183   0.2412376), wk =   0.0030053
        k(  328) = (   0.3636364   0.3149183  -0.9092803), wk =   0.0030053
        k(  329) = (   0.3636364   0.3149183  -0.7942285), wk =   0.0030053
        k(  330) = (   0.3636364   0.3149183  -0.6791767), wk =   0.0030053
        k(  331) = (   0.3636364   0.3149183  -0.5641249), wk =   0.0030053
        k(  332) = (   0.3636364   0.3149183  -0.4490731), wk =   0.0030053
        k(  333) = (   0.3636364   0.4198911  -0.3711348), wk =   0.0030053
        k(  334) = (   0.3636364   0.4198911  -0.2560830), wk =   0.0030053
        k(  335) = (   0.3636364   0.4198911  -0.1410312), wk =   0.0030053
        k(  336) = (   0.3636364   0.4198911  -0.0259794), wk =   0.0030053
        k(  337) = (   0.3636364   0.4198911   0.0890724), wk =   0.0030053
        k(  338) = (   0.3636364   0.4198911   0.2041241), wk =   0.0030053
        k(  339) = (   0.3636364   0.4198911  -0.9463938), wk =   0.0030053
        k(  340) = (   0.3636364   0.4198911  -0.8313420), wk =   0.0030053
        k(  341) = (   0.3636364   0.4198911  -0.7162902), wk =   0.0030053
        k(  342) = (   0.3636364   0.4198911  -0.6012384), wk =   0.0030053
        k(  343) = (   0.3636364   0.4198911  -0.4861866), wk =   0.0030053
        k(  344) = (   0.3636364   0.5248639  -0.4082483), wk =   0.0030053
        k(  345) = (   0.3636364   0.5248639  -0.2931965), wk =   0.0030053
        k(  346) = (   0.3636364   0.5248639  -0.1781447), wk =   0.0030053
        k(  347) = (   0.3636364   0.5248639  -0.0630929), wk =   0.0030053
        k(  348) = (   0.3636364   0.5248639   0.0519589), wk =   0.0030053
        k(  349) = (   0.3636364   0.5248639   0.1670107), wk =   0.0030053
        k(  350) = (   0.4545455   0.2624319  -0.3711348), wk =   0.0030053
        k(  351) = (   0.4545455   0.2624319  -0.2560830), wk =   0.0030053
        k(  352) = (   0.4545455   0.2624319  -0.1410312), wk =   0.0030053
        k(  353) = (   0.4545455   0.2624319  -0.0259794), wk =   0.0030053
        k(  354) = (   0.4545455   0.2624319   0.0890724), wk =   0.0030053
        k(  355) = (   0.4545455   0.2624319   0.2041241), wk =   0.0030053
        k(  356) = (   0.4545455   0.2624319  -0.9463938), wk =   0.0030053
        k(  357) = (   0.4545455   0.2624319  -0.8313420), wk =   0.0030053
        k(  358) = (   0.4545455   0.2624319  -0.7162902), wk =   0.0030053
        k(  359) = (   0.4545455   0.2624319  -0.6012384), wk =   0.0030053
        k(  360) = (   0.4545455   0.2624319  -0.4861866), wk =   0.0030053
        k(  361) = (   0.4545455   0.3674047  -0.4082483), wk =   0.0030053
        k(  362) = (   0.4545455   0.3674047  -0.2931965), wk =   0.0030053
        k(  363) = (   0.4545455   0.3674047  -0.1781447), wk =   0.0030053
        k(  364) = (   0.4545455   0.3674047  -0.0630929), wk =   0.0030053
        k(  365) = (   0.4545455   0.3674047   0.0519589), wk =   0.0030053
        k(  366) = (   0.4545455   0.3674047   0.1670107), wk =   0.0030053
        k(  367) = (  -0.0909091   0.0524864   0.0371135), wk =   0.0030053
        k(  368) = (  -0.0909091   0.0524864  -0.0779383), wk =   0.0030053
        k(  369) = (  -0.0909091   0.0524864  -0.1929901), wk =   0.0030053
        k(  370) = (  -0.0909091   0.0524864  -0.3080419), wk =   0.0030053
        k(  371) = (  -0.0909091   0.0524864  -0.4230937), wk =   0.0030053
        k(  372) = (  -0.0909091   0.0524864  -0.5381455), wk =   0.0030053
        k(  373) = (  -0.0909091   0.0524864   0.6123724), wk =   0.0030053
        k(  374) = (  -0.0909091   0.0524864   0.4973206), wk =   0.0030053
        k(  375) = (  -0.0909091   0.0524864   0.3822689), wk =   0.0030053
        k(  376) = (  -0.0909091   0.0524864   0.2672171), wk =   0.0030053
        k(  377) = (  -0.0909091   0.0524864   0.1521653), wk =   0.0030053
        k(  378) = (  -0.1818182   0.1049728   0.0742270), wk =   0.0030053
        k(  379) = (  -0.1818182   0.1049728  -0.0408248), wk =   0.0030053
        k(  380) = (  -0.1818182   0.1049728  -0.1558766), wk =   0.0030053
        k(  381) = (  -0.1818182   0.1049728  -0.2709284), wk =   0.0030053
        k(  382) = (  -0.1818182   0.1049728  -0.3859802), wk =   0.0030053
        k(  383) = (  -0.1818182   0.1049728  -0.5010320), wk =   0.0030053
        k(  384) = (  -0.1818182   0.1049728   0.6494859), wk =   0.0030053
        k(  385) = (  -0.1818182   0.1049728   0.5344341), wk =   0.0030053
        k(  386) = (  -0.1818182   0.1049728   0.4193823), wk =   0.0030053
        k(  387) = (  -0.1818182   0.1049728   0.3043305), wk =   0.0030053
        k(  388) = (  -0.1818182   0.1049728   0.1892788), wk =   0.0030053
        k(  389) = (  -0.2727273   0.1574592   0.1113404), wk =   0.0030053
        k(  390) = (  -0.2727273   0.1574592  -0.0037113), wk =   0.0030053
        k(  391) = (  -0.2727273   0.1574592  -0.1187631), wk =   0.0030053
        k(  392) = (  -0.2727273   0.1574592  -0.2338149), wk =   0.0030053
        k(  393) = (  -0.2727273   0.1574592  -0.3488667), wk =   0.0030053
        k(  394) = (  -0.2727273   0.1574592  -0.4639185), wk =   0.0030053
        k(  395) = (  -0.2727273   0.1574592   0.6865994), wk =   0.0030053
        k(  396) = (  -0.2727273   0.1574592   0.5715476), wk =   0.0030053
        k(  397) = (  -0.2727273   0.1574592   0.4564958), wk =   0.0030053
        k(  398) = (  -0.2727273   0.1574592   0.3414440), wk =   0.0030053
        k(  399) = (  -0.2727273   0.1574592   0.2263922), wk =   0.0030053
        k(  400) = (  -0.3636364   0.2099456   0.1484539), wk =   0.0030053
        k(  401) = (  -0.3636364   0.2099456   0.0334021), wk =   0.0030053
        k(  402) = (  -0.3636364   0.2099456  -0.0816497), wk =   0.0030053
        k(  403) = (  -0.3636364   0.2099456  -0.1967014), wk =   0.0030053
        k(  404) = (  -0.3636364   0.2099456  -0.3117532), wk =   0.0030053
        k(  405) = (  -0.3636364   0.2099456  -0.4268050), wk =   0.0030053
        k(  406) = (  -0.3636364   0.2099456   0.7237129), wk =   0.0030053
        k(  407) = (  -0.3636364   0.2099456   0.6086611), wk =   0.0030053
        k(  408) = (  -0.3636364   0.2099456   0.4936093), wk =   0.0030053
        k(  409) = (  -0.3636364   0.2099456   0.3785575), wk =   0.0030053
        k(  410) = (  -0.3636364   0.2099456   0.2635057), wk =   0.0030053
        k(  411) = (  -0.4545455   0.2624319   0.1855674), wk =   0.0030053
        k(  412) = (  -0.4545455   0.2624319   0.0705156), wk =   0.0030053
        k(  413) = (  -0.4545455   0.2624319  -0.0445362), wk =   0.0030053
        k(  414) = (  -0.4545455   0.2624319  -0.1595880), wk =   0.0030053
        k(  415) = (  -0.4545455   0.2624319  -0.2746398), wk =   0.0030053
        k(  416) = (  -0.4545455   0.2624319  -0.3896915), wk =   0.0030053
        k(  417) = (  -0.4545455   0.2624319   0.7608264), wk =   0.0030053
        k(  418) = (  -0.4545455   0.2624319   0.6457746), wk =   0.0030053
        k(  419) = (  -0.4545455   0.2624319   0.5307228), wk =   0.0030053
        k(  420) = (  -0.4545455   0.2624319   0.4156710), wk =   0.0030053
        k(  421) = (  -0.4545455   0.2624319   0.3006192), wk =   0.0030053
        k(  422) = (  -0.1818182   0.0000000   0.1113404), wk =   0.0030053
        k(  423) = (  -0.1818182   0.0000000  -0.0037113), wk =   0.0030053
        k(  424) = (  -0.1818182   0.0000000  -0.1187631), wk =   0.0030053
        k(  425) = (  -0.1818182   0.0000000  -0.2338149), wk =   0.0030053
        k(  426) = (  -0.1818182   0.0000000  -0.3488667), wk =   0.0030053
        k(  427) = (  -0.1818182   0.0000000  -0.4639185), wk =   0.0030053
        k(  428) = (  -0.1818182   0.0000000   0.6865994), wk =   0.0030053
        k(  429) = (  -0.1818182   0.0000000   0.5715476), wk =   0.0030053
        k(  430) = (  -0.1818182   0.0000000   0.4564958), wk =   0.0030053
        k(  431) = (  -0.1818182   0.0000000   0.3414440), wk =   0.0030053
        k(  432) = (  -0.1818182   0.0000000   0.2263922), wk =   0.0030053
        k(  433) = (  -0.2727273   0.0524864   0.1484539), wk =   0.0030053
        k(  434) = (  -0.2727273   0.0524864   0.0334021), wk =   0.0030053
        k(  435) = (  -0.2727273   0.0524864  -0.0816497), wk =   0.0030053
        k(  436) = (  -0.2727273   0.0524864  -0.1967014), wk =   0.0030053
        k(  437) = (  -0.2727273   0.0524864  -0.3117532), wk =   0.0030053
        k(  438) = (  -0.2727273   0.0524864  -0.4268050), wk =   0.0030053
        k(  439) = (  -0.2727273   0.0524864   0.7237129), wk =   0.0030053
        k(  440) = (  -0.2727273   0.0524864   0.6086611), wk =   0.0030053
        k(  441) = (  -0.2727273   0.0524864   0.4936093), wk =   0.0030053
        k(  442) = (  -0.2727273   0.0524864   0.3785575), wk =   0.0030053
        k(  443) = (  -0.2727273   0.0524864   0.2635057), wk =   0.0030053
        k(  444) = (  -0.3636364   0.1049728   0.1855674), wk =   0.0030053
        k(  445) = (  -0.3636364   0.1049728   0.0705156), wk =   0.0030053
        k(  446) = (  -0.3636364   0.1049728  -0.0445362), wk =   0.0030053
        k(  447) = (  -0.3636364   0.1049728  -0.1595880), wk =   0.0030053
        k(  448) = (  -0.3636364   0.1049728  -0.2746398), wk =   0.0030053
        k(  449) = (  -0.3636364   0.1049728  -0.3896915), wk =   0.0030053
        k(  450) = (  -0.3636364   0.1049728   0.7608264), wk =   0.0030053
        k(  451) = (  -0.3636364   0.1049728   0.6457746), wk =   0.0030053
        k(  452) = (  -0.3636364   0.1049728   0.5307228), wk =   0.0030053
        k(  453) = (  -0.3636364   0.1049728   0.4156710), wk =   0.0030053
        k(  454) = (  -0.3636364   0.1049728   0.3006192), wk =   0.0030053
        k(  455) = (  -0.4545455   0.1574592   0.2226809), wk =   0.0030053
        k(  456) = (  -0.4545455   0.1574592   0.1076291), wk =   0.0030053
        k(  457) = (  -0.4545455   0.1574592  -0.0074227), wk =   0.0030053
        k(  458) = (  -0.4545455   0.1574592  -0.1224745), wk =   0.0030053
        k(  459) = (  -0.4545455   0.1574592  -0.2375263), wk =   0.0030053
        k(  460) = (  -0.4545455   0.1574592  -0.3525781), wk =   0.0030053
        k(  461) = (  -0.4545455   0.1574592   0.7979398), wk =   0.0030053
        k(  462) = (  -0.4545455   0.1574592   0.6828880), wk =   0.0030053
        k(  463) = (  -0.4545455   0.1574592   0.5678363), wk =   0.0030053
        k(  464) = (  -0.4545455   0.1574592   0.4527845), wk =   0.0030053
        k(  465) = (  -0.4545455   0.1574592   0.3377327), wk =   0.0030053
        k(  466) = (  -0.5454545   0.2099456   0.2597944), wk =   0.0030053
        k(  467) = (  -0.5454545   0.2099456   0.1447426), wk =   0.0030053
        k(  468) = (  -0.5454545   0.2099456   0.0296908), wk =   0.0030053
        k(  469) = (  -0.5454545   0.2099456  -0.0853610), wk =   0.0030053
        k(  470) = (  -0.5454545   0.2099456  -0.2004128), wk =   0.0030053
        k(  471) = (  -0.5454545   0.2099456  -0.3154646), wk =   0.0030053
        k(  472) = (  -0.5454545   0.2099456   0.8350533), wk =   0.0030053
        k(  473) = (  -0.5454545   0.2099456   0.7200015), wk =   0.0030053
        k(  474) = (  -0.5454545   0.2099456   0.6049497), wk =   0.0030053
        k(  475) = (  -0.5454545   0.2099456   0.4898979), wk =   0.0030053
        k(  476) = (  -0.5454545   0.2099456   0.3748462), wk =   0.0030053
        k(  477) = (   0.3636364  -0.3149183  -0.1113404), wk =   0.0030053
        k(  478) = (   0.3636364  -0.3149183  -0.2263922), wk =   0.0030053
        k(  479) = (   0.3636364  -0.3149183  -0.3414440), wk =   0.0030053
        k(  480) = (   0.3636364  -0.3149183  -0.4564958), wk =   0.0030053
        k(  481) = (   0.3636364  -0.3149183  -0.5715476), wk =   0.0030053
        k(  482) = (   0.3636364  -0.3149183  -0.6865994), wk =   0.0030053
        k(  483) = (   0.3636364  -0.3149183   0.4639185), wk =   0.0030053
        k(  484) = (   0.3636364  -0.3149183   0.3488667), wk =   0.0030053
        k(  485) = (   0.3636364  -0.3149183   0.2338149), wk =   0.0030053
        k(  486) = (   0.3636364  -0.3149183   0.1187631), wk =   0.0030053
        k(  487) = (   0.3636364  -0.3149183   0.0037113), wk =   0.0030053
        k(  488) = (   0.2727273  -0.2624319  -0.0742270), wk =   0.0030053
        k(  489) = (   0.2727273  -0.2624319  -0.1892788), wk =   0.0030053
        k(  490) = (   0.2727273  -0.2624319  -0.3043305), wk =   0.0030053
        k(  491) = (   0.2727273  -0.2624319  -0.4193823), wk =   0.0030053
        k(  492) = (   0.2727273  -0.2624319  -0.5344341), wk =   0.0030053
        k(  493) = (   0.2727273  -0.2624319  -0.6494859), wk =   0.0030053
        k(  494) = (   0.2727273  -0.2624319   0.5010320), wk =   0.0030053
        k(  495) = (   0.2727273  -0.2624319   0.3859802), wk =   0.0030053
        k(  496) = (   0.2727273  -0.2624319   0.2709284), wk =   0.0030053
        k(  497) = (   0.2727273  -0.2624319   0.1558766), wk =   0.0030053
        k(  498) = (   0.2727273  -0.2624319   0.0408248), wk =   0.0030053
        k(  499) = (   0.1818182  -0.2099456  -0.0371135), wk =   0.0030053
        k(  500) = (   0.1818182  -0.2099456  -0.1521653), wk =   0.0030053
        k(  501) = (   0.1818182  -0.2099456  -0.2672171), wk =   0.0030053
        k(  502) = (   0.1818182  -0.2099456  -0.3822689), wk =   0.0030053
        k(  503) = (   0.1818182  -0.2099456  -0.4973206), wk =   0.0030053
        k(  504) = (   0.1818182  -0.2099456  -0.6123724), wk =   0.0030053
        k(  505) = (   0.1818182  -0.2099456   0.5381455), wk =   0.0030053
        k(  506) = (   0.1818182  -0.2099456   0.4230937), wk =   0.0030053
        k(  507) = (   0.1818182  -0.2099456   0.3080419), wk =   0.0030053
        k(  508) = (   0.1818182  -0.2099456   0.1929901), wk =   0.0030053
        k(  509) = (   0.1818182  -0.2099456   0.0779383), wk =   0.0030053
        k(  510) = (   0.0909091  -0.1574592  -0.1150518), wk =   0.0030053
        k(  511) = (   0.0909091  -0.1574592  -0.2301036), wk =   0.0030053
        k(  512) = (   0.0909091  -0.1574592  -0.3451554), wk =   0.0030053
        k(  513) = (   0.0909091  -0.1574592  -0.4602072), wk =   0.0030053
        k(  514) = (   0.0909091  -0.1574592  -0.5752590), wk =   0.0030053
        k(  515) = (  -0.2727273  -0.0524864   0.1855674), wk =   0.0030053
        k(  516) = (  -0.2727273  -0.0524864   0.0705156), wk =   0.0030053
        k(  517) = (  -0.2727273  -0.0524864  -0.0445362), wk =   0.0030053
        k(  518) = (  -0.2727273  -0.0524864  -0.1595880), wk =   0.0030053
        k(  519) = (  -0.2727273  -0.0524864  -0.2746398), wk =   0.0030053
        k(  520) = (  -0.2727273  -0.0524864  -0.3896915), wk =   0.0030053
        k(  521) = (  -0.2727273  -0.0524864   0.7608264), wk =   0.0030053
        k(  522) = (  -0.2727273  -0.0524864   0.6457746), wk =   0.0030053
        k(  523) = (  -0.2727273  -0.0524864   0.5307228), wk =   0.0030053
        k(  524) = (  -0.2727273  -0.0524864   0.4156710), wk =   0.0030053
        k(  525) = (  -0.2727273  -0.0524864   0.3006192), wk =   0.0030053
        k(  526) = (  -0.3636364   0.0000000   0.2226809), wk =   0.0030053
        k(  527) = (  -0.3636364   0.0000000   0.1076291), wk =   0.0030053
        k(  528) = (  -0.3636364   0.0000000  -0.0074227), wk =   0.0030053
        k(  529) = (  -0.3636364   0.0000000  -0.1224745), wk =   0.0030053
        k(  530) = (  -0.3636364   0.0000000  -0.2375263), wk =   0.0030053
        k(  531) = (  -0.3636364   0.0000000  -0.3525781), wk =   0.0030053
        k(  532) = (  -0.3636364   0.0000000   0.7979398), wk =   0.0030053
        k(  533) = (  -0.3636364   0.0000000   0.6828880), wk =   0.0030053
        k(  534) = (  -0.3636364   0.0000000   0.5678363), wk =   0.0030053
        k(  535) = (  -0.3636364   0.0000000   0.4527845), wk =   0.0030053
        k(  536) = (  -0.3636364   0.0000000   0.3377327), wk =   0.0030053
        k(  537) = (  -0.4545455   0.0524864   0.2597944), wk =   0.0030053
        k(  538) = (  -0.4545455   0.0524864   0.1447426), wk =   0.0030053
        k(  539) = (  -0.4545455   0.0524864   0.0296908), wk =   0.0030053
        k(  540) = (  -0.4545455   0.0524864  -0.0853610), wk =   0.0030053
        k(  541) = (  -0.4545455   0.0524864  -0.2004128), wk =   0.0030053
        k(  542) = (  -0.4545455   0.0524864  -0.3154646), wk =   0.0030053
        k(  543) = (  -0.4545455   0.0524864   0.8350533), wk =   0.0030053
        k(  544) = (  -0.4545455   0.0524864   0.7200015), wk =   0.0030053
        k(  545) = (  -0.4545455   0.0524864   0.6049497), wk =   0.0030053
        k(  546) = (  -0.4545455   0.0524864   0.4898979), wk =   0.0030053
        k(  547) = (  -0.4545455   0.0524864   0.3748462), wk =   0.0030053
        k(  548) = (  -0.5454545   0.1049728   0.2969078), wk =   0.0030053
        k(  549) = (  -0.5454545   0.1049728   0.1818561), wk =   0.0030053
        k(  550) = (  -0.5454545   0.1049728   0.0668043), wk =   0.0030053
        k(  551) = (  -0.5454545   0.1049728  -0.0482475), wk =   0.0030053
        k(  552) = (  -0.5454545   0.1049728  -0.1632993), wk =   0.0030053
        k(  553) = (  -0.5454545   0.1049728  -0.2783511), wk =   0.0030053
        k(  554) = (  -0.5454545   0.1049728   0.8721668), wk =   0.0030053
        k(  555) = (  -0.5454545   0.1049728   0.7571150), wk =   0.0030053
        k(  556) = (  -0.5454545   0.1049728   0.6420632), wk =   0.0030053
        k(  557) = (  -0.5454545   0.1049728   0.5270114), wk =   0.0030053
        k(  558) = (  -0.5454545   0.1049728   0.4119596), wk =   0.0030053
        k(  559) = (  -0.6363636   0.1574592   0.3340213), wk =   0.0030053
        k(  560) = (  -0.6363636   0.1574592   0.2189695), wk =   0.0030053
        k(  561) = (  -0.6363636   0.1574592   0.1039177), wk =   0.0030053
        k(  562) = (  -0.6363636   0.1574592  -0.0111340), wk =   0.0030053
        k(  563) = (  -0.6363636   0.1574592  -0.1261858), wk =   0.0030053
        k(  564) = (  -0.6363636   0.1574592  -0.2412376), wk =   0.0030053
        k(  565) = (  -0.6363636   0.1574592   0.9092803), wk =   0.0030053
        k(  566) = (  -0.6363636   0.1574592   0.7942285), wk =   0.0030053
        k(  567) = (  -0.6363636   0.1574592   0.6791767), wk =   0.0030053
        k(  568) = (  -0.6363636   0.1574592   0.5641249), wk =   0.0030053
        k(  569) = (  -0.6363636   0.1574592   0.4490731), wk =   0.0030053
        k(  570) = (   0.2727273  -0.3674047  -0.0371135), wk =   0.0030053
        k(  571) = (   0.2727273  -0.3674047  -0.1521653), wk =   0.0030053
        k(  572) = (   0.2727273  -0.3674047  -0.2672171), wk =   0.0030053
        k(  573) = (   0.2727273  -0.3674047  -0.3822689), wk =   0.0030053
        k(  574) = (   0.2727273  -0.3674047  -0.4973206), wk =   0.0030053
        k(  575) = (   0.2727273  -0.3674047  -0.6123724), wk =   0.0030053
        k(  576) = (   0.2727273  -0.3674047   0.5381455), wk =   0.0030053
        k(  577) = (   0.2727273  -0.3674047   0.4230937), wk =   0.0030053
        k(  578) = (   0.2727273  -0.3674047   0.3080419), wk =   0.0030053
        k(  579) = (   0.2727273  -0.3674047   0.1929901), wk =   0.0030053
        k(  580) = (   0.2727273  -0.3674047   0.0779383), wk =   0.0030053
        k(  581) = (   0.1818182  -0.3149183  -0.1150518), wk =   0.0030053
        k(  582) = (   0.1818182  -0.3149183  -0.2301036), wk =   0.0030053
        k(  583) = (   0.1818182  -0.3149183  -0.3451554), wk =   0.0030053
        k(  584) = (   0.1818182  -0.3149183  -0.4602072), wk =   0.0030053
        k(  585) = (   0.1818182  -0.3149183  -0.5752590), wk =   0.0030053
        k(  586) = (  -0.3636364  -0.1049728   0.2597944), wk =   0.0030053
        k(  587) = (  -0.3636364  -0.1049728   0.1447426), wk =   0.0030053
        k(  588) = (  -0.3636364  -0.1049728   0.0296908), wk =   0.0030053
        k(  589) = (  -0.3636364  -0.1049728  -0.0853610), wk =   0.0030053
        k(  590) = (  -0.3636364  -0.1049728  -0.2004128), wk =   0.0030053
        k(  591) = (  -0.3636364  -0.1049728  -0.3154646), wk =   0.0030053
        k(  592) = (  -0.3636364  -0.1049728   0.8350533), wk =   0.0030053
        k(  593) = (  -0.3636364  -0.1049728   0.7200015), wk =   0.0030053
        k(  594) = (  -0.3636364  -0.1049728   0.6049497), wk =   0.0030053
        k(  595) = (  -0.3636364  -0.1049728   0.4898979), wk =   0.0030053
        k(  596) = (  -0.3636364  -0.1049728   0.3748462), wk =   0.0030053
        k(  597) = (  -0.4545455  -0.0524864   0.2969078), wk =   0.0030053
        k(  598) = (  -0.4545455  -0.0524864   0.1818561), wk =   0.0030053
        k(  599) = (  -0.4545455  -0.0524864   0.0668043), wk =   0.0030053
        k(  600) = (  -0.4545455  -0.0524864  -0.0482475), wk =   0.0030053
        k(  601) = (  -0.4545455  -0.0524864  -0.1632993), wk =   0.0030053
        k(  602) = (  -0.4545455  -0.0524864  -0.2783511), wk =   0.0030053
        k(  603) = (  -0.4545455  -0.0524864   0.8721668), wk =   0.0030053
        k(  604) = (  -0.4545455  -0.0524864   0.7571150), wk =   0.0030053
        k(  605) = (  -0.4545455  -0.0524864   0.6420632), wk =   0.0030053
        k(  606) = (  -0.4545455  -0.0524864   0.5270114), wk =   0.0030053
        k(  607) = (  -0.4545455  -0.0524864   0.4119596), wk =   0.0030053
        k(  608) = (  -0.5454545   0.0000000   0.3340213), wk =   0.0030053
        k(  609) = (  -0.5454545   0.0000000   0.2189695), wk =   0.0030053
        k(  610) = (  -0.5454545   0.0000000   0.1039177), wk =   0.0030053
        k(  611) = (  -0.5454545   0.0000000  -0.0111340), wk =   0.0030053
        k(  612) = (  -0.5454545   0.0000000  -0.1261858), wk =   0.0030053
        k(  613) = (  -0.5454545   0.0000000  -0.2412376), wk =   0.0030053
        k(  614) = (  -0.5454545   0.0000000   0.9092803), wk =   0.0030053
        k(  615) = (  -0.5454545   0.0000000   0.7942285), wk =   0.0030053
        k(  616) = (  -0.5454545   0.0000000   0.6791767), wk =   0.0030053
        k(  617) = (  -0.5454545   0.0000000   0.5641249), wk =   0.0030053
        k(  618) = (  -0.5454545   0.0000000   0.4490731), wk =   0.0030053
        k(  619) = (  -0.6363636   0.0524864   0.3711348), wk =   0.0030053
        k(  620) = (  -0.6363636   0.0524864   0.2560830), wk =   0.0030053
        k(  621) = (  -0.6363636   0.0524864   0.1410312), wk =   0.0030053
        k(  622) = (  -0.6363636   0.0524864   0.0259794), wk =   0.0030053
        k(  623) = (  -0.6363636   0.0524864  -0.0890724), wk =   0.0030053
        k(  624) = (  -0.6363636   0.0524864  -0.2041241), wk =   0.0030053
        k(  625) = (  -0.6363636   0.0524864   0.9463938), wk =   0.0030053
        k(  626) = (  -0.6363636   0.0524864   0.8313420), wk =   0.0030053
        k(  627) = (  -0.6363636   0.0524864   0.7162902), wk =   0.0030053
        k(  628) = (  -0.6363636   0.0524864   0.6012384), wk =   0.0030053
        k(  629) = (  -0.6363636   0.0524864   0.4861866), wk =   0.0030053
        k(  630) = (  -0.7272727   0.1049728   0.2931965), wk =   0.0030053
        k(  631) = (  -0.7272727   0.1049728   0.1781447), wk =   0.0030053
        k(  632) = (  -0.7272727   0.1049728   0.0630929), wk =   0.0030053
        k(  633) = (  -0.7272727   0.1049728  -0.0519589), wk =   0.0030053
        k(  634) = (  -0.7272727   0.1049728  -0.1670107), wk =   0.0030053
        k(  635) = (  -0.4545455  -0.1574592   0.3340213), wk =   0.0030053
        k(  636) = (  -0.4545455  -0.1574592   0.2189695), wk =   0.0030053
        k(  637) = (  -0.4545455  -0.1574592   0.1039177), wk =   0.0030053
        k(  638) = (  -0.4545455  -0.1574592  -0.0111340), wk =   0.0030053
        k(  639) = (  -0.4545455  -0.1574592  -0.1261858), wk =   0.0030053
        k(  640) = (  -0.4545455  -0.1574592  -0.2412376), wk =   0.0030053
        k(  641) = (  -0.4545455  -0.1574592   0.9092803), wk =   0.0030053
        k(  642) = (  -0.4545455  -0.1574592   0.7942285), wk =   0.0030053
        k(  643) = (  -0.4545455  -0.1574592   0.6791767), wk =   0.0030053
        k(  644) = (  -0.4545455  -0.1574592   0.5641249), wk =   0.0030053
        k(  645) = (  -0.4545455  -0.1574592   0.4490731), wk =   0.0030053
        k(  646) = (  -0.5454545  -0.1049728   0.3711348), wk =   0.0030053
        k(  647) = (  -0.5454545  -0.1049728   0.2560830), wk =   0.0030053
        k(  648) = (  -0.5454545  -0.1049728   0.1410312), wk =   0.0030053
        k(  649) = (  -0.5454545  -0.1049728   0.0259794), wk =   0.0030053
        k(  650) = (  -0.5454545  -0.1049728  -0.0890724), wk =   0.0030053
        k(  651) = (  -0.5454545  -0.1049728  -0.2041241), wk =   0.0030053
        k(  652) = (  -0.5454545  -0.1049728   0.9463938), wk =   0.0030053
        k(  653) = (  -0.5454545  -0.1049728   0.8313420), wk =   0.0030053
        k(  654) = (  -0.5454545  -0.1049728   0.7162902), wk =   0.0030053
        k(  655) = (  -0.5454545  -0.1049728   0.6012384), wk =   0.0030053
        k(  656) = (  -0.5454545  -0.1049728   0.4861866), wk =   0.0030053
        k(  657) = (  -0.6363636  -0.0524864   0.2931965), wk =   0.0030053
        k(  658) = (  -0.6363636  -0.0524864   0.1781447), wk =   0.0030053
        k(  659) = (  -0.6363636  -0.0524864   0.0630929), wk =   0.0030053
        k(  660) = (  -0.6363636  -0.0524864  -0.0519589), wk =   0.0030053
        k(  661) = (  -0.6363636  -0.0524864  -0.1670107), wk =   0.0030053
        k(  662) = (  -0.5454545  -0.2099456   0.2931965), wk =   0.0030053
        k(  663) = (  -0.5454545  -0.2099456   0.1781447), wk =   0.0030053
        k(  664) = (  -0.5454545  -0.2099456   0.0630929), wk =   0.0030053
        k(  665) = (  -0.5454545  -0.2099456  -0.0519589), wk =   0.0030053
        k(  666) = (  -0.5454545  -0.2099456  -0.1670107), wk =   0.0030053

                       cryst. coord.
        k(    1) = (   0.0000000   0.0000000   0.0000000), wk =   0.0015026
        k(    2) = (   0.0000000   0.0000000   0.0909091), wk =   0.0030053
        k(    3) = (   0.0000000   0.0000000   0.1818182), wk =   0.0030053
        k(    4) = (   0.0000000   0.0000000   0.2727273), wk =   0.0030053
        k(    5) = (   0.0000000   0.0000000   0.3636364), wk =   0.0030053
        k(    6) = (   0.0000000   0.0000000   0.4545455), wk =   0.0030053
        k(    7) = (   0.0000000   0.0909091  -0.0000000), wk =   0.0030053
        k(    8) = (   0.0000000   0.0909091   0.0909091), wk =   0.0030053
        k(    9) = (   0.0000000   0.0909091   0.1818182), wk =   0.0030053
        k(   10) = (   0.0000000   0.0909091   0.2727273), wk =   0.0030053
        k(   11) = (   0.0000000   0.0909091   0.3636364), wk =   0.0030053
        k(   12) = (   0.0000000   0.0909091   0.4545455), wk =   0.0030053
        k(   13) = (   0.0000000   0.0909091  -0.4545455), wk =   0.0030053
        k(   14) = (   0.0000000   0.0909091  -0.3636364), wk =   0.0030053
        k(   15) = (   0.0000000   0.0909091  -0.2727273), wk =   0.0030053
        k(   16) = (   0.0000000   0.0909091  -0.1818182), wk =   0.0030053
        k(   17) = (   0.0000000   0.0909091  -0.0909091), wk =   0.0030053
        k(   18) = (   0.0000000   0.1818182  -0.0000000), wk =   0.0030053
        k(   19) = (   0.0000000   0.1818182   0.0909091), wk =   0.0030053
        k(   20) = (   0.0000000   0.1818182   0.1818182), wk =   0.0030053
        k(   21) = (   0.0000000   0.1818182   0.2727273), wk =   0.0030053
        k(   22) = (   0.0000000   0.1818182   0.3636364), wk =   0.0030053
        k(   23) = (   0.0000000   0.1818182   0.4545455), wk =   0.0030053
        k(   24) = (   0.0000000   0.1818182  -0.4545455), wk =   0.0030053
        k(   25) = (   0.0000000   0.1818182  -0.3636364), wk =   0.0030053
        k(   26) = (   0.0000000   0.1818182  -0.2727273), wk =   0.0030053
        k(   27) = (   0.0000000   0.1818182  -0.1818182), wk =   0.0030053
        k(   28) = (   0.0000000   0.1818182  -0.0909091), wk =   0.0030053
        k(   29) = (   0.0000000   0.2727273  -0.0000000), wk =   0.0030053
        k(   30) = (   0.0000000   0.2727273   0.0909091), wk =   0.0030053
        k(   31) = (   0.0000000   0.2727273   0.1818182), wk =   0.0030053
        k(   32) = (   0.0000000   0.2727273   0.2727273), wk =   0.0030053
        k(   33) = (   0.0000000   0.2727273   0.3636364), wk =   0.0030053
        k(   34) = (   0.0000000   0.2727273   0.4545455), wk =   0.0030053
        k(   35) = (   0.0000000   0.2727273  -0.4545455), wk =   0.0030053
        k(   36) = (   0.0000000   0.2727273  -0.3636364), wk =   0.0030053
        k(   37) = (   0.0000000   0.2727273  -0.2727273), wk =   0.0030053
        k(   38) = (   0.0000000   0.2727273  -0.1818182), wk =   0.0030053
        k(   39) = (   0.0000000   0.2727273  -0.0909091), wk =   0.0030053
        k(   40) = (   0.0000000   0.3636364  -0.0000000), wk =   0.0030053
        k(   41) = (   0.0000000   0.3636364   0.0909091), wk =   0.0030053
        k(   42) = (   0.0000000   0.3636364   0.1818182), wk =   0.0030053
        k(   43) = (   0.0000000   0.3636364   0.2727273), wk =   0.0030053
        k(   44) = (   0.0000000   0.3636364   0.3636364), wk =   0.0030053
        k(   45) = (   0.0000000   0.3636364   0.4545455), wk =   0.0030053
        k(   46) = (   0.0000000   0.3636364  -0.4545455), wk =   0.0030053
        k(   47) = (   0.0000000   0.3636364  -0.3636364), wk =   0.0030053
        k(   48) = (   0.0000000   0.3636364  -0.2727273), wk =   0.0030053
        k(   49) = (   0.0000000   0.3636364  -0.1818182), wk =   0.0030053
        k(   50) = (   0.0000000   0.3636364  -0.0909091), wk =   0.0030053
        k(   51) = (   0.0000000   0.4545455  -0.0000000), wk =   0.0030053
        k(   52) = (   0.0000000   0.4545455   0.0909091), wk =   0.0030053
        k(   53) = (   0.0000000   0.4545455   0.1818182), wk =   0.0030053
        k(   54) = (   0.0000000   0.4545455   0.2727273), wk =   0.0030053
        k(   55) = (   0.0000000   0.4545455   0.3636364), wk =   0.0030053
        k(   56) = (   0.0000000   0.4545455   0.4545455), wk =   0.0030053
        k(   57) = (   0.0000000   0.4545455  -0.4545455), wk =   0.0030053
        k(   58) = (   0.0000000   0.4545455  -0.3636364), wk =   0.0030053
        k(   59) = (   0.0000000   0.4545455  -0.2727273), wk =   0.0030053
        k(   60) = (   0.0000000   0.4545455  -0.1818182), wk =   0.0030053
        k(   61) = (   0.0000000   0.4545455  -0.0909091), wk =   0.0030053
        k(   62) = (   0.0909091   0.0000000  -0.0000000), wk =   0.0030053
        k(   63) = (   0.0909091   0.0000000   0.0909091), wk =   0.0030053
        k(   64) = (   0.0909091   0.0000000   0.1818182), wk =   0.0030053
        k(   65) = (   0.0909091   0.0000000   0.2727273), wk =   0.0030053
        k(   66) = (   0.0909091   0.0000000   0.3636364), wk =   0.0030053
        k(   67) = (   0.0909091   0.0000000   0.4545455), wk =   0.0030053
        k(   68) = (   0.0909091   0.0000000  -0.4545455), wk =   0.0030053
        k(   69) = (   0.0909091   0.0000000  -0.3636364), wk =   0.0030053
        k(   70) = (   0.0909091   0.0000000  -0.2727273), wk =   0.0030053
        k(   71) = (   0.0909091   0.0000000  -0.1818182), wk =   0.0030053
        k(   72) = (   0.0909091   0.0000000  -0.0909091), wk =   0.0030053
        k(   73) = (   0.0909091   0.0909091   0.0000000), wk =   0.0030053
        k(   74) = (   0.0909091   0.0909091   0.0909091), wk =   0.0030053
        k(   75) = (   0.0909091   0.0909091   0.1818182), wk =   0.0030053
        k(   76) = (   0.0909091   0.0909091   0.2727273), wk =   0.0030053
        k(   77) = (   0.0909091   0.0909091   0.3636364), wk =   0.0030053
        k(   78) = (   0.0909091   0.0909091   0.4545455), wk =   0.0030053
        k(   79) = (   0.0909091   0.0909091  -0.4545455), wk =   0.0030053
        k(   80) = (   0.0909091   0.0909091  -0.3636364), wk =   0.0030053
        k(   81) = (   0.0909091   0.0909091  -0.2727273), wk =   0.0030053
        k(   82) = (   0.0909091   0.0909091  -0.1818182), wk =   0.0030053
        k(   83) = (   0.0909091   0.0909091  -0.0909091), wk =   0.0030053
        k(   84) = (   0.0909091   0.1818182  -0.0000000), wk =   0.0030053
        k(   85) = (   0.0909091   0.1818182   0.0909091), wk =   0.0030053
        k(   86) = (   0.0909091   0.1818182   0.1818182), wk =   0.0030053
        k(   87) = (   0.0909091   0.1818182   0.2727273), wk =   0.0030053
        k(   88) = (   0.0909091   0.1818182   0.3636364), wk =   0.0030053
        k(   89) = (   0.0909091   0.1818182   0.4545455), wk =   0.0030053
        k(   90) = (   0.0909091   0.1818182  -0.4545455), wk =   0.0030053
        k(   91) = (   0.0909091   0.1818182  -0.3636364), wk =   0.0030053
        k(   92) = (   0.0909091   0.1818182  -0.2727273), wk =   0.0030053
        k(   93) = (   0.0909091   0.1818182  -0.1818182), wk =   0.0030053
        k(   94) = (   0.0909091   0.1818182  -0.0909091), wk =   0.0030053
        k(   95) = (   0.0909091   0.2727273   0.0000000), wk =   0.0030053
        k(   96) = (   0.0909091   0.2727273   0.0909091), wk =   0.0030053
        k(   97) = (   0.0909091   0.2727273   0.1818182), wk =   0.0030053
        k(   98) = (   0.0909091   0.2727273   0.2727273), wk =   0.0030053
        k(   99) = (   0.0909091   0.2727273   0.3636364), wk =   0.0030053
        k(  100) = (   0.0909091   0.2727273   0.4545455), wk =   0.0030053
        k(  101) = (   0.0909091   0.2727273  -0.4545455), wk =   0.0030053
        k(  102) = (   0.0909091   0.2727273  -0.3636364), wk =   0.0030053
        k(  103) = (   0.0909091   0.2727273  -0.2727273), wk =   0.0030053
        k(  104) = (   0.0909091   0.2727273  -0.1818182), wk =   0.0030053
        k(  105) = (   0.0909091   0.2727273  -0.0909091), wk =   0.0030053
        k(  106) = (   0.0909091   0.3636364  -0.0000000), wk =   0.0030053
        k(  107) = (   0.0909091   0.3636364   0.0909091), wk =   0.0030053
        k(  108) = (   0.0909091   0.3636364   0.1818182), wk =   0.0030053
        k(  109) = (   0.0909091   0.3636364   0.2727273), wk =   0.0030053
        k(  110) = (   0.0909091   0.3636364   0.3636364), wk =   0.0030053
        k(  111) = (   0.0909091   0.3636364   0.4545455), wk =   0.0030053
        k(  112) = (   0.0909091   0.3636364  -0.4545455), wk =   0.0030053
        k(  113) = (   0.0909091   0.3636364  -0.3636364), wk =   0.0030053
        k(  114) = (   0.0909091   0.3636364  -0.2727273), wk =   0.0030053
        k(  115) = (   0.0909091   0.3636364  -0.1818182), wk =   0.0030053
        k(  116) = (   0.0909091   0.3636364  -0.0909091), wk =   0.0030053
        k(  117) = (   0.0909091   0.4545455  -0.0000000), wk =   0.0030053
        k(  118) = (   0.0909091   0.4545455   0.0909091), wk =   0.0030053
        k(  119) = (   0.0909091   0.4545455   0.1818182), wk =   0.0030053
        k(  120) = (   0.0909091   0.4545455   0.2727273), wk =   0.0030053
        k(  121) = (   0.0909091   0.4545455   0.3636364), wk =   0.0030053
        k(  122) = (   0.0909091   0.4545455   0.4545455), wk =   0.0030053
        k(  123) = (   0.0909091   0.4545455  -0.4545455), wk =   0.0030053
        k(  124) = (   0.0909091   0.4545455  -0.3636364), wk =   0.0030053
        k(  125) = (   0.0909091   0.4545455  -0.2727273), wk =   0.0030053
        k(  126) = (   0.0909091   0.4545455  -0.1818182), wk =   0.0030053
        k(  127) = (   0.0909091   0.4545455  -0.0909091), wk =   0.0030053
        k(  128) = (   0.0909091  -0.4545455   0.0000000), wk =   0.0030053
        k(  129) = (   0.0909091  -0.4545455   0.0909091), wk =   0.0030053
        k(  130) = (   0.0909091  -0.4545455   0.1818182), wk =   0.0030053
        k(  131) = (   0.0909091  -0.4545455   0.2727273), wk =   0.0030053
        k(  132) = (   0.0909091  -0.4545455   0.3636364), wk =   0.0030053
        k(  133) = (   0.0909091  -0.4545455   0.4545455), wk =   0.0030053
        k(  134) = (   0.0909091  -0.4545455  -0.4545455), wk =   0.0030053
        k(  135) = (   0.0909091  -0.4545455  -0.3636364), wk =   0.0030053
        k(  136) = (   0.0909091  -0.4545455  -0.2727273), wk =   0.0030053
        k(  137) = (   0.0909091  -0.4545455  -0.1818182), wk =   0.0030053
        k(  138) = (   0.0909091  -0.4545455  -0.0909091), wk =   0.0030053
        k(  139) = (   0.0909091  -0.3636364   0.0000000), wk =   0.0030053
        k(  140) = (   0.0909091  -0.3636364   0.0909091), wk =   0.0030053
        k(  141) = (   0.0909091  -0.3636364   0.1818182), wk =   0.0030053
        k(  142) = (   0.0909091  -0.3636364   0.2727273), wk =   0.0030053
        k(  143) = (   0.0909091  -0.3636364   0.3636364), wk =   0.0030053
        k(  144) = (   0.0909091  -0.3636364   0.4545455), wk =   0.0030053
        k(  145) = (   0.0909091  -0.3636364  -0.4545455), wk =   0.0030053
        k(  146) = (   0.0909091  -0.3636364  -0.3636364), wk =   0.0030053
        k(  147) = (   0.0909091  -0.3636364  -0.2727273), wk =   0.0030053
        k(  148) = (   0.0909091  -0.3636364  -0.1818182), wk =   0.0030053
        k(  149) = (   0.0909091  -0.3636364  -0.0909091), wk =   0.0030053
        k(  150) = (   0.0909091  -0.2727273   0.0000000), wk =   0.0030053
        k(  151) = (   0.0909091  -0.2727273   0.0909091), wk =   0.0030053
        k(  152) = (   0.0909091  -0.2727273   0.1818182), wk =   0.0030053
        k(  153) = (   0.0909091  -0.2727273   0.2727273), wk =   0.0030053
        k(  154) = (   0.0909091  -0.2727273   0.3636364), wk =   0.0030053
        k(  155) = (   0.0909091  -0.2727273   0.4545455), wk =   0.0030053
        k(  156) = (   0.0909091  -0.2727273  -0.4545455), wk =   0.0030053
        k(  157) = (   0.0909091  -0.2727273  -0.3636364), wk =   0.0030053
        k(  158) = (   0.0909091  -0.2727273  -0.2727273), wk =   0.0030053
        k(  159) = (   0.0909091  -0.2727273  -0.1818182), wk =   0.0030053
        k(  160) = (   0.0909091  -0.2727273  -0.0909091), wk =   0.0030053
        k(  161) = (   0.0909091  -0.1818182  -0.0000000), wk =   0.0030053
        k(  162) = (   0.0909091  -0.1818182   0.0909091), wk =   0.0030053
        k(  163) = (   0.0909091  -0.1818182   0.1818182), wk =   0.0030053
        k(  164) = (   0.0909091  -0.1818182   0.2727273), wk =   0.0030053
        k(  165) = (   0.0909091  -0.1818182   0.3636364), wk =   0.0030053
        k(  166) = (   0.0909091  -0.1818182   0.4545455), wk =   0.0030053
        k(  167) = (   0.1818182   0.0000000  -0.0000000), wk =   0.0030053
        k(  168) = (   0.1818182   0.0000000   0.0909091), wk =   0.0030053
        k(  169) = (   0.1818182   0.0000000   0.1818182), wk =   0.0030053
        k(  170) = (   0.1818182   0.0000000   0.2727273), wk =   0.0030053
        k(  171) = (   0.1818182   0.0000000   0.3636364), wk =   0.0030053
        k(  172) = (   0.1818182   0.0000000   0.4545455), wk =   0.0030053
        k(  173) = (   0.1818182   0.0000000  -0.4545455), wk =   0.0030053
        k(  174) = (   0.1818182   0.0000000  -0.3636364), wk =   0.0030053
        k(  175) = (   0.1818182   0.0000000  -0.2727273), wk =   0.0030053
        k(  176) = (   0.1818182   0.0000000  -0.1818182), wk =   0.0030053
        k(  177) = (   0.1818182   0.0000000  -0.0909091), wk =   0.0030053
        k(  178) = (   0.1818182   0.0909091  -0.0000000), wk =   0.0030053
        k(  179) = (   0.1818182   0.0909091   0.0909091), wk =   0.0030053
        k(  180) = (   0.1818182   0.0909091   0.1818182), wk =   0.0030053
        k(  181) = (   0.1818182   0.0909091   0.2727273), wk =   0.0030053
        k(  182) = (   0.1818182   0.0909091   0.3636364), wk =   0.0030053
        k(  183) = (   0.1818182   0.0909091   0.4545455), wk =   0.0030053
        k(  184) = (   0.1818182   0.0909091  -0.4545455), wk =   0.0030053
        k(  185) = (   0.1818182   0.0909091  -0.3636364), wk =   0.0030053
        k(  186) = (   0.1818182   0.0909091  -0.2727273), wk =   0.0030053
        k(  187) = (   0.1818182   0.0909091  -0.1818182), wk =   0.0030053
        k(  188) = (   0.1818182   0.0909091  -0.0909091), wk =   0.0030053
        k(  189) = (   0.1818182   0.1818182   0.0000000), wk =   0.0030053
        k(  190) = (   0.1818182   0.1818182   0.0909091), wk =   0.0030053
        k(  191) = (   0.1818182   0.1818182   0.1818182), wk =   0.0030053
        k(  192) = (   0.1818182   0.1818182   0.2727273), wk =   0.0030053
        k(  193) = (   0.1818182   0.1818182   0.3636364), wk =   0.0030053
        k(  194) = (   0.1818182   0.1818182   0.4545455), wk =   0.0030053
        k(  195) = (   0.1818182   0.1818182  -0.4545455), wk =   0.0030053
        k(  196) = (   0.1818182   0.1818182  -0.3636364), wk =   0.0030053
        k(  197) = (   0.1818182   0.1818182  -0.2727273), wk =   0.0030053
        k(  198) = (   0.1818182   0.1818182  -0.1818182), wk =   0.0030053
        k(  199) = (   0.1818182   0.1818182  -0.0909091), wk =   0.0030053
        k(  200) = (   0.1818182   0.2727273   0.0000000), wk =   0.0030053
        k(  201) = (   0.1818182   0.2727273   0.0909091), wk =   0.0030053
        k(  202) = (   0.1818182   0.2727273   0.1818182), wk =   0.0030053
        k(  203) = (   0.1818182   0.2727273   0.2727273), wk =   0.0030053
        k(  204) = (   0.1818182   0.2727273   0.3636364), wk =   0.0030053
        k(  205) = (   0.1818182   0.2727273   0.4545455), wk =   0.0030053
        k(  206) = (   0.1818182   0.2727273  -0.4545455), wk =   0.0030053
        k(  207) = (   0.1818182   0.2727273  -0.3636364), wk =   0.0030053
        k(  208) = (   0.1818182   0.2727273  -0.2727273), wk =   0.0030053
        k(  209) = (   0.1818182   0.2727273  -0.1818182), wk =   0.0030053
        k(  210) = (   0.1818182   0.2727273  -0.0909091), wk =   0.0030053
        k(  211) = (   0.1818182   0.3636364  -0.0000000), wk =   0.0030053
        k(  212) = (   0.1818182   0.3636364   0.0909091), wk =   0.0030053
        k(  213) = (   0.1818182   0.3636364   0.1818182), wk =   0.0030053
        k(  214) = (   0.1818182   0.3636364   0.2727273), wk =   0.0030053
        k(  215) = (   0.1818182   0.3636364   0.3636364), wk =   0.0030053
        k(  216) = (   0.1818182   0.3636364   0.4545455), wk =   0.0030053
        k(  217) = (   0.1818182   0.3636364  -0.4545455), wk =   0.0030053
        k(  218) = (   0.1818182   0.3636364  -0.3636364), wk =   0.0030053
        k(  219) = (   0.1818182   0.3636364  -0.2727273), wk =   0.0030053
        k(  220) = (   0.1818182   0.3636364  -0.1818182), wk =   0.0030053
        k(  221) = (   0.1818182   0.3636364  -0.0909091), wk =   0.0030053
        k(  222) = (   0.1818182   0.4545455  -0.0000000), wk =   0.0030053
        k(  223) = (   0.1818182   0.4545455   0.0909091), wk =   0.0030053
        k(  224) = (   0.1818182   0.4545455   0.1818182), wk =   0.0030053
        k(  225) = (   0.1818182   0.4545455   0.2727273), wk =   0.0030053
        k(  226) = (   0.1818182   0.4545455   0.3636364), wk =   0.0030053
        k(  227) = (   0.1818182   0.4545455   0.4545455), wk =   0.0030053
        k(  228) = (   0.1818182   0.4545455  -0.4545455), wk =   0.0030053
        k(  229) = (   0.1818182   0.4545455  -0.3636364), wk =   0.0030053
        k(  230) = (   0.1818182   0.4545455  -0.2727273), wk =   0.0030053
        k(  231) = (   0.1818182   0.4545455  -0.1818182), wk =   0.0030053
        k(  232) = (   0.1818182   0.4545455  -0.0909091), wk =   0.0030053
        k(  233) = (   0.1818182  -0.4545455  -0.0000000), wk =   0.0030053
        k(  234) = (   0.1818182  -0.4545455   0.0909091), wk =   0.0030053
        k(  235) = (   0.1818182  -0.4545455   0.1818182), wk =   0.0030053
        k(  236) = (   0.1818182  -0.4545455   0.2727273), wk =   0.0030053
        k(  237) = (   0.1818182  -0.4545455   0.3636364), wk =   0.0030053
        k(  238) = (   0.1818182  -0.4545455   0.4545455), wk =   0.0030053
        k(  239) = (   0.1818182  -0.4545455  -0.4545455), wk =   0.0030053
        k(  240) = (   0.1818182  -0.4545455  -0.3636364), wk =   0.0030053
        k(  241) = (   0.1818182  -0.4545455  -0.2727273), wk =   0.0030053
        k(  242) = (   0.1818182  -0.4545455  -0.1818182), wk =   0.0030053
        k(  243) = (   0.1818182  -0.4545455  -0.0909091), wk =   0.0030053
        k(  244) = (   0.1818182  -0.3636364   0.0000000), wk =   0.0030053
        k(  245) = (   0.1818182  -0.3636364   0.0909091), wk =   0.0030053
        k(  246) = (   0.1818182  -0.3636364   0.1818182), wk =   0.0030053
        k(  247) = (   0.1818182  -0.3636364   0.2727273), wk =   0.0030053
        k(  248) = (   0.1818182  -0.3636364   0.3636364), wk =   0.0030053
        k(  249) = (   0.1818182  -0.3636364   0.4545455), wk =   0.0030053
        k(  250) = (   0.2727273   0.0000000   0.0000000), wk =   0.0030053
        k(  251) = (   0.2727273   0.0000000   0.0909091), wk =   0.0030053
        k(  252) = (   0.2727273   0.0000000   0.1818182), wk =   0.0030053
        k(  253) = (   0.2727273   0.0000000   0.2727273), wk =   0.0030053
        k(  254) = (   0.2727273   0.0000000   0.3636364), wk =   0.0030053
        k(  255) = (   0.2727273   0.0000000   0.4545455), wk =   0.0030053
        k(  256) = (   0.2727273   0.0000000  -0.4545455), wk =   0.0030053
        k(  257) = (   0.2727273   0.0000000  -0.3636364), wk =   0.0030053
        k(  258) = (   0.2727273   0.0000000  -0.2727273), wk =   0.0030053
        k(  259) = (   0.2727273   0.0000000  -0.1818182), wk =   0.0030053
        k(  260) = (   0.2727273   0.0000000  -0.0909091), wk =   0.0030053
        k(  261) = (   0.2727273   0.0909091  -0.0000000), wk =   0.0030053
        k(  262) = (   0.2727273   0.0909091   0.0909091), wk =   0.0030053
        k(  263) = (   0.2727273   0.0909091   0.1818182), wk =   0.0030053
        k(  264) = (   0.2727273   0.0909091   0.2727273), wk =   0.0030053
        k(  265) = (   0.2727273   0.0909091   0.3636364), wk =   0.0030053
        k(  266) = (   0.2727273   0.0909091   0.4545455), wk =   0.0030053
        k(  267) = (   0.2727273   0.0909091  -0.4545455), wk =   0.0030053
        k(  268) = (   0.2727273   0.0909091  -0.3636364), wk =   0.0030053
        k(  269) = (   0.2727273   0.0909091  -0.2727273), wk =   0.0030053
        k(  270) = (   0.2727273   0.0909091  -0.1818182), wk =   0.0030053
        k(  271) = (   0.2727273   0.0909091  -0.0909091), wk =   0.0030053
        k(  272) = (   0.2727273   0.1818182  -0.0000000), wk =   0.0030053
        k(  273) = (   0.2727273   0.1818182   0.0909091), wk =   0.0030053
        k(  274) = (   0.2727273   0.1818182   0.1818182), wk =   0.0030053
        k(  275) = (   0.2727273   0.1818182   0.2727273), wk =   0.0030053
        k(  276) = (   0.2727273   0.1818182   0.3636364), wk =   0.0030053
        k(  277) = (   0.2727273   0.1818182   0.4545455), wk =   0.0030053
        k(  278) = (   0.2727273   0.1818182  -0.4545455), wk =   0.0030053
        k(  279) = (   0.2727273   0.1818182  -0.3636364), wk =   0.0030053
        k(  280) = (   0.2727273   0.1818182  -0.2727273), wk =   0.0030053
        k(  281) = (   0.2727273   0.1818182  -0.1818182), wk =   0.0030053
        k(  282) = (   0.2727273   0.1818182  -0.0909091), wk =   0.0030053
        k(  283) = (   0.2727273   0.2727273  -0.0000000), wk =   0.0030053
        k(  284) = (   0.2727273   0.2727273   0.0909091), wk =   0.0030053
        k(  285) = (   0.2727273   0.2727273   0.1818182), wk =   0.0030053
        k(  286) = (   0.2727273   0.2727273   0.2727273), wk =   0.0030053
        k(  287) = (   0.2727273   0.2727273   0.3636364), wk =   0.0030053
        k(  288) = (   0.2727273   0.2727273   0.4545455), wk =   0.0030053
        k(  289) = (   0.2727273   0.2727273  -0.4545455), wk =   0.0030053
        k(  290) = (   0.2727273   0.2727273  -0.3636364), wk =   0.0030053
        k(  291) = (   0.2727273   0.2727273  -0.2727273), wk =   0.0030053
        k(  292) = (   0.2727273   0.2727273  -0.1818182), wk =   0.0030053
        k(  293) = (   0.2727273   0.2727273  -0.0909091), wk =   0.0030053
        k(  294) = (   0.2727273   0.3636364  -0.0000000), wk =   0.0030053
        k(  295) = (   0.2727273   0.3636364   0.0909091), wk =   0.0030053
        k(  296) = (   0.2727273   0.3636364   0.1818182), wk =   0.0030053
        k(  297) = (   0.2727273   0.3636364   0.2727273), wk =   0.0030053
        k(  298) = (   0.2727273   0.3636364   0.3636364), wk =   0.0030053
        k(  299) = (   0.2727273   0.3636364   0.4545455), wk =   0.0030053
        k(  300) = (   0.2727273   0.3636364  -0.4545455), wk =   0.0030053
        k(  301) = (   0.2727273   0.3636364  -0.3636364), wk =   0.0030053
        k(  302) = (   0.2727273   0.3636364  -0.2727273), wk =   0.0030053
        k(  303) = (   0.2727273   0.3636364  -0.1818182), wk =   0.0030053
        k(  304) = (   0.2727273   0.3636364  -0.0909091), wk =   0.0030053
        k(  305) = (   0.2727273   0.4545455  -0.0000000), wk =   0.0030053
        k(  306) = (   0.2727273   0.4545455   0.0909091), wk =   0.0030053
        k(  307) = (   0.2727273   0.4545455   0.1818182), wk =   0.0030053
        k(  308) = (   0.2727273   0.4545455   0.2727273), wk =   0.0030053
        k(  309) = (   0.2727273   0.4545455   0.3636364), wk =   0.0030053
        k(  310) = (   0.2727273   0.4545455   0.4545455), wk =   0.0030053
        k(  311) = (   0.3636364   0.0000000  -0.0000000), wk =   0.0030053
        k(  312) = (   0.3636364   0.0000000   0.0909091), wk =   0.0030053
        k(  313) = (   0.3636364   0.0000000   0.1818182), wk =   0.0030053
        k(  314) = (   0.3636364   0.0000000   0.2727273), wk =   0.0030053
        k(  315) = (   0.3636364   0.0000000   0.3636364), wk =   0.0030053
        k(  316) = (   0.3636364   0.0000000   0.4545455), wk =   0.0030053
        k(  317) = (   0.3636364   0.0000000  -0.4545455), wk =   0.0030053
        k(  318) = (   0.3636364   0.0000000  -0.3636364), wk =   0.0030053
        k(  319) = (   0.3636364   0.0000000  -0.2727273), wk =   0.0030053
        k(  320) = (   0.3636364   0.0000000  -0.1818182), wk =   0.0030053
[...]

     occupation numbers 
     1.0000   1.0000   1.0000   1.0000   0.0000   0.0000   0.0000   0.0000

          k =-0.5455 0.0000 0.4491 (  1041 PWs)   bands (ev):

    -5.4117   1.7383   3.1051   7.7774  14.4191  18.5262  22.9830  28.1500

     occupation numbers 
     1.0000   1.0000   1.0000   1.0000   0.0000   0.0000   0.0000   0.0000

          k =-0.6364 0.0525 0.3711 (  1044 PWs)   bands (ev):

    -5.8525   1.4724   3.7863   8.7789  13.8751  20.0800  21.7877  28.2612

     occupation numbers 
     1.0000   1.0000   1.0000   1.0000   0.0000   0.0000   0.0000   0.0000

          k =-0.6364 0.0525 0.2561 (  1051 PWs)   bands (ev):

    -5.8460   1.0418   4.8467   8.3155  13.4854  19.7039  22.0417  28.0381

     occupation numbers 
     1.0000   1.0000   1.0000   1.0000   0.0000   0.0000   0.0000   0.0000

          k =-0.6364 0.0525 0.1410 (  1043 PWs)   bands (ev):

    -5.8092   1.0592   5.3376   7.8071  13.0741  19.1526  22.9771  27.6612

     occupation numbers 
     1.0000   1.0000   1.0000   1.0000   0.0000   0.0000   0.0000   0.0000

          k =-0.6364 0.0525 0.0260 (  1045 PWs)   bands (ev):

    -5.7511   1.5571   4.5458   7.8173  13.2263  18.6827  23.2807  28.2177

     occupation numbers 
     1.0000   1.0000   1.0000   1.0000   0.0000   0.0000   0.0000   0.0000

          k =-0.6364 0.0525-0.0891 (  1046 PWs)   bands (ev):

    -5.6657   2.3127   3.6525   7.1210  14.4860  18.4487  22.7728  28.3208

     occupation numbers 
     1.0000   1.0000   1.0000   1.0000   0.0000   0.0000   0.0000   0.0000

          k =-0.6364 0.0525-0.2041 (  1048 PWs)   bands (ev):

    -5.5670   2.6168   3.3395   6.4970  15.4473  19.0025  22.0750  26.6940

     occupation numbers 
     1.0000   1.0000   1.0000   1.0000   0.0000   0.0000   0.0000   0.0000

          k =-0.6364 0.0525 0.9464 (  1039 PWs)   bands (ev):

    -5.4990   2.3680   3.2417   6.7379  15.2584  20.0771  21.6373  25.8484

     occupation numbers 
     1.0000   1.0000   1.0000   1.0000   0.0000   0.0000   0.0000   0.0000

          k =-0.6364 0.0525 0.8313 (  1039 PWs)   bands (ev):

    -5.5038   1.8635   3.6376   6.9147  15.0419  20.3603  21.5066  26.5705

     occupation numbers 
     1.0000   1.0000   1.0000   1.0000   0.0000   0.0000   0.0000   0.0000

          k =-0.6364 0.0525 0.7163 (  1039 PWs)   bands (ev):

    -5.5852   1.5265   4.4320   6.4141  15.2934  20.7902  21.1562  27.2098

     occupation numbers 
     1.0000   1.0000   1.0000   1.0000   0.0000   0.0000   0.0000   0.0000

          k =-0.6364 0.0525 0.6012 (  1045 PWs)   bands (ev):

    -5.7046   1.5821   4.2351   6.7864  15.2793  20.7313  21.6439  26.9760

     occupation numbers 
     1.0000   1.0000   1.0000   1.0000   0.0000   0.0000   0.0000   0.0000

          k =-0.6364 0.0525 0.4862 (  1042 PWs)   bands (ev):

    -5.8060   1.8244   3.4249   8.0697  14.6232  20.3582  22.0110  27.3980

     occupation numbers 
     1.0000   1.0000   1.0000   1.0000   0.0000   0.0000   0.0000   0.0000

          k =-0.7273 0.1050 0.2932 (  1042 PWs)   bands (ev):

    -6.3548   1.5284   5.1057   8.7521  13.8049  18.9301  22.9436  27.9385

     occupation numbers 
     1.0000   1.0000   1.0000   1.0000   0.0000   0.0000   0.0000   0.0000

          k =-0.7273 0.1050 0.1781 (  1045 PWs)   bands (ev):

    -6.0580   1.2129   5.8636   7.8869  13.1515  17.9432  23.9906  27.6088

     occupation numbers 
     1.0000   1.0000   1.0000   1.0000   0.0000   0.0000   0.0000   0.0000

          k =-0.7273 0.1050 0.0631 (  1043 PWs)   bands (ev):

    -5.7035   1.2265   5.4294   7.5758  12.9138  17.3427  24.1347  28.4601

     occupation numbers 
     1.0000   1.0000   1.0000   1.0000   0.0000   0.0000   0.0000   0.0000

          k =-0.7273 0.1050-0.0520 (  1044 PWs)   bands (ev):

    -5.4117   1.6623   4.5491   6.6800  13.9963  17.1509  23.5774  28.8762

     occupation numbers 
     1.0000   1.0000   1.0000   1.0000   0.0000   0.0000   0.0000   0.0000

          k =-0.7273 0.1050-0.1670 (  1041 PWs)   bands (ev):

    -5.2791   2.2736   3.9906   5.6135  15.1727  17.8038  22.9029  27.7725

     occupation numbers 
     1.0000   1.0000   1.0000   1.0000   0.0000   0.0000   0.0000   0.0000

          k =-0.4545-0.1575 0.3340 (  1041 PWs)   bands (ev):

    -5.6270   1.5655   4.4971   8.2823  12.8231  15.5371  24.4361  30.5456

     occupation numbers 
     1.0000   1.0000   1.0000   1.0000   0.0000   0.0000   0.0000   0.0000

          k =-0.4545-0.1575 0.2190 (  1040 PWs)   bands (ev):

    -6.1684   2.0717   5.2305   7.7336  13.1041  16.8456  23.3645  29.5361

     occupation numbers 
     1.0000   1.0000   1.0000   1.0000   0.0000   0.0000   0.0000   0.0000

          k =-0.4545-0.1575 0.1039 (  1034 PWs)   bands (ev):

    -6.5767   2.5434   5.2215   7.8494  13.6199  18.7134  22.0039  28.5256

     occupation numbers 
     1.0000   1.0000   1.0000   1.0000   0.0000   0.0000   0.0000   0.0000

          k =-0.4545-0.1575-0.0111 (  1033 PWs)   bands (ev):

    -6.7553   2.4273   4.9322   8.9176  14.3226  19.4274  21.2492  27.6392

     occupation numbers 
     1.0000   1.0000   1.0000   1.0000   0.0000   0.0000   0.0000   0.0000

          k =-0.4545-0.1575-0.1262 (  1035 PWs)   bands (ev):

    -6.6856   1.7988   5.0993   9.5541  15.3942  18.6115  21.2748  26.8511

     occupation numbers 
     1.0000   1.0000   1.0000   1.0000   0.0000   0.0000   0.0000   0.0000

          k =-0.4545-0.1575-0.2412 (  1038 PWs)   bands (ev):

    -6.4047   1.3518   5.0767   9.1990  16.5390  18.0962  21.0862  26.0104

     occupation numbers 
     1.0000   1.0000   1.0000   1.0000   0.0000   0.0000   0.0000   0.0000

          k =-0.4545-0.1575 0.9093 (  1037 PWs)   bands (ev):

    -5.9912   1.3803   4.6585   7.9288  17.0237  17.9405  21.6521  25.7317

     occupation numbers 
     1.0000   1.0000   1.0000   1.0000   0.0000   0.0000   0.0000   0.0000

          k =-0.4545-0.1575 0.7942 (  1040 PWs)   bands (ev):

    -5.5440   1.9119   4.0326   6.3125  16.1837  18.4143  22.7656  26.3324

     occupation numbers 
     1.0000   1.0000   1.0000   1.0000   0.0000   0.0000   0.0000   0.0000

          k =-0.4545-0.1575 0.6792 (  1046 PWs)   bands (ev):

    -5.1658   2.2989   3.8676   5.0914  15.1952  18.1002  23.9268  27.5621

     occupation numbers 
     1.0000   1.0000   1.0000   1.0000   0.0000   0.0000   0.0000   0.0000

          k =-0.4545-0.1575 0.5641 (  1038 PWs)   bands (ev):

    -4.9889   1.7346   4.0257   5.6574  14.3418  16.8356  24.7601  29.0582

     occupation numbers 
     1.0000   1.0000   1.0000   1.0000   0.0000   0.0000   0.0000   0.0000

          k =-0.4545-0.1575 0.4491 (  1042 PWs)   bands (ev):

    -5.1556   1.3801   4.0318   7.3537  13.4738  15.5967  24.9286  30.5762

     occupation numbers 
     1.0000   1.0000   1.0000   1.0000   0.0000   0.0000   0.0000   0.0000

          k =-0.5455-0.1050 0.3711 (  1045 PWs)   bands (ev):

    -5.2541   1.5575   3.3753   8.2716  12.8905  16.8121  23.9131  29.9292

     occupation numbers 
     1.0000   1.0000   1.0000   1.0000   0.0000   0.0000   0.0000   0.0000

          k =-0.5455-0.1050 0.2561 (  1040 PWs)   bands (ev):

    -5.5642   1.6905   4.2137   7.6226  12.8570  17.8753  22.9291  29.3301

     occupation numbers 
     1.0000   1.0000   1.0000   1.0000   0.0000   0.0000   0.0000   0.0000

          k =-0.5455-0.1050 0.1410 (  1035 PWs)   bands (ev):

    -5.8922   2.1337   4.5363   7.2307  13.0198  19.6395  21.6637  28.7412

     occupation numbers 
     1.0000   1.0000   1.0000   1.0000   0.0000   0.0000   0.0000   0.0000

          k =-0.5455-0.1050 0.0260 (  1039 PWs)   bands (ev):

    -6.1092   2.4404   3.9795   8.1777  13.2572  20.3211  21.1674  28.4801

     occupation numbers 
     1.0000   1.0000   1.0000   1.0000   0.0000   0.0000   0.0000   0.0000

          k =-0.5455-0.1050-0.0891 (  1038 PWs)   bands (ev):

    -6.1633   1.9128   4.2171   8.8388  14.1613  19.3431  21.5592  27.9576

     occupation numbers 
     1.0000   1.0000   1.0000   1.0000   0.0000   0.0000   0.0000   0.0000

          k =-0.5455-0.1050-0.2041 (  1042 PWs)   bands (ev):

    -6.0701   1.4022   4.4507   8.8350  15.5026  18.9289  21.2118  26.3789

     occupation numbers 
     1.0000   1.0000   1.0000   1.0000   0.0000   0.0000   0.0000   0.0000

          k =-0.5455-0.1050 0.9464 (  1040 PWs)   bands (ev):

    -5.8821   1.3657   4.1569   8.3555  16.2700  19.0809  21.1780  25.3432

     occupation numbers 
     1.0000   1.0000   1.0000   1.0000   0.0000   0.0000   0.0000   0.0000

          k =-0.5455-0.1050 0.8313 (  1040 PWs)   bands (ev):

    -5.6494   1.7781   3.6693   7.2319  16.8834  18.3418  22.1973  25.5599

     occupation numbers 
     1.0000   1.0000   1.0000   1.0000   0.0000   0.0000   0.0000   0.0000

          k =-0.5455-0.1050 0.7163 (  1044 PWs)   bands (ev):

    -5.4033   2.0735   3.7163   5.8973  16.6769  17.8541  23.1031  26.6479

     occupation numbers 
     1.0000   1.0000   1.0000   1.0000   0.0000   0.0000   0.0000   0.0000

          k =-0.5455-0.1050 0.6012 (  1044 PWs)   bands (ev):

    -5.1926   1.9177   3.6157   5.9417  15.5305  17.3427  24.0106  27.8264

     occupation numbers 
     1.0000   1.0000   1.0000   1.0000   0.0000   0.0000   0.0000   0.0000

          k =-0.5455-0.1050 0.4862 (  1044 PWs)   bands (ev):

    -5.1147   1.7258   3.0844   7.3856  14.0328  16.7605  24.3349  29.2341

     occupation numbers 
     1.0000   1.0000   1.0000   1.0000   0.0000   0.0000   0.0000   0.0000

          k =-0.6364-0.0525 0.2932 (  1046 PWs)   bands (ev):

    -5.3803   1.7994   3.3204   7.8229  12.9955  19.4204  22.0423  28.8105

     occupation numbers 
     1.0000   1.0000   1.0000   1.0000   0.0000   0.0000   0.0000   0.0000

          k =-0.6364-0.0525 0.1781 (  1045 PWs)   bands (ev):

    -5.4564   1.7952   4.1547   6.9252  12.8764  20.3706  21.3968  28.4442

     occupation numbers 
     1.0000   1.0000   1.0000   1.0000   0.0000   0.0000   0.0000   0.0000

          k =-0.6364-0.0525 0.0631 (  1048 PWs)   bands (ev):

    -5.5593   2.2513   3.5980   7.4969  12.6489  19.7031  22.1967  28.7382

     occupation numbers 
     1.0000   1.0000   1.0000   1.0000   0.0000   0.0000   0.0000   0.0000

          k =-0.6364-0.0525-0.0520 (  1040 PWs)   bands (ev):

    -5.6414   2.4407   3.1725   8.0522  13.1933  19.0527  22.3207  28.9780

     occupation numbers 
     1.0000   1.0000   1.0000   1.0000   0.0000   0.0000   0.0000   0.0000

          k =-0.6364-0.0525-0.1670 (  1045 PWs)   bands (ev):

    -5.6889   1.8750   3.7172   7.8763  14.7119  18.8273  21.7797  27.3495

     occupation numbers 
     1.0000   1.0000   1.0000   1.0000   0.0000   0.0000   0.0000   0.0000

          k =-0.5455-0.2099 0.2932 (  1045 PWs)   bands (ev):

    -5.1721   1.4637   4.2259   7.2425  12.5371  16.3094  24.4229  30.1427

     occupation numbers 
     1.0000   1.0000   1.0000   1.0000   0.0000   0.0000   0.0000   0.0000

          k =-0.5455-0.2099 0.1781 (  1041 PWs)   bands (ev):

    -5.4844   2.0256   4.6027   6.2343  12.9437  18.1994  23.2209  29.1633

     occupation numbers 
     1.0000   1.0000   1.0000   1.0000   0.0000   0.0000   0.0000   0.0000

          k =-0.5455-0.2099 0.0631 (  1039 PWs)   bands (ev):

    -5.7896   2.1107   4.2910   7.1312  13.4197  19.6751  21.9397  28.2077

     occupation numbers 
     1.0000   1.0000   1.0000   1.0000   0.0000   0.0000   0.0000   0.0000

          k =-0.5455-0.2099-0.0520 (  1039 PWs)   bands (ev):

    -5.9927   1.4033   4.6546   8.5428  14.1490  19.2795  21.6490  27.3423

     occupation numbers 
     1.0000   1.0000   1.0000   1.0000   0.0000   0.0000   0.0000   0.0000

          k =-0.5455-0.2099-0.1670 (  1035 PWs)   bands (ev):

    -6.0854   0.8516   5.0216   9.4560  15.3496  18.2055  21.4544  26.4522

     occupation numbers 
     1.0000   1.0000   1.0000   1.0000   0.0000   0.0000   0.0000   0.0000

     the Fermi energy is    10.8847 ev

!    total energy              =     -27.02434311 Ry
     estimated scf accuracy    <          1.3E-10 Ry
     smearing contrib. (-TS)   =       0.00020309 Ry
     internal energy E=F+TS    =     -27.02454621 Ry

     The total energy is F=E-TS. E is the sum of the following terms:
     one-electron contribution =       2.86430733 Ry
     hartree contribution      =       4.26683900 Ry
     xc contribution           =      -9.44095605 Ry
     ewald contribution        =     -24.71473648 Ry

     convergence has been achieved in  10 iterations

     Forces acting on atoms (cartesian axes, Ry/au):

     atom    1 type  1   force =     0.45094931   -0.64134147    0.32301380
     atom    2 type  2   force =    -0.45094931    0.64134147   -0.32301380
     The non-local contrib.  to forces
     atom    1 type  1   force =     0.63522109   -0.76896919    0.45333119
     atom    2 type  2   force =     0.20837288    0.14460079    0.17143918
     The ionic contribution  to forces
     atom    1 type  1   force =     2.51491678   -2.30689163    1.84038792
     atom    2 type  2   force =    -2.51491678    2.30689163   -1.84038792
     The local contribution  to forces
     atom    1 type  1   force =    -2.65983138    2.39104189   -1.94245323
     atom    2 type  2   force =     1.83945210   -1.78117819    1.33522322
     The core correction contribution to forces
     atom    1 type  1   force =    -0.03935581    0.04348193   -0.02825623
     atom    2 type  2   force =     0.01615719   -0.02898329    0.01071638
     The Hubbard contrib.    to forces
     atom    1 type  1   force =     0.00000000    0.00000000    0.00000000
     atom    2 type  2   force =     0.00000000    0.00000000    0.00000000
     The SCF correction term to forces
     atom    1 type  1   force =     0.00000227   -0.00000324    0.00000133
     atom    2 type  2   force =    -0.00001105    0.00001177   -0.00000746

     Total force =     1.199176     Total SCF correction =     0.000018


     Computing stress (Cartesian axis) and pressure

          total   stress  (Ry/bohr**3)                   (kbar)     P=      956.36
   0.00879137  -0.00545601   0.00706368         1293.26     -802.61     1039.10
  -0.00545601   0.00509988  -0.00480027         -802.61      750.22     -706.14
   0.00706368  -0.00480027   0.00561241         1039.10     -706.14      825.61

     kinetic stress (kbar)  22026.42    889.37    318.70
                              889.37  20720.36    302.21
                              318.70    302.21  22261.07

     local   stress (kbar)   -928.98   6897.56  -1961.97
                             6897.56  -5600.63   3827.57
                            -1961.97   3827.57    777.77

     nonloc. stress (kbar)  -2683.87    -37.00   -139.55
                              -37.00  -2421.91     36.09
                             -139.55     36.09  -2679.50

     hartree stress (kbar)   2201.22   -779.16     92.90
                             -779.16   2898.50   -424.89
                               92.90   -424.89   2208.60

     exc-cor stress (kbar)  -1160.38    -44.46     13.00
                              -44.46  -1129.61    -24.50
                               13.00    -24.50  -1174.64

     corecor stress (kbar)  -3373.27     47.73    -30.35
                               47.73  -3388.47     30.62
                              -30.35     30.62  -3351.76

     ewald   stress (kbar) -14787.89  -7776.65   2746.37
                            -7776.65 -10328.02  -4453.24
                             2746.37  -4453.24 -17215.92

     hubbard stress (kbar)      0.00      0.00      0.00
                                0.00      0.00      0.00
                                0.00      0.00      0.00

     DFT-D   stress (kbar)      0.00      0.00      0.00
                                0.00      0.00      0.00
                                0.00      0.00      0.00

     XDM     stress (kbar)      0.00      0.00      0.00
                                0.00      0.00      0.00
                                0.00      0.00      0.00

     dft-nl  stress (kbar)      0.00      0.00      0.00
                                0.00      0.00      0.00
                                0.00      0.00      0.00

     TS-vdW  stress (kbar)      0.00      0.00      0.00
                                0.00      0.00      0.00
                                0.00      0.00      0.00



     init_run     :      0.54s CPU      0.67s WALL (       1 calls)
     electrons    :     14.83s CPU     16.12s WALL (       1 calls)
     forces       :      0.11s CPU      0.12s WALL (       1 calls)
     stress       :      0.30s CPU      0.31s WALL (       1 calls)

     Called by init_run:
     wfcinit      :      0.45s CPU      0.54s WALL (       1 calls)
     wfcinit:atom :      0.01s CPU      0.01s WALL (     666 calls)
     wfcinit:wfcr :      0.41s CPU      0.50s WALL (     666 calls)
     potinit      :      0.02s CPU      0.03s WALL (       1 calls)
     hinit0       :      0.05s CPU      0.08s WALL (       1 calls)

     Called by electrons:
     c_bands      :     12.64s CPU     13.73s WALL (      10 calls)
     sum_band     :      2.08s CPU      2.27s WALL (      10 calls)
     v_of_rho     :      0.02s CPU      0.03s WALL (      11 calls)
     v_h          :      0.00s CPU      0.00s WALL (      11 calls)
     v_xc         :      0.03s CPU      0.03s WALL (      13 calls)
     newd         :      0.01s CPU      0.01s WALL (      11 calls)
     mix_rho      :      0.00s CPU      0.01s WALL (      10 calls)

     Called by c_bands:
     init_us_2    :      0.27s CPU      0.29s WALL (   15318 calls)
     cegterg      :     12.25s CPU     13.30s WALL (    6660 calls)

     Called by sum_band:
     sum_band:wei :      0.02s CPU      0.02s WALL (      10 calls)
     sum_band:loo :      2.04s CPU      2.22s WALL (      10 calls)
     sum_band:buf :      0.02s CPU      0.02s WALL (    6660 calls)
     sum_band:ini :      0.12s CPU      0.13s WALL (    6660 calls)
     sum_band:cal :      0.11s CPU      0.12s WALL (    6660 calls)
     sum_band:bec :      0.01s CPU      0.02s WALL (    6660 calls)
     addusdens    :      0.01s CPU      0.01s WALL (      10 calls)
     addusd:skk   :      0.00s CPU      0.00s WALL (      10 calls)
     addusd:dgemm :      0.00s CPU      0.00s WALL (      10 calls)
     addusd:qvan2 :      0.01s CPU      0.01s WALL (      10 calls)

     Called by *egterg:
     cdiaghg      :      1.55s CPU      1.73s WALL (   24769 calls)
     cegterg:over :      0.50s CPU      0.55s WALL (   18109 calls)
     cegterg:upda :      0.10s CPU      0.11s WALL (   18109 calls)
     cegterg:last :      0.12s CPU      0.13s WALL (   13541 calls)
     h_psi        :      9.75s CPU     10.59s WALL (   25435 calls)
     s_psi        :      0.11s CPU      0.12s WALL (   25435 calls)
     g_psi        :      0.03s CPU      0.04s WALL (   18109 calls)

     Called by h_psi:
     h_psi:calbec :      0.39s CPU      0.43s WALL (   25435 calls)
     vloc_psi     :      9.15s CPU      9.93s WALL (   25435 calls)
     add_vuspsi   :      0.14s CPU      0.15s WALL (   25435 calls)

     General routines
     calbec       :      0.50s CPU      0.56s WALL (   35425 calls)
     fft          :      0.03s CPU      0.05s WALL (     166 calls)
     ffts         :      0.00s CPU      0.00s WALL (      21 calls)
     fftw         :     10.10s CPU     10.99s WALL (  340808 calls)
     interpolate  :      0.00s CPU      0.00s WALL (      11 calls)

     Parallel routines
     fft_scatt_xy :      0.97s CPU      1.03s WALL (  340995 calls)
     fft_scatt_yz :      3.93s CPU      4.28s WALL (  340995 calls)

     PWSCF        :     15.87s CPU     17.43s WALL


   This run was terminated on:  21:17:59  28Sep2022            

=------------------------------------------------------------------------------=
   JOB DONE.
=------------------------------------------------------------------------------=
Note: The following floating-point exceptions are signalling: IEEE_UNDERFLOW_FLAG IEEE_DENORMAL
