
     Program PWSCF v.6.7MaX starts on 28Sep2022 at 21:18:12 

     This program is part of the open-source Quantum ESPRESSO suite
     for quantum simulation of materials; please cite
         "P. Giannozzi et al., J. Phys.:Condens. Matter 21 395502 (2009);
         "P. Giannozzi et al., J. Phys.:Condens. Matter 29 465901 (2017);
          URL http://www.quantum-espresso.org", 
     in publications or presentations arising from this work. More details at
     http://www.quantum-espresso.org/quote

     Parallel version (MPI), running on    16 processors

     MPI processes distributed on     1 nodes
     R & G space division:  proc/nbgrp/npool/nimage =      16
     Reading input from scale_3d-01.in

     Current dimensions of program PWSCF are:
     Max number of different atomic species (ntypx) = 10
     Max number of k-points (npk) =  40000
     Max angular momentum in pseudopotentials (lmaxx) =  3
     Message from routine read_pp_mesh:
     mesh size missing, using the one in header

     Subspace diagonalization in iterative solution of the eigenvalue problem:
     a serial algorithm will be used


     Parallelization info
     --------------------
     sticks:   dense  smooth     PW     G-vecs:    dense   smooth      PW
     Min          41      30      9                  706      435      76
     Max          43      32     10                  708      436      79
     Sum         673     499    151                11311     6975    1243



     bravais-lattice index     =            0
     lattice parameter (alat)  =       4.6837  a.u.
     unit-cell volume          =      72.6551 (a.u.)^3
     number of atoms/cell      =            2
     number of atomic types    =            2
     number of electrons       =         8.00
     number of Kohn-Sham states=            8
     kinetic-energy cutoff     =      80.0000  Ry
     charge density cutoff     =     440.0000  Ry
     scf convergence threshold =      2.0E-10
     mixing beta               =       0.4000
     number of iterations used =            8  plain     mixing
     Exchange-correlation= PBE
                           (   1   4   3   4   0   0   0)

     celldm(1)=   4.683749  celldm(2)=   0.000000  celldm(3)=   0.000000
     celldm(4)=   0.000000  celldm(5)=   0.000000  celldm(6)=   0.000000

     crystal axes: (cart. coord. in units of alat)
               a(1) = (   1.000000   0.000000   0.000000 )  
               a(2) = (  -0.500000   0.866025   0.000000 )  
               a(3) = (  -0.500000   0.288675   0.816497 )  

     reciprocal axes: (cart. coord. in units 2 pi/alat)
               b(1) = (  1.000000  0.577350  0.408248 )  
               b(2) = (  0.000000  1.154701 -0.408248 )  
               b(3) = (  0.000000 -0.000000  1.224745 )  


     PseudoPot. # 1 for B  read from file:
     /opt/QEpot/SSSP_precision_pseudos/B_pbe_v1.01.uspp.F.UPF
     MD5 check sum: d081ebb89d0c768e112975f650467a00
     Pseudo is Ultrasoft + core correction, Zval =  3.0
     Generated by new atomic code, or converted to UPF format
     Using radial grid of  781 points,  4 beta functions with: 
                l(1) =   0
                l(2) =   0
                l(3) =   1
                l(4) =   1
     Q(r) pseudized with  8 coefficients,  rinner =    1.100   1.100   1.100


     PseudoPot. # 2 for N  read from file:
     /opt/QEpot/SSSP_precision_pseudos/N.oncvpsp.upf
     MD5 check sum: 563d65bfb082928f0c9eb97172f6c357
     Pseudo is Norm-conserving + core correction, Zval =  5.0
     Generated using ONCVPSP code by D. R. Hamann
     Using radial grid of 1058 points,  4 beta functions with: 
                l(1) =   0
                l(2) =   0
                l(3) =   1
                l(4) =   1

     atomic species   valence    mass     pseudopotential
        B              3.00    10.81000     B ( 1.00)
        N              5.00    14.00700     N ( 1.00)

     No symmetry found


                                    s                        frac. trans.

      isym =  1     identity                                     

 cryst.   s( 1) = (     1          0          0      )
                  (     0          1          0      )
                  (     0          0          1      )

 cart.    s( 1) = (  1.0000000  0.0000000  0.0000000 )
                  (  0.0000000  1.0000000  0.0000000 )
                  (  0.0000000  0.0000000  1.0000000 )


   Cartesian axes

     site n.     atom                  positions (alat units)
         1           B   tau(   1) = (   0.0004073   0.4011873   0.0030733  )
         2           N   tau(   2) = (   0.0969428   0.2863980   0.2071974  )

   Crystallographic axes

     site n.     atom                  positions (cryst. coord.)
         1           B   tau(   1) = (  0.2332875  0.4619966  0.0037640  )
         2           N   tau(   2) = (  0.3468828  0.2461160  0.2537640  )

     number of k points=   666  Marzari-Vanderbilt smearing, width (Ry)=  0.0220
                       cart. coord. in units 2pi/alat
        k(    1) = (   0.0000000   0.0000000   0.0000000), wk =   0.0015026
        k(    2) = (   0.0000000   0.0000000   0.1113404), wk =   0.0030053
        k(    3) = (   0.0000000   0.0000000   0.2226809), wk =   0.0030053
        k(    4) = (   0.0000000   0.0000000   0.3340213), wk =   0.0030053
        k(    5) = (   0.0000000   0.0000000   0.4453618), wk =   0.0030053
        k(    6) = (   0.0000000   0.0000000   0.5567022), wk =   0.0030053
        k(    7) = (   0.0000000   0.1049728  -0.0371135), wk =   0.0030053
        k(    8) = (   0.0000000   0.1049728   0.0742270), wk =   0.0030053
        k(    9) = (   0.0000000   0.1049728   0.1855674), wk =   0.0030053
        k(   10) = (   0.0000000   0.1049728   0.2969078), wk =   0.0030053
        k(   11) = (   0.0000000   0.1049728   0.4082483), wk =   0.0030053
        k(   12) = (   0.0000000   0.1049728   0.5195887), wk =   0.0030053
        k(   13) = (   0.0000000   0.1049728  -0.5938157), wk =   0.0030053
        k(   14) = (   0.0000000   0.1049728  -0.4824753), wk =   0.0030053
        k(   15) = (   0.0000000   0.1049728  -0.3711348), wk =   0.0030053
        k(   16) = (   0.0000000   0.1049728  -0.2597944), wk =   0.0030053
        k(   17) = (   0.0000000   0.1049728  -0.1484539), wk =   0.0030053
        k(   18) = (   0.0000000   0.2099456  -0.0742270), wk =   0.0030053
        k(   19) = (   0.0000000   0.2099456   0.0371135), wk =   0.0030053
        k(   20) = (   0.0000000   0.2099456   0.1484539), wk =   0.0030053
        k(   21) = (   0.0000000   0.2099456   0.2597944), wk =   0.0030053
        k(   22) = (   0.0000000   0.2099456   0.3711348), wk =   0.0030053
        k(   23) = (   0.0000000   0.2099456   0.4824753), wk =   0.0030053
        k(   24) = (   0.0000000   0.2099456  -0.6309292), wk =   0.0030053
        k(   25) = (   0.0000000   0.2099456  -0.5195887), wk =   0.0030053
        k(   26) = (   0.0000000   0.2099456  -0.4082483), wk =   0.0030053
        k(   27) = (   0.0000000   0.2099456  -0.2969078), wk =   0.0030053
        k(   28) = (   0.0000000   0.2099456  -0.1855674), wk =   0.0030053
        k(   29) = (   0.0000000   0.3149183  -0.1113404), wk =   0.0030053
        k(   30) = (   0.0000000   0.3149183  -0.0000000), wk =   0.0030053
        k(   31) = (   0.0000000   0.3149183   0.1113404), wk =   0.0030053
        k(   32) = (   0.0000000   0.3149183   0.2226809), wk =   0.0030053
        k(   33) = (   0.0000000   0.3149183   0.3340213), wk =   0.0030053
        k(   34) = (   0.0000000   0.3149183   0.4453618), wk =   0.0030053
        k(   35) = (   0.0000000   0.3149183  -0.6680427), wk =   0.0030053
        k(   36) = (   0.0000000   0.3149183  -0.5567022), wk =   0.0030053
        k(   37) = (   0.0000000   0.3149183  -0.4453618), wk =   0.0030053
        k(   38) = (   0.0000000   0.3149183  -0.3340213), wk =   0.0030053
        k(   39) = (   0.0000000   0.3149183  -0.2226809), wk =   0.0030053
        k(   40) = (   0.0000000   0.4198911  -0.1484539), wk =   0.0030053
        k(   41) = (   0.0000000   0.4198911  -0.0371135), wk =   0.0030053
        k(   42) = (   0.0000000   0.4198911   0.0742270), wk =   0.0030053
        k(   43) = (   0.0000000   0.4198911   0.1855674), wk =   0.0030053
        k(   44) = (   0.0000000   0.4198911   0.2969078), wk =   0.0030053
        k(   45) = (   0.0000000   0.4198911   0.4082483), wk =   0.0030053
        k(   46) = (   0.0000000   0.4198911  -0.7051561), wk =   0.0030053
        k(   47) = (   0.0000000   0.4198911  -0.5938157), wk =   0.0030053
        k(   48) = (   0.0000000   0.4198911  -0.4824753), wk =   0.0030053
        k(   49) = (   0.0000000   0.4198911  -0.3711348), wk =   0.0030053
        k(   50) = (   0.0000000   0.4198911  -0.2597944), wk =   0.0030053
        k(   51) = (   0.0000000   0.5248639  -0.1855674), wk =   0.0030053
        k(   52) = (   0.0000000   0.5248639  -0.0742270), wk =   0.0030053
        k(   53) = (   0.0000000   0.5248639   0.0371135), wk =   0.0030053
        k(   54) = (   0.0000000   0.5248639   0.1484539), wk =   0.0030053
        k(   55) = (   0.0000000   0.5248639   0.2597944), wk =   0.0030053
        k(   56) = (   0.0000000   0.5248639   0.3711348), wk =   0.0030053
        k(   57) = (   0.0000000   0.5248639  -0.7422696), wk =   0.0030053
        k(   58) = (   0.0000000   0.5248639  -0.6309292), wk =   0.0030053
        k(   59) = (   0.0000000   0.5248639  -0.5195887), wk =   0.0030053
        k(   60) = (   0.0000000   0.5248639  -0.4082483), wk =   0.0030053
        k(   61) = (   0.0000000   0.5248639  -0.2969078), wk =   0.0030053
        k(   62) = (   0.0909091   0.1574592  -0.0000000), wk =   0.0030053
        k(   63) = (   0.0909091   0.1574592   0.1113404), wk =   0.0030053
        k(   64) = (   0.0909091   0.1574592   0.2226809), wk =   0.0030053
        k(   65) = (   0.0909091   0.1574592   0.3340213), wk =   0.0030053
        k(   66) = (   0.0909091   0.1574592   0.4453618), wk =   0.0030053
        k(   67) = (   0.0909091   0.1574592   0.5567022), wk =   0.0030053
        k(   68) = (   0.0909091   0.2624319  -0.0371135), wk =   0.0030053
        k(   69) = (   0.0909091   0.2624319   0.0742270), wk =   0.0030053
        k(   70) = (   0.0909091   0.2624319   0.1855674), wk =   0.0030053
        k(   71) = (   0.0909091   0.2624319   0.2969078), wk =   0.0030053
        k(   72) = (   0.0909091   0.2624319   0.4082483), wk =   0.0030053
        k(   73) = (   0.0909091   0.2624319   0.5195887), wk =   0.0030053
        k(   74) = (   0.0909091   0.2624319  -0.5938157), wk =   0.0030053
        k(   75) = (   0.0909091   0.2624319  -0.4824753), wk =   0.0030053
        k(   76) = (   0.0909091   0.2624319  -0.3711348), wk =   0.0030053
        k(   77) = (   0.0909091   0.2624319  -0.2597944), wk =   0.0030053
        k(   78) = (   0.0909091   0.2624319  -0.1484539), wk =   0.0030053
        k(   79) = (   0.0909091   0.3674047  -0.0742270), wk =   0.0030053
        k(   80) = (   0.0909091   0.3674047   0.0371135), wk =   0.0030053
        k(   81) = (   0.0909091   0.3674047   0.1484539), wk =   0.0030053
        k(   82) = (   0.0909091   0.3674047   0.2597944), wk =   0.0030053
        k(   83) = (   0.0909091   0.3674047   0.3711348), wk =   0.0030053
        k(   84) = (   0.0909091   0.3674047   0.4824753), wk =   0.0030053
        k(   85) = (   0.0909091   0.3674047  -0.6309292), wk =   0.0030053
        k(   86) = (   0.0909091   0.3674047  -0.5195887), wk =   0.0030053
        k(   87) = (   0.0909091   0.3674047  -0.4082483), wk =   0.0030053
        k(   88) = (   0.0909091   0.3674047  -0.2969078), wk =   0.0030053
        k(   89) = (   0.0909091   0.3674047  -0.1855674), wk =   0.0030053
        k(   90) = (   0.0909091   0.4723775  -0.1113404), wk =   0.0030053
        k(   91) = (   0.0909091   0.4723775  -0.0000000), wk =   0.0030053
        k(   92) = (   0.0909091   0.4723775   0.1113404), wk =   0.0030053
        k(   93) = (   0.0909091   0.4723775   0.2226809), wk =   0.0030053
        k(   94) = (   0.0909091   0.4723775   0.3340213), wk =   0.0030053
        k(   95) = (   0.0909091   0.4723775   0.4453618), wk =   0.0030053
        k(   96) = (   0.0909091   0.4723775  -0.6680427), wk =   0.0030053
        k(   97) = (   0.0909091   0.4723775  -0.5567022), wk =   0.0030053
        k(   98) = (   0.0909091   0.4723775  -0.4453618), wk =   0.0030053
        k(   99) = (   0.0909091   0.4723775  -0.3340213), wk =   0.0030053
        k(  100) = (   0.0909091   0.4723775  -0.2226809), wk =   0.0030053
        k(  101) = (   0.0909091   0.5773503  -0.1484539), wk =   0.0030053
        k(  102) = (   0.0909091   0.5773503  -0.0371135), wk =   0.0030053
        k(  103) = (   0.0909091   0.5773503   0.0742270), wk =   0.0030053
        k(  104) = (   0.0909091   0.5773503   0.1855674), wk =   0.0030053
        k(  105) = (   0.0909091   0.5773503   0.2969078), wk =   0.0030053
        k(  106) = (   0.0909091   0.5773503   0.4082483), wk =   0.0030053
        k(  107) = (   0.1818182   0.3149183  -0.0000000), wk =   0.0030053
        k(  108) = (   0.1818182   0.3149183   0.1113404), wk =   0.0030053
        k(  109) = (   0.1818182   0.3149183   0.2226809), wk =   0.0030053
        k(  110) = (   0.1818182   0.3149183   0.3340213), wk =   0.0030053
        k(  111) = (   0.1818182   0.3149183   0.4453618), wk =   0.0030053
        k(  112) = (   0.1818182   0.3149183   0.5567022), wk =   0.0030053
        k(  113) = (   0.1818182   0.4198911  -0.0371135), wk =   0.0030053
        k(  114) = (   0.1818182   0.4198911   0.0742270), wk =   0.0030053
        k(  115) = (   0.1818182   0.4198911   0.1855674), wk =   0.0030053
        k(  116) = (   0.1818182   0.4198911   0.2969078), wk =   0.0030053
        k(  117) = (   0.1818182   0.4198911   0.4082483), wk =   0.0030053
        k(  118) = (   0.1818182   0.4198911   0.5195887), wk =   0.0030053
        k(  119) = (   0.1818182   0.4198911  -0.5938157), wk =   0.0030053
        k(  120) = (   0.1818182   0.4198911  -0.4824753), wk =   0.0030053
        k(  121) = (   0.1818182   0.4198911  -0.3711348), wk =   0.0030053
        k(  122) = (   0.1818182   0.4198911  -0.2597944), wk =   0.0030053
        k(  123) = (   0.1818182   0.4198911  -0.1484539), wk =   0.0030053
        k(  124) = (   0.1818182   0.5248639  -0.0742270), wk =   0.0030053
        k(  125) = (   0.1818182   0.5248639   0.0371135), wk =   0.0030053
        k(  126) = (   0.1818182   0.5248639   0.1484539), wk =   0.0030053
        k(  127) = (   0.1818182   0.5248639   0.2597944), wk =   0.0030053
        k(  128) = (   0.1818182   0.5248639   0.3711348), wk =   0.0030053
        k(  129) = (   0.1818182   0.5248639   0.4824753), wk =   0.0030053
        k(  130) = (   0.1818182   0.5248639  -0.6309292), wk =   0.0030053
        k(  131) = (   0.1818182   0.5248639  -0.5195887), wk =   0.0030053
        k(  132) = (   0.1818182   0.5248639  -0.4082483), wk =   0.0030053
        k(  133) = (   0.1818182   0.5248639  -0.2969078), wk =   0.0030053
        k(  134) = (   0.1818182   0.5248639  -0.1855674), wk =   0.0030053
        k(  135) = (   0.2727273   0.4723775  -0.0000000), wk =   0.0030053
        k(  136) = (   0.2727273   0.4723775   0.1113404), wk =   0.0030053
        k(  137) = (   0.2727273   0.4723775   0.2226809), wk =   0.0030053
        k(  138) = (   0.2727273   0.4723775   0.3340213), wk =   0.0030053
        k(  139) = (   0.2727273   0.4723775   0.4453618), wk =   0.0030053
        k(  140) = (   0.2727273   0.4723775   0.5567022), wk =   0.0030053
        k(  141) = (   0.2727273   0.5773503  -0.0371135), wk =   0.0030053
        k(  142) = (   0.2727273   0.5773503   0.0742270), wk =   0.0030053
        k(  143) = (   0.2727273   0.5773503   0.1855674), wk =   0.0030053
        k(  144) = (   0.2727273   0.5773503   0.2969078), wk =   0.0030053
        k(  145) = (   0.2727273   0.5773503   0.4082483), wk =   0.0030053
        k(  146) = (   0.2727273   0.5773503  -0.2597944), wk =   0.0030053
        k(  147) = (  -0.0909091  -0.0524864  -0.0371135), wk =   0.0030053
        k(  148) = (   0.0909091  -0.0524864  -0.0371135), wk =   0.0030053
        k(  149) = (  -0.0909091  -0.0524864   0.0742270), wk =   0.0030053
        k(  150) = (   0.0909091  -0.0524864   0.0742270), wk =   0.0030053
        k(  151) = (  -0.0909091  -0.0524864   0.1855674), wk =   0.0030053
        k(  152) = (   0.0909091  -0.0524864   0.1855674), wk =   0.0030053
        k(  153) = (  -0.0909091  -0.0524864   0.2969078), wk =   0.0030053
        k(  154) = (   0.0909091  -0.0524864   0.2969078), wk =   0.0030053
        k(  155) = (  -0.0909091  -0.0524864   0.4082483), wk =   0.0030053
        k(  156) = (   0.0909091  -0.0524864   0.4082483), wk =   0.0030053
        k(  157) = (  -0.0909091  -0.0524864   0.5195887), wk =   0.0030053
        k(  158) = (   0.0909091  -0.0524864   0.5195887), wk =   0.0030053
        k(  159) = (  -0.0909091  -0.0524864  -0.5938157), wk =   0.0030053
        k(  160) = (   0.0909091  -0.0524864  -0.5938157), wk =   0.0030053
        k(  161) = (  -0.0909091  -0.0524864  -0.4824753), wk =   0.0030053
        k(  162) = (   0.0909091  -0.0524864  -0.4824753), wk =   0.0030053
        k(  163) = (  -0.0909091  -0.0524864  -0.3711348), wk =   0.0030053
        k(  164) = (   0.0909091  -0.0524864  -0.3711348), wk =   0.0030053
        k(  165) = (  -0.0909091  -0.0524864  -0.2597944), wk =   0.0030053
        k(  166) = (   0.0909091  -0.0524864  -0.2597944), wk =   0.0030053
        k(  167) = (  -0.0909091  -0.0524864  -0.1484539), wk =   0.0030053
        k(  168) = (   0.0909091  -0.0524864  -0.1484539), wk =   0.0030053
        k(  169) = (  -0.1818182  -0.1049728  -0.0742270), wk =   0.0030053
        k(  170) = (   0.1818182  -0.1049728  -0.0742270), wk =   0.0030053
        k(  171) = (  -0.1818182  -0.1049728   0.0371135), wk =   0.0030053
        k(  172) = (   0.1818182  -0.1049728   0.0371135), wk =   0.0030053
        k(  173) = (  -0.1818182  -0.1049728   0.1484539), wk =   0.0030053
        k(  174) = (   0.1818182  -0.1049728   0.1484539), wk =   0.0030053
        k(  175) = (  -0.1818182  -0.1049728   0.2597944), wk =   0.0030053
        k(  176) = (   0.1818182  -0.1049728   0.2597944), wk =   0.0030053
        k(  177) = (  -0.1818182  -0.1049728   0.3711348), wk =   0.0030053
        k(  178) = (   0.1818182  -0.1049728   0.3711348), wk =   0.0030053
        k(  179) = (  -0.1818182  -0.1049728   0.4824753), wk =   0.0030053
        k(  180) = (   0.1818182  -0.1049728   0.4824753), wk =   0.0030053
        k(  181) = (  -0.1818182  -0.1049728  -0.6309292), wk =   0.0030053
        k(  182) = (   0.1818182  -0.1049728  -0.6309292), wk =   0.0030053
        k(  183) = (  -0.1818182  -0.1049728  -0.5195887), wk =   0.0030053
        k(  184) = (   0.1818182  -0.1049728  -0.5195887), wk =   0.0030053
        k(  185) = (  -0.1818182  -0.1049728  -0.4082483), wk =   0.0030053
        k(  186) = (   0.1818182  -0.1049728  -0.4082483), wk =   0.0030053
        k(  187) = (  -0.1818182  -0.1049728  -0.2969078), wk =   0.0030053
        k(  188) = (   0.1818182  -0.1049728  -0.2969078), wk =   0.0030053
        k(  189) = (  -0.1818182  -0.1049728  -0.1855674), wk =   0.0030053
        k(  190) = (   0.1818182  -0.1049728  -0.1855674), wk =   0.0030053
        k(  191) = (  -0.2727273  -0.1574592  -0.1113404), wk =   0.0030053
        k(  192) = (   0.2727273  -0.1574592  -0.1113404), wk =   0.0030053
        k(  193) = (  -0.2727273  -0.1574592  -0.0000000), wk =   0.0030053
        k(  194) = (   0.2727273  -0.1574592   0.0000000), wk =   0.0030053
        k(  195) = (  -0.2727273  -0.1574592   0.1113404), wk =   0.0030053
        k(  196) = (   0.2727273  -0.1574592   0.1113404), wk =   0.0030053
        k(  197) = (  -0.2727273  -0.1574592   0.2226809), wk =   0.0030053
        k(  198) = (   0.2727273  -0.1574592   0.2226809), wk =   0.0030053
        k(  199) = (  -0.2727273  -0.1574592   0.3340213), wk =   0.0030053
        k(  200) = (   0.2727273  -0.1574592   0.3340213), wk =   0.0030053
        k(  201) = (  -0.2727273  -0.1574592   0.4453618), wk =   0.0030053
        k(  202) = (   0.2727273  -0.1574592   0.4453618), wk =   0.0030053
        k(  203) = (  -0.2727273  -0.1574592  -0.6680427), wk =   0.0030053
        k(  204) = (   0.2727273  -0.1574592  -0.6680427), wk =   0.0030053
        k(  205) = (  -0.2727273  -0.1574592  -0.5567022), wk =   0.0030053
        k(  206) = (   0.2727273  -0.1574592  -0.5567022), wk =   0.0030053
        k(  207) = (  -0.2727273  -0.1574592  -0.4453618), wk =   0.0030053
        k(  208) = (   0.2727273  -0.1574592  -0.4453618), wk =   0.0030053
        k(  209) = (  -0.2727273  -0.1574592  -0.3340213), wk =   0.0030053
        k(  210) = (   0.2727273  -0.1574592  -0.3340213), wk =   0.0030053
        k(  211) = (  -0.2727273  -0.1574592  -0.2226809), wk =   0.0030053
        k(  212) = (   0.2727273  -0.1574592  -0.2226809), wk =   0.0030053
        k(  213) = (  -0.3636364  -0.2099456  -0.1484539), wk =   0.0030053
        k(  214) = (   0.3636364  -0.2099456  -0.1484539), wk =   0.0030053
        k(  215) = (  -0.3636364  -0.2099456  -0.0371135), wk =   0.0030053
        k(  216) = (   0.3636364  -0.2099456  -0.0371135), wk =   0.0030053
        k(  217) = (  -0.3636364  -0.2099456   0.0742270), wk =   0.0030053
        k(  218) = (   0.3636364  -0.2099456   0.0742270), wk =   0.0030053
        k(  219) = (  -0.3636364  -0.2099456   0.1855674), wk =   0.0030053
        k(  220) = (   0.3636364  -0.2099456   0.1855674), wk =   0.0030053
        k(  221) = (  -0.3636364  -0.2099456   0.2969078), wk =   0.0030053
        k(  222) = (   0.3636364  -0.2099456   0.2969078), wk =   0.0030053
        k(  223) = (  -0.3636364  -0.2099456   0.4082483), wk =   0.0030053
        k(  224) = (   0.3636364  -0.2099456   0.4082483), wk =   0.0030053
        k(  225) = (  -0.3636364  -0.2099456  -0.7051561), wk =   0.0030053
        k(  226) = (   0.3636364  -0.2099456  -0.7051561), wk =   0.0030053
        k(  227) = (  -0.3636364  -0.2099456  -0.5938157), wk =   0.0030053
        k(  228) = (   0.3636364  -0.2099456  -0.5938157), wk =   0.0030053
        k(  229) = (  -0.3636364  -0.2099456  -0.4824753), wk =   0.0030053
        k(  230) = (   0.3636364  -0.2099456  -0.4824753), wk =   0.0030053
        k(  231) = (  -0.3636364  -0.2099456  -0.3711348), wk =   0.0030053
        k(  232) = (   0.3636364  -0.2099456  -0.3711348), wk =   0.0030053
        k(  233) = (  -0.3636364  -0.2099456  -0.2597944), wk =   0.0030053
        k(  234) = (   0.3636364  -0.2099456  -0.2597944), wk =   0.0030053
        k(  235) = (  -0.4545455  -0.2624319  -0.1855674), wk =   0.0030053
        k(  236) = (   0.4545455  -0.2624319  -0.1855674), wk =   0.0030053
        k(  237) = (  -0.4545455  -0.2624319  -0.0742270), wk =   0.0030053
        k(  238) = (   0.4545455  -0.2624319  -0.0742270), wk =   0.0030053
        k(  239) = (  -0.4545455  -0.2624319   0.0371135), wk =   0.0030053
        k(  240) = (   0.4545455  -0.2624319   0.0371135), wk =   0.0030053
        k(  241) = (  -0.4545455  -0.2624319   0.1484539), wk =   0.0030053
        k(  242) = (   0.4545455  -0.2624319   0.1484539), wk =   0.0030053
        k(  243) = (  -0.4545455  -0.2624319   0.2597944), wk =   0.0030053
        k(  244) = (   0.4545455  -0.2624319   0.2597944), wk =   0.0030053
        k(  245) = (  -0.4545455  -0.2624319   0.3711348), wk =   0.0030053
        k(  246) = (   0.4545455  -0.2624319   0.3711348), wk =   0.0030053
        k(  247) = (  -0.4545455  -0.2624319  -0.7422696), wk =   0.0030053
        k(  248) = (   0.4545455  -0.2624319  -0.7422696), wk =   0.0030053
        k(  249) = (  -0.4545455  -0.2624319  -0.6309292), wk =   0.0030053
        k(  250) = (   0.4545455  -0.2624319  -0.6309292), wk =   0.0030053
        k(  251) = (  -0.4545455  -0.2624319  -0.5195887), wk =   0.0030053
        k(  252) = (   0.4545455  -0.2624319  -0.5195887), wk =   0.0030053
        k(  253) = (  -0.4545455  -0.2624319  -0.4082483), wk =   0.0030053
        k(  254) = (   0.4545455  -0.2624319  -0.4082483), wk =   0.0030053
        k(  255) = (  -0.4545455  -0.2624319  -0.2969078), wk =   0.0030053
        k(  256) = (   0.4545455  -0.2624319  -0.2969078), wk =   0.0030053
        k(  257) = (   0.0909091  -0.1574592   0.0000000), wk =   0.0030053
        k(  258) = (  -0.1818182  -0.0000000  -0.0000000), wk =   0.0030053
        k(  259) = (   0.0909091  -0.1574592  -0.1113404), wk =   0.0030053
        k(  260) = (  -0.1818182  -0.0000000   0.1113404), wk =   0.0030053
        k(  261) = (   0.0909091  -0.1574592   0.1113404), wk =   0.0030053
        k(  262) = (  -0.1818182  -0.0000000  -0.1113404), wk =   0.0030053
        k(  263) = (   0.0909091   0.1574592  -0.1113404), wk =   0.0030053
        k(  264) = (   0.0909091  -0.1574592  -0.2226809), wk =   0.0030053
        k(  265) = (  -0.1818182  -0.0000000   0.2226809), wk =   0.0030053
        k(  266) = (   0.0909091  -0.1574592   0.2226809), wk =   0.0030053
        k(  267) = (  -0.1818182  -0.0000000  -0.2226809), wk =   0.0030053
        k(  268) = (   0.0909091   0.1574592  -0.2226809), wk =   0.0030053
        k(  269) = (   0.0909091  -0.1574592  -0.3340213), wk =   0.0030053
        k(  270) = (  -0.1818182  -0.0000000   0.3340213), wk =   0.0030053
        k(  271) = (   0.0909091  -0.1574592   0.3340213), wk =   0.0030053
        k(  272) = (  -0.1818182  -0.0000000  -0.3340213), wk =   0.0030053
        k(  273) = (   0.0909091   0.1574592  -0.3340213), wk =   0.0030053
        k(  274) = (   0.0909091  -0.1574592  -0.4453618), wk =   0.0030053
        k(  275) = (  -0.1818182  -0.0000000   0.4453618), wk =   0.0030053
        k(  276) = (   0.0909091  -0.1574592   0.4453618), wk =   0.0030053
        k(  277) = (  -0.1818182  -0.0000000  -0.4453618), wk =   0.0030053
        k(  278) = (   0.0909091   0.1574592  -0.4453618), wk =   0.0030053
        k(  279) = (   0.0909091  -0.1574592  -0.5567022), wk =   0.0030053
        k(  280) = (  -0.1818182  -0.0000000   0.5567022), wk =   0.0030053
        k(  281) = (   0.0909091  -0.1574592   0.5567022), wk =   0.0030053
        k(  282) = (  -0.1818182  -0.0000000  -0.5567022), wk =   0.0030053
        k(  283) = (   0.0909091   0.1574592  -0.5567022), wk =   0.0030053
        k(  284) = (   0.0909091  -0.2624319   0.0371135), wk =   0.0030053
        k(  285) = (  -0.2727273  -0.0524864  -0.0371135), wk =   0.0030053
        k(  286) = (   0.1818182  -0.2099456  -0.0371135), wk =   0.0030053
        k(  287) = (  -0.2727273   0.0524864   0.0371135), wk =   0.0030053
        k(  288) = (   0.1818182   0.2099456   0.0371135), wk =   0.0030053
        k(  289) = (   0.0909091  -0.2624319  -0.0742270), wk =   0.0030053
        k(  290) = (  -0.2727273  -0.0524864   0.0742270), wk =   0.0030053
        k(  291) = (   0.1818182  -0.2099456   0.0742270), wk =   0.0030053
        k(  292) = (  -0.2727273   0.0524864  -0.0742270), wk =   0.0030053
        k(  293) = (   0.1818182   0.2099456  -0.0742270), wk =   0.0030053
        k(  294) = (   0.0909091  -0.2624319  -0.1855674), wk =   0.0030053
        k(  295) = (  -0.2727273  -0.0524864   0.1855674), wk =   0.0030053
        k(  296) = (   0.1818182  -0.2099456   0.1855674), wk =   0.0030053
        k(  297) = (  -0.2727273   0.0524864  -0.1855674), wk =   0.0030053
        k(  298) = (   0.1818182   0.2099456  -0.1855674), wk =   0.0030053
        k(  299) = (   0.0909091  -0.2624319  -0.2969078), wk =   0.0030053
        k(  300) = (  -0.2727273  -0.0524864   0.2969078), wk =   0.0030053
        k(  301) = (   0.1818182  -0.2099456   0.2969078), wk =   0.0030053
        k(  302) = (  -0.2727273   0.0524864  -0.2969078), wk =   0.0030053
        k(  303) = (   0.1818182   0.2099456  -0.2969078), wk =   0.0030053
        k(  304) = (   0.0909091  -0.2624319  -0.4082483), wk =   0.0030053
        k(  305) = (  -0.2727273  -0.0524864   0.4082483), wk =   0.0030053
        k(  306) = (   0.1818182  -0.2099456   0.4082483), wk =   0.0030053
        k(  307) = (  -0.2727273   0.0524864  -0.4082483), wk =   0.0030053
        k(  308) = (   0.1818182   0.2099456  -0.4082483), wk =   0.0030053
        k(  309) = (   0.0909091  -0.2624319  -0.5195887), wk =   0.0030053
        k(  310) = (  -0.2727273  -0.0524864   0.5195887), wk =   0.0030053
        k(  311) = (   0.1818182  -0.2099456   0.5195887), wk =   0.0030053
        k(  312) = (  -0.2727273   0.0524864  -0.5195887), wk =   0.0030053
        k(  313) = (   0.1818182   0.2099456  -0.5195887), wk =   0.0030053
        k(  314) = (   0.0909091  -0.2624319   0.5938157), wk =   0.0030053
        k(  315) = (  -0.2727273  -0.0524864  -0.5938157), wk =   0.0030053
        k(  316) = (   0.1818182  -0.2099456  -0.5938157), wk =   0.0030053
        k(  317) = (  -0.2727273   0.0524864   0.5938157), wk =   0.0030053
        k(  318) = (   0.1818182   0.2099456   0.5938157), wk =   0.0030053
        k(  319) = (   0.0909091  -0.2624319   0.4824753), wk =   0.0030053
        k(  320) = (  -0.2727273  -0.0524864  -0.4824753), wk =   0.0030053
        k(  321) = (   0.1818182  -0.2099456  -0.4824753), wk =   0.0030053
        k(  322) = (  -0.2727273   0.0524864   0.4824753), wk =   0.0030053
        k(  323) = (   0.1818182   0.2099456   0.4824753), wk =   0.0030053
        k(  324) = (   0.0909091  -0.2624319   0.3711348), wk =   0.0030053
        k(  325) = (  -0.2727273  -0.0524864  -0.3711348), wk =   0.0030053
        k(  326) = (   0.1818182  -0.2099456  -0.3711348), wk =   0.0030053
        k(  327) = (  -0.2727273   0.0524864   0.3711348), wk =   0.0030053
        k(  328) = (   0.1818182   0.2099456   0.3711348), wk =   0.0030053
        k(  329) = (   0.0909091  -0.2624319   0.2597944), wk =   0.0030053
        k(  330) = (  -0.2727273  -0.0524864  -0.2597944), wk =   0.0030053
        k(  331) = (   0.1818182  -0.2099456  -0.2597944), wk =   0.0030053
        k(  332) = (  -0.2727273   0.0524864   0.2597944), wk =   0.0030053
        k(  333) = (   0.1818182   0.2099456   0.2597944), wk =   0.0030053
        k(  334) = (   0.0909091  -0.2624319   0.1484539), wk =   0.0030053
        k(  335) = (  -0.2727273  -0.0524864  -0.1484539), wk =   0.0030053
        k(  336) = (   0.1818182  -0.2099456  -0.1484539), wk =   0.0030053
        k(  337) = (  -0.2727273   0.0524864   0.1484539), wk =   0.0030053
        k(  338) = (   0.1818182   0.2099456   0.1484539), wk =   0.0030053
        k(  339) = (   0.0909091  -0.3674047   0.0742270), wk =   0.0030053
        k(  340) = (  -0.3636364  -0.1049728  -0.0742270), wk =   0.0030053
        k(  341) = (   0.2727273  -0.2624319  -0.0742270), wk =   0.0030053
        k(  342) = (  -0.3636364   0.1049728   0.0742270), wk =   0.0030053
        k(  343) = (   0.2727273   0.2624319   0.0742270), wk =   0.0030053
        k(  344) = (   0.0909091  -0.3674047  -0.0371135), wk =   0.0030053
        k(  345) = (  -0.3636364  -0.1049728   0.0371135), wk =   0.0030053
        k(  346) = (   0.2727273  -0.2624319   0.0371135), wk =   0.0030053
        k(  347) = (  -0.3636364   0.1049728  -0.0371135), wk =   0.0030053
        k(  348) = (   0.2727273   0.2624319  -0.0371135), wk =   0.0030053
        k(  349) = (   0.0909091  -0.3674047  -0.1484539), wk =   0.0030053
        k(  350) = (  -0.3636364  -0.1049728   0.1484539), wk =   0.0030053
        k(  351) = (   0.2727273  -0.2624319   0.1484539), wk =   0.0030053
        k(  352) = (  -0.3636364   0.1049728  -0.1484539), wk =   0.0030053
        k(  353) = (   0.2727273   0.2624319  -0.1484539), wk =   0.0030053
        k(  354) = (   0.0909091  -0.3674047  -0.2597944), wk =   0.0030053
        k(  355) = (  -0.3636364  -0.1049728   0.2597944), wk =   0.0030053
        k(  356) = (   0.2727273  -0.2624319   0.2597944), wk =   0.0030053
        k(  357) = (  -0.3636364   0.1049728  -0.2597944), wk =   0.0030053
        k(  358) = (   0.2727273   0.2624319  -0.2597944), wk =   0.0030053
        k(  359) = (   0.0909091  -0.3674047  -0.3711348), wk =   0.0030053
        k(  360) = (  -0.3636364  -0.1049728   0.3711348), wk =   0.0030053
        k(  361) = (   0.2727273  -0.2624319   0.3711348), wk =   0.0030053
        k(  362) = (  -0.3636364   0.1049728  -0.3711348), wk =   0.0030053
        k(  363) = (   0.2727273   0.2624319  -0.3711348), wk =   0.0030053
        k(  364) = (   0.0909091  -0.3674047  -0.4824753), wk =   0.0030053
        k(  365) = (  -0.3636364  -0.1049728   0.4824753), wk =   0.0030053
        k(  366) = (   0.2727273  -0.2624319   0.4824753), wk =   0.0030053
        k(  367) = (  -0.3636364   0.1049728  -0.4824753), wk =   0.0030053
        k(  368) = (   0.2727273   0.2624319  -0.4824753), wk =   0.0030053
        k(  369) = (   0.0909091  -0.3674047   0.6309292), wk =   0.0030053
        k(  370) = (  -0.3636364  -0.1049728  -0.6309292), wk =   0.0030053
        k(  371) = (   0.2727273  -0.2624319  -0.6309292), wk =   0.0030053
        k(  372) = (  -0.3636364   0.1049728   0.6309292), wk =   0.0030053
        k(  373) = (   0.2727273   0.2624319   0.6309292), wk =   0.0030053
        k(  374) = (   0.0909091  -0.3674047   0.5195887), wk =   0.0030053
        k(  375) = (  -0.3636364  -0.1049728  -0.5195887), wk =   0.0030053
        k(  376) = (   0.2727273  -0.2624319  -0.5195887), wk =   0.0030053
        k(  377) = (  -0.3636364   0.1049728   0.5195887), wk =   0.0030053
        k(  378) = (   0.2727273   0.2624319   0.5195887), wk =   0.0030053
        k(  379) = (   0.0909091  -0.3674047   0.4082483), wk =   0.0030053
        k(  380) = (  -0.3636364  -0.1049728  -0.4082483), wk =   0.0030053
        k(  381) = (   0.2727273  -0.2624319  -0.4082483), wk =   0.0030053
        k(  382) = (  -0.3636364   0.1049728   0.4082483), wk =   0.0030053
        k(  383) = (   0.2727273   0.2624319   0.4082483), wk =   0.0030053
        k(  384) = (   0.0909091  -0.3674047   0.2969078), wk =   0.0030053
        k(  385) = (  -0.3636364  -0.1049728  -0.2969078), wk =   0.0030053
        k(  386) = (   0.2727273  -0.2624319  -0.2969078), wk =   0.0030053
        k(  387) = (  -0.3636364   0.1049728   0.2969078), wk =   0.0030053
        k(  388) = (   0.2727273   0.2624319   0.2969078), wk =   0.0030053
        k(  389) = (   0.0909091  -0.3674047   0.1855674), wk =   0.0030053
        k(  390) = (  -0.3636364  -0.1049728  -0.1855674), wk =   0.0030053
        k(  391) = (   0.2727273  -0.2624319  -0.1855674), wk =   0.0030053
        k(  392) = (  -0.3636364   0.1049728   0.1855674), wk =   0.0030053
        k(  393) = (   0.2727273   0.2624319   0.1855674), wk =   0.0030053
        k(  394) = (   0.0909091  -0.4723775   0.1113404), wk =   0.0030053
        k(  395) = (  -0.4545455  -0.1574592  -0.1113404), wk =   0.0030053
        k(  396) = (   0.3636364  -0.3149183  -0.1113404), wk =   0.0030053
        k(  397) = (  -0.4545455   0.1574592   0.1113404), wk =   0.0030053
        k(  398) = (   0.3636364   0.3149183   0.1113404), wk =   0.0030053
        k(  399) = (   0.0909091  -0.4723775   0.0000000), wk =   0.0030053
        k(  400) = (  -0.4545455  -0.1574592  -0.0000000), wk =   0.0030053
        k(  401) = (   0.3636364  -0.3149183   0.0000000), wk =   0.0030053
        k(  402) = (  -0.4545455   0.1574592  -0.0000000), wk =   0.0030053
        k(  403) = (   0.3636364   0.3149183   0.0000000), wk =   0.0030053
        k(  404) = (   0.0909091  -0.4723775  -0.1113404), wk =   0.0030053
        k(  405) = (  -0.4545455  -0.1574592   0.1113404), wk =   0.0030053
        k(  406) = (   0.3636364  -0.3149183   0.1113404), wk =   0.0030053
        k(  407) = (  -0.4545455   0.1574592  -0.1113404), wk =   0.0030053
        k(  408) = (   0.3636364   0.3149183  -0.1113404), wk =   0.0030053
        k(  409) = (   0.0909091  -0.4723775  -0.2226809), wk =   0.0030053
        k(  410) = (  -0.4545455  -0.1574592   0.2226809), wk =   0.0030053
        k(  411) = (   0.3636364  -0.3149183   0.2226809), wk =   0.0030053
        k(  412) = (  -0.4545455   0.1574592  -0.2226809), wk =   0.0030053
        k(  413) = (   0.3636364   0.3149183  -0.2226809), wk =   0.0030053
        k(  414) = (   0.0909091  -0.4723775  -0.3340213), wk =   0.0030053
        k(  415) = (  -0.4545455  -0.1574592   0.3340213), wk =   0.0030053
        k(  416) = (   0.3636364  -0.3149183   0.3340213), wk =   0.0030053
        k(  417) = (  -0.4545455   0.1574592  -0.3340213), wk =   0.0030053
        k(  418) = (   0.3636364   0.3149183  -0.3340213), wk =   0.0030053
        k(  419) = (   0.0909091  -0.4723775  -0.4453618), wk =   0.0030053
        k(  420) = (  -0.4545455  -0.1574592   0.4453618), wk =   0.0030053
        k(  421) = (   0.3636364  -0.3149183   0.4453618), wk =   0.0030053
        k(  422) = (  -0.4545455   0.1574592  -0.4453618), wk =   0.0030053
        k(  423) = (   0.3636364   0.3149183  -0.4453618), wk =   0.0030053
        k(  424) = (   0.0909091  -0.4723775   0.6680427), wk =   0.0030053
        k(  425) = (  -0.4545455  -0.1574592  -0.6680427), wk =   0.0030053
        k(  426) = (   0.3636364  -0.3149183  -0.6680427), wk =   0.0030053
        k(  427) = (  -0.4545455   0.1574592   0.6680427), wk =   0.0030053
        k(  428) = (   0.3636364   0.3149183   0.6680427), wk =   0.0030053
        k(  429) = (   0.0909091  -0.4723775   0.5567022), wk =   0.0030053
        k(  430) = (  -0.4545455  -0.1574592  -0.5567022), wk =   0.0030053
        k(  431) = (   0.3636364  -0.3149183  -0.5567022), wk =   0.0030053
        k(  432) = (  -0.4545455   0.1574592   0.5567022), wk =   0.0030053
        k(  433) = (   0.3636364   0.3149183   0.5567022), wk =   0.0030053
        k(  434) = (   0.0909091  -0.4723775   0.4453618), wk =   0.0030053
        k(  435) = (  -0.4545455  -0.1574592  -0.4453618), wk =   0.0030053
        k(  436) = (   0.3636364  -0.3149183  -0.4453618), wk =   0.0030053
        k(  437) = (  -0.4545455   0.1574592   0.4453618), wk =   0.0030053
        k(  438) = (   0.3636364   0.3149183   0.4453618), wk =   0.0030053
        k(  439) = (   0.0909091  -0.4723775   0.3340213), wk =   0.0030053
        k(  440) = (  -0.4545455  -0.1574592  -0.3340213), wk =   0.0030053
        k(  441) = (   0.3636364  -0.3149183  -0.3340213), wk =   0.0030053
        k(  442) = (  -0.4545455   0.1574592   0.3340213), wk =   0.0030053
        k(  443) = (   0.3636364   0.3149183   0.3340213), wk =   0.0030053
        k(  444) = (   0.0909091  -0.4723775   0.2226809), wk =   0.0030053
        k(  445) = (  -0.4545455  -0.1574592  -0.2226809), wk =   0.0030053
        k(  446) = (   0.3636364  -0.3149183  -0.2226809), wk =   0.0030053
        k(  447) = (  -0.4545455   0.1574592   0.2226809), wk =   0.0030053
        k(  448) = (   0.3636364   0.3149183   0.2226809), wk =   0.0030053
        k(  449) = (   0.0909091  -0.5773503   0.1484539), wk =   0.0030053
        k(  450) = (  -0.5454545  -0.2099456  -0.1484539), wk =   0.0030053
        k(  451) = (   0.4545455  -0.3674047  -0.1484539), wk =   0.0030053
        k(  452) = (  -0.5454545   0.2099456   0.1484539), wk =   0.0030053
        k(  453) = (   0.4545455   0.3674047   0.1484539), wk =   0.0030053
        k(  454) = (   0.0909091  -0.5773503   0.0371135), wk =   0.0030053
        k(  455) = (  -0.5454545  -0.2099456  -0.0371135), wk =   0.0030053
        k(  456) = (   0.4545455  -0.3674047  -0.0371135), wk =   0.0030053
        k(  457) = (  -0.5454545   0.2099456   0.0371135), wk =   0.0030053
        k(  458) = (   0.4545455   0.3674047   0.0371135), wk =   0.0030053
        k(  459) = (   0.0909091  -0.5773503  -0.0742270), wk =   0.0030053
        k(  460) = (  -0.5454545  -0.2099456   0.0742270), wk =   0.0030053
        k(  461) = (   0.4545455  -0.3674047   0.0742270), wk =   0.0030053
        k(  462) = (  -0.5454545   0.2099456  -0.0742270), wk =   0.0030053
        k(  463) = (   0.4545455   0.3674047  -0.0742270), wk =   0.0030053
        k(  464) = (   0.0909091  -0.5773503  -0.1855674), wk =   0.0030053
        k(  465) = (  -0.5454545  -0.2099456   0.1855674), wk =   0.0030053
        k(  466) = (   0.4545455  -0.3674047   0.1855674), wk =   0.0030053
        k(  467) = (  -0.5454545   0.2099456  -0.1855674), wk =   0.0030053
        k(  468) = (   0.4545455   0.3674047  -0.1855674), wk =   0.0030053
        k(  469) = (   0.0909091  -0.5773503  -0.2969078), wk =   0.0030053
        k(  470) = (  -0.5454545  -0.2099456   0.2969078), wk =   0.0030053
        k(  471) = (   0.4545455  -0.3674047   0.2969078), wk =   0.0030053
        k(  472) = (  -0.5454545   0.2099456  -0.2969078), wk =   0.0030053
        k(  473) = (   0.4545455   0.3674047  -0.2969078), wk =   0.0030053
        k(  474) = (  -0.5454545  -0.2099456   0.4082483), wk =   0.0030053
        k(  475) = (   0.4545455  -0.3674047   0.4082483), wk =   0.0030053
        k(  476) = (   0.1818182  -0.3149183   0.0000000), wk =   0.0030053
        k(  477) = (  -0.3636364  -0.0000000  -0.0000000), wk =   0.0030053
        k(  478) = (   0.1818182  -0.3149183  -0.1113404), wk =   0.0030053
        k(  479) = (  -0.3636364  -0.0000000   0.1113404), wk =   0.0030053
        k(  480) = (   0.1818182  -0.3149183   0.1113404), wk =   0.0030053
        k(  481) = (  -0.3636364  -0.0000000  -0.1113404), wk =   0.0030053
        k(  482) = (   0.1818182   0.3149183  -0.1113404), wk =   0.0030053
        k(  483) = (   0.1818182  -0.3149183  -0.2226809), wk =   0.0030053
        k(  484) = (  -0.3636364  -0.0000000   0.2226809), wk =   0.0030053
        k(  485) = (   0.1818182  -0.3149183   0.2226809), wk =   0.0030053
        k(  486) = (  -0.3636364  -0.0000000  -0.2226809), wk =   0.0030053
        k(  487) = (   0.1818182   0.3149183  -0.2226809), wk =   0.0030053
        k(  488) = (   0.1818182  -0.3149183  -0.3340213), wk =   0.0030053
        k(  489) = (  -0.3636364  -0.0000000   0.3340213), wk =   0.0030053
        k(  490) = (   0.1818182  -0.3149183   0.3340213), wk =   0.0030053
        k(  491) = (  -0.3636364  -0.0000000  -0.3340213), wk =   0.0030053
        k(  492) = (   0.1818182   0.3149183  -0.3340213), wk =   0.0030053
        k(  493) = (   0.1818182  -0.3149183  -0.4453618), wk =   0.0030053
        k(  494) = (  -0.3636364  -0.0000000   0.4453618), wk =   0.0030053
        k(  495) = (   0.1818182  -0.3149183   0.4453618), wk =   0.0030053
        k(  496) = (  -0.3636364  -0.0000000  -0.4453618), wk =   0.0030053
        k(  497) = (   0.1818182   0.3149183  -0.4453618), wk =   0.0030053
        k(  498) = (   0.1818182  -0.3149183  -0.5567022), wk =   0.0030053
        k(  499) = (  -0.3636364  -0.0000000   0.5567022), wk =   0.0030053
        k(  500) = (   0.1818182  -0.3149183   0.5567022), wk =   0.0030053
        k(  501) = (  -0.3636364  -0.0000000  -0.5567022), wk =   0.0030053
        k(  502) = (   0.1818182   0.3149183  -0.5567022), wk =   0.0030053
        k(  503) = (   0.1818182  -0.4198911   0.0371135), wk =   0.0030053
        k(  504) = (  -0.4545455  -0.0524864  -0.0371135), wk =   0.0030053
        k(  505) = (   0.2727273  -0.3674047  -0.0371135), wk =   0.0030053
        k(  506) = (  -0.4545455   0.0524864   0.0371135), wk =   0.0030053
        k(  507) = (   0.2727273   0.3674047   0.0371135), wk =   0.0030053
        k(  508) = (   0.1818182  -0.4198911  -0.0742270), wk =   0.0030053
        k(  509) = (  -0.4545455  -0.0524864   0.0742270), wk =   0.0030053
        k(  510) = (   0.2727273  -0.3674047   0.0742270), wk =   0.0030053
        k(  511) = (  -0.4545455   0.0524864  -0.0742270), wk =   0.0030053
        k(  512) = (   0.2727273   0.3674047  -0.0742270), wk =   0.0030053
        k(  513) = (   0.1818182  -0.4198911  -0.1855674), wk =   0.0030053
        k(  514) = (  -0.4545455  -0.0524864   0.1855674), wk =   0.0030053
        k(  515) = (   0.2727273  -0.3674047   0.1855674), wk =   0.0030053
        k(  516) = (  -0.4545455   0.0524864  -0.1855674), wk =   0.0030053
        k(  517) = (   0.2727273   0.3674047  -0.1855674), wk =   0.0030053
        k(  518) = (   0.1818182  -0.4198911  -0.2969078), wk =   0.0030053
        k(  519) = (  -0.4545455  -0.0524864   0.2969078), wk =   0.0030053
        k(  520) = (   0.2727273  -0.3674047   0.2969078), wk =   0.0030053
        k(  521) = (  -0.4545455   0.0524864  -0.2969078), wk =   0.0030053
        k(  522) = (   0.2727273   0.3674047  -0.2969078), wk =   0.0030053
        k(  523) = (   0.1818182  -0.4198911  -0.4082483), wk =   0.0030053
        k(  524) = (  -0.4545455  -0.0524864   0.4082483), wk =   0.0030053
        k(  525) = (   0.2727273  -0.3674047   0.4082483), wk =   0.0030053
        k(  526) = (  -0.4545455   0.0524864  -0.4082483), wk =   0.0030053
        k(  527) = (   0.2727273   0.3674047  -0.4082483), wk =   0.0030053
        k(  528) = (   0.1818182  -0.4198911  -0.5195887), wk =   0.0030053
        k(  529) = (  -0.4545455  -0.0524864   0.5195887), wk =   0.0030053
        k(  530) = (   0.2727273  -0.3674047   0.5195887), wk =   0.0030053
        k(  531) = (  -0.4545455   0.0524864  -0.5195887), wk =   0.0030053
        k(  532) = (   0.2727273   0.3674047  -0.5195887), wk =   0.0030053
        k(  533) = (   0.1818182  -0.4198911   0.5938157), wk =   0.0030053
        k(  534) = (  -0.4545455  -0.0524864  -0.5938157), wk =   0.0030053
        k(  535) = (   0.2727273  -0.3674047  -0.5938157), wk =   0.0030053
        k(  536) = (  -0.4545455   0.0524864   0.5938157), wk =   0.0030053
        k(  537) = (   0.2727273   0.3674047   0.5938157), wk =   0.0030053
        k(  538) = (   0.1818182  -0.4198911   0.4824753), wk =   0.0030053
        k(  539) = (  -0.4545455  -0.0524864  -0.4824753), wk =   0.0030053
        k(  540) = (   0.2727273  -0.3674047  -0.4824753), wk =   0.0030053
        k(  541) = (  -0.4545455   0.0524864   0.4824753), wk =   0.0030053
        k(  542) = (   0.2727273   0.3674047   0.4824753), wk =   0.0030053
        k(  543) = (   0.1818182  -0.4198911   0.3711348), wk =   0.0030053
        k(  544) = (  -0.4545455  -0.0524864  -0.3711348), wk =   0.0030053
        k(  545) = (   0.2727273  -0.3674047  -0.3711348), wk =   0.0030053
        k(  546) = (  -0.4545455   0.0524864   0.3711348), wk =   0.0030053
        k(  547) = (   0.2727273   0.3674047   0.3711348), wk =   0.0030053
        k(  548) = (   0.1818182  -0.4198911   0.2597944), wk =   0.0030053
        k(  549) = (  -0.4545455  -0.0524864  -0.2597944), wk =   0.0030053
        k(  550) = (   0.2727273  -0.3674047  -0.2597944), wk =   0.0030053
        k(  551) = (  -0.4545455   0.0524864   0.2597944), wk =   0.0030053
        k(  552) = (   0.2727273   0.3674047   0.2597944), wk =   0.0030053
        k(  553) = (   0.1818182  -0.4198911   0.1484539), wk =   0.0030053
        k(  554) = (  -0.4545455  -0.0524864  -0.1484539), wk =   0.0030053
        k(  555) = (   0.2727273  -0.3674047  -0.1484539), wk =   0.0030053
        k(  556) = (  -0.4545455   0.0524864   0.1484539), wk =   0.0030053
        k(  557) = (   0.2727273   0.3674047   0.1484539), wk =   0.0030053
        k(  558) = (   0.1818182  -0.5248639   0.0742270), wk =   0.0030053
        k(  559) = (  -0.5454545  -0.1049728  -0.0742270), wk =   0.0030053
        k(  560) = (   0.3636364  -0.4198911  -0.0742270), wk =   0.0030053
        k(  561) = (  -0.5454545   0.1049728   0.0742270), wk =   0.0030053
        k(  562) = (   0.3636364   0.4198911   0.0742270), wk =   0.0030053
        k(  563) = (   0.1818182  -0.5248639  -0.0371135), wk =   0.0030053
        k(  564) = (  -0.5454545  -0.1049728   0.0371135), wk =   0.0030053
        k(  565) = (   0.3636364  -0.4198911   0.0371135), wk =   0.0030053
        k(  566) = (  -0.5454545   0.1049728  -0.0371135), wk =   0.0030053
        k(  567) = (   0.3636364   0.4198911  -0.0371135), wk =   0.0030053
        k(  568) = (   0.1818182  -0.5248639  -0.1484539), wk =   0.0030053
        k(  569) = (  -0.5454545  -0.1049728   0.1484539), wk =   0.0030053
        k(  570) = (   0.3636364  -0.4198911   0.1484539), wk =   0.0030053
        k(  571) = (  -0.5454545   0.1049728  -0.1484539), wk =   0.0030053
        k(  572) = (   0.3636364   0.4198911  -0.1484539), wk =   0.0030053
        k(  573) = (   0.1818182  -0.5248639  -0.2597944), wk =   0.0030053
        k(  574) = (  -0.5454545  -0.1049728   0.2597944), wk =   0.0030053
        k(  575) = (   0.3636364  -0.4198911   0.2597944), wk =   0.0030053
        k(  576) = (  -0.5454545   0.1049728  -0.2597944), wk =   0.0030053
        k(  577) = (   0.3636364   0.4198911  -0.2597944), wk =   0.0030053
        k(  578) = (   0.1818182  -0.5248639  -0.3711348), wk =   0.0030053
        k(  579) = (  -0.5454545  -0.1049728   0.3711348), wk =   0.0030053
        k(  580) = (   0.3636364  -0.4198911   0.3711348), wk =   0.0030053
        k(  581) = (  -0.5454545   0.1049728  -0.3711348), wk =   0.0030053
        k(  582) = (   0.3636364   0.4198911  -0.3711348), wk =   0.0030053
        k(  583) = (   0.1818182  -0.5248639  -0.4824753), wk =   0.0030053
        k(  584) = (  -0.5454545  -0.1049728   0.4824753), wk =   0.0030053
        k(  585) = (   0.3636364  -0.4198911   0.4824753), wk =   0.0030053
        k(  586) = (  -0.5454545   0.1049728  -0.4824753), wk =   0.0030053
        k(  587) = (   0.3636364   0.4198911  -0.4824753), wk =   0.0030053
        k(  588) = (   0.1818182  -0.5248639   0.6309292), wk =   0.0030053
        k(  589) = (  -0.5454545  -0.1049728  -0.6309292), wk =   0.0030053
        k(  590) = (   0.3636364  -0.4198911  -0.6309292), wk =   0.0030053
        k(  591) = (  -0.5454545   0.1049728   0.6309292), wk =   0.0030053
        k(  592) = (   0.3636364   0.4198911   0.6309292), wk =   0.0030053
        k(  593) = (   0.1818182  -0.5248639   0.5195887), wk =   0.0030053
        k(  594) = (  -0.5454545  -0.1049728  -0.5195887), wk =   0.0030053
        k(  595) = (   0.3636364  -0.4198911  -0.5195887), wk =   0.0030053
        k(  596) = (  -0.5454545   0.1049728   0.5195887), wk =   0.0030053
        k(  597) = (   0.3636364   0.4198911   0.5195887), wk =   0.0030053
        k(  598) = (   0.1818182  -0.5248639   0.4082483), wk =   0.0030053
        k(  599) = (  -0.5454545  -0.1049728  -0.4082483), wk =   0.0030053
        k(  600) = (   0.3636364  -0.4198911  -0.4082483), wk =   0.0030053
        k(  601) = (  -0.5454545   0.1049728   0.4082483), wk =   0.0030053
        k(  602) = (   0.3636364   0.4198911   0.4082483), wk =   0.0030053
        k(  603) = (   0.1818182  -0.5248639   0.2969078), wk =   0.0030053
        k(  604) = (  -0.5454545  -0.1049728  -0.2969078), wk =   0.0030053
        k(  605) = (   0.3636364  -0.4198911  -0.2969078), wk =   0.0030053
        k(  606) = (  -0.5454545   0.1049728   0.2969078), wk =   0.0030053
        k(  607) = (   0.3636364   0.4198911   0.2969078), wk =   0.0030053
        k(  608) = (   0.1818182  -0.5248639   0.1855674), wk =   0.0030053
        k(  609) = (  -0.5454545  -0.1049728  -0.1855674), wk =   0.0030053
        k(  610) = (   0.3636364  -0.4198911  -0.1855674), wk =   0.0030053
        k(  611) = (  -0.5454545   0.1049728   0.1855674), wk =   0.0030053
        k(  612) = (   0.3636364   0.4198911   0.1855674), wk =   0.0030053
        k(  613) = (   0.2727273  -0.4723775   0.0000000), wk =   0.0030053
        k(  614) = (  -0.5454545  -0.0000000  -0.0000000), wk =   0.0030053
        k(  615) = (   0.2727273  -0.4723775  -0.1113404), wk =   0.0030053
        k(  616) = (  -0.5454545  -0.0000000   0.1113404), wk =   0.0030053
        k(  617) = (   0.2727273  -0.4723775   0.1113404), wk =   0.0030053
        k(  618) = (  -0.5454545  -0.0000000  -0.1113404), wk =   0.0030053
        k(  619) = (   0.2727273   0.4723775  -0.1113404), wk =   0.0030053
        k(  620) = (   0.2727273  -0.4723775  -0.2226809), wk =   0.0030053
        k(  621) = (  -0.5454545  -0.0000000   0.2226809), wk =   0.0030053
        k(  622) = (   0.2727273  -0.4723775   0.2226809), wk =   0.0030053
        k(  623) = (  -0.5454545  -0.0000000  -0.2226809), wk =   0.0030053
        k(  624) = (   0.2727273   0.4723775  -0.2226809), wk =   0.0030053
        k(  625) = (   0.2727273  -0.4723775  -0.3340213), wk =   0.0030053
        k(  626) = (  -0.5454545  -0.0000000   0.3340213), wk =   0.0030053
        k(  627) = (   0.2727273  -0.4723775   0.3340213), wk =   0.0030053
        k(  628) = (  -0.5454545  -0.0000000  -0.3340213), wk =   0.0030053
        k(  629) = (   0.2727273   0.4723775  -0.3340213), wk =   0.0030053
        k(  630) = (   0.2727273  -0.4723775  -0.4453618), wk =   0.0030053
        k(  631) = (  -0.5454545  -0.0000000   0.4453618), wk =   0.0030053
        k(  632) = (   0.2727273  -0.4723775   0.4453618), wk =   0.0030053
        k(  633) = (  -0.5454545  -0.0000000  -0.4453618), wk =   0.0030053
        k(  634) = (   0.2727273   0.4723775  -0.4453618), wk =   0.0030053
        k(  635) = (   0.2727273  -0.4723775  -0.5567022), wk =   0.0030053
        k(  636) = (  -0.5454545  -0.0000000   0.5567022), wk =   0.0030053
        k(  637) = (   0.2727273  -0.4723775   0.5567022), wk =   0.0030053
        k(  638) = (  -0.5454545  -0.0000000  -0.5567022), wk =   0.0030053
        k(  639) = (   0.2727273   0.4723775  -0.5567022), wk =   0.0030053
        k(  640) = (   0.2727273  -0.5773503   0.0371135), wk =   0.0030053
        k(  641) = (  -0.6363636  -0.0524864  -0.0371135), wk =   0.0030053
        k(  642) = (   0.3636364  -0.5248639  -0.0371135), wk =   0.0030053
        k(  643) = (  -0.6363636   0.0524864   0.0371135), wk =   0.0030053
        k(  644) = (   0.3636364   0.5248639   0.0371135), wk =   0.0030053
        k(  645) = (   0.2727273  -0.5773503  -0.0742270), wk =   0.0030053
        k(  646) = (  -0.6363636  -0.0524864   0.0742270), wk =   0.0030053
        k(  647) = (   0.3636364  -0.5248639   0.0742270), wk =   0.0030053
        k(  648) = (  -0.6363636   0.0524864  -0.0742270), wk =   0.0030053
        k(  649) = (   0.3636364   0.5248639  -0.0742270), wk =   0.0030053
        k(  650) = (   0.2727273  -0.5773503  -0.1855674), wk =   0.0030053
        k(  651) = (  -0.6363636  -0.0524864   0.1855674), wk =   0.0030053
        k(  652) = (   0.3636364  -0.5248639   0.1855674), wk =   0.0030053
        k(  653) = (  -0.6363636   0.0524864  -0.1855674), wk =   0.0030053
        k(  654) = (   0.3636364   0.5248639  -0.1855674), wk =   0.0030053
        k(  655) = (   0.2727273  -0.5773503  -0.2969078), wk =   0.0030053
        k(  656) = (  -0.6363636  -0.0524864   0.2969078), wk =   0.0030053
        k(  657) = (   0.3636364  -0.5248639   0.2969078), wk =   0.0030053
        k(  658) = (  -0.6363636   0.0524864  -0.2969078), wk =   0.0030053
        k(  659) = (   0.3636364   0.5248639  -0.2969078), wk =   0.0030053
        k(  660) = (  -0.6363636  -0.0524864   0.4082483), wk =   0.0030053
        k(  661) = (   0.3636364  -0.5248639   0.4082483), wk =   0.0030053
        k(  662) = (   0.2727273  -0.5773503   0.2597944), wk =   0.0030053
        k(  663) = (  -0.6363636  -0.0524864  -0.2597944), wk =   0.0030053
        k(  664) = (   0.3636364  -0.5248639  -0.2597944), wk =   0.0030053
        k(  665) = (  -0.6363636   0.0524864   0.2597944), wk =   0.0030053
        k(  666) = (   0.3636364   0.5248639   0.2597944), wk =   0.0030053

                       cryst. coord.
        k(    1) = (   0.0000000   0.0000000   0.0000000), wk =   0.0015026
        k(    2) = (   0.0000000   0.0000000   0.0909091), wk =   0.0030053
        k(    3) = (   0.0000000   0.0000000   0.1818182), wk =   0.0030053
        k(    4) = (   0.0000000   0.0000000   0.2727273), wk =   0.0030053
        k(    5) = (   0.0000000   0.0000000   0.3636364), wk =   0.0030053
        k(    6) = (   0.0000000   0.0000000   0.4545455), wk =   0.0030053
        k(    7) = (   0.0000000   0.0909091   0.0000000), wk =   0.0030053
        k(    8) = (   0.0000000   0.0909091   0.0909091), wk =   0.0030053
        k(    9) = (   0.0000000   0.0909091   0.1818182), wk =   0.0030053
        k(   10) = (   0.0000000   0.0909091   0.2727273), wk =   0.0030053
        k(   11) = (   0.0000000   0.0909091   0.3636364), wk =   0.0030053
        k(   12) = (   0.0000000   0.0909091   0.4545455), wk =   0.0030053
        k(   13) = (   0.0000000   0.0909091  -0.4545455), wk =   0.0030053
        k(   14) = (   0.0000000   0.0909091  -0.3636364), wk =   0.0030053
        k(   15) = (   0.0000000   0.0909091  -0.2727273), wk =   0.0030053
        k(   16) = (   0.0000000   0.0909091  -0.1818182), wk =   0.0030053
        k(   17) = (   0.0000000   0.0909091  -0.0909091), wk =   0.0030053
        k(   18) = (   0.0000000   0.1818182   0.0000000), wk =   0.0030053
        k(   19) = (   0.0000000   0.1818182   0.0909091), wk =   0.0030053
        k(   20) = (   0.0000000   0.1818182   0.1818182), wk =   0.0030053
        k(   21) = (   0.0000000   0.1818182   0.2727273), wk =   0.0030053
        k(   22) = (   0.0000000   0.1818182   0.3636364), wk =   0.0030053
        k(   23) = (   0.0000000   0.1818182   0.4545455), wk =   0.0030053
        k(   24) = (   0.0000000   0.1818182  -0.4545455), wk =   0.0030053
        k(   25) = (   0.0000000   0.1818182  -0.3636364), wk =   0.0030053
        k(   26) = (   0.0000000   0.1818182  -0.2727273), wk =   0.0030053
        k(   27) = (   0.0000000   0.1818182  -0.1818182), wk =   0.0030053
        k(   28) = (   0.0000000   0.1818182  -0.0909091), wk =   0.0030053
        k(   29) = (   0.0000000   0.2727273  -0.0000000), wk =   0.0030053
        k(   30) = (   0.0000000   0.2727273   0.0909091), wk =   0.0030053
        k(   31) = (   0.0000000   0.2727273   0.1818182), wk =   0.0030053
        k(   32) = (   0.0000000   0.2727273   0.2727273), wk =   0.0030053
        k(   33) = (   0.0000000   0.2727273   0.3636364), wk =   0.0030053
        k(   34) = (   0.0000000   0.2727273   0.4545455), wk =   0.0030053
        k(   35) = (   0.0000000   0.2727273  -0.4545455), wk =   0.0030053
        k(   36) = (   0.0000000   0.2727273  -0.3636364), wk =   0.0030053
        k(   37) = (   0.0000000   0.2727273  -0.2727273), wk =   0.0030053
        k(   38) = (   0.0000000   0.2727273  -0.1818182), wk =   0.0030053
        k(   39) = (   0.0000000   0.2727273  -0.0909091), wk =   0.0030053
        k(   40) = (   0.0000000   0.3636364   0.0000000), wk =   0.0030053
        k(   41) = (   0.0000000   0.3636364   0.0909091), wk =   0.0030053
        k(   42) = (   0.0000000   0.3636364   0.1818182), wk =   0.0030053
        k(   43) = (   0.0000000   0.3636364   0.2727273), wk =   0.0030053
        k(   44) = (   0.0000000   0.3636364   0.3636364), wk =   0.0030053
        k(   45) = (   0.0000000   0.3636364   0.4545455), wk =   0.0030053
        k(   46) = (   0.0000000   0.3636364  -0.4545455), wk =   0.0030053
        k(   47) = (   0.0000000   0.3636364  -0.3636364), wk =   0.0030053
        k(   48) = (   0.0000000   0.3636364  -0.2727273), wk =   0.0030053
        k(   49) = (   0.0000000   0.3636364  -0.1818182), wk =   0.0030053
        k(   50) = (   0.0000000   0.3636364  -0.0909091), wk =   0.0030053
        k(   51) = (   0.0000000   0.4545455  -0.0000000), wk =   0.0030053
        k(   52) = (   0.0000000   0.4545455   0.0909091), wk =   0.0030053
        k(   53) = (   0.0000000   0.4545455   0.1818182), wk =   0.0030053
        k(   54) = (   0.0000000   0.4545455   0.2727273), wk =   0.0030053
        k(   55) = (   0.0000000   0.4545455   0.3636364), wk =   0.0030053
        k(   56) = (   0.0000000   0.4545455   0.4545455), wk =   0.0030053
        k(   57) = (   0.0000000   0.4545455  -0.4545455), wk =   0.0030053
        k(   58) = (   0.0000000   0.4545455  -0.3636364), wk =   0.0030053
        k(   59) = (   0.0000000   0.4545455  -0.2727273), wk =   0.0030053
        k(   60) = (   0.0000000   0.4545455  -0.1818182), wk =   0.0030053
        k(   61) = (   0.0000000   0.4545455  -0.0909091), wk =   0.0030053
        k(   62) = (   0.0909091   0.0909091   0.0000000), wk =   0.0030053
        k(   63) = (   0.0909091   0.0909091   0.0909091), wk =   0.0030053
        k(   64) = (   0.0909091   0.0909091   0.1818182), wk =   0.0030053
        k(   65) = (   0.0909091   0.0909091   0.2727273), wk =   0.0030053
        k(   66) = (   0.0909091   0.0909091   0.3636364), wk =   0.0030053
        k(   67) = (   0.0909091   0.0909091   0.4545455), wk =   0.0030053
        k(   68) = (   0.0909091   0.1818182  -0.0000000), wk =   0.0030053
        k(   69) = (   0.0909091   0.1818182   0.0909091), wk =   0.0030053
        k(   70) = (   0.0909091   0.1818182   0.1818182), wk =   0.0030053
        k(   71) = (   0.0909091   0.1818182   0.2727273), wk =   0.0030053
        k(   72) = (   0.0909091   0.1818182   0.3636364), wk =   0.0030053
        k(   73) = (   0.0909091   0.1818182   0.4545455), wk =   0.0030053
        k(   74) = (   0.0909091   0.1818182  -0.4545455), wk =   0.0030053
        k(   75) = (   0.0909091   0.1818182  -0.3636364), wk =   0.0030053
        k(   76) = (   0.0909091   0.1818182  -0.2727273), wk =   0.0030053
        k(   77) = (   0.0909091   0.1818182  -0.1818182), wk =   0.0030053
        k(   78) = (   0.0909091   0.1818182  -0.0909091), wk =   0.0030053
        k(   79) = (   0.0909091   0.2727273   0.0000000), wk =   0.0030053
        k(   80) = (   0.0909091   0.2727273   0.0909091), wk =   0.0030053
        k(   81) = (   0.0909091   0.2727273   0.1818182), wk =   0.0030053
        k(   82) = (   0.0909091   0.2727273   0.2727273), wk =   0.0030053
        k(   83) = (   0.0909091   0.2727273   0.3636364), wk =   0.0030053
        k(   84) = (   0.0909091   0.2727273   0.4545455), wk =   0.0030053
        k(   85) = (   0.0909091   0.2727273  -0.4545455), wk =   0.0030053
        k(   86) = (   0.0909091   0.2727273  -0.3636364), wk =   0.0030053
        k(   87) = (   0.0909091   0.2727273  -0.2727273), wk =   0.0030053
        k(   88) = (   0.0909091   0.2727273  -0.1818182), wk =   0.0030053
        k(   89) = (   0.0909091   0.2727273  -0.0909091), wk =   0.0030053
        k(   90) = (   0.0909091   0.3636364   0.0000000), wk =   0.0030053
        k(   91) = (   0.0909091   0.3636364   0.0909091), wk =   0.0030053
        k(   92) = (   0.0909091   0.3636364   0.1818182), wk =   0.0030053
        k(   93) = (   0.0909091   0.3636364   0.2727273), wk =   0.0030053
        k(   94) = (   0.0909091   0.3636364   0.3636364), wk =   0.0030053
        k(   95) = (   0.0909091   0.3636364   0.4545455), wk =   0.0030053
        k(   96) = (   0.0909091   0.3636364  -0.4545455), wk =   0.0030053
        k(   97) = (   0.0909091   0.3636364  -0.3636364), wk =   0.0030053
        k(   98) = (   0.0909091   0.3636364  -0.2727273), wk =   0.0030053
        k(   99) = (   0.0909091   0.3636364  -0.1818182), wk =   0.0030053
        k(  100) = (   0.0909091   0.3636364  -0.0909091), wk =   0.0030053
        k(  101) = (   0.0909091   0.4545455  -0.0000000), wk =   0.0030053
        k(  102) = (   0.0909091   0.4545455   0.0909091), wk =   0.0030053
        k(  103) = (   0.0909091   0.4545455   0.1818182), wk =   0.0030053
        k(  104) = (   0.0909091   0.4545455   0.2727273), wk =   0.0030053
        k(  105) = (   0.0909091   0.4545455   0.3636364), wk =   0.0030053
        k(  106) = (   0.0909091   0.4545455   0.4545455), wk =   0.0030053
        k(  107) = (   0.1818182   0.1818182   0.0000000), wk =   0.0030053
        k(  108) = (   0.1818182   0.1818182   0.0909091), wk =   0.0030053
        k(  109) = (   0.1818182   0.1818182   0.1818182), wk =   0.0030053
        k(  110) = (   0.1818182   0.1818182   0.2727273), wk =   0.0030053
        k(  111) = (   0.1818182   0.1818182   0.3636364), wk =   0.0030053
        k(  112) = (   0.1818182   0.1818182   0.4545455), wk =   0.0030053
        k(  113) = (   0.1818182   0.2727273   0.0000000), wk =   0.0030053
        k(  114) = (   0.1818182   0.2727273   0.0909091), wk =   0.0030053
        k(  115) = (   0.1818182   0.2727273   0.1818182), wk =   0.0030053
        k(  116) = (   0.1818182   0.2727273   0.2727273), wk =   0.0030053
        k(  117) = (   0.1818182   0.2727273   0.3636364), wk =   0.0030053
        k(  118) = (   0.1818182   0.2727273   0.4545455), wk =   0.0030053
        k(  119) = (   0.1818182   0.2727273  -0.4545455), wk =   0.0030053
        k(  120) = (   0.1818182   0.2727273  -0.3636364), wk =   0.0030053
        k(  121) = (   0.1818182   0.2727273  -0.2727273), wk =   0.0030053
        k(  122) = (   0.1818182   0.2727273  -0.1818182), wk =   0.0030053
        k(  123) = (   0.1818182   0.2727273  -0.0909091), wk =   0.0030053
        k(  124) = (   0.1818182   0.3636364  -0.0000000), wk =   0.0030053
        k(  125) = (   0.1818182   0.3636364   0.0909091), wk =   0.0030053
        k(  126) = (   0.1818182   0.3636364   0.1818182), wk =   0.0030053
        k(  127) = (   0.1818182   0.3636364   0.2727273), wk =   0.0030053
        k(  128) = (   0.1818182   0.3636364   0.3636364), wk =   0.0030053
        k(  129) = (   0.1818182   0.3636364   0.4545455), wk =   0.0030053
        k(  130) = (   0.1818182   0.3636364  -0.4545455), wk =   0.0030053
        k(  131) = (   0.1818182   0.3636364  -0.3636364), wk =   0.0030053
        k(  132) = (   0.1818182   0.3636364  -0.2727273), wk =   0.0030053
        k(  133) = (   0.1818182   0.3636364  -0.1818182), wk =   0.0030053
        k(  134) = (   0.1818182   0.3636364  -0.0909091), wk =   0.0030053
        k(  135) = (   0.2727273   0.2727273  -0.0000000), wk =   0.0030053
        k(  136) = (   0.2727273   0.2727273   0.0909091), wk =   0.0030053
        k(  137) = (   0.2727273   0.2727273   0.1818182), wk =   0.0030053
        k(  138) = (   0.2727273   0.2727273   0.2727273), wk =   0.0030053
        k(  139) = (   0.2727273   0.2727273   0.3636364), wk =   0.0030053
        k(  140) = (   0.2727273   0.2727273   0.4545455), wk =   0.0030053
        k(  141) = (   0.2727273   0.3636364   0.0000000), wk =   0.0030053
        k(  142) = (   0.2727273   0.3636364   0.0909091), wk =   0.0030053
        k(  143) = (   0.2727273   0.3636364   0.1818182), wk =   0.0030053
        k(  144) = (   0.2727273   0.3636364   0.2727273), wk =   0.0030053
        k(  145) = (   0.2727273   0.3636364   0.3636364), wk =   0.0030053
        k(  146) = (   0.2727273   0.3636364  -0.1818182), wk =   0.0030053
        k(  147) = (  -0.0909091   0.0000000   0.0000000), wk =   0.0030053
        k(  148) = (   0.0909091  -0.0909091  -0.0909091), wk =   0.0030053
        k(  149) = (  -0.0909091   0.0000000   0.0909091), wk =   0.0030053
        k(  150) = (   0.0909091  -0.0909091   0.0000000), wk =   0.0030053
        k(  151) = (  -0.0909091   0.0000000   0.1818182), wk =   0.0030053
        k(  152) = (   0.0909091  -0.0909091   0.0909091), wk =   0.0030053
        k(  153) = (  -0.0909091   0.0000000   0.2727273), wk =   0.0030053
        k(  154) = (   0.0909091  -0.0909091   0.1818182), wk =   0.0030053
        k(  155) = (  -0.0909091   0.0000000   0.3636364), wk =   0.0030053
        k(  156) = (   0.0909091  -0.0909091   0.2727273), wk =   0.0030053
        k(  157) = (  -0.0909091   0.0000000   0.4545455), wk =   0.0030053
        k(  158) = (   0.0909091  -0.0909091   0.3636364), wk =   0.0030053
        k(  159) = (  -0.0909091   0.0000000  -0.4545455), wk =   0.0030053
        k(  160) = (   0.0909091  -0.0909091  -0.5454545), wk =   0.0030053
        k(  161) = (  -0.0909091   0.0000000  -0.3636364), wk =   0.0030053
        k(  162) = (   0.0909091  -0.0909091  -0.4545455), wk =   0.0030053
        k(  163) = (  -0.0909091   0.0000000  -0.2727273), wk =   0.0030053
        k(  164) = (   0.0909091  -0.0909091  -0.3636364), wk =   0.0030053
        k(  165) = (  -0.0909091   0.0000000  -0.1818182), wk =   0.0030053
        k(  166) = (   0.0909091  -0.0909091  -0.2727273), wk =   0.0030053
        k(  167) = (  -0.0909091   0.0000000  -0.0909091), wk =   0.0030053
        k(  168) = (   0.0909091  -0.0909091  -0.1818182), wk =   0.0030053
        k(  169) = (  -0.1818182   0.0000000   0.0000000), wk =   0.0030053
        k(  170) = (   0.1818182  -0.1818182  -0.1818182), wk =   0.0030053
        k(  171) = (  -0.1818182   0.0000000   0.0909091), wk =   0.0030053
        k(  172) = (   0.1818182  -0.1818182  -0.0909091), wk =   0.0030053
        k(  173) = (  -0.1818182   0.0000000   0.1818182), wk =   0.0030053
        k(  174) = (   0.1818182  -0.1818182   0.0000000), wk =   0.0030053
        k(  175) = (  -0.1818182   0.0000000   0.2727273), wk =   0.0030053
        k(  176) = (   0.1818182  -0.1818182   0.0909091), wk =   0.0030053
        k(  177) = (  -0.1818182   0.0000000   0.3636364), wk =   0.0030053
        k(  178) = (   0.1818182  -0.1818182   0.1818182), wk =   0.0030053
        k(  179) = (  -0.1818182   0.0000000   0.4545455), wk =   0.0030053
        k(  180) = (   0.1818182  -0.1818182   0.2727273), wk =   0.0030053
        k(  181) = (  -0.1818182   0.0000000  -0.4545455), wk =   0.0030053
        k(  182) = (   0.1818182  -0.1818182  -0.6363636), wk =   0.0030053
        k(  183) = (  -0.1818182   0.0000000  -0.3636364), wk =   0.0030053
        k(  184) = (   0.1818182  -0.1818182  -0.5454545), wk =   0.0030053
        k(  185) = (  -0.1818182   0.0000000  -0.2727273), wk =   0.0030053
        k(  186) = (   0.1818182  -0.1818182  -0.4545455), wk =   0.0030053
        k(  187) = (  -0.1818182   0.0000000  -0.1818182), wk =   0.0030053
        k(  188) = (   0.1818182  -0.1818182  -0.3636364), wk =   0.0030053
        k(  189) = (  -0.1818182   0.0000000  -0.0909091), wk =   0.0030053
        k(  190) = (   0.1818182  -0.1818182  -0.2727273), wk =   0.0030053
        k(  191) = (  -0.2727273   0.0000000  -0.0000000), wk =   0.0030053
        k(  192) = (   0.2727273  -0.2727273  -0.2727273), wk =   0.0030053
        k(  193) = (  -0.2727273   0.0000000   0.0909091), wk =   0.0030053
        k(  194) = (   0.2727273  -0.2727273  -0.1818182), wk =   0.0030053
        k(  195) = (  -0.2727273   0.0000000   0.1818182), wk =   0.0030053
        k(  196) = (   0.2727273  -0.2727273  -0.0909091), wk =   0.0030053
        k(  197) = (  -0.2727273   0.0000000   0.2727273), wk =   0.0030053
        k(  198) = (   0.2727273  -0.2727273   0.0000000), wk =   0.0030053
        k(  199) = (  -0.2727273   0.0000000   0.3636364), wk =   0.0030053
        k(  200) = (   0.2727273  -0.2727273   0.0909091), wk =   0.0030053
        k(  201) = (  -0.2727273   0.0000000   0.4545455), wk =   0.0030053
        k(  202) = (   0.2727273  -0.2727273   0.1818182), wk =   0.0030053
        k(  203) = (  -0.2727273   0.0000000  -0.4545455), wk =   0.0030053
        k(  204) = (   0.2727273  -0.2727273  -0.7272727), wk =   0.0030053
        k(  205) = (  -0.2727273   0.0000000  -0.3636364), wk =   0.0030053
        k(  206) = (   0.2727273  -0.2727273  -0.6363636), wk =   0.0030053
        k(  207) = (  -0.2727273   0.0000000  -0.2727273), wk =   0.0030053
        k(  208) = (   0.2727273  -0.2727273  -0.5454545), wk =   0.0030053
        k(  209) = (  -0.2727273   0.0000000  -0.1818182), wk =   0.0030053
        k(  210) = (   0.2727273  -0.2727273  -0.4545455), wk =   0.0030053
        k(  211) = (  -0.2727273   0.0000000  -0.0909091), wk =   0.0030053
        k(  212) = (   0.2727273  -0.2727273  -0.3636364), wk =   0.0030053
        k(  213) = (  -0.3636364   0.0000000   0.0000000), wk =   0.0030053
        k(  214) = (   0.3636364  -0.3636364  -0.3636364), wk =   0.0030053
        k(  215) = (  -0.3636364   0.0000000   0.0909091), wk =   0.0030053
        k(  216) = (   0.3636364  -0.3636364  -0.2727273), wk =   0.0030053
        k(  217) = (  -0.3636364   0.0000000   0.1818182), wk =   0.0030053
        k(  218) = (   0.3636364  -0.3636364  -0.1818182), wk =   0.0030053
        k(  219) = (  -0.3636364   0.0000000   0.2727273), wk =   0.0030053
        k(  220) = (   0.3636364  -0.3636364  -0.0909091), wk =   0.0030053
        k(  221) = (  -0.3636364   0.0000000   0.3636364), wk =   0.0030053
        k(  222) = (   0.3636364  -0.3636364   0.0000000), wk =   0.0030053
        k(  223) = (  -0.3636364   0.0000000   0.4545455), wk =   0.0030053
        k(  224) = (   0.3636364  -0.3636364   0.0909091), wk =   0.0030053
        k(  225) = (  -0.3636364   0.0000000  -0.4545455), wk =   0.0030053
        k(  226) = (   0.3636364  -0.3636364  -0.8181818), wk =   0.0030053
        k(  227) = (  -0.3636364   0.0000000  -0.3636364), wk =   0.0030053
        k(  228) = (   0.3636364  -0.3636364  -0.7272727), wk =   0.0030053
        k(  229) = (  -0.3636364   0.0000000  -0.2727273), wk =   0.0030053
        k(  230) = (   0.3636364  -0.3636364  -0.6363636), wk =   0.0030053
        k(  231) = (  -0.3636364   0.0000000  -0.1818182), wk =   0.0030053
        k(  232) = (   0.3636364  -0.3636364  -0.5454545), wk =   0.0030053
        k(  233) = (  -0.3636364   0.0000000  -0.0909091), wk =   0.0030053
        k(  234) = (   0.3636364  -0.3636364  -0.4545455), wk =   0.0030053
        k(  235) = (  -0.4545455   0.0000000   0.0000000), wk =   0.0030053
        k(  236) = (   0.4545455  -0.4545455  -0.4545455), wk =   0.0030053
        k(  237) = (  -0.4545455   0.0000000   0.0909091), wk =   0.0030053
        k(  238) = (   0.4545455  -0.4545455  -0.3636364), wk =   0.0030053
        k(  239) = (  -0.4545455   0.0000000   0.1818182), wk =   0.0030053
        k(  240) = (   0.4545455  -0.4545455  -0.2727273), wk =   0.0030053
        k(  241) = (  -0.4545455   0.0000000   0.2727273), wk =   0.0030053
        k(  242) = (   0.4545455  -0.4545455  -0.1818182), wk =   0.0030053
        k(  243) = (  -0.4545455   0.0000000   0.3636364), wk =   0.0030053
        k(  244) = (   0.4545455  -0.4545455  -0.0909091), wk =   0.0030053
        k(  245) = (  -0.4545455   0.0000000   0.4545455), wk =   0.0030053
        k(  246) = (   0.4545455  -0.4545455   0.0000000), wk =   0.0030053
        k(  247) = (  -0.4545455   0.0000000  -0.4545455), wk =   0.0030053
        k(  248) = (   0.4545455  -0.4545455  -0.9090909), wk =   0.0030053
        k(  249) = (  -0.4545455   0.0000000  -0.3636364), wk =   0.0030053
        k(  250) = (   0.4545455  -0.4545455  -0.8181818), wk =   0.0030053
        k(  251) = (  -0.4545455   0.0000000  -0.2727273), wk =   0.0030053
        k(  252) = (   0.4545455  -0.4545455  -0.7272727), wk =   0.0030053
        k(  253) = (  -0.4545455   0.0000000  -0.1818182), wk =   0.0030053
        k(  254) = (   0.4545455  -0.4545455  -0.6363636), wk =   0.0030053
        k(  255) = (  -0.4545455   0.0000000  -0.0909091), wk =   0.0030053
        k(  256) = (   0.4545455  -0.4545455  -0.5454545), wk =   0.0030053
        k(  257) = (   0.0909091  -0.1818182  -0.0909091), wk =   0.0030053
        k(  258) = (  -0.1818182   0.0909091   0.0909091), wk =   0.0030053
        k(  259) = (   0.0909091  -0.1818182  -0.1818182), wk =   0.0030053
        k(  260) = (  -0.1818182   0.0909091   0.1818182), wk =   0.0030053
        k(  261) = (   0.0909091  -0.1818182   0.0000000), wk =   0.0030053
        k(  262) = (  -0.1818182   0.0909091   0.0000000), wk =   0.0030053
        k(  263) = (   0.0909091   0.0909091  -0.0909091), wk =   0.0030053
        k(  264) = (   0.0909091  -0.1818182  -0.2727273), wk =   0.0030053
        k(  265) = (  -0.1818182   0.0909091   0.2727273), wk =   0.0030053
        k(  266) = (   0.0909091  -0.1818182   0.0909091), wk =   0.0030053
        k(  267) = (  -0.1818182   0.0909091  -0.0909091), wk =   0.0030053
        k(  268) = (   0.0909091   0.0909091  -0.1818182), wk =   0.0030053
        k(  269) = (   0.0909091  -0.1818182  -0.3636364), wk =   0.0030053
        k(  270) = (  -0.1818182   0.0909091   0.3636364), wk =   0.0030053
        k(  271) = (   0.0909091  -0.1818182   0.1818182), wk =   0.0030053
        k(  272) = (  -0.1818182   0.0909091  -0.1818182), wk =   0.0030053
        k(  273) = (   0.0909091   0.0909091  -0.2727273), wk =   0.0030053
        k(  274) = (   0.0909091  -0.1818182  -0.4545455), wk =   0.0030053
        k(  275) = (  -0.1818182   0.0909091   0.4545455), wk =   0.0030053
        k(  276) = (   0.0909091  -0.1818182   0.2727273), wk =   0.0030053
        k(  277) = (  -0.1818182   0.0909091  -0.2727273), wk =   0.0030053
        k(  278) = (   0.0909091   0.0909091  -0.3636364), wk =   0.0030053
        k(  279) = (   0.0909091  -0.1818182  -0.5454545), wk =   0.0030053
        k(  280) = (  -0.1818182   0.0909091   0.5454545), wk =   0.0030053
        k(  281) = (   0.0909091  -0.1818182   0.3636364), wk =   0.0030053
        k(  282) = (  -0.1818182   0.0909091  -0.3636364), wk =   0.0030053
        k(  283) = (   0.0909091   0.0909091  -0.4545455), wk =   0.0030053
        k(  284) = (   0.0909091  -0.2727273  -0.0909091), wk =   0.0030053
        k(  285) = (  -0.2727273   0.0909091   0.0909091), wk =   0.0030053
        k(  286) = (   0.1818182  -0.2727273  -0.1818182), wk =   0.0030053
        k(  287) = (  -0.2727273   0.1818182   0.1818182), wk =   0.0030053
        k(  288) = (   0.1818182   0.0909091   0.0000000), wk =   0.0030053
        k(  289) = (   0.0909091  -0.2727273  -0.1818182), wk =   0.0030053
        k(  290) = (  -0.2727273   0.0909091   0.1818182), wk =   0.0030053
        k(  291) = (   0.1818182  -0.2727273  -0.0909091), wk =   0.0030053
        k(  292) = (  -0.2727273   0.1818182   0.0909091), wk =   0.0030053
        k(  293) = (   0.1818182   0.0909091  -0.0909091), wk =   0.0030053
        k(  294) = (   0.0909091  -0.2727273  -0.2727273), wk =   0.0030053
        k(  295) = (  -0.2727273   0.0909091   0.2727273), wk =   0.0030053
        k(  296) = (   0.1818182  -0.2727273   0.0000000), wk =   0.0030053
        k(  297) = (  -0.2727273   0.1818182  -0.0000000), wk =   0.0030053
        k(  298) = (   0.1818182   0.0909091  -0.1818182), wk =   0.0030053
        k(  299) = (   0.0909091  -0.2727273  -0.3636364), wk =   0.0030053
        k(  300) = (  -0.2727273   0.0909091   0.3636364), wk =   0.0030053
        k(  301) = (   0.1818182  -0.2727273   0.0909091), wk =   0.0030053
        k(  302) = (  -0.2727273   0.1818182  -0.0909091), wk =   0.0030053
        k(  303) = (   0.1818182   0.0909091  -0.2727273), wk =   0.0030053
        k(  304) = (   0.0909091  -0.2727273  -0.4545455), wk =   0.0030053
        k(  305) = (  -0.2727273   0.0909091   0.4545455), wk =   0.0030053
        k(  306) = (   0.1818182  -0.2727273   0.1818182), wk =   0.0030053
        k(  307) = (  -0.2727273   0.1818182  -0.1818182), wk =   0.0030053
        k(  308) = (   0.1818182   0.0909091  -0.3636364), wk =   0.0030053
        k(  309) = (   0.0909091  -0.2727273  -0.5454545), wk =   0.0030053
        k(  310) = (  -0.2727273   0.0909091   0.5454545), wk =   0.0030053
        k(  311) = (   0.1818182  -0.2727273   0.2727273), wk =   0.0030053
        k(  312) = (  -0.2727273   0.1818182  -0.2727273), wk =   0.0030053
        k(  313) = (   0.1818182   0.0909091  -0.4545455), wk =   0.0030053
        k(  314) = (   0.0909091  -0.2727273   0.3636364), wk =   0.0030053
        k(  315) = (  -0.2727273   0.0909091  -0.3636364), wk =   0.0030053
        k(  316) = (   0.1818182  -0.2727273  -0.6363636), wk =   0.0030053
        k(  317) = (  -0.2727273   0.1818182   0.6363636), wk =   0.0030053
        k(  318) = (   0.1818182   0.0909091   0.4545455), wk =   0.0030053
        k(  319) = (   0.0909091  -0.2727273   0.2727273), wk =   0.0030053
        k(  320) = (  -0.2727273   0.0909091  -0.2727273), wk =   0.0030053
[...]

     occupation numbers 
     1.0000   1.0000   1.0000   1.0000   0.0000   0.0000   0.0000   0.0000

          k =-0.5455-0.0000-0.1113 (   877 PWs)   bands (ev):

    -3.4725   0.5150   1.8395   9.0073  16.7415  24.4653  27.0760  30.7038

     occupation numbers 
     1.0000   1.0000   1.0000   1.0000   0.0000   0.0000   0.0000   0.0000

          k = 0.2727 0.4724-0.1113 (   877 PWs)   bands (ev):

    -3.7092   0.5657   3.0708   9.6009  14.1588  23.5123  25.7752  33.0256

     occupation numbers 
     1.0000   1.0000   1.0000   1.0000   0.0000   0.0000   0.0000   0.0000

          k = 0.2727-0.4724-0.2227 (   870 PWs)   bands (ev):

    -3.0567  -0.2534   2.1822   9.6422  15.1990  24.5897  25.7700  31.0570

     occupation numbers 
     1.0000   1.0000   1.0000   1.0000   0.0000   0.0000   0.0000   0.0000

          k =-0.5455-0.0000 0.2227 (   870 PWs)   bands (ev):

    -3.0751  -0.2441   2.2812  10.2711  14.7545  23.2732  25.5389  31.2865

     occupation numbers 
     1.0000   1.0000   1.0000   1.0001   0.0000   0.0000   0.0000   0.0000

          k = 0.2727-0.4724 0.2227 (   870 PWs)   bands (ev):

    -3.3563   0.8887   2.3812   8.7040  15.2400  23.3151  25.1314  32.3775

     occupation numbers 
     1.0000   1.0000   1.0000   1.0000   0.0000   0.0000   0.0000   0.0000

          k =-0.5455-0.0000-0.2227 (   870 PWs)   bands (ev):

    -3.1357  -0.0023   2.4541   8.4733  16.6405  23.2448  26.7881  31.8787

     occupation numbers 
     1.0000   1.0000   1.0000   1.0000   0.0000   0.0000   0.0000   0.0000

          k = 0.2727 0.4724-0.2227 (   870 PWs)   bands (ev):

    -3.3655   0.6175   2.5158  10.2737  13.4452  23.3069  25.2792  31.7113

     occupation numbers 
     1.0000   1.0000   1.0000   1.0001   0.0000   0.0000   0.0000   0.0000

          k = 0.2727-0.4724-0.3340 (   877 PWs)   bands (ev):

    -2.4367  -0.5824   1.8396   9.1249  15.5874  23.8362  27.0031  30.7035

     occupation numbers 
     1.0000   1.0000   1.0000   1.0000   0.0000   0.0000   0.0000   0.0000

          k =-0.5455-0.0000 0.3340 (   877 PWs)   bands (ev):

    -2.4955  -0.6118   2.3475  10.1049  14.2777  22.6872  25.2859  31.3002

     occupation numbers 
     1.0000   1.0000   1.0000   1.0000   0.0000   0.0000   0.0000   0.0000

          k = 0.2727-0.4724 0.3340 (   877 PWs)   bands (ev):

    -2.9582   0.5138   2.6265   7.9881  15.5777  22.2735  25.2078  33.9793

     occupation numbers 
     1.0000   1.0000   1.0000   1.0000   0.0000   0.0000   0.0000   0.0000

          k =-0.5455-0.0000-0.3340 (   877 PWs)   bands (ev):

    -2.7131  -0.2369   2.7528   7.9999  16.2910  22.1345  26.2442  32.7474

     occupation numbers 
     1.0000   1.0000   1.0000   1.0000   0.0000   0.0000   0.0000   0.0000

          k = 0.2727 0.4724-0.3340 (   877 PWs)   bands (ev):

    -2.8297   0.5533   1.8196  10.6840  13.0165  22.5776  25.8524  30.3691

     occupation numbers 
     1.0000   1.0000   1.0000   1.0240   0.0000   0.0000   0.0000   0.0000

          k = 0.2727-0.4724-0.4454 (   878 PWs)   bands (ev):

    -1.8499  -0.6192   1.4196   8.5428  15.8256  23.2525  27.9178  30.5915

     occupation numbers 
     1.0000   1.0000   1.0000   1.0000   0.0000   0.0000   0.0000   0.0000

          k =-0.5455-0.0000 0.4454 (   878 PWs)   bands (ev):

    -2.0440  -0.5208   2.0894   9.4647  14.2420  23.0802  24.6430  31.1209

     occupation numbers 
     1.0000   1.0000   1.0000   1.0000   0.0000   0.0000   0.0000   0.0000

          k = 0.2727-0.4724 0.4454 (   878 PWs)   bands (ev):

    -2.4923   0.2461   2.3859   7.5845  15.8110  21.9352  25.4903  34.0421

     occupation numbers 
     1.0000   1.0000   1.0000   1.0000   0.0000   0.0000   0.0000   0.0000

          k =-0.5455-0.0000-0.4454 (   878 PWs)   bands (ev):

    -2.3660  -0.0990   2.5533   7.7817  15.7701  21.7779  25.8095  32.6887

     occupation numbers 
     1.0000   1.0000   1.0000   1.0000   0.0000   0.0000   0.0000   0.0000

          k = 0.2727 0.4724-0.4454 (   878 PWs)   bands (ev):

    -2.1920   0.3615   1.1675  10.4515  13.1108  22.5403  26.3746  29.2952

     occupation numbers 
     1.0000   1.0000   1.0000   1.0015   0.0000   0.0000   0.0000   0.0000

          k = 0.2727-0.4724-0.5567 (   881 PWs)   bands (ev):

    -1.7512  -0.2384   1.2917   7.9876  15.9108  22.7225  27.2676  32.0625

     occupation numbers 
     1.0000   1.0000   1.0000   1.0000   0.0000   0.0000   0.0000   0.0000

          k =-0.5455-0.0000 0.5567 (   881 PWs)   bands (ev):

    -2.0103   0.0738   1.7515   8.6471  14.5648  23.1410  24.6043  31.2279

     occupation numbers 
     1.0000   1.0000   1.0000   1.0000   0.0000   0.0000   0.0000   0.0000

          k = 0.2727-0.4724 0.5567 (   881 PWs)   bands (ev):

    -2.0475   0.0582   1.7636   7.6120  15.9063  22.2151  26.1855  33.5849

     occupation numbers 
     1.0000   1.0000   1.0000   1.0000   0.0000   0.0000   0.0000   0.0000

          k =-0.5455-0.0000-0.5567 (   881 PWs)   bands (ev):

    -2.1487   0.2342   1.9679   8.0083  15.1327  22.2675  25.3419  31.9674

     occupation numbers 
     1.0000   1.0000   1.0000   1.0000   0.0000   0.0000   0.0000   0.0000

          k = 0.2727 0.4724-0.5567 (   881 PWs)   bands (ev):

    -1.6087   0.1317   0.6067  10.0115  13.4167  23.5225  25.9704  29.0083

     occupation numbers 
     1.0000   1.0000   1.0000   1.0000   0.0000   0.0000   0.0000   0.0000

          k = 0.2727-0.5774 0.0371 (   876 PWs)   bands (ev):

    -2.7793   0.5844   1.4523  10.3717  13.5582  23.6125  26.1671  29.8930

     occupation numbers 
     1.0000   1.0000   1.0000   1.0004   0.0000   0.0000   0.0000   0.0000

          k =-0.6364-0.0525-0.0371 (   876 PWs)   bands (ev):

    -2.4956  -0.1942   1.2973   9.3856  15.6714  24.4670  27.3159  29.8713

     occupation numbers 
     1.0000   1.0000   1.0000   1.0000   0.0000   0.0000   0.0000   0.0000

          k = 0.3636-0.5249-0.0371 (   876 PWs)   bands (ev):

    -2.5103  -0.4647   2.0662   9.9670  14.4177  23.5701  25.9034  30.4188

     occupation numbers 
     1.0000   1.0000   1.0000   1.0000   0.0000   0.0000   0.0000   0.0000

          k =-0.6364 0.0525 0.0371 (   876 PWs)   bands (ev):

    -2.4210  -0.4221   1.4302   9.2924  15.9161  24.5618  26.7840  30.1390

     occupation numbers 
     1.0000   1.0000   1.0000   1.0000   0.0000   0.0000   0.0000   0.0000

          k = 0.3636 0.5249 0.0371 (   876 PWs)   bands (ev):

    -2.7584  -0.4160   2.9360   8.3915  15.5889  22.4129  26.9965  32.6910

     occupation numbers 
     1.0000   1.0000   1.0000   1.0000   0.0000   0.0000   0.0000   0.0000

          k = 0.2727-0.5774-0.0742 (   879 PWs)   bands (ev):

    -2.5102   0.2737   1.2841  10.3678  13.5833  23.8820  26.1470  29.5469

     occupation numbers 
     1.0000   1.0000   1.0000   1.0004   0.0000   0.0000   0.0000   0.0000

          k =-0.6364-0.0525 0.0742 (   879 PWs)   bands (ev):

    -2.3737   0.2795   0.7028   9.8373  14.8438  25.0367  25.8270  29.6756

     occupation numbers 
     1.0000   1.0000   1.0000   1.0000   0.0000   0.0000   0.0000   0.0000

          k = 0.3636-0.5249 0.0742 (   879 PWs)   bands (ev):

    -2.6105   0.2965   1.7247   9.3841  14.5859  23.7793  25.0636  30.7394

     occupation numbers 
     1.0000   1.0000   1.0000   1.0000   0.0000   0.0000   0.0000   0.0000

          k =-0.6364 0.0525-0.0742 (   879 PWs)   bands (ev):

    -2.4209   0.1766   1.0158   8.7346  16.3300  23.8709  27.3410  30.6484

     occupation numbers 
     1.0000   1.0000   1.0000   1.0000   0.0000   0.0000   0.0000   0.0000

          k = 0.3636 0.5249-0.0742 (   879 PWs)   bands (ev):

    -2.7556  -0.0269   2.7299   8.5279  14.9917  22.3537  26.2161  32.7548

     occupation numbers 
     1.0000   1.0000   1.0000   1.0000   0.0000   0.0000   0.0000   0.0000

          k = 0.2727-0.5774-0.1856 (   885 PWs)   bands (ev):

    -2.1305  -0.2215   1.2278   9.9721  14.0136  24.9110  25.2244  29.7001

     occupation numbers 
     1.0000   1.0000   1.0000   1.0000   0.0000   0.0000   0.0000   0.0000

          k =-0.6364-0.0525 0.1856 (   885 PWs)   bands (ev):

    -2.1172  -0.1994   1.1254  10.2897  13.9192  24.0410  25.7016  29.6985

     occupation numbers 
     1.0000   1.0000   1.0000   1.0001   0.0000   0.0000   0.0000   0.0000

          k = 0.3636-0.5249 0.1856 (   885 PWs)   bands (ev):

    -2.6055   0.7667   1.6323   8.5893  15.0002  23.1416  24.8942  31.7254

     occupation numbers 
     1.0000   1.0000   1.0000   1.0000   0.0000   0.0000   0.0000   0.0000

          k =-0.6364 0.0525-0.1856 (   885 PWs)   bands (ev):

    -2.3478   0.0808   1.4763   8.1902  16.4086  22.9150  26.7888  32.2722

     occupation numbers 
     1.0000   1.0000   1.0000   1.0000   0.0000   0.0000   0.0000   0.0000

          k = 0.3636 0.5249-0.1856 (   885 PWs)   bands (ev):

    -2.5977   0.2858   2.1496   9.0876  14.2465  22.8597  25.2184  32.0133

     occupation numbers 
     1.0000   1.0000   1.0000   1.0000   0.0000   0.0000   0.0000   0.0000

          k = 0.2727-0.5774-0.2969 (   878 PWs)   bands (ev):

    -1.7283  -0.5632   1.0286   9.5176  14.6442  24.2059  26.5008  29.6320

     occupation numbers 
     1.0000   1.0000   1.0000   1.0000   0.0000   0.0000   0.0000   0.0000

          k =-0.6364-0.0525 0.2969 (   878 PWs)   bands (ev):

    -1.8695  -0.5248   1.4665  10.6152  13.2822  22.7637  25.9743  29.9120

     occupation numbers 
     1.0000   1.0000   1.0000   1.0121   0.0000   0.0000   0.0000   0.0000

          k = 0.3636-0.5249 0.2969 (   878 PWs)   bands (ev):

    -2.5164   0.4586   2.1619   7.9202  15.5139  21.9904  25.2664  33.3928

     occupation numbers 
     1.0000   1.0000   1.0000   1.0000   0.0000   0.0000   0.0000   0.0000

          k =-0.6364 0.0525-0.2969 (   878 PWs)   bands (ev):

    -2.3158  -0.0625   2.1266   7.7673  16.2689  21.9508  26.0659  33.8189

     occupation numbers 
     1.0000   1.0000   1.0000   1.0000   0.0000   0.0000   0.0000   0.0000

          k = 0.3636 0.5249-0.2969 (   878 PWs)   bands (ev):

    -2.3128   0.2486   1.6501   9.8803  13.5576  22.9697  24.8299  31.1879

     occupation numbers 
     1.0000   1.0000   1.0000   1.0000   0.0000   0.0000   0.0000   0.0000

          k =-0.6364-0.0525 0.4082 (   878 PWs)   bands (ev):

    -1.9885  -0.2406   1.5544  10.5139  13.1584  22.4576  25.5345  30.4709

     occupation numbers 
     1.0000   1.0000   1.0000   1.0036   0.0000   0.0000   0.0000   0.0000

          k = 0.3636-0.5249 0.4082 (   878 PWs)   bands (ev):

    -2.3927   0.0970   2.4107   7.6288  15.9720  21.5235  25.5837  34.3252

     occupation numbers 
     1.0000   1.0000   1.0000   1.0000   0.0000   0.0000   0.0000   0.0000

          k = 0.2727-0.5774 0.2598 (   870 PWs)   bands (ev):

    -2.9910   0.2238   2.6090   9.0562  14.5487  23.2370  25.5745  32.5899

     occupation numbers 
     1.0000   1.0000   1.0000   1.0000   0.0000   0.0000   0.0000   0.0000

          k =-0.6364-0.0525-0.2598 (   870 PWs)   bands (ev):

    -2.6487  -0.6885   2.6624   8.6013  15.9539  23.0659  27.6421  31.8707

     occupation numbers 
     1.0000   1.0000   1.0000   1.0000   0.0000   0.0000   0.0000   0.0000

          k = 0.3636-0.5249-0.2598 (   870 PWs)   bands (ev):

    -2.3394  -0.9483   1.9340   9.7841  15.2479  24.8393  25.7569  30.3421

     occupation numbers 
     1.0000   1.0000   1.0000   1.0000   0.0000   0.0000   0.0000   0.0000

          k =-0.6364 0.0525 0.2598 (   870 PWs)   bands (ev):

    -2.3575  -0.9784   2.1760  10.0813  14.6490  23.9943  25.9623  30.4374

     occupation numbers 
     1.0000   1.0000   1.0000   1.0000   0.0000   0.0000   0.0000   0.0000

          k = 0.3636 0.5249 0.2598 (   870 PWs)   bands (ev):

    -2.5481  -0.6325   2.0521   8.9658  16.0398  23.8598  27.9562  30.5679

     occupation numbers 
     1.0000   1.0000   1.0000   1.0000   0.0000   0.0000   0.0000   0.0000

     the Fermi energy is    11.3514 ev

!    total energy              =     -22.28456939 Ry
     estimated scf accuracy    <          1.8E-11 Ry
     smearing contrib. (-TS)   =       0.00014811 Ry
     internal energy E=F+TS    =     -22.28471750 Ry

     The total energy is F=E-TS. E is the sum of the following terms:
     one-electron contribution =      -0.42403565 Ry
     hartree contribution      =       6.55811464 Ry
     xc contribution           =     -10.61200349 Ry
     ewald contribution        =     -17.80679300 Ry

     convergence has been achieved in  11 iterations

     Forces acting on atoms (cartesian axes, Ry/au):

     atom    1 type  1   force =    -5.00163994    6.41998444  -11.33506041
     atom    2 type  2   force =     5.00163994   -6.41998444   11.33506041
     The non-local contrib.  to forces
     atom    1 type  1   force =    -1.11432495    1.83415900   -3.18442801
     atom    2 type  2   force =     0.15279769   -0.51119294    0.88762983
     The ionic contribution  to forces
     atom    1 type  1   force =    -7.43664081    8.73954593  -15.51515850
     atom    2 type  2   force =     7.43664081   -8.73954593   15.51515850
     The local contribution  to forces
     atom    1 type  1   force =     3.43316585   -4.00516354    7.10182551
     atom    2 type  2   force =    -2.52084816    2.74594682   -4.91698554
     The core correction contribution to forces
     atom    1 type  1   force =     0.11615920   -0.14855645    0.26269992
     atom    2 type  2   force =    -0.06695031    0.08480309   -0.15073595
     The Hubbard contrib.    to forces
     atom    1 type  1   force =     0.00000000    0.00000000    0.00000000
     atom    2 type  2   force =     0.00000000    0.00000000    0.00000000
     The SCF correction term to forces
     atom    1 type  1   force =     0.00000032   -0.00000008    0.00000033
     atom    2 type  2   force =    -0.00000055    0.00000494   -0.00000677

     Total force =    19.734041     Total SCF correction =     0.000008


     Computing stress (Cartesian axis) and pressure

          total   stress  (Ry/bohr**3)                   (kbar)     P=    11626.88
   0.03736905  -0.04074937   0.07047542         5497.18    -5994.44    10367.29
  -0.04074937   0.04999670  -0.07900399        -5994.44     7354.77   -11621.89
   0.07047542  -0.07900399   0.14974802        10367.29   -11621.89    22028.69

     kinetic stress (kbar)  34063.98    166.29   -552.23
                              166.29  33593.13   1432.44
                             -552.23   1432.44  32300.55

     local   stress (kbar)    229.77   1727.88  -3662.50
                             1727.88  -2692.16   5560.73
                            -3662.50   5560.73  -9353.95

     nonloc. stress (kbar)  -4132.87    -12.47    -15.55
                              -12.47  -3875.98   -282.23
                              -15.55   -282.23  -3614.54

     hartree stress (kbar)   3855.28     -6.18    153.03
                               -6.18   4444.27   -472.86
                              153.03   -472.86   4978.70

     exc-cor stress (kbar)  -1819.69    -10.25     24.26
                              -10.25  -1795.22    -43.17
                               24.26    -43.17  -1746.41

     corecor stress (kbar)  -4463.53     32.12    -54.34
                               32.12  -4477.63     68.09
                              -54.34     68.09  -4559.56

     ewald   stress (kbar) -22235.76  -7891.83  14474.62
                            -7891.83 -17841.65 -17884.89
                            14474.62 -17884.89   4023.90

     hubbard stress (kbar)      0.00      0.00      0.00
                                0.00      0.00      0.00
                                0.00      0.00      0.00

     DFT-D   stress (kbar)      0.00      0.00      0.00
                                0.00      0.00      0.00
                                0.00      0.00      0.00

     XDM     stress (kbar)      0.00      0.00      0.00
                                0.00      0.00      0.00
                                0.00      0.00      0.00

     dft-nl  stress (kbar)      0.00      0.00      0.00
                                0.00      0.00      0.00
                                0.00      0.00      0.00

     TS-vdW  stress (kbar)      0.00      0.00      0.00
                                0.00      0.00      0.00
                                0.00      0.00      0.00



     init_run     :      0.45s CPU      0.61s WALL (       1 calls)
     electrons    :     15.91s CPU     17.22s WALL (       1 calls)
     forces       :      0.07s CPU      0.08s WALL (       1 calls)
     stress       :      0.20s CPU      0.20s WALL (       1 calls)

     Called by init_run:
     wfcinit      :      0.41s CPU      0.52s WALL (       1 calls)
     wfcinit:atom :      0.01s CPU      0.01s WALL (     666 calls)
     wfcinit:wfcr :      0.38s CPU      0.48s WALL (     666 calls)
     potinit      :      0.01s CPU      0.01s WALL (       1 calls)
     hinit0       :      0.02s CPU      0.07s WALL (       1 calls)

     Called by electrons:
     c_bands      :     13.65s CPU     14.76s WALL (      11 calls)
     sum_band     :      2.17s CPU      2.37s WALL (      11 calls)
     v_of_rho     :      0.02s CPU      0.02s WALL (      12 calls)
     v_h          :      0.00s CPU      0.00s WALL (      12 calls)
     v_xc         :      0.02s CPU      0.02s WALL (      14 calls)
     newd         :      0.01s CPU      0.01s WALL (      12 calls)
     mix_rho      :      0.00s CPU      0.01s WALL (      11 calls)

     Called by c_bands:
     init_us_2    :      0.25s CPU      0.27s WALL (   16650 calls)
     cegterg      :     13.24s CPU     14.31s WALL (    7326 calls)

     Called by sum_band:
     sum_band:wei :      0.02s CPU      0.02s WALL (      11 calls)
     sum_band:loo :      2.14s CPU      2.34s WALL (      11 calls)
     sum_band:buf :      0.02s CPU      0.02s WALL (    7326 calls)
     sum_band:ini :      0.11s CPU      0.12s WALL (    7326 calls)
     sum_band:cal :      0.11s CPU      0.12s WALL (    7326 calls)
     sum_band:bec :      0.01s CPU      0.02s WALL (    7326 calls)
     addusdens    :      0.01s CPU      0.01s WALL (      11 calls)
     addusd:skk   :      0.00s CPU      0.00s WALL (      11 calls)
     addusd:dgemm :      0.00s CPU      0.00s WALL (      11 calls)
     addusd:qvan2 :      0.00s CPU      0.00s WALL (      11 calls)

     Called by *egterg:
     cdiaghg      :      1.76s CPU      1.97s WALL (   27603 calls)
     cegterg:over :      0.55s CPU      0.60s WALL (   20277 calls)
     cegterg:upda :      0.10s CPU      0.11s WALL (   20277 calls)
     cegterg:last :      0.12s CPU      0.14s WALL (   15433 calls)
     h_psi        :     10.39s CPU     11.24s WALL (   28269 calls)
     s_psi        :      0.11s CPU      0.12s WALL (   28269 calls)
     g_psi        :      0.03s CPU      0.03s WALL (   20277 calls)

     Called by h_psi:
     h_psi:calbec :      0.43s CPU      0.48s WALL (   28269 calls)
     vloc_psi     :      9.72s CPU     10.52s WALL (   28269 calls)
     add_vuspsi   :      0.15s CPU      0.16s WALL (   28269 calls)

     General routines
     calbec       :      0.56s CPU      0.62s WALL (   38925 calls)
     fft          :      0.01s CPU      0.05s WALL (     179 calls)
     ffts         :      0.00s CPU      0.00s WALL (      23 calls)
     fftw         :     10.83s CPU     11.75s WALL (  374384 calls)
     interpolate  :      0.00s CPU      0.00s WALL (      12 calls)

     Parallel routines
     fft_scatt_xy :      0.90s CPU      0.95s WALL (  374586 calls)
     fft_scatt_yz :      4.08s CPU      4.44s WALL (  374586 calls)

     PWSCF        :     16.73s CPU     18.35s WALL


   This run was terminated on:  21:18:30  28Sep2022            

=------------------------------------------------------------------------------=
   JOB DONE.
=------------------------------------------------------------------------------=
Note: The following floating-point exceptions are signalling: IEEE_UNDERFLOW_FLAG IEEE_DENORMAL
