
     Program PWSCF v.6.7MaX starts on 28Sep2022 at 21:17:42 

     This program is part of the open-source Quantum ESPRESSO suite
     for quantum simulation of materials; please cite
         "P. Giannozzi et al., J. Phys.:Condens. Matter 21 395502 (2009);
         "P. Giannozzi et al., J. Phys.:Condens. Matter 29 465901 (2017);
          URL http://www.quantum-espresso.org", 
     in publications or presentations arising from this work. More details at
     http://www.quantum-espresso.org/quote

     Parallel version (MPI), running on    16 processors

     MPI processes distributed on     1 nodes
     R & G space division:  proc/nbgrp/npool/nimage =      16
     Reading input from scale_2dab-05.in

     Current dimensions of program PWSCF are:
     Max number of different atomic species (ntypx) = 10
     Max number of k-points (npk) =  40000
     Max angular momentum in pseudopotentials (lmaxx) =  3
     Message from routine read_pp_mesh:
     mesh size missing, using the one in header

     Subspace diagonalization in iterative solution of the eigenvalue problem:
     a serial algorithm will be used


     Parallelization info
     --------------------
     sticks:   dense  smooth     PW     G-vecs:    dense   smooth      PW
     Min          48      36     12                  863      535     104
     Max          49      37     13                  866      536     106
     Sum         769     583    199                13811     8567    1673



     bravais-lattice index     =            0
     lattice parameter (alat)  =       5.0875  a.u.
     unit-cell volume          =      88.6777 (a.u.)^3
     number of atoms/cell      =            2
     number of atomic types    =            2
     number of electrons       =         8.00
     number of Kohn-Sham states=            8
     kinetic-energy cutoff     =      80.0000  Ry
     charge density cutoff     =     440.0000  Ry
     scf convergence threshold =      2.0E-10
     mixing beta               =       0.4000
     number of iterations used =            8  plain     mixing
     Exchange-correlation= PBE
                           (   1   4   3   4   0   0   0)

     celldm(1)=   5.087521  celldm(2)=   0.000000  celldm(3)=   0.000000
     celldm(4)=   0.000000  celldm(5)=   0.000000  celldm(6)=   0.000000

     crystal axes: (cart. coord. in units of alat)
               a(1) = (   1.000000   0.000000   0.000000 )  
               a(2) = (  -0.500000   0.866025   0.000000 )  
               a(3) = (   0.476190   0.274929   0.777616 )  

     reciprocal axes: (cart. coord. in units 2 pi/alat)
               b(1) = (  1.000000  0.577350 -0.816497 )  
               b(2) = (  0.000000  1.154701 -0.408248 )  
               b(3) = (  0.000000 -0.000000  1.285982 )  


     PseudoPot. # 1 for B  read from file:
     /opt/QEpot/SSSP_precision_pseudos/B_pbe_v1.01.uspp.F.UPF
     MD5 check sum: d081ebb89d0c768e112975f650467a00
     Pseudo is Ultrasoft + core correction, Zval =  3.0
     Generated by new atomic code, or converted to UPF format
     Using radial grid of  781 points,  4 beta functions with: 
                l(1) =   0
                l(2) =   0
                l(3) =   1
                l(4) =   1
     Q(r) pseudized with  8 coefficients,  rinner =    1.100   1.100   1.100


     PseudoPot. # 2 for N  read from file:
     /opt/QEpot/SSSP_precision_pseudos/N.oncvpsp.upf
     MD5 check sum: 563d65bfb082928f0c9eb97172f6c357
     Pseudo is Norm-conserving + core correction, Zval =  5.0
     Generated using ONCVPSP code by D. R. Hamann
     Using radial grid of 1058 points,  4 beta functions with: 
                l(1) =   0
                l(2) =   0
                l(3) =   1
                l(4) =   1

     atomic species   valence    mass     pseudopotential
        B              3.00    10.81000     B ( 1.00)
        N              5.00    14.00700     N ( 1.00)

     No symmetry found


                                    s                        frac. trans.

      isym =  1     identity                                     

 cryst.   s( 1) = (     1          0          0      )
                  (     0          1          0      )
                  (     0          0          1      )

 cart.    s( 1) = (  1.0000000  0.0000000 -0.0000000 )
                  (  0.0000000  1.0000000 -0.0000000 )
                  (  0.0000000  0.0000000  1.0000000 )


   Cartesian axes

     site n.     atom                  positions (alat units)
         1           B   tau(   1) = (   0.0018724   0.3700787   0.0010098  )
         2           N   tau(   2) = (   0.1244766   0.2838738   0.1954138  )

   Crystallographic axes

     site n.     atom                  positions (cryst. coord.)
         1           B   tau(   1) = (  0.2147129  0.4269178  0.0012986  )
         2           N   tau(   2) = (  0.1288165  0.2480118  0.2512986  )

     number of k points=   666  Marzari-Vanderbilt smearing, width (Ry)=  0.0220
                       cart. coord. in units 2pi/alat
        k(    1) = (   0.0000000   0.0000000   0.0000000), wk =   0.0015026
        k(    2) = (   0.0000000   0.0000000   0.1169075), wk =   0.0030053
        k(    3) = (   0.0000000   0.0000000   0.2338149), wk =   0.0030053
        k(    4) = (   0.0000000   0.0000000   0.3507224), wk =   0.0030053
        k(    5) = (   0.0000000   0.0000000   0.4676299), wk =   0.0030053
        k(    6) = (   0.0000000   0.0000000   0.5845373), wk =   0.0030053
        k(    7) = (   0.0000000   0.1049728  -0.0371135), wk =   0.0030053
        k(    8) = (   0.0000000   0.1049728   0.0797940), wk =   0.0030053
        k(    9) = (   0.0000000   0.1049728   0.1967014), wk =   0.0030053
        k(   10) = (   0.0000000   0.1049728   0.3136089), wk =   0.0030053
        k(   11) = (   0.0000000   0.1049728   0.4305164), wk =   0.0030053
        k(   12) = (   0.0000000   0.1049728   0.5474238), wk =   0.0030053
        k(   13) = (   0.0000000   0.1049728  -0.6216508), wk =   0.0030053
        k(   14) = (   0.0000000   0.1049728  -0.5047433), wk =   0.0030053
        k(   15) = (   0.0000000   0.1049728  -0.3878359), wk =   0.0030053
        k(   16) = (   0.0000000   0.1049728  -0.2709284), wk =   0.0030053
        k(   17) = (   0.0000000   0.1049728  -0.1540209), wk =   0.0030053
        k(   18) = (   0.0000000   0.2099456  -0.0742270), wk =   0.0030053
        k(   19) = (   0.0000000   0.2099456   0.0426805), wk =   0.0030053
        k(   20) = (   0.0000000   0.2099456   0.1595880), wk =   0.0030053
        k(   21) = (   0.0000000   0.2099456   0.2764954), wk =   0.0030053
        k(   22) = (   0.0000000   0.2099456   0.3934029), wk =   0.0030053
        k(   23) = (   0.0000000   0.2099456   0.5103104), wk =   0.0030053
        k(   24) = (   0.0000000   0.2099456  -0.6587643), wk =   0.0030053
        k(   25) = (   0.0000000   0.2099456  -0.5418568), wk =   0.0030053
        k(   26) = (   0.0000000   0.2099456  -0.4249494), wk =   0.0030053
        k(   27) = (   0.0000000   0.2099456  -0.3080419), wk =   0.0030053
        k(   28) = (   0.0000000   0.2099456  -0.1911344), wk =   0.0030053
        k(   29) = (   0.0000000   0.3149183  -0.1113404), wk =   0.0030053
        k(   30) = (   0.0000000   0.3149183   0.0055670), wk =   0.0030053
        k(   31) = (   0.0000000   0.3149183   0.1224745), wk =   0.0030053
        k(   32) = (   0.0000000   0.3149183   0.2393820), wk =   0.0030053
        k(   33) = (   0.0000000   0.3149183   0.3562894), wk =   0.0030053
        k(   34) = (   0.0000000   0.3149183   0.4731969), wk =   0.0030053
        k(   35) = (   0.0000000   0.3149183  -0.6958778), wk =   0.0030053
        k(   36) = (   0.0000000   0.3149183  -0.5789703), wk =   0.0030053
        k(   37) = (   0.0000000   0.3149183  -0.4620628), wk =   0.0030053
        k(   38) = (   0.0000000   0.3149183  -0.3451554), wk =   0.0030053
        k(   39) = (   0.0000000   0.3149183  -0.2282479), wk =   0.0030053
        k(   40) = (   0.0000000   0.4198911  -0.1484539), wk =   0.0030053
        k(   41) = (   0.0000000   0.4198911  -0.0315465), wk =   0.0030053
        k(   42) = (   0.0000000   0.4198911   0.0853610), wk =   0.0030053
        k(   43) = (   0.0000000   0.4198911   0.2022685), wk =   0.0030053
        k(   44) = (   0.0000000   0.4198911   0.3191759), wk =   0.0030053
        k(   45) = (   0.0000000   0.4198911   0.4360834), wk =   0.0030053
        k(   46) = (   0.0000000   0.4198911  -0.7329912), wk =   0.0030053
        k(   47) = (   0.0000000   0.4198911  -0.6160838), wk =   0.0030053
        k(   48) = (   0.0000000   0.4198911  -0.4991763), wk =   0.0030053
        k(   49) = (   0.0000000   0.4198911  -0.3822689), wk =   0.0030053
        k(   50) = (   0.0000000   0.4198911  -0.2653614), wk =   0.0030053
        k(   51) = (   0.0000000   0.5248639  -0.1855674), wk =   0.0030053
        k(   52) = (   0.0000000   0.5248639  -0.0686599), wk =   0.0030053
        k(   53) = (   0.0000000   0.5248639   0.0482475), wk =   0.0030053
        k(   54) = (   0.0000000   0.5248639   0.1651550), wk =   0.0030053
        k(   55) = (   0.0000000   0.5248639   0.2820625), wk =   0.0030053
        k(   56) = (   0.0000000   0.5248639   0.3989699), wk =   0.0030053
        k(   57) = (   0.0000000   0.5248639  -0.7701047), wk =   0.0030053
        k(   58) = (   0.0000000   0.5248639  -0.6531973), wk =   0.0030053
        k(   59) = (   0.0000000   0.5248639  -0.5362898), wk =   0.0030053
        k(   60) = (   0.0000000   0.5248639  -0.4193823), wk =   0.0030053
        k(   61) = (   0.0000000   0.5248639  -0.3024749), wk =   0.0030053
        k(   62) = (   0.0909091   0.0524864  -0.0742270), wk =   0.0030053
        k(   63) = (   0.0909091   0.0524864   0.0426805), wk =   0.0030053
        k(   64) = (   0.0909091   0.0524864   0.1595880), wk =   0.0030053
        k(   65) = (   0.0909091   0.0524864   0.2764954), wk =   0.0030053
        k(   66) = (   0.0909091   0.0524864   0.3934029), wk =   0.0030053
        k(   67) = (   0.0909091   0.0524864   0.5103104), wk =   0.0030053
        k(   68) = (   0.0909091   0.0524864  -0.6587643), wk =   0.0030053
        k(   69) = (   0.0909091   0.0524864  -0.5418568), wk =   0.0030053
        k(   70) = (   0.0909091   0.0524864  -0.4249494), wk =   0.0030053
        k(   71) = (   0.0909091   0.0524864  -0.3080419), wk =   0.0030053
        k(   72) = (   0.0909091   0.0524864  -0.1911344), wk =   0.0030053
        k(   73) = (   0.0909091   0.1574592  -0.1113404), wk =   0.0030053
        k(   74) = (   0.0909091   0.1574592   0.0055670), wk =   0.0030053
        k(   75) = (   0.0909091   0.1574592   0.1224745), wk =   0.0030053
        k(   76) = (   0.0909091   0.1574592   0.2393820), wk =   0.0030053
        k(   77) = (   0.0909091   0.1574592   0.3562894), wk =   0.0030053
        k(   78) = (   0.0909091   0.1574592   0.4731969), wk =   0.0030053
        k(   79) = (   0.0909091   0.1574592  -0.6958778), wk =   0.0030053
        k(   80) = (   0.0909091   0.1574592  -0.5789703), wk =   0.0030053
        k(   81) = (   0.0909091   0.1574592  -0.4620628), wk =   0.0030053
        k(   82) = (   0.0909091   0.1574592  -0.3451554), wk =   0.0030053
        k(   83) = (   0.0909091   0.1574592  -0.2282479), wk =   0.0030053
        k(   84) = (   0.0909091   0.2624319  -0.1484539), wk =   0.0030053
        k(   85) = (   0.0909091   0.2624319  -0.0315465), wk =   0.0030053
        k(   86) = (   0.0909091   0.2624319   0.0853610), wk =   0.0030053
        k(   87) = (   0.0909091   0.2624319   0.2022685), wk =   0.0030053
        k(   88) = (   0.0909091   0.2624319   0.3191759), wk =   0.0030053
        k(   89) = (   0.0909091   0.2624319   0.4360834), wk =   0.0030053
        k(   90) = (   0.0909091   0.2624319  -0.7329912), wk =   0.0030053
        k(   91) = (   0.0909091   0.2624319  -0.6160838), wk =   0.0030053
        k(   92) = (   0.0909091   0.2624319  -0.4991763), wk =   0.0030053
        k(   93) = (   0.0909091   0.2624319  -0.3822689), wk =   0.0030053
        k(   94) = (   0.0909091   0.2624319  -0.2653614), wk =   0.0030053
        k(   95) = (   0.0909091   0.3674047  -0.1855674), wk =   0.0030053
        k(   96) = (   0.0909091   0.3674047  -0.0686599), wk =   0.0030053
        k(   97) = (   0.0909091   0.3674047   0.0482475), wk =   0.0030053
        k(   98) = (   0.0909091   0.3674047   0.1651550), wk =   0.0030053
        k(   99) = (   0.0909091   0.3674047   0.2820625), wk =   0.0030053
        k(  100) = (   0.0909091   0.3674047   0.3989699), wk =   0.0030053
        k(  101) = (   0.0909091   0.3674047  -0.7701047), wk =   0.0030053
        k(  102) = (   0.0909091   0.3674047  -0.6531973), wk =   0.0030053
        k(  103) = (   0.0909091   0.3674047  -0.5362898), wk =   0.0030053
        k(  104) = (   0.0909091   0.3674047  -0.4193823), wk =   0.0030053
        k(  105) = (   0.0909091   0.3674047  -0.3024749), wk =   0.0030053
        k(  106) = (   0.0909091   0.4723775  -0.2226809), wk =   0.0030053
        k(  107) = (   0.0909091   0.4723775  -0.1057734), wk =   0.0030053
        k(  108) = (   0.0909091   0.4723775   0.0111340), wk =   0.0030053
        k(  109) = (   0.0909091   0.4723775   0.1280415), wk =   0.0030053
        k(  110) = (   0.0909091   0.4723775   0.2449490), wk =   0.0030053
        k(  111) = (   0.0909091   0.4723775   0.3618564), wk =   0.0030053
        k(  112) = (   0.0909091   0.4723775  -0.8072182), wk =   0.0030053
        k(  113) = (   0.0909091   0.4723775  -0.6903107), wk =   0.0030053
        k(  114) = (   0.0909091   0.4723775  -0.5734033), wk =   0.0030053
        k(  115) = (   0.0909091   0.4723775  -0.4564958), wk =   0.0030053
        k(  116) = (   0.0909091   0.4723775  -0.3395884), wk =   0.0030053
        k(  117) = (   0.0909091   0.5773503  -0.2597944), wk =   0.0030053
        k(  118) = (   0.0909091   0.5773503  -0.1428869), wk =   0.0030053
        k(  119) = (   0.0909091   0.5773503  -0.0259794), wk =   0.0030053
        k(  120) = (   0.0909091   0.5773503   0.0909280), wk =   0.0030053
        k(  121) = (   0.0909091   0.5773503   0.2078355), wk =   0.0030053
        k(  122) = (   0.0909091   0.5773503   0.3247430), wk =   0.0030053
        k(  123) = (   0.0909091   0.5773503  -0.8443317), wk =   0.0030053
        k(  124) = (   0.0909091   0.5773503  -0.7274242), wk =   0.0030053
        k(  125) = (   0.0909091   0.5773503  -0.6105168), wk =   0.0030053
        k(  126) = (   0.0909091   0.5773503  -0.4936093), wk =   0.0030053
        k(  127) = (   0.0909091   0.5773503  -0.3767018), wk =   0.0030053
        k(  128) = (   0.0909091  -0.4723775   0.1113404), wk =   0.0030053
        k(  129) = (   0.0909091  -0.4723775   0.2282479), wk =   0.0030053
        k(  130) = (   0.0909091  -0.4723775   0.3451554), wk =   0.0030053
        k(  131) = (   0.0909091  -0.4723775   0.4620628), wk =   0.0030053
        k(  132) = (   0.0909091  -0.4723775   0.5789703), wk =   0.0030053
        k(  133) = (   0.0909091  -0.4723775   0.6958778), wk =   0.0030053
        k(  134) = (   0.0909091  -0.4723775  -0.4731969), wk =   0.0030053
        k(  135) = (   0.0909091  -0.4723775  -0.3562894), wk =   0.0030053
        k(  136) = (   0.0909091  -0.4723775  -0.2393820), wk =   0.0030053
        k(  137) = (   0.0909091  -0.4723775  -0.1224745), wk =   0.0030053
        k(  138) = (   0.0909091  -0.4723775  -0.0055670), wk =   0.0030053
        k(  139) = (   0.0909091  -0.3674047   0.0742270), wk =   0.0030053
        k(  140) = (   0.0909091  -0.3674047   0.1911344), wk =   0.0030053
        k(  141) = (   0.0909091  -0.3674047   0.3080419), wk =   0.0030053
        k(  142) = (   0.0909091  -0.3674047   0.4249494), wk =   0.0030053
        k(  143) = (   0.0909091  -0.3674047   0.5418568), wk =   0.0030053
        k(  144) = (   0.0909091  -0.3674047   0.6587643), wk =   0.0030053
        k(  145) = (   0.0909091  -0.3674047  -0.5103104), wk =   0.0030053
        k(  146) = (   0.0909091  -0.3674047  -0.3934029), wk =   0.0030053
        k(  147) = (   0.0909091  -0.3674047  -0.2764954), wk =   0.0030053
        k(  148) = (   0.0909091  -0.3674047  -0.1595880), wk =   0.0030053
        k(  149) = (   0.0909091  -0.3674047  -0.0426805), wk =   0.0030053
        k(  150) = (   0.0909091  -0.2624319   0.0371135), wk =   0.0030053
        k(  151) = (   0.0909091  -0.2624319   0.1540209), wk =   0.0030053
        k(  152) = (   0.0909091  -0.2624319   0.2709284), wk =   0.0030053
        k(  153) = (   0.0909091  -0.2624319   0.3878359), wk =   0.0030053
        k(  154) = (   0.0909091  -0.2624319   0.5047433), wk =   0.0030053
        k(  155) = (   0.0909091  -0.2624319   0.6216508), wk =   0.0030053
        k(  156) = (   0.0909091  -0.2624319  -0.5474238), wk =   0.0030053
        k(  157) = (   0.0909091  -0.2624319  -0.4305164), wk =   0.0030053
        k(  158) = (   0.0909091  -0.2624319  -0.3136089), wk =   0.0030053
        k(  159) = (   0.0909091  -0.2624319  -0.1967014), wk =   0.0030053
        k(  160) = (   0.0909091  -0.2624319  -0.0797940), wk =   0.0030053
        k(  161) = (   0.0909091  -0.1574592   0.0000000), wk =   0.0030053
        k(  162) = (   0.0909091  -0.1574592   0.1169075), wk =   0.0030053
        k(  163) = (   0.0909091  -0.1574592   0.2338149), wk =   0.0030053
        k(  164) = (   0.0909091  -0.1574592   0.3507224), wk =   0.0030053
        k(  165) = (   0.0909091  -0.1574592   0.4676299), wk =   0.0030053
        k(  166) = (   0.0909091  -0.1574592   0.5845373), wk =   0.0030053
        k(  167) = (   0.1818182   0.1049728  -0.1484539), wk =   0.0030053
        k(  168) = (   0.1818182   0.1049728  -0.0315465), wk =   0.0030053
        k(  169) = (   0.1818182   0.1049728   0.0853610), wk =   0.0030053
        k(  170) = (   0.1818182   0.1049728   0.2022685), wk =   0.0030053
        k(  171) = (   0.1818182   0.1049728   0.3191759), wk =   0.0030053
        k(  172) = (   0.1818182   0.1049728   0.4360834), wk =   0.0030053
        k(  173) = (   0.1818182   0.1049728  -0.7329912), wk =   0.0030053
        k(  174) = (   0.1818182   0.1049728  -0.6160838), wk =   0.0030053
        k(  175) = (   0.1818182   0.1049728  -0.4991763), wk =   0.0030053
        k(  176) = (   0.1818182   0.1049728  -0.3822689), wk =   0.0030053
        k(  177) = (   0.1818182   0.1049728  -0.2653614), wk =   0.0030053
        k(  178) = (   0.1818182   0.2099456  -0.1855674), wk =   0.0030053
        k(  179) = (   0.1818182   0.2099456  -0.0686599), wk =   0.0030053
        k(  180) = (   0.1818182   0.2099456   0.0482475), wk =   0.0030053
        k(  181) = (   0.1818182   0.2099456   0.1651550), wk =   0.0030053
        k(  182) = (   0.1818182   0.2099456   0.2820625), wk =   0.0030053
        k(  183) = (   0.1818182   0.2099456   0.3989699), wk =   0.0030053
        k(  184) = (   0.1818182   0.2099456  -0.7701047), wk =   0.0030053
        k(  185) = (   0.1818182   0.2099456  -0.6531973), wk =   0.0030053
        k(  186) = (   0.1818182   0.2099456  -0.5362898), wk =   0.0030053
        k(  187) = (   0.1818182   0.2099456  -0.4193823), wk =   0.0030053
        k(  188) = (   0.1818182   0.2099456  -0.3024749), wk =   0.0030053
        k(  189) = (   0.1818182   0.3149183  -0.2226809), wk =   0.0030053
        k(  190) = (   0.1818182   0.3149183  -0.1057734), wk =   0.0030053
        k(  191) = (   0.1818182   0.3149183   0.0111340), wk =   0.0030053
        k(  192) = (   0.1818182   0.3149183   0.1280415), wk =   0.0030053
        k(  193) = (   0.1818182   0.3149183   0.2449490), wk =   0.0030053
        k(  194) = (   0.1818182   0.3149183   0.3618564), wk =   0.0030053
        k(  195) = (   0.1818182   0.3149183  -0.8072182), wk =   0.0030053
        k(  196) = (   0.1818182   0.3149183  -0.6903107), wk =   0.0030053
        k(  197) = (   0.1818182   0.3149183  -0.5734033), wk =   0.0030053
        k(  198) = (   0.1818182   0.3149183  -0.4564958), wk =   0.0030053
        k(  199) = (   0.1818182   0.3149183  -0.3395884), wk =   0.0030053
        k(  200) = (   0.1818182   0.4198911  -0.2597944), wk =   0.0030053
        k(  201) = (   0.1818182   0.4198911  -0.1428869), wk =   0.0030053
        k(  202) = (   0.1818182   0.4198911  -0.0259794), wk =   0.0030053
        k(  203) = (   0.1818182   0.4198911   0.0909280), wk =   0.0030053
        k(  204) = (   0.1818182   0.4198911   0.2078355), wk =   0.0030053
        k(  205) = (   0.1818182   0.4198911   0.3247430), wk =   0.0030053
        k(  206) = (   0.1818182   0.4198911  -0.8443317), wk =   0.0030053
        k(  207) = (   0.1818182   0.4198911  -0.7274242), wk =   0.0030053
        k(  208) = (   0.1818182   0.4198911  -0.6105168), wk =   0.0030053
        k(  209) = (   0.1818182   0.4198911  -0.4936093), wk =   0.0030053
        k(  210) = (   0.1818182   0.4198911  -0.3767018), wk =   0.0030053
        k(  211) = (   0.1818182   0.5248639  -0.2969078), wk =   0.0030053
        k(  212) = (   0.1818182   0.5248639  -0.1800004), wk =   0.0030053
        k(  213) = (   0.1818182   0.5248639  -0.0630929), wk =   0.0030053
        k(  214) = (   0.1818182   0.5248639   0.0538145), wk =   0.0030053
        k(  215) = (   0.1818182   0.5248639   0.1707220), wk =   0.0030053
        k(  216) = (   0.1818182   0.5248639   0.2876295), wk =   0.0030053
        k(  217) = (   0.1818182   0.5248639  -0.8814452), wk =   0.0030053
        k(  218) = (   0.1818182   0.5248639  -0.7645377), wk =   0.0030053
        k(  219) = (   0.1818182   0.5248639  -0.6476302), wk =   0.0030053
        k(  220) = (   0.1818182   0.5248639  -0.5307228), wk =   0.0030053
        k(  221) = (   0.1818182   0.5248639  -0.4138153), wk =   0.0030053
        k(  222) = (   0.1818182   0.6298367  -0.3340213), wk =   0.0030053
        k(  223) = (   0.1818182   0.6298367  -0.2171139), wk =   0.0030053
        k(  224) = (   0.1818182   0.6298367  -0.1002064), wk =   0.0030053
        k(  225) = (   0.1818182   0.6298367   0.0167011), wk =   0.0030053
        k(  226) = (   0.1818182   0.6298367   0.1336085), wk =   0.0030053
        k(  227) = (   0.1818182   0.6298367   0.2505160), wk =   0.0030053
        k(  228) = (   0.1818182   0.6298367  -0.9185587), wk =   0.0030053
        k(  229) = (   0.1818182   0.6298367  -0.8016512), wk =   0.0030053
        k(  230) = (   0.1818182   0.6298367  -0.6847437), wk =   0.0030053
        k(  231) = (   0.1818182   0.6298367  -0.5678363), wk =   0.0030053
        k(  232) = (   0.1818182   0.6298367  -0.4509288), wk =   0.0030053
        k(  233) = (   0.1818182  -0.4198911   0.0371135), wk =   0.0030053
        k(  234) = (   0.1818182  -0.4198911   0.1540209), wk =   0.0030053
        k(  235) = (   0.1818182  -0.4198911   0.2709284), wk =   0.0030053
        k(  236) = (   0.1818182  -0.4198911   0.3878359), wk =   0.0030053
        k(  237) = (   0.1818182  -0.4198911   0.5047433), wk =   0.0030053
        k(  238) = (   0.1818182  -0.4198911   0.6216508), wk =   0.0030053
        k(  239) = (   0.1818182  -0.4198911  -0.5474238), wk =   0.0030053
        k(  240) = (   0.1818182  -0.4198911  -0.4305164), wk =   0.0030053
        k(  241) = (   0.1818182  -0.4198911  -0.3136089), wk =   0.0030053
        k(  242) = (   0.1818182  -0.4198911  -0.1967014), wk =   0.0030053
        k(  243) = (   0.1818182  -0.4198911  -0.0797940), wk =   0.0030053
        k(  244) = (   0.1818182  -0.3149183   0.0000000), wk =   0.0030053
        k(  245) = (   0.1818182  -0.3149183   0.1169075), wk =   0.0030053
        k(  246) = (   0.1818182  -0.3149183   0.2338149), wk =   0.0030053
        k(  247) = (   0.1818182  -0.3149183   0.3507224), wk =   0.0030053
        k(  248) = (   0.1818182  -0.3149183   0.4676299), wk =   0.0030053
        k(  249) = (   0.1818182  -0.3149183   0.5845373), wk =   0.0030053
        k(  250) = (   0.2727273   0.1574592  -0.2226809), wk =   0.0030053
        k(  251) = (   0.2727273   0.1574592  -0.1057734), wk =   0.0030053
        k(  252) = (   0.2727273   0.1574592   0.0111340), wk =   0.0030053
        k(  253) = (   0.2727273   0.1574592   0.1280415), wk =   0.0030053
        k(  254) = (   0.2727273   0.1574592   0.2449490), wk =   0.0030053
        k(  255) = (   0.2727273   0.1574592   0.3618564), wk =   0.0030053
        k(  256) = (   0.2727273   0.1574592  -0.8072182), wk =   0.0030053
        k(  257) = (   0.2727273   0.1574592  -0.6903107), wk =   0.0030053
        k(  258) = (   0.2727273   0.1574592  -0.5734033), wk =   0.0030053
        k(  259) = (   0.2727273   0.1574592  -0.4564958), wk =   0.0030053
        k(  260) = (   0.2727273   0.1574592  -0.3395884), wk =   0.0030053
        k(  261) = (   0.2727273   0.2624319  -0.2597944), wk =   0.0030053
        k(  262) = (   0.2727273   0.2624319  -0.1428869), wk =   0.0030053
        k(  263) = (   0.2727273   0.2624319  -0.0259794), wk =   0.0030053
        k(  264) = (   0.2727273   0.2624319   0.0909280), wk =   0.0030053
        k(  265) = (   0.2727273   0.2624319   0.2078355), wk =   0.0030053
        k(  266) = (   0.2727273   0.2624319   0.3247430), wk =   0.0030053
        k(  267) = (   0.2727273   0.2624319  -0.8443317), wk =   0.0030053
        k(  268) = (   0.2727273   0.2624319  -0.7274242), wk =   0.0030053
        k(  269) = (   0.2727273   0.2624319  -0.6105168), wk =   0.0030053
        k(  270) = (   0.2727273   0.2624319  -0.4936093), wk =   0.0030053
        k(  271) = (   0.2727273   0.2624319  -0.3767018), wk =   0.0030053
        k(  272) = (   0.2727273   0.3674047  -0.2969078), wk =   0.0030053
        k(  273) = (   0.2727273   0.3674047  -0.1800004), wk =   0.0030053
        k(  274) = (   0.2727273   0.3674047  -0.0630929), wk =   0.0030053
        k(  275) = (   0.2727273   0.3674047   0.0538145), wk =   0.0030053
        k(  276) = (   0.2727273   0.3674047   0.1707220), wk =   0.0030053
        k(  277) = (   0.2727273   0.3674047   0.2876295), wk =   0.0030053
        k(  278) = (   0.2727273   0.3674047  -0.8814452), wk =   0.0030053
        k(  279) = (   0.2727273   0.3674047  -0.7645377), wk =   0.0030053
        k(  280) = (   0.2727273   0.3674047  -0.6476302), wk =   0.0030053
        k(  281) = (   0.2727273   0.3674047  -0.5307228), wk =   0.0030053
        k(  282) = (   0.2727273   0.3674047  -0.4138153), wk =   0.0030053
        k(  283) = (   0.2727273   0.4723775  -0.3340213), wk =   0.0030053
        k(  284) = (   0.2727273   0.4723775  -0.2171139), wk =   0.0030053
        k(  285) = (   0.2727273   0.4723775  -0.1002064), wk =   0.0030053
        k(  286) = (   0.2727273   0.4723775   0.0167011), wk =   0.0030053
        k(  287) = (   0.2727273   0.4723775   0.1336085), wk =   0.0030053
        k(  288) = (   0.2727273   0.4723775   0.2505160), wk =   0.0030053
        k(  289) = (   0.2727273   0.4723775  -0.9185587), wk =   0.0030053
        k(  290) = (   0.2727273   0.4723775  -0.8016512), wk =   0.0030053
        k(  291) = (   0.2727273   0.4723775  -0.6847437), wk =   0.0030053
        k(  292) = (   0.2727273   0.4723775  -0.5678363), wk =   0.0030053
        k(  293) = (   0.2727273   0.4723775  -0.4509288), wk =   0.0030053
        k(  294) = (   0.2727273   0.5773503  -0.3711348), wk =   0.0030053
        k(  295) = (   0.2727273   0.5773503  -0.2542273), wk =   0.0030053
        k(  296) = (   0.2727273   0.5773503  -0.1373199), wk =   0.0030053
        k(  297) = (   0.2727273   0.5773503  -0.0204124), wk =   0.0030053
        k(  298) = (   0.2727273   0.5773503   0.0964951), wk =   0.0030053
        k(  299) = (   0.2727273   0.5773503   0.2134025), wk =   0.0030053
        k(  300) = (   0.2727273   0.5773503  -0.9556721), wk =   0.0030053
        k(  301) = (   0.2727273   0.5773503  -0.8387647), wk =   0.0030053
        k(  302) = (   0.2727273   0.5773503  -0.7218572), wk =   0.0030053
        k(  303) = (   0.2727273   0.5773503  -0.6049497), wk =   0.0030053
        k(  304) = (   0.2727273   0.5773503  -0.4880423), wk =   0.0030053
        k(  305) = (   0.2727273   0.6823230  -0.4082483), wk =   0.0030053
        k(  306) = (   0.2727273   0.6823230  -0.2913408), wk =   0.0030053
        k(  307) = (   0.2727273   0.6823230  -0.1744334), wk =   0.0030053
        k(  308) = (   0.2727273   0.6823230  -0.0575259), wk =   0.0030053
        k(  309) = (   0.2727273   0.6823230   0.0593816), wk =   0.0030053
        k(  310) = (   0.2727273   0.6823230   0.1762890), wk =   0.0030053
        k(  311) = (   0.3636364   0.2099456  -0.2969078), wk =   0.0030053
        k(  312) = (   0.3636364   0.2099456  -0.1800004), wk =   0.0030053
        k(  313) = (   0.3636364   0.2099456  -0.0630929), wk =   0.0030053
        k(  314) = (   0.3636364   0.2099456   0.0538145), wk =   0.0030053
        k(  315) = (   0.3636364   0.2099456   0.1707220), wk =   0.0030053
        k(  316) = (   0.3636364   0.2099456   0.2876295), wk =   0.0030053
        k(  317) = (   0.3636364   0.2099456  -0.8814452), wk =   0.0030053
        k(  318) = (   0.3636364   0.2099456  -0.7645377), wk =   0.0030053
        k(  319) = (   0.3636364   0.2099456  -0.6476302), wk =   0.0030053
        k(  320) = (   0.3636364   0.2099456  -0.5307228), wk =   0.0030053
        k(  321) = (   0.3636364   0.2099456  -0.4138153), wk =   0.0030053
        k(  322) = (   0.3636364   0.3149183  -0.3340213), wk =   0.0030053
        k(  323) = (   0.3636364   0.3149183  -0.2171139), wk =   0.0030053
        k(  324) = (   0.3636364   0.3149183  -0.1002064), wk =   0.0030053
        k(  325) = (   0.3636364   0.3149183   0.0167011), wk =   0.0030053
        k(  326) = (   0.3636364   0.3149183   0.1336085), wk =   0.0030053
        k(  327) = (   0.3636364   0.3149183   0.2505160), wk =   0.0030053
        k(  328) = (   0.3636364   0.3149183  -0.9185587), wk =   0.0030053
        k(  329) = (   0.3636364   0.3149183  -0.8016512), wk =   0.0030053
        k(  330) = (   0.3636364   0.3149183  -0.6847437), wk =   0.0030053
        k(  331) = (   0.3636364   0.3149183  -0.5678363), wk =   0.0030053
        k(  332) = (   0.3636364   0.3149183  -0.4509288), wk =   0.0030053
        k(  333) = (   0.3636364   0.4198911  -0.3711348), wk =   0.0030053
        k(  334) = (   0.3636364   0.4198911  -0.2542273), wk =   0.0030053
        k(  335) = (   0.3636364   0.4198911  -0.1373199), wk =   0.0030053
        k(  336) = (   0.3636364   0.4198911  -0.0204124), wk =   0.0030053
        k(  337) = (   0.3636364   0.4198911   0.0964951), wk =   0.0030053
        k(  338) = (   0.3636364   0.4198911   0.2134025), wk =   0.0030053
        k(  339) = (   0.3636364   0.4198911  -0.9556721), wk =   0.0030053
        k(  340) = (   0.3636364   0.4198911  -0.8387647), wk =   0.0030053
        k(  341) = (   0.3636364   0.4198911  -0.7218572), wk =   0.0030053
        k(  342) = (   0.3636364   0.4198911  -0.6049497), wk =   0.0030053
        k(  343) = (   0.3636364   0.4198911  -0.4880423), wk =   0.0030053
        k(  344) = (   0.3636364   0.5248639  -0.4082483), wk =   0.0030053
        k(  345) = (   0.3636364   0.5248639  -0.2913408), wk =   0.0030053
        k(  346) = (   0.3636364   0.5248639  -0.1744334), wk =   0.0030053
        k(  347) = (   0.3636364   0.5248639  -0.0575259), wk =   0.0030053
        k(  348) = (   0.3636364   0.5248639   0.0593816), wk =   0.0030053
        k(  349) = (   0.3636364   0.5248639   0.1762890), wk =   0.0030053
        k(  350) = (   0.4545455   0.2624319  -0.3711348), wk =   0.0030053
        k(  351) = (   0.4545455   0.2624319  -0.2542273), wk =   0.0030053
        k(  352) = (   0.4545455   0.2624319  -0.1373199), wk =   0.0030053
        k(  353) = (   0.4545455   0.2624319  -0.0204124), wk =   0.0030053
        k(  354) = (   0.4545455   0.2624319   0.0964951), wk =   0.0030053
        k(  355) = (   0.4545455   0.2624319   0.2134025), wk =   0.0030053
        k(  356) = (   0.4545455   0.2624319  -0.9556721), wk =   0.0030053
        k(  357) = (   0.4545455   0.2624319  -0.8387647), wk =   0.0030053
        k(  358) = (   0.4545455   0.2624319  -0.7218572), wk =   0.0030053
        k(  359) = (   0.4545455   0.2624319  -0.6049497), wk =   0.0030053
        k(  360) = (   0.4545455   0.2624319  -0.4880423), wk =   0.0030053
        k(  361) = (   0.4545455   0.3674047  -0.4082483), wk =   0.0030053
        k(  362) = (   0.4545455   0.3674047  -0.2913408), wk =   0.0030053
        k(  363) = (   0.4545455   0.3674047  -0.1744334), wk =   0.0030053
        k(  364) = (   0.4545455   0.3674047  -0.0575259), wk =   0.0030053
        k(  365) = (   0.4545455   0.3674047   0.0593816), wk =   0.0030053
        k(  366) = (   0.4545455   0.3674047   0.1762890), wk =   0.0030053
        k(  367) = (  -0.0909091   0.0524864   0.0371135), wk =   0.0030053
        k(  368) = (  -0.0909091   0.0524864  -0.0797940), wk =   0.0030053
        k(  369) = (  -0.0909091   0.0524864  -0.1967014), wk =   0.0030053
        k(  370) = (  -0.0909091   0.0524864  -0.3136089), wk =   0.0030053
        k(  371) = (  -0.0909091   0.0524864  -0.4305164), wk =   0.0030053
        k(  372) = (  -0.0909091   0.0524864  -0.5474238), wk =   0.0030053
        k(  373) = (  -0.0909091   0.0524864   0.6216508), wk =   0.0030053
        k(  374) = (  -0.0909091   0.0524864   0.5047433), wk =   0.0030053
        k(  375) = (  -0.0909091   0.0524864   0.3878359), wk =   0.0030053
        k(  376) = (  -0.0909091   0.0524864   0.2709284), wk =   0.0030053
        k(  377) = (  -0.0909091   0.0524864   0.1540209), wk =   0.0030053
        k(  378) = (  -0.1818182   0.1049728   0.0742270), wk =   0.0030053
        k(  379) = (  -0.1818182   0.1049728  -0.0426805), wk =   0.0030053
        k(  380) = (  -0.1818182   0.1049728  -0.1595880), wk =   0.0030053
        k(  381) = (  -0.1818182   0.1049728  -0.2764954), wk =   0.0030053
        k(  382) = (  -0.1818182   0.1049728  -0.3934029), wk =   0.0030053
        k(  383) = (  -0.1818182   0.1049728  -0.5103104), wk =   0.0030053
        k(  384) = (  -0.1818182   0.1049728   0.6587643), wk =   0.0030053
        k(  385) = (  -0.1818182   0.1049728   0.5418568), wk =   0.0030053
        k(  386) = (  -0.1818182   0.1049728   0.4249494), wk =   0.0030053
        k(  387) = (  -0.1818182   0.1049728   0.3080419), wk =   0.0030053
        k(  388) = (  -0.1818182   0.1049728   0.1911344), wk =   0.0030053
        k(  389) = (  -0.2727273   0.1574592   0.1113404), wk =   0.0030053
        k(  390) = (  -0.2727273   0.1574592  -0.0055670), wk =   0.0030053
        k(  391) = (  -0.2727273   0.1574592  -0.1224745), wk =   0.0030053
        k(  392) = (  -0.2727273   0.1574592  -0.2393820), wk =   0.0030053
        k(  393) = (  -0.2727273   0.1574592  -0.3562894), wk =   0.0030053
        k(  394) = (  -0.2727273   0.1574592  -0.4731969), wk =   0.0030053
        k(  395) = (  -0.2727273   0.1574592   0.6958778), wk =   0.0030053
        k(  396) = (  -0.2727273   0.1574592   0.5789703), wk =   0.0030053
        k(  397) = (  -0.2727273   0.1574592   0.4620628), wk =   0.0030053
        k(  398) = (  -0.2727273   0.1574592   0.3451554), wk =   0.0030053
        k(  399) = (  -0.2727273   0.1574592   0.2282479), wk =   0.0030053
        k(  400) = (  -0.3636364   0.2099456   0.1484539), wk =   0.0030053
        k(  401) = (  -0.3636364   0.2099456   0.0315465), wk =   0.0030053
        k(  402) = (  -0.3636364   0.2099456  -0.0853610), wk =   0.0030053
        k(  403) = (  -0.3636364   0.2099456  -0.2022685), wk =   0.0030053
        k(  404) = (  -0.3636364   0.2099456  -0.3191759), wk =   0.0030053
        k(  405) = (  -0.3636364   0.2099456  -0.4360834), wk =   0.0030053
        k(  406) = (  -0.3636364   0.2099456   0.7329912), wk =   0.0030053
        k(  407) = (  -0.3636364   0.2099456   0.6160838), wk =   0.0030053
        k(  408) = (  -0.3636364   0.2099456   0.4991763), wk =   0.0030053
        k(  409) = (  -0.3636364   0.2099456   0.3822689), wk =   0.0030053
        k(  410) = (  -0.3636364   0.2099456   0.2653614), wk =   0.0030053
        k(  411) = (  -0.4545455   0.2624319   0.1855674), wk =   0.0030053
        k(  412) = (  -0.4545455   0.2624319   0.0686599), wk =   0.0030053
        k(  413) = (  -0.4545455   0.2624319  -0.0482475), wk =   0.0030053
        k(  414) = (  -0.4545455   0.2624319  -0.1651550), wk =   0.0030053
        k(  415) = (  -0.4545455   0.2624319  -0.2820625), wk =   0.0030053
        k(  416) = (  -0.4545455   0.2624319  -0.3989699), wk =   0.0030053
        k(  417) = (  -0.4545455   0.2624319   0.7701047), wk =   0.0030053
        k(  418) = (  -0.4545455   0.2624319   0.6531973), wk =   0.0030053
        k(  419) = (  -0.4545455   0.2624319   0.5362898), wk =   0.0030053
        k(  420) = (  -0.4545455   0.2624319   0.4193823), wk =   0.0030053
        k(  421) = (  -0.4545455   0.2624319   0.3024749), wk =   0.0030053
        k(  422) = (  -0.1818182   0.0000000   0.1113404), wk =   0.0030053
        k(  423) = (  -0.1818182   0.0000000  -0.0055670), wk =   0.0030053
        k(  424) = (  -0.1818182   0.0000000  -0.1224745), wk =   0.0030053
        k(  425) = (  -0.1818182   0.0000000  -0.2393820), wk =   0.0030053
        k(  426) = (  -0.1818182   0.0000000  -0.3562894), wk =   0.0030053
        k(  427) = (  -0.1818182   0.0000000  -0.4731969), wk =   0.0030053
        k(  428) = (  -0.1818182   0.0000000   0.6958778), wk =   0.0030053
        k(  429) = (  -0.1818182   0.0000000   0.5789703), wk =   0.0030053
        k(  430) = (  -0.1818182   0.0000000   0.4620628), wk =   0.0030053
        k(  431) = (  -0.1818182   0.0000000   0.3451554), wk =   0.0030053
        k(  432) = (  -0.1818182   0.0000000   0.2282479), wk =   0.0030053
        k(  433) = (  -0.2727273   0.0524864   0.1484539), wk =   0.0030053
        k(  434) = (  -0.2727273   0.0524864   0.0315465), wk =   0.0030053
        k(  435) = (  -0.2727273   0.0524864  -0.0853610), wk =   0.0030053
        k(  436) = (  -0.2727273   0.0524864  -0.2022685), wk =   0.0030053
        k(  437) = (  -0.2727273   0.0524864  -0.3191759), wk =   0.0030053
        k(  438) = (  -0.2727273   0.0524864  -0.4360834), wk =   0.0030053
        k(  439) = (  -0.2727273   0.0524864   0.7329912), wk =   0.0030053
        k(  440) = (  -0.2727273   0.0524864   0.6160838), wk =   0.0030053
        k(  441) = (  -0.2727273   0.0524864   0.4991763), wk =   0.0030053
        k(  442) = (  -0.2727273   0.0524864   0.3822689), wk =   0.0030053
        k(  443) = (  -0.2727273   0.0524864   0.2653614), wk =   0.0030053
        k(  444) = (  -0.3636364   0.1049728   0.1855674), wk =   0.0030053
        k(  445) = (  -0.3636364   0.1049728   0.0686599), wk =   0.0030053
        k(  446) = (  -0.3636364   0.1049728  -0.0482475), wk =   0.0030053
        k(  447) = (  -0.3636364   0.1049728  -0.1651550), wk =   0.0030053
        k(  448) = (  -0.3636364   0.1049728  -0.2820625), wk =   0.0030053
        k(  449) = (  -0.3636364   0.1049728  -0.3989699), wk =   0.0030053
        k(  450) = (  -0.3636364   0.1049728   0.7701047), wk =   0.0030053
        k(  451) = (  -0.3636364   0.1049728   0.6531973), wk =   0.0030053
        k(  452) = (  -0.3636364   0.1049728   0.5362898), wk =   0.0030053
        k(  453) = (  -0.3636364   0.1049728   0.4193823), wk =   0.0030053
        k(  454) = (  -0.3636364   0.1049728   0.3024749), wk =   0.0030053
        k(  455) = (  -0.4545455   0.1574592   0.2226809), wk =   0.0030053
        k(  456) = (  -0.4545455   0.1574592   0.1057734), wk =   0.0030053
        k(  457) = (  -0.4545455   0.1574592  -0.0111340), wk =   0.0030053
        k(  458) = (  -0.4545455   0.1574592  -0.1280415), wk =   0.0030053
        k(  459) = (  -0.4545455   0.1574592  -0.2449490), wk =   0.0030053
        k(  460) = (  -0.4545455   0.1574592  -0.3618564), wk =   0.0030053
        k(  461) = (  -0.4545455   0.1574592   0.8072182), wk =   0.0030053
        k(  462) = (  -0.4545455   0.1574592   0.6903107), wk =   0.0030053
        k(  463) = (  -0.4545455   0.1574592   0.5734033), wk =   0.0030053
        k(  464) = (  -0.4545455   0.1574592   0.4564958), wk =   0.0030053
        k(  465) = (  -0.4545455   0.1574592   0.3395884), wk =   0.0030053
        k(  466) = (  -0.5454545   0.2099456   0.2597944), wk =   0.0030053
        k(  467) = (  -0.5454545   0.2099456   0.1428869), wk =   0.0030053
        k(  468) = (  -0.5454545   0.2099456   0.0259794), wk =   0.0030053
        k(  469) = (  -0.5454545   0.2099456  -0.0909280), wk =   0.0030053
        k(  470) = (  -0.5454545   0.2099456  -0.2078355), wk =   0.0030053
        k(  471) = (  -0.5454545   0.2099456  -0.3247430), wk =   0.0030053
        k(  472) = (  -0.5454545   0.2099456   0.8443317), wk =   0.0030053
        k(  473) = (  -0.5454545   0.2099456   0.7274242), wk =   0.0030053
        k(  474) = (  -0.5454545   0.2099456   0.6105168), wk =   0.0030053
        k(  475) = (  -0.5454545   0.2099456   0.4936093), wk =   0.0030053
        k(  476) = (  -0.5454545   0.2099456   0.3767018), wk =   0.0030053
        k(  477) = (   0.3636364  -0.3149183  -0.1113404), wk =   0.0030053
        k(  478) = (   0.3636364  -0.3149183  -0.2282479), wk =   0.0030053
        k(  479) = (   0.3636364  -0.3149183  -0.3451554), wk =   0.0030053
        k(  480) = (   0.3636364  -0.3149183  -0.4620628), wk =   0.0030053
        k(  481) = (   0.3636364  -0.3149183  -0.5789703), wk =   0.0030053
        k(  482) = (   0.3636364  -0.3149183  -0.6958778), wk =   0.0030053
        k(  483) = (   0.3636364  -0.3149183   0.4731969), wk =   0.0030053
        k(  484) = (   0.3636364  -0.3149183   0.3562894), wk =   0.0030053
        k(  485) = (   0.3636364  -0.3149183   0.2393820), wk =   0.0030053
        k(  486) = (   0.3636364  -0.3149183   0.1224745), wk =   0.0030053
        k(  487) = (   0.3636364  -0.3149183   0.0055670), wk =   0.0030053
        k(  488) = (   0.2727273  -0.2624319  -0.0742270), wk =   0.0030053
        k(  489) = (   0.2727273  -0.2624319  -0.1911344), wk =   0.0030053
        k(  490) = (   0.2727273  -0.2624319  -0.3080419), wk =   0.0030053
        k(  491) = (   0.2727273  -0.2624319  -0.4249494), wk =   0.0030053
        k(  492) = (   0.2727273  -0.2624319  -0.5418568), wk =   0.0030053
        k(  493) = (   0.2727273  -0.2624319  -0.6587643), wk =   0.0030053
        k(  494) = (   0.2727273  -0.2624319   0.5103104), wk =   0.0030053
        k(  495) = (   0.2727273  -0.2624319   0.3934029), wk =   0.0030053
        k(  496) = (   0.2727273  -0.2624319   0.2764954), wk =   0.0030053
        k(  497) = (   0.2727273  -0.2624319   0.1595880), wk =   0.0030053
        k(  498) = (   0.2727273  -0.2624319   0.0426805), wk =   0.0030053
        k(  499) = (   0.1818182  -0.2099456  -0.0371135), wk =   0.0030053
        k(  500) = (   0.1818182  -0.2099456  -0.1540209), wk =   0.0030053
        k(  501) = (   0.1818182  -0.2099456  -0.2709284), wk =   0.0030053
        k(  502) = (   0.1818182  -0.2099456  -0.3878359), wk =   0.0030053
        k(  503) = (   0.1818182  -0.2099456  -0.5047433), wk =   0.0030053
        k(  504) = (   0.1818182  -0.2099456  -0.6216508), wk =   0.0030053
        k(  505) = (   0.1818182  -0.2099456   0.5474238), wk =   0.0030053
        k(  506) = (   0.1818182  -0.2099456   0.4305164), wk =   0.0030053
        k(  507) = (   0.1818182  -0.2099456   0.3136089), wk =   0.0030053
        k(  508) = (   0.1818182  -0.2099456   0.1967014), wk =   0.0030053
        k(  509) = (   0.1818182  -0.2099456   0.0797940), wk =   0.0030053
        k(  510) = (   0.0909091  -0.1574592  -0.1169075), wk =   0.0030053
        k(  511) = (   0.0909091  -0.1574592  -0.2338149), wk =   0.0030053
        k(  512) = (   0.0909091  -0.1574592  -0.3507224), wk =   0.0030053
        k(  513) = (   0.0909091  -0.1574592  -0.4676299), wk =   0.0030053
        k(  514) = (   0.0909091  -0.1574592  -0.5845373), wk =   0.0030053
        k(  515) = (  -0.2727273  -0.0524864   0.1855674), wk =   0.0030053
        k(  516) = (  -0.2727273  -0.0524864   0.0686599), wk =   0.0030053
        k(  517) = (  -0.2727273  -0.0524864  -0.0482475), wk =   0.0030053
        k(  518) = (  -0.2727273  -0.0524864  -0.1651550), wk =   0.0030053
        k(  519) = (  -0.2727273  -0.0524864  -0.2820625), wk =   0.0030053
        k(  520) = (  -0.2727273  -0.0524864  -0.3989699), wk =   0.0030053
        k(  521) = (  -0.2727273  -0.0524864   0.7701047), wk =   0.0030053
        k(  522) = (  -0.2727273  -0.0524864   0.6531973), wk =   0.0030053
        k(  523) = (  -0.2727273  -0.0524864   0.5362898), wk =   0.0030053
        k(  524) = (  -0.2727273  -0.0524864   0.4193823), wk =   0.0030053
        k(  525) = (  -0.2727273  -0.0524864   0.3024749), wk =   0.0030053
        k(  526) = (  -0.3636364   0.0000000   0.2226809), wk =   0.0030053
        k(  527) = (  -0.3636364   0.0000000   0.1057734), wk =   0.0030053
        k(  528) = (  -0.3636364   0.0000000  -0.0111340), wk =   0.0030053
        k(  529) = (  -0.3636364   0.0000000  -0.1280415), wk =   0.0030053
        k(  530) = (  -0.3636364   0.0000000  -0.2449490), wk =   0.0030053
        k(  531) = (  -0.3636364   0.0000000  -0.3618564), wk =   0.0030053
        k(  532) = (  -0.3636364   0.0000000   0.8072182), wk =   0.0030053
        k(  533) = (  -0.3636364   0.0000000   0.6903107), wk =   0.0030053
        k(  534) = (  -0.3636364   0.0000000   0.5734033), wk =   0.0030053
        k(  535) = (  -0.3636364   0.0000000   0.4564958), wk =   0.0030053
        k(  536) = (  -0.3636364   0.0000000   0.3395884), wk =   0.0030053
        k(  537) = (  -0.4545455   0.0524864   0.2597944), wk =   0.0030053
        k(  538) = (  -0.4545455   0.0524864   0.1428869), wk =   0.0030053
        k(  539) = (  -0.4545455   0.0524864   0.0259794), wk =   0.0030053
        k(  540) = (  -0.4545455   0.0524864  -0.0909280), wk =   0.0030053
        k(  541) = (  -0.4545455   0.0524864  -0.2078355), wk =   0.0030053
        k(  542) = (  -0.4545455   0.0524864  -0.3247430), wk =   0.0030053
        k(  543) = (  -0.4545455   0.0524864   0.8443317), wk =   0.0030053
        k(  544) = (  -0.4545455   0.0524864   0.7274242), wk =   0.0030053
        k(  545) = (  -0.4545455   0.0524864   0.6105168), wk =   0.0030053
        k(  546) = (  -0.4545455   0.0524864   0.4936093), wk =   0.0030053
        k(  547) = (  -0.4545455   0.0524864   0.3767018), wk =   0.0030053
        k(  548) = (  -0.5454545   0.1049728   0.2969078), wk =   0.0030053
        k(  549) = (  -0.5454545   0.1049728   0.1800004), wk =   0.0030053
        k(  550) = (  -0.5454545   0.1049728   0.0630929), wk =   0.0030053
        k(  551) = (  -0.5454545   0.1049728  -0.0538145), wk =   0.0030053
        k(  552) = (  -0.5454545   0.1049728  -0.1707220), wk =   0.0030053
        k(  553) = (  -0.5454545   0.1049728  -0.2876295), wk =   0.0030053
        k(  554) = (  -0.5454545   0.1049728   0.8814452), wk =   0.0030053
        k(  555) = (  -0.5454545   0.1049728   0.7645377), wk =   0.0030053
        k(  556) = (  -0.5454545   0.1049728   0.6476302), wk =   0.0030053
        k(  557) = (  -0.5454545   0.1049728   0.5307228), wk =   0.0030053
        k(  558) = (  -0.5454545   0.1049728   0.4138153), wk =   0.0030053
        k(  559) = (  -0.6363636   0.1574592   0.3340213), wk =   0.0030053
        k(  560) = (  -0.6363636   0.1574592   0.2171139), wk =   0.0030053
        k(  561) = (  -0.6363636   0.1574592   0.1002064), wk =   0.0030053
        k(  562) = (  -0.6363636   0.1574592  -0.0167011), wk =   0.0030053
        k(  563) = (  -0.6363636   0.1574592  -0.1336085), wk =   0.0030053
        k(  564) = (  -0.6363636   0.1574592  -0.2505160), wk =   0.0030053
        k(  565) = (  -0.6363636   0.1574592   0.9185587), wk =   0.0030053
        k(  566) = (  -0.6363636   0.1574592   0.8016512), wk =   0.0030053
        k(  567) = (  -0.6363636   0.1574592   0.6847437), wk =   0.0030053
        k(  568) = (  -0.6363636   0.1574592   0.5678363), wk =   0.0030053
        k(  569) = (  -0.6363636   0.1574592   0.4509288), wk =   0.0030053
        k(  570) = (   0.2727273  -0.3674047  -0.0371135), wk =   0.0030053
        k(  571) = (   0.2727273  -0.3674047  -0.1540209), wk =   0.0030053
        k(  572) = (   0.2727273  -0.3674047  -0.2709284), wk =   0.0030053
        k(  573) = (   0.2727273  -0.3674047  -0.3878359), wk =   0.0030053
        k(  574) = (   0.2727273  -0.3674047  -0.5047433), wk =   0.0030053
        k(  575) = (   0.2727273  -0.3674047  -0.6216508), wk =   0.0030053
        k(  576) = (   0.2727273  -0.3674047   0.5474238), wk =   0.0030053
        k(  577) = (   0.2727273  -0.3674047   0.4305164), wk =   0.0030053
        k(  578) = (   0.2727273  -0.3674047   0.3136089), wk =   0.0030053
        k(  579) = (   0.2727273  -0.3674047   0.1967014), wk =   0.0030053
        k(  580) = (   0.2727273  -0.3674047   0.0797940), wk =   0.0030053
        k(  581) = (   0.1818182  -0.3149183  -0.1169075), wk =   0.0030053
        k(  582) = (   0.1818182  -0.3149183  -0.2338149), wk =   0.0030053
        k(  583) = (   0.1818182  -0.3149183  -0.3507224), wk =   0.0030053
        k(  584) = (   0.1818182  -0.3149183  -0.4676299), wk =   0.0030053
        k(  585) = (   0.1818182  -0.3149183  -0.5845373), wk =   0.0030053
        k(  586) = (  -0.3636364  -0.1049728   0.2597944), wk =   0.0030053
        k(  587) = (  -0.3636364  -0.1049728   0.1428869), wk =   0.0030053
        k(  588) = (  -0.3636364  -0.1049728   0.0259794), wk =   0.0030053
        k(  589) = (  -0.3636364  -0.1049728  -0.0909280), wk =   0.0030053
        k(  590) = (  -0.3636364  -0.1049728  -0.2078355), wk =   0.0030053
        k(  591) = (  -0.3636364  -0.1049728  -0.3247430), wk =   0.0030053
        k(  592) = (  -0.3636364  -0.1049728   0.8443317), wk =   0.0030053
        k(  593) = (  -0.3636364  -0.1049728   0.7274242), wk =   0.0030053
        k(  594) = (  -0.3636364  -0.1049728   0.6105168), wk =   0.0030053
        k(  595) = (  -0.3636364  -0.1049728   0.4936093), wk =   0.0030053
        k(  596) = (  -0.3636364  -0.1049728   0.3767018), wk =   0.0030053
        k(  597) = (  -0.4545455  -0.0524864   0.2969078), wk =   0.0030053
        k(  598) = (  -0.4545455  -0.0524864   0.1800004), wk =   0.0030053
        k(  599) = (  -0.4545455  -0.0524864   0.0630929), wk =   0.0030053
        k(  600) = (  -0.4545455  -0.0524864  -0.0538145), wk =   0.0030053
        k(  601) = (  -0.4545455  -0.0524864  -0.1707220), wk =   0.0030053
        k(  602) = (  -0.4545455  -0.0524864  -0.2876295), wk =   0.0030053
        k(  603) = (  -0.4545455  -0.0524864   0.8814452), wk =   0.0030053
        k(  604) = (  -0.4545455  -0.0524864   0.7645377), wk =   0.0030053
        k(  605) = (  -0.4545455  -0.0524864   0.6476302), wk =   0.0030053
        k(  606) = (  -0.4545455  -0.0524864   0.5307228), wk =   0.0030053
        k(  607) = (  -0.4545455  -0.0524864   0.4138153), wk =   0.0030053
        k(  608) = (  -0.5454545   0.0000000   0.3340213), wk =   0.0030053
        k(  609) = (  -0.5454545   0.0000000   0.2171139), wk =   0.0030053
        k(  610) = (  -0.5454545   0.0000000   0.1002064), wk =   0.0030053
        k(  611) = (  -0.5454545   0.0000000  -0.0167011), wk =   0.0030053
        k(  612) = (  -0.5454545   0.0000000  -0.1336085), wk =   0.0030053
        k(  613) = (  -0.5454545   0.0000000  -0.2505160), wk =   0.0030053
        k(  614) = (  -0.5454545   0.0000000   0.9185587), wk =   0.0030053
        k(  615) = (  -0.5454545   0.0000000   0.8016512), wk =   0.0030053
        k(  616) = (  -0.5454545   0.0000000   0.6847437), wk =   0.0030053
        k(  617) = (  -0.5454545   0.0000000   0.5678363), wk =   0.0030053
        k(  618) = (  -0.5454545   0.0000000   0.4509288), wk =   0.0030053
        k(  619) = (  -0.6363636   0.0524864   0.3711348), wk =   0.0030053
        k(  620) = (  -0.6363636   0.0524864   0.2542273), wk =   0.0030053
        k(  621) = (  -0.6363636   0.0524864   0.1373199), wk =   0.0030053
        k(  622) = (  -0.6363636   0.0524864   0.0204124), wk =   0.0030053
        k(  623) = (  -0.6363636   0.0524864  -0.0964951), wk =   0.0030053
        k(  624) = (  -0.6363636   0.0524864  -0.2134025), wk =   0.0030053
        k(  625) = (  -0.6363636   0.0524864   0.9556721), wk =   0.0030053
        k(  626) = (  -0.6363636   0.0524864   0.8387647), wk =   0.0030053
        k(  627) = (  -0.6363636   0.0524864   0.7218572), wk =   0.0030053
        k(  628) = (  -0.6363636   0.0524864   0.6049497), wk =   0.0030053
        k(  629) = (  -0.6363636   0.0524864   0.4880423), wk =   0.0030053
        k(  630) = (  -0.7272727   0.1049728   0.2913408), wk =   0.0030053
        k(  631) = (  -0.7272727   0.1049728   0.1744334), wk =   0.0030053
        k(  632) = (  -0.7272727   0.1049728   0.0575259), wk =   0.0030053
        k(  633) = (  -0.7272727   0.1049728  -0.0593816), wk =   0.0030053
        k(  634) = (  -0.7272727   0.1049728  -0.1762890), wk =   0.0030053
        k(  635) = (  -0.4545455  -0.1574592   0.3340213), wk =   0.0030053
        k(  636) = (  -0.4545455  -0.1574592   0.2171139), wk =   0.0030053
        k(  637) = (  -0.4545455  -0.1574592   0.1002064), wk =   0.0030053
        k(  638) = (  -0.4545455  -0.1574592  -0.0167011), wk =   0.0030053
        k(  639) = (  -0.4545455  -0.1574592  -0.1336085), wk =   0.0030053
        k(  640) = (  -0.4545455  -0.1574592  -0.2505160), wk =   0.0030053
        k(  641) = (  -0.4545455  -0.1574592   0.9185587), wk =   0.0030053
        k(  642) = (  -0.4545455  -0.1574592   0.8016512), wk =   0.0030053
        k(  643) = (  -0.4545455  -0.1574592   0.6847437), wk =   0.0030053
        k(  644) = (  -0.4545455  -0.1574592   0.5678363), wk =   0.0030053
        k(  645) = (  -0.4545455  -0.1574592   0.4509288), wk =   0.0030053
        k(  646) = (  -0.5454545  -0.1049728   0.3711348), wk =   0.0030053
        k(  647) = (  -0.5454545  -0.1049728   0.2542273), wk =   0.0030053
        k(  648) = (  -0.5454545  -0.1049728   0.1373199), wk =   0.0030053
        k(  649) = (  -0.5454545  -0.1049728   0.0204124), wk =   0.0030053
        k(  650) = (  -0.5454545  -0.1049728  -0.0964951), wk =   0.0030053
        k(  651) = (  -0.5454545  -0.1049728  -0.2134025), wk =   0.0030053
        k(  652) = (  -0.5454545  -0.1049728   0.9556721), wk =   0.0030053
        k(  653) = (  -0.5454545  -0.1049728   0.8387647), wk =   0.0030053
        k(  654) = (  -0.5454545  -0.1049728   0.7218572), wk =   0.0030053
        k(  655) = (  -0.5454545  -0.1049728   0.6049497), wk =   0.0030053
        k(  656) = (  -0.5454545  -0.1049728   0.4880423), wk =   0.0030053
        k(  657) = (  -0.6363636  -0.0524864   0.2913408), wk =   0.0030053
        k(  658) = (  -0.6363636  -0.0524864   0.1744334), wk =   0.0030053
        k(  659) = (  -0.6363636  -0.0524864   0.0575259), wk =   0.0030053
        k(  660) = (  -0.6363636  -0.0524864  -0.0593816), wk =   0.0030053
        k(  661) = (  -0.6363636  -0.0524864  -0.1762890), wk =   0.0030053
        k(  662) = (  -0.5454545  -0.2099456   0.2913408), wk =   0.0030053
        k(  663) = (  -0.5454545  -0.2099456   0.1744334), wk =   0.0030053
        k(  664) = (  -0.5454545  -0.2099456   0.0575259), wk =   0.0030053
        k(  665) = (  -0.5454545  -0.2099456  -0.0593816), wk =   0.0030053
        k(  666) = (  -0.5454545  -0.2099456  -0.1762890), wk =   0.0030053

                       cryst. coord.
        k(    1) = (   0.0000000   0.0000000   0.0000000), wk =   0.0015026
        k(    2) = (   0.0000000   0.0000000   0.0909091), wk =   0.0030053
        k(    3) = (   0.0000000   0.0000000   0.1818182), wk =   0.0030053
        k(    4) = (   0.0000000   0.0000000   0.2727273), wk =   0.0030053
        k(    5) = (   0.0000000   0.0000000   0.3636364), wk =   0.0030053
        k(    6) = (   0.0000000   0.0000000   0.4545455), wk =   0.0030053
        k(    7) = (   0.0000000   0.0909091  -0.0000000), wk =   0.0030053
        k(    8) = (   0.0000000   0.0909091   0.0909091), wk =   0.0030053
        k(    9) = (   0.0000000   0.0909091   0.1818182), wk =   0.0030053
        k(   10) = (   0.0000000   0.0909091   0.2727273), wk =   0.0030053
        k(   11) = (   0.0000000   0.0909091   0.3636364), wk =   0.0030053
        k(   12) = (   0.0000000   0.0909091   0.4545455), wk =   0.0030053
        k(   13) = (   0.0000000   0.0909091  -0.4545455), wk =   0.0030053
        k(   14) = (   0.0000000   0.0909091  -0.3636364), wk =   0.0030053
        k(   15) = (   0.0000000   0.0909091  -0.2727273), wk =   0.0030053
        k(   16) = (   0.0000000   0.0909091  -0.1818182), wk =   0.0030053
        k(   17) = (   0.0000000   0.0909091  -0.0909091), wk =   0.0030053
        k(   18) = (   0.0000000   0.1818182  -0.0000000), wk =   0.0030053
        k(   19) = (   0.0000000   0.1818182   0.0909091), wk =   0.0030053
        k(   20) = (   0.0000000   0.1818182   0.1818182), wk =   0.0030053
        k(   21) = (   0.0000000   0.1818182   0.2727273), wk =   0.0030053
        k(   22) = (   0.0000000   0.1818182   0.3636364), wk =   0.0030053
        k(   23) = (   0.0000000   0.1818182   0.4545455), wk =   0.0030053
        k(   24) = (   0.0000000   0.1818182  -0.4545455), wk =   0.0030053
        k(   25) = (   0.0000000   0.1818182  -0.3636364), wk =   0.0030053
        k(   26) = (   0.0000000   0.1818182  -0.2727273), wk =   0.0030053
        k(   27) = (   0.0000000   0.1818182  -0.1818182), wk =   0.0030053
        k(   28) = (   0.0000000   0.1818182  -0.0909091), wk =   0.0030053
        k(   29) = (   0.0000000   0.2727273   0.0000000), wk =   0.0030053
        k(   30) = (   0.0000000   0.2727273   0.0909091), wk =   0.0030053
        k(   31) = (   0.0000000   0.2727273   0.1818182), wk =   0.0030053
        k(   32) = (   0.0000000   0.2727273   0.2727273), wk =   0.0030053
        k(   33) = (   0.0000000   0.2727273   0.3636364), wk =   0.0030053
        k(   34) = (   0.0000000   0.2727273   0.4545455), wk =   0.0030053
        k(   35) = (   0.0000000   0.2727273  -0.4545455), wk =   0.0030053
        k(   36) = (   0.0000000   0.2727273  -0.3636364), wk =   0.0030053
        k(   37) = (   0.0000000   0.2727273  -0.2727273), wk =   0.0030053
        k(   38) = (   0.0000000   0.2727273  -0.1818182), wk =   0.0030053
        k(   39) = (   0.0000000   0.2727273  -0.0909091), wk =   0.0030053
        k(   40) = (   0.0000000   0.3636364  -0.0000000), wk =   0.0030053
        k(   41) = (   0.0000000   0.3636364   0.0909091), wk =   0.0030053
        k(   42) = (   0.0000000   0.3636364   0.1818182), wk =   0.0030053
        k(   43) = (   0.0000000   0.3636364   0.2727273), wk =   0.0030053
        k(   44) = (   0.0000000   0.3636364   0.3636364), wk =   0.0030053
        k(   45) = (   0.0000000   0.3636364   0.4545455), wk =   0.0030053
        k(   46) = (   0.0000000   0.3636364  -0.4545455), wk =   0.0030053
        k(   47) = (   0.0000000   0.3636364  -0.3636364), wk =   0.0030053
        k(   48) = (   0.0000000   0.3636364  -0.2727273), wk =   0.0030053
        k(   49) = (   0.0000000   0.3636364  -0.1818182), wk =   0.0030053
        k(   50) = (   0.0000000   0.3636364  -0.0909091), wk =   0.0030053
        k(   51) = (   0.0000000   0.4545455   0.0000000), wk =   0.0030053
        k(   52) = (   0.0000000   0.4545455   0.0909091), wk =   0.0030053
        k(   53) = (   0.0000000   0.4545455   0.1818182), wk =   0.0030053
        k(   54) = (   0.0000000   0.4545455   0.2727273), wk =   0.0030053
        k(   55) = (   0.0000000   0.4545455   0.3636364), wk =   0.0030053
        k(   56) = (   0.0000000   0.4545455   0.4545455), wk =   0.0030053
        k(   57) = (   0.0000000   0.4545455  -0.4545455), wk =   0.0030053
        k(   58) = (   0.0000000   0.4545455  -0.3636364), wk =   0.0030053
        k(   59) = (   0.0000000   0.4545455  -0.2727273), wk =   0.0030053
        k(   60) = (   0.0000000   0.4545455  -0.1818182), wk =   0.0030053
        k(   61) = (   0.0000000   0.4545455  -0.0909091), wk =   0.0030053
        k(   62) = (   0.0909091   0.0000000  -0.0000000), wk =   0.0030053
        k(   63) = (   0.0909091   0.0000000   0.0909091), wk =   0.0030053
        k(   64) = (   0.0909091   0.0000000   0.1818182), wk =   0.0030053
        k(   65) = (   0.0909091   0.0000000   0.2727273), wk =   0.0030053
        k(   66) = (   0.0909091   0.0000000   0.3636364), wk =   0.0030053
        k(   67) = (   0.0909091   0.0000000   0.4545455), wk =   0.0030053
        k(   68) = (   0.0909091   0.0000000  -0.4545455), wk =   0.0030053
        k(   69) = (   0.0909091   0.0000000  -0.3636364), wk =   0.0030053
        k(   70) = (   0.0909091   0.0000000  -0.2727273), wk =   0.0030053
        k(   71) = (   0.0909091   0.0000000  -0.1818182), wk =   0.0030053
        k(   72) = (   0.0909091   0.0000000  -0.0909091), wk =   0.0030053
        k(   73) = (   0.0909091   0.0909091  -0.0000000), wk =   0.0030053
        k(   74) = (   0.0909091   0.0909091   0.0909091), wk =   0.0030053
        k(   75) = (   0.0909091   0.0909091   0.1818182), wk =   0.0030053
        k(   76) = (   0.0909091   0.0909091   0.2727273), wk =   0.0030053
        k(   77) = (   0.0909091   0.0909091   0.3636364), wk =   0.0030053
        k(   78) = (   0.0909091   0.0909091   0.4545455), wk =   0.0030053
        k(   79) = (   0.0909091   0.0909091  -0.4545455), wk =   0.0030053
        k(   80) = (   0.0909091   0.0909091  -0.3636364), wk =   0.0030053
        k(   81) = (   0.0909091   0.0909091  -0.2727273), wk =   0.0030053
        k(   82) = (   0.0909091   0.0909091  -0.1818182), wk =   0.0030053
        k(   83) = (   0.0909091   0.0909091  -0.0909091), wk =   0.0030053
        k(   84) = (   0.0909091   0.1818182  -0.0000000), wk =   0.0030053
        k(   85) = (   0.0909091   0.1818182   0.0909091), wk =   0.0030053
        k(   86) = (   0.0909091   0.1818182   0.1818182), wk =   0.0030053
        k(   87) = (   0.0909091   0.1818182   0.2727273), wk =   0.0030053
        k(   88) = (   0.0909091   0.1818182   0.3636364), wk =   0.0030053
        k(   89) = (   0.0909091   0.1818182   0.4545455), wk =   0.0030053
        k(   90) = (   0.0909091   0.1818182  -0.4545455), wk =   0.0030053
        k(   91) = (   0.0909091   0.1818182  -0.3636364), wk =   0.0030053
        k(   92) = (   0.0909091   0.1818182  -0.2727273), wk =   0.0030053
        k(   93) = (   0.0909091   0.1818182  -0.1818182), wk =   0.0030053
        k(   94) = (   0.0909091   0.1818182  -0.0909091), wk =   0.0030053
        k(   95) = (   0.0909091   0.2727273  -0.0000000), wk =   0.0030053
        k(   96) = (   0.0909091   0.2727273   0.0909091), wk =   0.0030053
        k(   97) = (   0.0909091   0.2727273   0.1818182), wk =   0.0030053
        k(   98) = (   0.0909091   0.2727273   0.2727273), wk =   0.0030053
        k(   99) = (   0.0909091   0.2727273   0.3636364), wk =   0.0030053
        k(  100) = (   0.0909091   0.2727273   0.4545455), wk =   0.0030053
        k(  101) = (   0.0909091   0.2727273  -0.4545455), wk =   0.0030053
        k(  102) = (   0.0909091   0.2727273  -0.3636364), wk =   0.0030053
        k(  103) = (   0.0909091   0.2727273  -0.2727273), wk =   0.0030053
        k(  104) = (   0.0909091   0.2727273  -0.1818182), wk =   0.0030053
        k(  105) = (   0.0909091   0.2727273  -0.0909091), wk =   0.0030053
        k(  106) = (   0.0909091   0.3636364   0.0000000), wk =   0.0030053
        k(  107) = (   0.0909091   0.3636364   0.0909091), wk =   0.0030053
        k(  108) = (   0.0909091   0.3636364   0.1818182), wk =   0.0030053
        k(  109) = (   0.0909091   0.3636364   0.2727273), wk =   0.0030053
        k(  110) = (   0.0909091   0.3636364   0.3636364), wk =   0.0030053
        k(  111) = (   0.0909091   0.3636364   0.4545455), wk =   0.0030053
        k(  112) = (   0.0909091   0.3636364  -0.4545455), wk =   0.0030053
        k(  113) = (   0.0909091   0.3636364  -0.3636364), wk =   0.0030053
        k(  114) = (   0.0909091   0.3636364  -0.2727273), wk =   0.0030053
        k(  115) = (   0.0909091   0.3636364  -0.1818182), wk =   0.0030053
        k(  116) = (   0.0909091   0.3636364  -0.0909091), wk =   0.0030053
        k(  117) = (   0.0909091   0.4545455  -0.0000000), wk =   0.0030053
        k(  118) = (   0.0909091   0.4545455   0.0909091), wk =   0.0030053
        k(  119) = (   0.0909091   0.4545455   0.1818182), wk =   0.0030053
        k(  120) = (   0.0909091   0.4545455   0.2727273), wk =   0.0030053
        k(  121) = (   0.0909091   0.4545455   0.3636364), wk =   0.0030053
        k(  122) = (   0.0909091   0.4545455   0.4545455), wk =   0.0030053
        k(  123) = (   0.0909091   0.4545455  -0.4545455), wk =   0.0030053
        k(  124) = (   0.0909091   0.4545455  -0.3636364), wk =   0.0030053
        k(  125) = (   0.0909091   0.4545455  -0.2727273), wk =   0.0030053
        k(  126) = (   0.0909091   0.4545455  -0.1818182), wk =   0.0030053
        k(  127) = (   0.0909091   0.4545455  -0.0909091), wk =   0.0030053
        k(  128) = (   0.0909091  -0.4545455   0.0000000), wk =   0.0030053
        k(  129) = (   0.0909091  -0.4545455   0.0909091), wk =   0.0030053
        k(  130) = (   0.0909091  -0.4545455   0.1818182), wk =   0.0030053
        k(  131) = (   0.0909091  -0.4545455   0.2727273), wk =   0.0030053
        k(  132) = (   0.0909091  -0.4545455   0.3636364), wk =   0.0030053
        k(  133) = (   0.0909091  -0.4545455   0.4545455), wk =   0.0030053
        k(  134) = (   0.0909091  -0.4545455  -0.4545455), wk =   0.0030053
        k(  135) = (   0.0909091  -0.4545455  -0.3636364), wk =   0.0030053
        k(  136) = (   0.0909091  -0.4545455  -0.2727273), wk =   0.0030053
        k(  137) = (   0.0909091  -0.4545455  -0.1818182), wk =   0.0030053
        k(  138) = (   0.0909091  -0.4545455  -0.0909091), wk =   0.0030053
        k(  139) = (   0.0909091  -0.3636364   0.0000000), wk =   0.0030053
        k(  140) = (   0.0909091  -0.3636364   0.0909091), wk =   0.0030053
        k(  141) = (   0.0909091  -0.3636364   0.1818182), wk =   0.0030053
        k(  142) = (   0.0909091  -0.3636364   0.2727273), wk =   0.0030053
        k(  143) = (   0.0909091  -0.3636364   0.3636364), wk =   0.0030053
        k(  144) = (   0.0909091  -0.3636364   0.4545455), wk =   0.0030053
        k(  145) = (   0.0909091  -0.3636364  -0.4545455), wk =   0.0030053
        k(  146) = (   0.0909091  -0.3636364  -0.3636364), wk =   0.0030053
        k(  147) = (   0.0909091  -0.3636364  -0.2727273), wk =   0.0030053
        k(  148) = (   0.0909091  -0.3636364  -0.1818182), wk =   0.0030053
        k(  149) = (   0.0909091  -0.3636364  -0.0909091), wk =   0.0030053
        k(  150) = (   0.0909091  -0.2727273  -0.0000000), wk =   0.0030053
        k(  151) = (   0.0909091  -0.2727273   0.0909091), wk =   0.0030053
        k(  152) = (   0.0909091  -0.2727273   0.1818182), wk =   0.0030053
        k(  153) = (   0.0909091  -0.2727273   0.2727273), wk =   0.0030053
        k(  154) = (   0.0909091  -0.2727273   0.3636364), wk =   0.0030053
        k(  155) = (   0.0909091  -0.2727273   0.4545455), wk =   0.0030053
        k(  156) = (   0.0909091  -0.2727273  -0.4545455), wk =   0.0030053
        k(  157) = (   0.0909091  -0.2727273  -0.3636364), wk =   0.0030053
        k(  158) = (   0.0909091  -0.2727273  -0.2727273), wk =   0.0030053
        k(  159) = (   0.0909091  -0.2727273  -0.1818182), wk =   0.0030053
        k(  160) = (   0.0909091  -0.2727273  -0.0909091), wk =   0.0030053
        k(  161) = (   0.0909091  -0.1818182  -0.0000000), wk =   0.0030053
        k(  162) = (   0.0909091  -0.1818182   0.0909091), wk =   0.0030053
        k(  163) = (   0.0909091  -0.1818182   0.1818182), wk =   0.0030053
        k(  164) = (   0.0909091  -0.1818182   0.2727273), wk =   0.0030053
        k(  165) = (   0.0909091  -0.1818182   0.3636364), wk =   0.0030053
        k(  166) = (   0.0909091  -0.1818182   0.4545455), wk =   0.0030053
        k(  167) = (   0.1818182   0.0000000  -0.0000000), wk =   0.0030053
        k(  168) = (   0.1818182   0.0000000   0.0909091), wk =   0.0030053
        k(  169) = (   0.1818182   0.0000000   0.1818182), wk =   0.0030053
        k(  170) = (   0.1818182   0.0000000   0.2727273), wk =   0.0030053
        k(  171) = (   0.1818182   0.0000000   0.3636364), wk =   0.0030053
        k(  172) = (   0.1818182   0.0000000   0.4545455), wk =   0.0030053
        k(  173) = (   0.1818182   0.0000000  -0.4545455), wk =   0.0030053
        k(  174) = (   0.1818182   0.0000000  -0.3636364), wk =   0.0030053
        k(  175) = (   0.1818182   0.0000000  -0.2727273), wk =   0.0030053
        k(  176) = (   0.1818182   0.0000000  -0.1818182), wk =   0.0030053
        k(  177) = (   0.1818182   0.0000000  -0.0909091), wk =   0.0030053
        k(  178) = (   0.1818182   0.0909091  -0.0000000), wk =   0.0030053
        k(  179) = (   0.1818182   0.0909091   0.0909091), wk =   0.0030053
        k(  180) = (   0.1818182   0.0909091   0.1818182), wk =   0.0030053
        k(  181) = (   0.1818182   0.0909091   0.2727273), wk =   0.0030053
        k(  182) = (   0.1818182   0.0909091   0.3636364), wk =   0.0030053
        k(  183) = (   0.1818182   0.0909091   0.4545455), wk =   0.0030053
        k(  184) = (   0.1818182   0.0909091  -0.4545455), wk =   0.0030053
        k(  185) = (   0.1818182   0.0909091  -0.3636364), wk =   0.0030053
        k(  186) = (   0.1818182   0.0909091  -0.2727273), wk =   0.0030053
        k(  187) = (   0.1818182   0.0909091  -0.1818182), wk =   0.0030053
        k(  188) = (   0.1818182   0.0909091  -0.0909091), wk =   0.0030053
        k(  189) = (   0.1818182   0.1818182  -0.0000000), wk =   0.0030053
        k(  190) = (   0.1818182   0.1818182   0.0909091), wk =   0.0030053
        k(  191) = (   0.1818182   0.1818182   0.1818182), wk =   0.0030053
        k(  192) = (   0.1818182   0.1818182   0.2727273), wk =   0.0030053
        k(  193) = (   0.1818182   0.1818182   0.3636364), wk =   0.0030053
        k(  194) = (   0.1818182   0.1818182   0.4545455), wk =   0.0030053
        k(  195) = (   0.1818182   0.1818182  -0.4545455), wk =   0.0030053
        k(  196) = (   0.1818182   0.1818182  -0.3636364), wk =   0.0030053
        k(  197) = (   0.1818182   0.1818182  -0.2727273), wk =   0.0030053
        k(  198) = (   0.1818182   0.1818182  -0.1818182), wk =   0.0030053
        k(  199) = (   0.1818182   0.1818182  -0.0909091), wk =   0.0030053
        k(  200) = (   0.1818182   0.2727273   0.0000000), wk =   0.0030053
        k(  201) = (   0.1818182   0.2727273   0.0909091), wk =   0.0030053
        k(  202) = (   0.1818182   0.2727273   0.1818182), wk =   0.0030053
        k(  203) = (   0.1818182   0.2727273   0.2727273), wk =   0.0030053
        k(  204) = (   0.1818182   0.2727273   0.3636364), wk =   0.0030053
        k(  205) = (   0.1818182   0.2727273   0.4545455), wk =   0.0030053
        k(  206) = (   0.1818182   0.2727273  -0.4545455), wk =   0.0030053
        k(  207) = (   0.1818182   0.2727273  -0.3636364), wk =   0.0030053
        k(  208) = (   0.1818182   0.2727273  -0.2727273), wk =   0.0030053
        k(  209) = (   0.1818182   0.2727273  -0.1818182), wk =   0.0030053
        k(  210) = (   0.1818182   0.2727273  -0.0909091), wk =   0.0030053
        k(  211) = (   0.1818182   0.3636364  -0.0000000), wk =   0.0030053
        k(  212) = (   0.1818182   0.3636364   0.0909091), wk =   0.0030053
        k(  213) = (   0.1818182   0.3636364   0.1818182), wk =   0.0030053
        k(  214) = (   0.1818182   0.3636364   0.2727273), wk =   0.0030053
        k(  215) = (   0.1818182   0.3636364   0.3636364), wk =   0.0030053
        k(  216) = (   0.1818182   0.3636364   0.4545455), wk =   0.0030053
        k(  217) = (   0.1818182   0.3636364  -0.4545455), wk =   0.0030053
        k(  218) = (   0.1818182   0.3636364  -0.3636364), wk =   0.0030053
        k(  219) = (   0.1818182   0.3636364  -0.2727273), wk =   0.0030053
        k(  220) = (   0.1818182   0.3636364  -0.1818182), wk =   0.0030053
        k(  221) = (   0.1818182   0.3636364  -0.0909091), wk =   0.0030053
        k(  222) = (   0.1818182   0.4545455   0.0000000), wk =   0.0030053
        k(  223) = (   0.1818182   0.4545455   0.0909091), wk =   0.0030053
        k(  224) = (   0.1818182   0.4545455   0.1818182), wk =   0.0030053
        k(  225) = (   0.1818182   0.4545455   0.2727273), wk =   0.0030053
        k(  226) = (   0.1818182   0.4545455   0.3636364), wk =   0.0030053
        k(  227) = (   0.1818182   0.4545455   0.4545455), wk =   0.0030053
        k(  228) = (   0.1818182   0.4545455  -0.4545455), wk =   0.0030053
        k(  229) = (   0.1818182   0.4545455  -0.3636364), wk =   0.0030053
        k(  230) = (   0.1818182   0.4545455  -0.2727273), wk =   0.0030053
        k(  231) = (   0.1818182   0.4545455  -0.1818182), wk =   0.0030053
        k(  232) = (   0.1818182   0.4545455  -0.0909091), wk =   0.0030053
        k(  233) = (   0.1818182  -0.4545455  -0.0000000), wk =   0.0030053
        k(  234) = (   0.1818182  -0.4545455   0.0909091), wk =   0.0030053
        k(  235) = (   0.1818182  -0.4545455   0.1818182), wk =   0.0030053
        k(  236) = (   0.1818182  -0.4545455   0.2727273), wk =   0.0030053
        k(  237) = (   0.1818182  -0.4545455   0.3636364), wk =   0.0030053
        k(  238) = (   0.1818182  -0.4545455   0.4545455), wk =   0.0030053
        k(  239) = (   0.1818182  -0.4545455  -0.4545455), wk =   0.0030053
        k(  240) = (   0.1818182  -0.4545455  -0.3636364), wk =   0.0030053
        k(  241) = (   0.1818182  -0.4545455  -0.2727273), wk =   0.0030053
        k(  242) = (   0.1818182  -0.4545455  -0.1818182), wk =   0.0030053
        k(  243) = (   0.1818182  -0.4545455  -0.0909091), wk =   0.0030053
        k(  244) = (   0.1818182  -0.3636364  -0.0000000), wk =   0.0030053
        k(  245) = (   0.1818182  -0.3636364   0.0909091), wk =   0.0030053
        k(  246) = (   0.1818182  -0.3636364   0.1818182), wk =   0.0030053
        k(  247) = (   0.1818182  -0.3636364   0.2727273), wk =   0.0030053
        k(  248) = (   0.1818182  -0.3636364   0.3636364), wk =   0.0030053
        k(  249) = (   0.1818182  -0.3636364   0.4545455), wk =   0.0030053
        k(  250) = (   0.2727273   0.0000000  -0.0000000), wk =   0.0030053
        k(  251) = (   0.2727273   0.0000000   0.0909091), wk =   0.0030053
        k(  252) = (   0.2727273   0.0000000   0.1818182), wk =   0.0030053
        k(  253) = (   0.2727273   0.0000000   0.2727273), wk =   0.0030053
        k(  254) = (   0.2727273   0.0000000   0.3636364), wk =   0.0030053
        k(  255) = (   0.2727273   0.0000000   0.4545455), wk =   0.0030053
        k(  256) = (   0.2727273   0.0000000  -0.4545455), wk =   0.0030053
        k(  257) = (   0.2727273   0.0000000  -0.3636364), wk =   0.0030053
        k(  258) = (   0.2727273   0.0000000  -0.2727273), wk =   0.0030053
        k(  259) = (   0.2727273   0.0000000  -0.1818182), wk =   0.0030053
        k(  260) = (   0.2727273   0.0000000  -0.0909091), wk =   0.0030053
        k(  261) = (   0.2727273   0.0909091  -0.0000000), wk =   0.0030053
        k(  262) = (   0.2727273   0.0909091   0.0909091), wk =   0.0030053
        k(  263) = (   0.2727273   0.0909091   0.1818182), wk =   0.0030053
        k(  264) = (   0.2727273   0.0909091   0.2727273), wk =   0.0030053
        k(  265) = (   0.2727273   0.0909091   0.3636364), wk =   0.0030053
        k(  266) = (   0.2727273   0.0909091   0.4545455), wk =   0.0030053
        k(  267) = (   0.2727273   0.0909091  -0.4545455), wk =   0.0030053
        k(  268) = (   0.2727273   0.0909091  -0.3636364), wk =   0.0030053
        k(  269) = (   0.2727273   0.0909091  -0.2727273), wk =   0.0030053
        k(  270) = (   0.2727273   0.0909091  -0.1818182), wk =   0.0030053
        k(  271) = (   0.2727273   0.0909091  -0.0909091), wk =   0.0030053
        k(  272) = (   0.2727273   0.1818182  -0.0000000), wk =   0.0030053
        k(  273) = (   0.2727273   0.1818182   0.0909091), wk =   0.0030053
        k(  274) = (   0.2727273   0.1818182   0.1818182), wk =   0.0030053
        k(  275) = (   0.2727273   0.1818182   0.2727273), wk =   0.0030053
        k(  276) = (   0.2727273   0.1818182   0.3636364), wk =   0.0030053
        k(  277) = (   0.2727273   0.1818182   0.4545455), wk =   0.0030053
        k(  278) = (   0.2727273   0.1818182  -0.4545455), wk =   0.0030053
        k(  279) = (   0.2727273   0.1818182  -0.3636364), wk =   0.0030053
        k(  280) = (   0.2727273   0.1818182  -0.2727273), wk =   0.0030053
        k(  281) = (   0.2727273   0.1818182  -0.1818182), wk =   0.0030053
        k(  282) = (   0.2727273   0.1818182  -0.0909091), wk =   0.0030053
        k(  283) = (   0.2727273   0.2727273  -0.0000000), wk =   0.0030053
        k(  284) = (   0.2727273   0.2727273   0.0909091), wk =   0.0030053
        k(  285) = (   0.2727273   0.2727273   0.1818182), wk =   0.0030053
        k(  286) = (   0.2727273   0.2727273   0.2727273), wk =   0.0030053
        k(  287) = (   0.2727273   0.2727273   0.3636364), wk =   0.0030053
        k(  288) = (   0.2727273   0.2727273   0.4545455), wk =   0.0030053
        k(  289) = (   0.2727273   0.2727273  -0.4545455), wk =   0.0030053
        k(  290) = (   0.2727273   0.2727273  -0.3636364), wk =   0.0030053
        k(  291) = (   0.2727273   0.2727273  -0.2727273), wk =   0.0030053
        k(  292) = (   0.2727273   0.2727273  -0.1818182), wk =   0.0030053
        k(  293) = (   0.2727273   0.2727273  -0.0909091), wk =   0.0030053
        k(  294) = (   0.2727273   0.3636364  -0.0000000), wk =   0.0030053
        k(  295) = (   0.2727273   0.3636364   0.0909091), wk =   0.0030053
        k(  296) = (   0.2727273   0.3636364   0.1818182), wk =   0.0030053
        k(  297) = (   0.2727273   0.3636364   0.2727273), wk =   0.0030053
        k(  298) = (   0.2727273   0.3636364   0.3636364), wk =   0.0030053
        k(  299) = (   0.2727273   0.3636364   0.4545455), wk =   0.0030053
        k(  300) = (   0.2727273   0.3636364  -0.4545455), wk =   0.0030053
        k(  301) = (   0.2727273   0.3636364  -0.3636364), wk =   0.0030053
        k(  302) = (   0.2727273   0.3636364  -0.2727273), wk =   0.0030053
        k(  303) = (   0.2727273   0.3636364  -0.1818182), wk =   0.0030053
        k(  304) = (   0.2727273   0.3636364  -0.0909091), wk =   0.0030053
        k(  305) = (   0.2727273   0.4545455  -0.0000000), wk =   0.0030053
        k(  306) = (   0.2727273   0.4545455   0.0909091), wk =   0.0030053
        k(  307) = (   0.2727273   0.4545455   0.1818182), wk =   0.0030053
        k(  308) = (   0.2727273   0.4545455   0.2727273), wk =   0.0030053
        k(  309) = (   0.2727273   0.4545455   0.3636364), wk =   0.0030053
        k(  310) = (   0.2727273   0.4545455   0.4545455), wk =   0.0030053
        k(  311) = (   0.3636364   0.0000000  -0.0000000), wk =   0.0030053
        k(  312) = (   0.3636364   0.0000000   0.0909091), wk =   0.0030053
        k(  313) = (   0.3636364   0.0000000   0.1818182), wk =   0.0030053
        k(  314) = (   0.3636364   0.0000000   0.2727273), wk =   0.0030053
        k(  315) = (   0.3636364   0.0000000   0.3636364), wk =   0.0030053
        k(  316) = (   0.3636364   0.0000000   0.4545455), wk =   0.0030053
        k(  317) = (   0.3636364   0.0000000  -0.4545455), wk =   0.0030053
        k(  318) = (   0.3636364   0.0000000  -0.3636364), wk =   0.0030053
        k(  319) = (   0.3636364   0.0000000  -0.2727273), wk =   0.0030053
        k(  320) = (   0.3636364   0.0000000  -0.1818182), wk =   0.0030053
[...]

     occupation numbers 
     1.0000   1.0000   1.0000   1.0000   0.0000   0.0000   0.0000   0.0000

          k =-0.5455 0.0000 0.4509 (  1078 PWs)   bands (ev):

    -4.9669  -1.7939   0.1674   6.5632  10.8700  19.6947  22.0362  25.7447

     occupation numbers 
     1.0000   1.0000   1.0000   1.0000   0.0000   0.0000   0.0000   0.0000

          k =-0.6364 0.0525 0.3711 (  1071 PWs)   bands (ev):

    -5.2650  -1.6810   0.0493   7.1109  10.9059  20.3369  21.8678  25.6848

     occupation numbers 
     1.0000   1.0000   1.0000   1.0017   0.0000   0.0000   0.0000   0.0000

          k =-0.6364 0.0525 0.2542 (  1077 PWs)   bands (ev):

    -5.2188  -2.0451   0.3071   7.4294  10.7621  20.4480  21.1918  25.8990

     occupation numbers 
     1.0000   1.0000   1.0000   1.0502   0.0000   0.0000   0.0000   0.0000

          k =-0.6364 0.0525 0.1373 (  1079 PWs)   bands (ev):

    -5.1979  -2.0178   0.2777   7.3716  10.8128  20.3284  21.3885  25.7857

     occupation numbers 
     1.0000   1.0000   1.0000   1.0333   0.0000   0.0000   0.0000   0.0000

          k =-0.6364 0.0525 0.0204 (  1074 PWs)   bands (ev):

    -5.2021  -1.6142  -0.0281   6.9709  11.0440  20.1335  22.2737  25.3666

     occupation numbers 
     1.0000   1.0000   1.0000   1.0002   0.0000   0.0000   0.0000   0.0000

          k =-0.6364 0.0525-0.0965 (  1070 PWs)   bands (ev):

    -5.1972  -1.0794  -0.3258   6.3562  11.2602  20.1725  22.7795  25.2004

     occupation numbers 
     1.0000   1.0000   1.0000   1.0000   0.0000   0.0000   0.0000   0.0000

          k =-0.6364 0.0525-0.2134 (  1075 PWs)   bands (ev):

    -5.1795  -1.1055   0.0837   5.6737  11.4071  19.7316  22.7776  26.0990

     occupation numbers 
     1.0000   1.0000   1.0000   1.0000   0.0000   0.0000   0.0000   0.0000

          k =-0.6364 0.0525 0.9557 (  1072 PWs)   bands (ev):

    -5.1760  -1.2832   0.6747   5.1134  11.5118  19.0224  22.5145  27.8261

     occupation numbers 
     1.0000   1.0000   1.0000   1.0000   0.0000   0.0000   0.0000   0.0000

          k =-0.6364 0.0525 0.8388 (  1067 PWs)   bands (ev):

    -5.2020  -1.3099   0.9002   4.9012  11.5352  18.7440  22.3467  28.8813

     occupation numbers 
     1.0000   1.0000   1.0000   1.0000   0.0000   0.0000   0.0000   0.0000

          k =-0.6364 0.0525 0.7219 (  1080 PWs)   bands (ev):

    -5.2458  -1.1913   0.6068   5.1665  11.4332  19.1824  22.3529  28.0159

     occupation numbers 
     1.0000   1.0000   1.0000   1.0000   0.0000   0.0000   0.0000   0.0000

          k =-0.6364 0.0525 0.6049 (  1079 PWs)   bands (ev):

    -5.2845  -0.9765  -0.0127   5.7853  11.2598  20.0478  22.3526  26.4731

     occupation numbers 
     1.0000   1.0000   1.0000   1.0000   0.0000   0.0000   0.0000   0.0000

          k =-0.6364 0.0525 0.4880 (  1076 PWs)   bands (ev):

    -5.2945  -1.1012  -0.2798   6.5094  11.0838  20.5300  22.1827  25.6489

     occupation numbers 
     1.0000   1.0000   1.0000   1.0000   0.0000   0.0000   0.0000   0.0000

          k =-0.7273 0.1050 0.2913 (  1074 PWs)   bands (ev):

    -5.7655  -1.3493   0.2710   7.4322  10.8846  20.4583  21.4171  26.5011

     occupation numbers 
     1.0000   1.0000   1.0000   1.0511   0.0000   0.0000   0.0000   0.0000

          k =-0.7273 0.1050 0.1744 (  1079 PWs)   bands (ev):

    -5.4612  -1.7852   0.4416   7.3595  10.8468  19.6451  21.7118  26.3797

     occupation numbers 
     1.0000   1.0000   1.0000   1.0302   0.0000   0.0000   0.0000   0.0000

          k =-0.7273 0.1050 0.0575 (  1076 PWs)   bands (ev):

    -5.1081  -1.9326   0.3313   6.9650  10.9375  19.2490  22.3154  25.8629

     occupation numbers 
     1.0000   1.0000   1.0000   1.0002   0.0000   0.0000   0.0000   0.0000

          k =-0.7273 0.1050-0.0594 (  1074 PWs)   bands (ev):

    -4.8679  -1.7385   0.0893   6.3693  11.0143  19.3750  22.7883  25.3242

     occupation numbers 
     1.0000   1.0000   1.0000   1.0000   0.0000   0.0000   0.0000   0.0000

          k =-0.7273 0.1050-0.1763 (  1070 PWs)   bands (ev):

    -4.8379  -1.3870   0.0330   5.6964  11.1138  19.4033  22.9304  25.5327

     occupation numbers 
     1.0000   1.0000   1.0000   1.0000   0.0000   0.0000   0.0000   0.0000

          k =-0.4545-0.1575 0.3340 (  1070 PWs)   bands (ev):

    -5.4237  -1.7675   0.9619   7.2176  10.6818  16.6991  22.4091  26.4855

     occupation numbers 
     1.0000   1.0000   1.0000   1.0072   0.0000   0.0000   0.0000   0.0000

          k =-0.4545-0.1575 0.2171 (  1068 PWs)   bands (ev):

    -5.9462  -1.2086   0.8685   7.5789  10.5462  17.4216  22.1584  27.0773

     occupation numbers 
     1.0000   1.0000   1.0000   1.0833   0.0000   0.0000   0.0000   0.0000

          k =-0.4545-0.1575 0.1002 (  1069 PWs)   bands (ev):

    -6.3101  -0.7567   0.7173   7.8239  10.3147  18.9935  21.9071  27.5966

     occupation numbers 
     1.0000   1.0000   1.0000   0.8256   0.0000   0.0000   0.0000   0.0000

          k =-0.4545-0.1575-0.0167 (  1071 PWs)   bands (ev):

    -6.4472  -0.8520   0.9425   7.6674  10.4454  20.5964  22.1070  27.3769

     occupation numbers 
     1.0000   1.0000   1.0000   1.0544   0.0000   0.0000   0.0000   0.0000

          k =-0.4545-0.1575-0.1336 (  1069 PWs)   bands (ev):

    -6.3563  -1.2873   1.3694   7.2549  10.7107  20.9589  23.6277  26.3660

     occupation numbers 
     1.0000   1.0000   1.0000   1.0110   0.0000   0.0000   0.0000   0.0000

          k =-0.4545-0.1575-0.2505 (  1076 PWs)   bands (ev):

    -6.0832  -1.6588   1.5976   6.7959  10.8526  20.8308  23.8748  26.3387

     occupation numbers 
     1.0000   1.0000   1.0000   1.0000   0.0000   0.0000   0.0000   0.0000

          k =-0.4545-0.1575 0.9186 (  1069 PWs)   bands (ev):

    -5.7102  -1.7985   1.4475   6.4333  10.8049  20.4493  22.7910  26.9509

     occupation numbers 
     1.0000   1.0000   1.0000   1.0000   0.0000   0.0000   0.0000   0.0000

          k =-0.4545-0.1575 0.8017 (  1075 PWs)   bands (ev):

    -5.3248  -1.7161   0.9666   6.2985  10.5508  19.7223  22.4451  26.7754

     occupation numbers 
     1.0000   1.0000   1.0000   1.0000   0.0000   0.0000   0.0000   0.0000

          k =-0.4545-0.1575 0.6847 (  1073 PWs)   bands (ev):

    -4.9870  -1.6847   0.5378   6.4164  10.2221  18.8358  22.7463  26.2707

     occupation numbers 
     1.0000   1.0000   1.0000   1.0000   0.0000   0.0000   0.0000   0.0000

          k =-0.4545-0.1575 0.5678 (  1076 PWs)   bands (ev):

    -4.7899  -1.9627   0.5728   6.6794  10.1080  17.9181  22.9712  25.8229

     occupation numbers 
     1.0000   1.0000   1.0000   1.0000   0.0000   0.0000   0.0000   0.0000

          k =-0.4545-0.1575 0.4509 (  1074 PWs)   bands (ev):

    -4.9380  -2.0923   0.8280   6.9402  10.3773  17.0506  22.7175  25.9838

     occupation numbers 
     1.0000   1.0000   1.0000   1.0001   0.0000   0.0000   0.0000   0.0000

          k =-0.5455-0.1050 0.3711 (  1080 PWs)   bands (ev):

    -4.9066  -2.0518   0.4175   7.2707  10.3245  17.7512  22.3787  25.7906

     occupation numbers 
     1.0000   1.0000   1.0000   1.0131   0.0000   0.0000   0.0000   0.0000

          k =-0.5455-0.1050 0.2542 (  1074 PWs)   bands (ev):

    -5.2389  -1.7152   0.3337   7.5818  10.2562  18.0694  22.0199  26.0147

     occupation numbers 
     1.0000   1.0000   1.0000   1.0832   0.0000   0.0000   0.0000   0.0000

          k =-0.5455-0.1050 0.1373 (  1067 PWs)   bands (ev):

    -5.5773  -1.1606   0.0482   7.7960  10.1267  19.2383  21.5311  26.3101

     occupation numbers 
     1.0000   1.0000   1.0000   0.8832   0.0000   0.0000   0.0000   0.0000

          k =-0.5455-0.1050 0.0204 (  1075 PWs)   bands (ev):

    -5.7818  -0.8942  -0.0277   7.6553  10.3337  20.4276  21.6340  26.2733

     occupation numbers 
     1.0000   1.0000   1.0000   1.0621   0.0000   0.0000   0.0000   0.0000

          k =-0.5455-0.1050-0.0965 (  1071 PWs)   bands (ev):

    -5.8225  -1.3090   0.5475   7.2313  10.6750  20.6486  23.0900  25.6433

     occupation numbers 
     1.0000   1.0000   1.0000   1.0084   0.0000   0.0000   0.0000   0.0000

          k =-0.5455-0.1050-0.2134 (  1075 PWs)   bands (ev):

    -5.7349  -1.7017   1.1080   6.7077  10.8653  20.6084  23.9184  25.5513

     occupation numbers 
     1.0000   1.0000   1.0000   1.0000   0.0000   0.0000   0.0000   0.0000

          k =-0.5455-0.1050 0.9557 (  1075 PWs)   bands (ev):

    -5.5821  -1.8506   1.3810   6.2161  10.8950  20.2320  23.2551  26.8739

     occupation numbers 
     1.0000   1.0000   1.0000   1.0000   0.0000   0.0000   0.0000   0.0000

          k =-0.5455-0.1050 0.8388 (  1070 PWs)   bands (ev):

    -5.4034  -1.7590   1.2388   5.9487  10.7717  19.7281  22.8659  27.0175

     occupation numbers 
     1.0000   1.0000   1.0000   1.0000   0.0000   0.0000   0.0000   0.0000

          k =-0.5455-0.1050 0.7219 (  1071 PWs)   bands (ev):

    -5.1939  -1.6084   0.7912   6.0454  10.5056  19.3388  22.8233  26.5183

     occupation numbers 
     1.0000   1.0000   1.0000   1.0000   0.0000   0.0000   0.0000   0.0000

          k =-0.5455-0.1050 0.6049 (  1073 PWs)   bands (ev):

    -4.9613  -1.6836   0.4267   6.4420  10.2499  18.9179  22.7960  25.9390

     occupation numbers 
     1.0000   1.0000   1.0000   1.0000   0.0000   0.0000   0.0000   0.0000

          k =-0.5455-0.1050 0.4880 (  1072 PWs)   bands (ev):

    -4.8063  -1.9811   0.3718   6.9092  10.2097  18.2633  22.5907  25.7242

     occupation numbers 
     1.0000   1.0000   1.0000   1.0001   0.0000   0.0000   0.0000   0.0000

          k =-0.6364-0.0525 0.2913 (  1077 PWs)   bands (ev):

    -4.8812  -1.7822  -0.2026   7.6435  10.0188  19.2621  21.9068  25.1454

     occupation numbers 
     1.0000   1.0000   1.0000   1.0683   0.0000   0.0000   0.0000   0.0000

          k =-0.6364-0.0525 0.1744 (  1075 PWs)   bands (ev):

    -4.9773  -1.5796  -0.3316   7.7549   9.9189  20.1134  21.0634  25.2874

     occupation numbers 
     1.0000   1.0000   1.0000   0.9557   0.0000   0.0000   0.0000   0.0000

          k =-0.6364-0.0525 0.0575 (  1073 PWs)   bands (ev):

    -5.1208  -1.1042  -0.6517   7.5744  10.1536  20.1764  21.6865  25.2058

     occupation numbers 
     1.0000   1.0000   1.0000   1.0833   0.0000   0.0000   0.0000   0.0000

          k =-0.6364-0.0525-0.0594 (  1072 PWs)   bands (ev):

    -5.2378  -1.1940  -0.3239   7.1596  10.5282  20.0471  22.9326  24.9786

     occupation numbers 
     1.0000   1.0000   1.0000   1.0034   0.0000   0.0000   0.0000   0.0000

          k =-0.6364-0.0525-0.1763 (  1069 PWs)   bands (ev):

    -5.3213  -1.5457   0.3920   6.6304  10.7722  20.1060  23.4873  25.3795

     occupation numbers 
     1.0000   1.0000   1.0000   1.0000   0.0000   0.0000   0.0000   0.0000

          k =-0.5455-0.2099 0.2913 (  1075 PWs)   bands (ev):

    -4.9269  -2.0841   0.6593   7.3738  10.1815  16.7028  22.7208  25.8245

     occupation numbers 
     1.0000   1.0000   1.0000   1.0339   0.0000   0.0000   0.0000   0.0000

          k =-0.5455-0.2099 0.1744 (  1067 PWs)   bands (ev):

    -5.2645  -1.5765   0.3857   7.6824   9.7856  17.9307  22.2846  26.3041

     occupation numbers 
     1.0000   1.0000   1.0000   1.0429   0.0000   0.0000   0.0000   0.0000

          k =-0.5455-0.2099 0.0575 (  1069 PWs)   bands (ev):

    -5.5476  -1.3974   0.4119   7.8210   9.7225  19.5424  21.7780  26.9266

     occupation numbers 
     1.0000   1.0000   1.0000   0.8318   0.0000   0.0000   0.0000   0.0000

          k =-0.5455-0.2099-0.0594 (  1072 PWs)   bands (ev):

    -5.7093  -1.7144   0.9071   7.6506  10.0254  20.6454  22.2184  26.9231

     occupation numbers 
     1.0000   1.0000   1.0000   1.0647   0.0000   0.0000   0.0000   0.0000

          k =-0.5455-0.2099-0.1763 (  1075 PWs)   bands (ev):

    -5.7760  -2.0277   1.4082   7.3937  10.2557  20.8053  23.8251  26.1698

     occupation numbers 
     1.0000   1.0000   1.0000   1.0394   0.0000   0.0000   0.0000   0.0000

     the Fermi energy is     7.9999 ev

!    total energy              =     -23.08127751 Ry
     estimated scf accuracy    <          6.0E-12 Ry
     smearing contrib. (-TS)   =       0.00070471 Ry
     internal energy E=F+TS    =     -23.08198222 Ry

     The total energy is F=E-TS. E is the sum of the following terms:
     one-electron contribution =      -3.92140262 Ry
     hartree contribution      =       7.56414680 Ry
     xc contribution           =     -10.42522602 Ry
     ewald contribution        =     -16.29950039 Ry

     convergence has been achieved in  12 iterations

     Forces acting on atoms (cartesian axes, Ry/au):

     atom    1 type  1   force =    -5.90796433    4.18882738   -9.73519113
     atom    2 type  2   force =     5.90796433   -4.18882738    9.73519113
     The non-local contrib.  to forces
     atom    1 type  1   force =    -1.94798481    1.40828513   -3.51530966
     atom    2 type  2   force =     0.56945040   -0.39326050    1.23972365
     The ionic contribution  to forces
     atom    1 type  1   force =    -8.80587073    6.22841535  -13.76540647
     atom    2 type  2   force =     8.80587073   -6.22841535   13.76540647
     The local contribution  to forces
     atom    1 type  1   force =     4.69756233   -3.34285971    7.30156097
     atom    2 type  2   force =    -3.37664806    2.36944292   -5.11924811
     The core correction contribution to forces
     atom    1 type  1   force =     0.14832743   -0.10501316    0.24396226
     atom    2 type  2   force =    -0.09070946    0.06340339   -0.15068937
     The Hubbard contrib.    to forces
     atom    1 type  1   force =     0.00000000    0.00000000    0.00000000
     atom    2 type  2   force =     0.00000000    0.00000000    0.00000000
     The SCF correction term to forces
     atom    1 type  1   force =     0.00000030    0.00000003    0.00000017
     atom    2 type  2   force =    -0.00000043    0.00000242   -0.00000311

     Total force =    17.159503     Total SCF correction =     0.000004


     Computing stress (Cartesian axis) and pressure

          total   stress  (Ry/bohr**3)                   (kbar)     P=     8489.22
   0.04414203  -0.03147793   0.06755538         6493.52    -4630.56     9937.74
  -0.03147793   0.02052042  -0.04695895        -4630.56     3018.66    -6907.90
   0.06755538  -0.04695895   0.10846316         9937.74    -6907.90    15955.48

     kinetic stress (kbar)  26878.23   -162.70   -312.96
                             -162.70  26596.82    255.53
                             -312.96    255.53  26277.16

     local   stress (kbar)  -2807.67   1130.54  -5216.19
                             1130.54  -2054.63   3291.80
                            -5216.19   3291.80 -10536.90

     nonloc. stress (kbar)  -3217.77     11.99     93.86
                               11.99  -3178.09    -84.73
                               93.86    -84.73  -2864.25

     hartree stress (kbar)   3747.72    162.82    410.78
                              162.82   3839.69   -176.18
                              410.78   -176.18   4960.56

     exc-cor stress (kbar)  -1415.87     -6.74     35.07
                               -6.74  -1416.11    -24.31
                               35.07    -24.31  -1363.59

     corecor stress (kbar)  -3631.58     34.31    -71.11
                               34.31  -3605.99     51.07
                              -71.11     51.07  -3701.25

     ewald   stress (kbar) -13059.55  -5800.78  14998.28
                            -5800.78 -17163.02 -10221.08
                            14998.28 -10221.08   3183.75

     hubbard stress (kbar)      0.00      0.00      0.00
                                0.00      0.00      0.00
                                0.00      0.00      0.00

     DFT-D   stress (kbar)      0.00      0.00      0.00
                                0.00      0.00      0.00
                                0.00      0.00      0.00

     XDM     stress (kbar)      0.00      0.00      0.00
                                0.00      0.00      0.00
                                0.00      0.00      0.00

     dft-nl  stress (kbar)      0.00      0.00      0.00
                                0.00      0.00      0.00
                                0.00      0.00      0.00

     TS-vdW  stress (kbar)      0.00      0.00      0.00
                                0.00      0.00      0.00
                                0.00      0.00      0.00



     init_run     :      0.53s CPU      0.67s WALL (       1 calls)
     electrons    :     17.90s CPU     19.46s WALL (       1 calls)
     forces       :      0.12s CPU      0.12s WALL (       1 calls)
     stress       :      0.35s CPU      0.35s WALL (       1 calls)

     Called by init_run:
     wfcinit      :      0.44s CPU      0.54s WALL (       1 calls)
     wfcinit:atom :      0.01s CPU      0.01s WALL (     666 calls)
     wfcinit:wfcr :      0.41s CPU      0.50s WALL (     666 calls)
     potinit      :      0.02s CPU      0.03s WALL (       1 calls)
     hinit0       :      0.05s CPU      0.08s WALL (       1 calls)

     Called by electrons:
     c_bands      :     15.31s CPU     16.66s WALL (      12 calls)
     sum_band     :      2.54s CPU      2.73s WALL (      12 calls)
     v_of_rho     :      0.03s CPU      0.03s WALL (      13 calls)
     v_h          :      0.00s CPU      0.00s WALL (      13 calls)
     v_xc         :      0.03s CPU      0.03s WALL (      15 calls)
     newd         :      0.01s CPU      0.02s WALL (      13 calls)
     mix_rho      :      0.00s CPU      0.01s WALL (      12 calls)

     Called by c_bands:
     init_us_2    :      0.31s CPU      0.34s WALL (   17982 calls)
     cegterg      :     14.82s CPU     16.13s WALL (    7992 calls)

     Called by sum_band:
     sum_band:wei :      0.03s CPU      0.03s WALL (      12 calls)
     sum_band:loo :      2.50s CPU      2.69s WALL (      12 calls)
     sum_band:buf :      0.03s CPU      0.03s WALL (    7992 calls)
     sum_band:ini :      0.14s CPU      0.15s WALL (    7992 calls)
     sum_band:cal :      0.14s CPU      0.15s WALL (    7992 calls)
     sum_band:bec :      0.01s CPU      0.02s WALL (    7992 calls)
     addusdens    :      0.01s CPU      0.01s WALL (      12 calls)
     addusd:skk   :      0.00s CPU      0.00s WALL (      12 calls)
     addusd:dgemm :      0.00s CPU      0.00s WALL (      12 calls)
     addusd:qvan2 :      0.01s CPU      0.01s WALL (      12 calls)

     Called by *egterg:
     cdiaghg      :      1.86s CPU      2.07s WALL (   29777 calls)
     cegterg:over :      0.61s CPU      0.67s WALL (   21785 calls)
     cegterg:upda :      0.12s CPU      0.13s WALL (   21785 calls)
     cegterg:last :      0.15s CPU      0.16s WALL (   16787 calls)
     h_psi        :     11.71s CPU     12.76s WALL (   30443 calls)
     s_psi        :      0.13s CPU      0.14s WALL (   30443 calls)
     g_psi        :      0.04s CPU      0.04s WALL (   21785 calls)

     Called by h_psi:
     h_psi:calbec :      0.45s CPU      0.50s WALL (   30443 calls)
     vloc_psi     :     10.99s CPU     11.97s WALL (   30443 calls)
     add_vuspsi   :      0.17s CPU      0.19s WALL (   30443 calls)

     General routines
     calbec       :      0.60s CPU      0.67s WALL (   41765 calls)
     fft          :      0.03s CPU      0.05s WALL (     192 calls)
     ffts         :      0.00s CPU      0.00s WALL (      25 calls)
     fftw         :     12.17s CPU     13.26s WALL (  405704 calls)
     interpolate  :      0.00s CPU      0.00s WALL (      13 calls)

     Parallel routines
     fft_scatt_xy :      1.20s CPU      1.26s WALL (  405921 calls)
     fft_scatt_yz :      4.70s CPU      5.12s WALL (  405921 calls)

     PWSCF        :     18.99s CPU     20.84s WALL


   This run was terminated on:  21:18: 3  28Sep2022            

=------------------------------------------------------------------------------=
   JOB DONE.
=------------------------------------------------------------------------------=
Note: The following floating-point exceptions are signalling: IEEE_UNDERFLOW_FLAG IEEE_DENORMAL
