
     Program PWSCF v.6.7MaX starts on 28Sep2022 at 21:15:56 

     This program is part of the open-source Quantum ESPRESSO suite
     for quantum simulation of materials; please cite
         "P. Giannozzi et al., J. Phys.:Condens. Matter 21 395502 (2009);
         "P. Giannozzi et al., J. Phys.:Condens. Matter 29 465901 (2017);
          URL http://www.quantum-espresso.org", 
     in publications or presentations arising from this work. More details at
     http://www.quantum-espresso.org/quote

     Parallel version (MPI), running on    16 processors

     MPI processes distributed on     1 nodes
     R & G space division:  proc/nbgrp/npool/nimage =      16
     Reading input from scale_1da-02.in

     Current dimensions of program PWSCF are:
     Max number of different atomic species (ntypx) = 10
     Max number of k-points (npk) =  40000
     Max angular momentum in pseudopotentials (lmaxx) =  3
     Message from routine read_pp_mesh:
     mesh size missing, using the one in header

     Subspace diagonalization in iterative solution of the eigenvalue problem:
     a serial algorithm will be used


     Parallelization info
     --------------------
     sticks:   dense  smooth     PW     G-vecs:    dense   smooth      PW
     Min          43      31     10                  768      478      90
     Max          44      32     11                  770      481      93
     Sum         699     507    163                12297     7673    1453



     bravais-lattice index     =            0
     lattice parameter (alat)  =       4.7645  a.u.
     unit-cell volume          =      79.0927 (a.u.)^3
     number of atoms/cell      =            2
     number of atomic types    =            2
     number of electrons       =         8.00
     number of Kohn-Sham states=            8
     kinetic-energy cutoff     =      80.0000  Ry
     charge density cutoff     =     440.0000  Ry
     scf convergence threshold =      2.0E-10
     mixing beta               =       0.4000
     number of iterations used =            8  plain     mixing
     Exchange-correlation= PBE
                           (   1   4   3   4   0   0   0)

     celldm(1)=   4.764503  celldm(2)=   0.000000  celldm(3)=   0.000000
     celldm(4)=   0.000000  celldm(5)=   0.000000  celldm(6)=   0.000000

     crystal axes: (cart. coord. in units of alat)
               a(1) = (   1.000000   0.000000   0.000000 )  
               a(2) = (  -0.491525   0.880704   0.000000 )  
               a(3) = (  -0.491525   0.293568   0.830336 )  

     reciprocal axes: (cart. coord. in units 2 pi/alat)
               b(1) = (  1.000000  0.558105  0.394640 )  
               b(2) = (  0.000000  1.135456 -0.401444 )  
               b(3) = (  0.000000 -0.000000  1.204332 )  


     PseudoPot. # 1 for B  read from file:
     /opt/QEpot/SSSP_precision_pseudos/B_pbe_v1.01.uspp.F.UPF
     MD5 check sum: d081ebb89d0c768e112975f650467a00
     Pseudo is Ultrasoft + core correction, Zval =  3.0
     Generated by new atomic code, or converted to UPF format
     Using radial grid of  781 points,  4 beta functions with: 
                l(1) =   0
                l(2) =   0
                l(3) =   1
                l(4) =   1
     Q(r) pseudized with  8 coefficients,  rinner =    1.100   1.100   1.100


     PseudoPot. # 2 for N  read from file:
     /opt/QEpot/SSSP_precision_pseudos/N.oncvpsp.upf
     MD5 check sum: 563d65bfb082928f0c9eb97172f6c357
     Pseudo is Norm-conserving + core correction, Zval =  5.0
     Generated using ONCVPSP code by D. R. Hamann
     Using radial grid of 1058 points,  4 beta functions with: 
                l(1) =   0
                l(2) =   0
                l(3) =   1
                l(4) =   1

     atomic species   valence    mass     pseudopotential
        B              3.00    10.81000     B ( 1.00)
        N              5.00    14.00700     N ( 1.00)

     No symmetry found


                                    s                        frac. trans.

      isym =  1     identity                                     

 cryst.   s( 1) = (     1          0          0      )
                  (     0          1          0      )
                  (     0          0          1      )

 cart.    s( 1) = (  1.0000000  0.0000000 -0.0000000 )
                  (  0.0000000  1.0000000  0.0000000 )
                  (  0.0000000  0.0000000  1.0000000 )


   Cartesian axes

     site n.     atom                  positions (alat units)
         1           B   tau(   1) = (   0.0023665   0.3940678   0.3936753  )
         2           N   tau(   2) = (   0.1099778   0.2910097   0.2046332  )

   Crystallographic axes

     site n.     atom                  positions (cryst. coord.)
         1           B   tau(   1) = (  0.3776579  0.2894078  0.4741160  )
         2           N   tau(   2) = (  0.3531482  0.2482798  0.2464464  )

     number of k points=   666  Marzari-Vanderbilt smearing, width (Ry)=  0.0220
                       cart. coord. in units 2pi/alat
        k(    1) = (   0.0000000   0.0000000   0.0000000), wk =   0.0015026
        k(    2) = (   0.0000000   0.0000000   0.1094848), wk =   0.0030053
        k(    3) = (   0.0000000   0.0000000   0.2189695), wk =   0.0030053
        k(    4) = (   0.0000000   0.0000000   0.3284543), wk =   0.0030053
        k(    5) = (   0.0000000   0.0000000   0.4379391), wk =   0.0030053
        k(    6) = (   0.0000000   0.0000000   0.5474238), wk =   0.0030053
        k(    7) = (   0.0000000   0.1032232  -0.0364949), wk =   0.0030053
        k(    8) = (   0.0000000   0.1032232   0.0729898), wk =   0.0030053
        k(    9) = (   0.0000000   0.1032232   0.1824746), wk =   0.0030053
        k(   10) = (   0.0000000   0.1032232   0.2919594), wk =   0.0030053
        k(   11) = (   0.0000000   0.1032232   0.4014442), wk =   0.0030053
        k(   12) = (   0.0000000   0.1032232   0.5109289), wk =   0.0030053
        k(   13) = (   0.0000000   0.1032232  -0.5839188), wk =   0.0030053
        k(   14) = (   0.0000000   0.1032232  -0.4744340), wk =   0.0030053
        k(   15) = (   0.0000000   0.1032232  -0.3649492), wk =   0.0030053
        k(   16) = (   0.0000000   0.1032232  -0.2554645), wk =   0.0030053
        k(   17) = (   0.0000000   0.1032232  -0.1459797), wk =   0.0030053
        k(   18) = (   0.0000000   0.2064465  -0.0729898), wk =   0.0030053
        k(   19) = (   0.0000000   0.2064465   0.0364949), wk =   0.0030053
        k(   20) = (   0.0000000   0.2064465   0.1459797), wk =   0.0030053
        k(   21) = (   0.0000000   0.2064465   0.2554645), wk =   0.0030053
        k(   22) = (   0.0000000   0.2064465   0.3649492), wk =   0.0030053
        k(   23) = (   0.0000000   0.2064465   0.4744340), wk =   0.0030053
        k(   24) = (   0.0000000   0.2064465  -0.6204137), wk =   0.0030053
        k(   25) = (   0.0000000   0.2064465  -0.5109289), wk =   0.0030053
        k(   26) = (   0.0000000   0.2064465  -0.4014442), wk =   0.0030053
        k(   27) = (   0.0000000   0.2064465  -0.2919594), wk =   0.0030053
        k(   28) = (   0.0000000   0.2064465  -0.1824746), wk =   0.0030053
        k(   29) = (   0.0000000   0.3096697  -0.1094848), wk =   0.0030053
        k(   30) = (   0.0000000   0.3096697   0.0000000), wk =   0.0030053
        k(   31) = (   0.0000000   0.3096697   0.1094848), wk =   0.0030053
        k(   32) = (   0.0000000   0.3096697   0.2189695), wk =   0.0030053
        k(   33) = (   0.0000000   0.3096697   0.3284543), wk =   0.0030053
        k(   34) = (   0.0000000   0.3096697   0.4379391), wk =   0.0030053
        k(   35) = (   0.0000000   0.3096697  -0.6569086), wk =   0.0030053
        k(   36) = (   0.0000000   0.3096697  -0.5474238), wk =   0.0030053
        k(   37) = (   0.0000000   0.3096697  -0.4379391), wk =   0.0030053
        k(   38) = (   0.0000000   0.3096697  -0.3284543), wk =   0.0030053
        k(   39) = (   0.0000000   0.3096697  -0.2189695), wk =   0.0030053
        k(   40) = (   0.0000000   0.4128929  -0.1459797), wk =   0.0030053
        k(   41) = (   0.0000000   0.4128929  -0.0364949), wk =   0.0030053
        k(   42) = (   0.0000000   0.4128929   0.0729898), wk =   0.0030053
        k(   43) = (   0.0000000   0.4128929   0.1824746), wk =   0.0030053
        k(   44) = (   0.0000000   0.4128929   0.2919594), wk =   0.0030053
        k(   45) = (   0.0000000   0.4128929   0.4014442), wk =   0.0030053
        k(   46) = (   0.0000000   0.4128929  -0.6934035), wk =   0.0030053
        k(   47) = (   0.0000000   0.4128929  -0.5839188), wk =   0.0030053
        k(   48) = (   0.0000000   0.4128929  -0.4744340), wk =   0.0030053
        k(   49) = (   0.0000000   0.4128929  -0.3649492), wk =   0.0030053
        k(   50) = (   0.0000000   0.4128929  -0.2554645), wk =   0.0030053
        k(   51) = (   0.0000000   0.5161161  -0.1824746), wk =   0.0030053
        k(   52) = (   0.0000000   0.5161161  -0.0729898), wk =   0.0030053
        k(   53) = (   0.0000000   0.5161161   0.0364949), wk =   0.0030053
        k(   54) = (   0.0000000   0.5161161   0.1459797), wk =   0.0030053
        k(   55) = (   0.0000000   0.5161161   0.2554645), wk =   0.0030053
        k(   56) = (   0.0000000   0.5161161   0.3649492), wk =   0.0030053
        k(   57) = (   0.0000000   0.5161161  -0.7298985), wk =   0.0030053
        k(   58) = (   0.0000000   0.5161161  -0.6204137), wk =   0.0030053
        k(   59) = (   0.0000000   0.5161161  -0.5109289), wk =   0.0030053
        k(   60) = (   0.0000000   0.5161161  -0.4014442), wk =   0.0030053
        k(   61) = (   0.0000000   0.5161161  -0.2919594), wk =   0.0030053
        k(   62) = (   0.0909091   0.0507368   0.0358764), wk =   0.0030053
        k(   63) = (   0.0909091   0.0507368   0.1453611), wk =   0.0030053
        k(   64) = (   0.0909091   0.0507368   0.2548459), wk =   0.0030053
        k(   65) = (   0.0909091   0.0507368   0.3643307), wk =   0.0030053
        k(   66) = (   0.0909091   0.0507368   0.4738154), wk =   0.0030053
        k(   67) = (   0.0909091   0.0507368   0.5833002), wk =   0.0030053
        k(   68) = (   0.0909091   0.0507368  -0.5115475), wk =   0.0030053
        k(   69) = (   0.0909091   0.0507368  -0.4020627), wk =   0.0030053
        k(   70) = (   0.0909091   0.0507368  -0.2925779), wk =   0.0030053
        k(   71) = (   0.0909091   0.0507368  -0.1830932), wk =   0.0030053
        k(   72) = (   0.0909091   0.0507368  -0.0736084), wk =   0.0030053
        k(   73) = (   0.0909091   0.1539601  -0.0006186), wk =   0.0030053
        k(   74) = (   0.0909091   0.1539601   0.1088662), wk =   0.0030053
        k(   75) = (   0.0909091   0.1539601   0.2183510), wk =   0.0030053
        k(   76) = (   0.0909091   0.1539601   0.3278357), wk =   0.0030053
        k(   77) = (   0.0909091   0.1539601   0.4373205), wk =   0.0030053
        k(   78) = (   0.0909091   0.1539601   0.5468053), wk =   0.0030053
        k(   79) = (   0.0909091   0.1539601  -0.5480424), wk =   0.0030053
        k(   80) = (   0.0909091   0.1539601  -0.4385576), wk =   0.0030053
        k(   81) = (   0.0909091   0.1539601  -0.3290729), wk =   0.0030053
        k(   82) = (   0.0909091   0.1539601  -0.2195881), wk =   0.0030053
        k(   83) = (   0.0909091   0.1539601  -0.1101033), wk =   0.0030053
        k(   84) = (   0.0909091   0.2571833  -0.0371135), wk =   0.0030053
        k(   85) = (   0.0909091   0.2571833   0.0723713), wk =   0.0030053
        k(   86) = (   0.0909091   0.2571833   0.1818561), wk =   0.0030053
        k(   87) = (   0.0909091   0.2571833   0.2913408), wk =   0.0030053
        k(   88) = (   0.0909091   0.2571833   0.4008256), wk =   0.0030053
        k(   89) = (   0.0909091   0.2571833   0.5103104), wk =   0.0030053
        k(   90) = (   0.0909091   0.2571833  -0.5845373), wk =   0.0030053
        k(   91) = (   0.0909091   0.2571833  -0.4750526), wk =   0.0030053
        k(   92) = (   0.0909091   0.2571833  -0.3655678), wk =   0.0030053
        k(   93) = (   0.0909091   0.2571833  -0.2560830), wk =   0.0030053
        k(   94) = (   0.0909091   0.2571833  -0.1465982), wk =   0.0030053
        k(   95) = (   0.0909091   0.3604065  -0.0736084), wk =   0.0030053
        k(   96) = (   0.0909091   0.3604065   0.0358764), wk =   0.0030053
        k(   97) = (   0.0909091   0.3604065   0.1453611), wk =   0.0030053
        k(   98) = (   0.0909091   0.3604065   0.2548459), wk =   0.0030053
        k(   99) = (   0.0909091   0.3604065   0.3643307), wk =   0.0030053
        k(  100) = (   0.0909091   0.3604065   0.4738154), wk =   0.0030053
        k(  101) = (   0.0909091   0.3604065  -0.6210322), wk =   0.0030053
        k(  102) = (   0.0909091   0.3604065  -0.5115475), wk =   0.0030053
        k(  103) = (   0.0909091   0.3604065  -0.4020627), wk =   0.0030053
        k(  104) = (   0.0909091   0.3604065  -0.2925779), wk =   0.0030053
        k(  105) = (   0.0909091   0.3604065  -0.1830932), wk =   0.0030053
        k(  106) = (   0.0909091   0.4636298  -0.1101033), wk =   0.0030053
        k(  107) = (   0.0909091   0.4636298  -0.0006186), wk =   0.0030053
        k(  108) = (   0.0909091   0.4636298   0.1088662), wk =   0.0030053
        k(  109) = (   0.0909091   0.4636298   0.2183510), wk =   0.0030053
        k(  110) = (   0.0909091   0.4636298   0.3278357), wk =   0.0030053
        k(  111) = (   0.0909091   0.4636298   0.4373205), wk =   0.0030053
        k(  112) = (   0.0909091   0.4636298  -0.6575272), wk =   0.0030053
        k(  113) = (   0.0909091   0.4636298  -0.5480424), wk =   0.0030053
        k(  114) = (   0.0909091   0.4636298  -0.4385576), wk =   0.0030053
        k(  115) = (   0.0909091   0.4636298  -0.3290729), wk =   0.0030053
        k(  116) = (   0.0909091   0.4636298  -0.2195881), wk =   0.0030053
        k(  117) = (   0.0909091   0.5668530  -0.1465982), wk =   0.0030053
        k(  118) = (   0.0909091   0.5668530  -0.0371135), wk =   0.0030053
        k(  119) = (   0.0909091   0.5668530   0.0723713), wk =   0.0030053
        k(  120) = (   0.0909091   0.5668530   0.1818561), wk =   0.0030053
        k(  121) = (   0.0909091   0.5668530   0.2913408), wk =   0.0030053
        k(  122) = (   0.0909091   0.5668530   0.4008256), wk =   0.0030053
        k(  123) = (   0.0909091   0.5668530  -0.6940221), wk =   0.0030053
        k(  124) = (   0.0909091   0.5668530  -0.5845373), wk =   0.0030053
        k(  125) = (   0.0909091   0.5668530  -0.4750526), wk =   0.0030053
        k(  126) = (   0.0909091   0.5668530  -0.3655678), wk =   0.0030053
        k(  127) = (   0.0909091   0.5668530  -0.2560830), wk =   0.0030053
        k(  128) = (   0.0909091  -0.4653793   0.2183510), wk =   0.0030053
        k(  129) = (   0.0909091  -0.4653793   0.3278357), wk =   0.0030053
        k(  130) = (   0.0909091  -0.4653793   0.4373205), wk =   0.0030053
        k(  131) = (   0.0909091  -0.4653793   0.5468053), wk =   0.0030053
        k(  132) = (   0.0909091  -0.4653793   0.6562901), wk =   0.0030053
        k(  133) = (   0.0909091  -0.4653793   0.7657748), wk =   0.0030053
        k(  134) = (   0.0909091  -0.4653793  -0.3290729), wk =   0.0030053
        k(  135) = (   0.0909091  -0.4653793  -0.2195881), wk =   0.0030053
        k(  136) = (   0.0909091  -0.4653793  -0.1101033), wk =   0.0030053
        k(  137) = (   0.0909091  -0.4653793  -0.0006186), wk =   0.0030053
        k(  138) = (   0.0909091  -0.4653793   0.1088662), wk =   0.0030053
        k(  139) = (   0.0909091  -0.3621561   0.1818561), wk =   0.0030053
        k(  140) = (   0.0909091  -0.3621561   0.2913408), wk =   0.0030053
        k(  141) = (   0.0909091  -0.3621561   0.4008256), wk =   0.0030053
        k(  142) = (   0.0909091  -0.3621561   0.5103104), wk =   0.0030053
        k(  143) = (   0.0909091  -0.3621561   0.6197951), wk =   0.0030053
        k(  144) = (   0.0909091  -0.3621561   0.7292799), wk =   0.0030053
        k(  145) = (   0.0909091  -0.3621561  -0.3655678), wk =   0.0030053
        k(  146) = (   0.0909091  -0.3621561  -0.2560830), wk =   0.0030053
        k(  147) = (   0.0909091  -0.3621561  -0.1465982), wk =   0.0030053
        k(  148) = (   0.0909091  -0.3621561  -0.0371135), wk =   0.0030053
        k(  149) = (   0.0909091  -0.3621561   0.0723713), wk =   0.0030053
        k(  150) = (   0.0909091  -0.2589328   0.1453611), wk =   0.0030053
        k(  151) = (   0.0909091  -0.2589328   0.2548459), wk =   0.0030053
        k(  152) = (   0.0909091  -0.2589328   0.3643307), wk =   0.0030053
        k(  153) = (   0.0909091  -0.2589328   0.4738154), wk =   0.0030053
        k(  154) = (   0.0909091  -0.2589328   0.5833002), wk =   0.0030053
        k(  155) = (   0.0909091  -0.2589328   0.6927850), wk =   0.0030053
        k(  156) = (   0.0909091  -0.2589328  -0.4020627), wk =   0.0030053
        k(  157) = (   0.0909091  -0.2589328  -0.2925779), wk =   0.0030053
        k(  158) = (   0.0909091  -0.2589328  -0.1830932), wk =   0.0030053
        k(  159) = (   0.0909091  -0.2589328  -0.0736084), wk =   0.0030053
        k(  160) = (   0.0909091  -0.2589328   0.0358764), wk =   0.0030053
        k(  161) = (   0.0909091  -0.1557096   0.1088662), wk =   0.0030053
        k(  162) = (   0.0909091  -0.1557096   0.2183510), wk =   0.0030053
        k(  163) = (   0.0909091  -0.1557096   0.3278357), wk =   0.0030053
        k(  164) = (   0.0909091  -0.1557096   0.4373205), wk =   0.0030053
        k(  165) = (   0.0909091  -0.1557096   0.5468053), wk =   0.0030053
        k(  166) = (   0.0909091  -0.1557096   0.6562901), wk =   0.0030053
        k(  167) = (   0.0909091  -0.1557096  -0.4385576), wk =   0.0030053
        k(  168) = (   0.0909091  -0.1557096  -0.3290729), wk =   0.0030053
        k(  169) = (   0.0909091  -0.1557096  -0.2195881), wk =   0.0030053
        k(  170) = (   0.0909091  -0.1557096  -0.1101033), wk =   0.0030053
        k(  171) = (   0.0909091  -0.1557096  -0.0006186), wk =   0.0030053
        k(  172) = (   0.0909091  -0.0524864   0.0723713), wk =   0.0030053
        k(  173) = (   0.0909091  -0.0524864   0.1818561), wk =   0.0030053
        k(  174) = (   0.0909091  -0.0524864   0.2913408), wk =   0.0030053
        k(  175) = (   0.0909091  -0.0524864   0.4008256), wk =   0.0030053
        k(  176) = (   0.0909091  -0.0524864   0.5103104), wk =   0.0030053
        k(  177) = (   0.0909091  -0.0524864   0.6197951), wk =   0.0030053
        k(  178) = (   0.0909091  -0.0524864  -0.4750526), wk =   0.0030053
        k(  179) = (   0.0909091  -0.0524864  -0.3655678), wk =   0.0030053
        k(  180) = (   0.0909091  -0.0524864  -0.2560830), wk =   0.0030053
        k(  181) = (   0.0909091  -0.0524864  -0.1465982), wk =   0.0030053
        k(  182) = (   0.0909091  -0.0524864  -0.0371135), wk =   0.0030053
        k(  183) = (   0.1818182   0.1014737   0.0717527), wk =   0.0030053
        k(  184) = (   0.1818182   0.1014737   0.1812375), wk =   0.0030053
        k(  185) = (   0.1818182   0.1014737   0.2907223), wk =   0.0030053
        k(  186) = (   0.1818182   0.1014737   0.4002070), wk =   0.0030053
        k(  187) = (   0.1818182   0.1014737   0.5096918), wk =   0.0030053
        k(  188) = (   0.1818182   0.1014737   0.6191766), wk =   0.0030053
        k(  189) = (   0.1818182   0.1014737  -0.4756711), wk =   0.0030053
        k(  190) = (   0.1818182   0.1014737  -0.3661863), wk =   0.0030053
        k(  191) = (   0.1818182   0.1014737  -0.2567016), wk =   0.0030053
        k(  192) = (   0.1818182   0.1014737  -0.1472168), wk =   0.0030053
        k(  193) = (   0.1818182   0.1014737  -0.0377320), wk =   0.0030053
        k(  194) = (   0.1818182   0.2046969   0.0352578), wk =   0.0030053
        k(  195) = (   0.1818182   0.2046969   0.1447426), wk =   0.0030053
        k(  196) = (   0.1818182   0.2046969   0.2542273), wk =   0.0030053
        k(  197) = (   0.1818182   0.2046969   0.3637121), wk =   0.0030053
        k(  198) = (   0.1818182   0.2046969   0.4731969), wk =   0.0030053
        k(  199) = (   0.1818182   0.2046969   0.5826817), wk =   0.0030053
        k(  200) = (   0.1818182   0.2046969  -0.5121660), wk =   0.0030053
        k(  201) = (   0.1818182   0.2046969  -0.4026813), wk =   0.0030053
        k(  202) = (   0.1818182   0.2046969  -0.2931965), wk =   0.0030053
        k(  203) = (   0.1818182   0.2046969  -0.1837117), wk =   0.0030053
        k(  204) = (   0.1818182   0.2046969  -0.0742270), wk =   0.0030053
        k(  205) = (   0.1818182   0.3079201  -0.0012371), wk =   0.0030053
        k(  206) = (   0.1818182   0.3079201   0.1082477), wk =   0.0030053
        k(  207) = (   0.1818182   0.3079201   0.2177324), wk =   0.0030053
        k(  208) = (   0.1818182   0.3079201   0.3272172), wk =   0.0030053
        k(  209) = (   0.1818182   0.3079201   0.4367020), wk =   0.0030053
        k(  210) = (   0.1818182   0.3079201   0.5461867), wk =   0.0030053
        k(  211) = (   0.1818182   0.3079201  -0.5486610), wk =   0.0030053
        k(  212) = (   0.1818182   0.3079201  -0.4391762), wk =   0.0030053
        k(  213) = (   0.1818182   0.3079201  -0.3296914), wk =   0.0030053
        k(  214) = (   0.1818182   0.3079201  -0.2202067), wk =   0.0030053
        k(  215) = (   0.1818182   0.3079201  -0.1107219), wk =   0.0030053
        k(  216) = (   0.1818182   0.4111434  -0.0377320), wk =   0.0030053
        k(  217) = (   0.1818182   0.4111434   0.0717527), wk =   0.0030053
        k(  218) = (   0.1818182   0.4111434   0.1812375), wk =   0.0030053
        k(  219) = (   0.1818182   0.4111434   0.2907223), wk =   0.0030053
        k(  220) = (   0.1818182   0.4111434   0.4002070), wk =   0.0030053
        k(  221) = (   0.1818182   0.4111434   0.5096918), wk =   0.0030053
        k(  222) = (   0.1818182   0.4111434  -0.5851559), wk =   0.0030053
        k(  223) = (   0.1818182   0.4111434  -0.4756711), wk =   0.0030053
        k(  224) = (   0.1818182   0.4111434  -0.3661863), wk =   0.0030053
        k(  225) = (   0.1818182   0.4111434  -0.2567016), wk =   0.0030053
        k(  226) = (   0.1818182   0.4111434  -0.1472168), wk =   0.0030053
        k(  227) = (   0.1818182   0.5143666  -0.0742270), wk =   0.0030053
        k(  228) = (   0.1818182   0.5143666   0.0352578), wk =   0.0030053
        k(  229) = (   0.1818182   0.5143666   0.1447426), wk =   0.0030053
        k(  230) = (   0.1818182   0.5143666   0.2542273), wk =   0.0030053
        k(  231) = (   0.1818182   0.5143666   0.3637121), wk =   0.0030053
        k(  232) = (   0.1818182   0.5143666   0.4731969), wk =   0.0030053
        k(  233) = (   0.1818182   0.5143666  -0.6216508), wk =   0.0030053
        k(  234) = (   0.1818182   0.5143666  -0.5121660), wk =   0.0030053
        k(  235) = (   0.1818182   0.5143666  -0.4026813), wk =   0.0030053
        k(  236) = (   0.1818182   0.5143666  -0.2931965), wk =   0.0030053
        k(  237) = (   0.1818182   0.5143666  -0.1837117), wk =   0.0030053
        k(  238) = (   0.1818182   0.6175898  -0.1107219), wk =   0.0030053
        k(  239) = (   0.1818182   0.6175898  -0.0012371), wk =   0.0030053
        k(  240) = (   0.1818182   0.6175898   0.1082477), wk =   0.0030053
        k(  241) = (   0.1818182   0.6175898   0.2177324), wk =   0.0030053
        k(  242) = (   0.1818182   0.6175898   0.3272172), wk =   0.0030053
        k(  243) = (   0.1818182   0.6175898   0.4367020), wk =   0.0030053
        k(  244) = (   0.1818182   0.6175898  -0.6581457), wk =   0.0030053
        k(  245) = (   0.1818182   0.6175898  -0.5486610), wk =   0.0030053
        k(  246) = (   0.1818182   0.6175898  -0.4391762), wk =   0.0030053
        k(  247) = (   0.1818182   0.6175898  -0.3296914), wk =   0.0030053
        k(  248) = (   0.1818182   0.6175898  -0.2202067), wk =   0.0030053
        k(  249) = (   0.1818182  -0.4146425   0.2542273), wk =   0.0030053
        k(  250) = (   0.1818182  -0.4146425   0.3637121), wk =   0.0030053
        k(  251) = (   0.1818182  -0.4146425   0.4731969), wk =   0.0030053
        k(  252) = (   0.1818182  -0.4146425   0.5826817), wk =   0.0030053
        k(  253) = (   0.1818182  -0.4146425   0.6921664), wk =   0.0030053
        k(  254) = (   0.1818182  -0.4146425   0.8016512), wk =   0.0030053
        k(  255) = (   0.1818182  -0.4146425  -0.2931965), wk =   0.0030053
        k(  256) = (   0.1818182  -0.4146425  -0.1837117), wk =   0.0030053
        k(  257) = (   0.1818182  -0.4146425  -0.0742270), wk =   0.0030053
        k(  258) = (   0.1818182  -0.4146425   0.0352578), wk =   0.0030053
        k(  259) = (   0.1818182  -0.4146425   0.1447426), wk =   0.0030053
        k(  260) = (   0.1818182  -0.3114192   0.2177324), wk =   0.0030053
        k(  261) = (   0.1818182  -0.3114192   0.3272172), wk =   0.0030053
        k(  262) = (   0.1818182  -0.3114192   0.4367020), wk =   0.0030053
        k(  263) = (   0.1818182  -0.3114192   0.5461867), wk =   0.0030053
        k(  264) = (   0.1818182  -0.3114192   0.6556715), wk =   0.0030053
        k(  265) = (   0.1818182  -0.3114192   0.7651563), wk =   0.0030053
        k(  266) = (   0.1818182  -0.3114192  -0.3296914), wk =   0.0030053
        k(  267) = (   0.1818182  -0.3114192  -0.2202067), wk =   0.0030053
        k(  268) = (   0.1818182  -0.3114192  -0.1107219), wk =   0.0030053
        k(  269) = (   0.1818182  -0.3114192  -0.0012371), wk =   0.0030053
        k(  270) = (   0.1818182  -0.3114192   0.1082477), wk =   0.0030053
        k(  271) = (   0.1818182  -0.2081960   0.1812375), wk =   0.0030053
        k(  272) = (   0.1818182  -0.2081960   0.2907223), wk =   0.0030053
        k(  273) = (   0.1818182  -0.2081960   0.4002070), wk =   0.0030053
        k(  274) = (   0.1818182  -0.2081960   0.5096918), wk =   0.0030053
        k(  275) = (   0.1818182  -0.2081960   0.6191766), wk =   0.0030053
        k(  276) = (   0.1818182  -0.2081960   0.7286613), wk =   0.0030053
        k(  277) = (   0.1818182  -0.2081960  -0.3661863), wk =   0.0030053
        k(  278) = (   0.1818182  -0.2081960  -0.2567016), wk =   0.0030053
        k(  279) = (   0.1818182  -0.2081960  -0.1472168), wk =   0.0030053
        k(  280) = (   0.1818182  -0.2081960  -0.0377320), wk =   0.0030053
        k(  281) = (   0.1818182  -0.2081960   0.0717527), wk =   0.0030053
        k(  282) = (   0.1818182  -0.1049728   0.1447426), wk =   0.0030053
        k(  283) = (   0.1818182  -0.1049728   0.2542273), wk =   0.0030053
        k(  284) = (   0.1818182  -0.1049728   0.3637121), wk =   0.0030053
        k(  285) = (   0.1818182  -0.1049728   0.4731969), wk =   0.0030053
        k(  286) = (   0.1818182  -0.1049728   0.5826817), wk =   0.0030053
        k(  287) = (   0.1818182  -0.1049728   0.6921664), wk =   0.0030053
        k(  288) = (   0.1818182  -0.1049728  -0.4026813), wk =   0.0030053
        k(  289) = (   0.1818182  -0.1049728  -0.2931965), wk =   0.0030053
        k(  290) = (   0.1818182  -0.1049728  -0.1837117), wk =   0.0030053
        k(  291) = (   0.1818182  -0.1049728  -0.0742270), wk =   0.0030053
        k(  292) = (   0.1818182  -0.1049728   0.0352578), wk =   0.0030053
        k(  293) = (   0.1818182  -0.0017495   0.1082477), wk =   0.0030053
        k(  294) = (   0.1818182  -0.0017495   0.2177324), wk =   0.0030053
        k(  295) = (   0.1818182  -0.0017495   0.3272172), wk =   0.0030053
        k(  296) = (   0.1818182  -0.0017495   0.4367020), wk =   0.0030053
        k(  297) = (   0.1818182  -0.0017495   0.5461867), wk =   0.0030053
        k(  298) = (   0.1818182  -0.0017495   0.6556715), wk =   0.0030053
        k(  299) = (   0.1818182  -0.0017495  -0.4391762), wk =   0.0030053
        k(  300) = (   0.1818182  -0.0017495  -0.3296914), wk =   0.0030053
        k(  301) = (   0.1818182  -0.0017495  -0.2202067), wk =   0.0030053
        k(  302) = (   0.1818182  -0.0017495  -0.1107219), wk =   0.0030053
        k(  303) = (   0.1818182  -0.0017495  -0.0012371), wk =   0.0030053
        k(  304) = (   0.2727273   0.1522105   0.1076291), wk =   0.0030053
        k(  305) = (   0.2727273   0.1522105   0.2171139), wk =   0.0030053
        k(  306) = (   0.2727273   0.1522105   0.3265986), wk =   0.0030053
        k(  307) = (   0.2727273   0.1522105   0.4360834), wk =   0.0030053
        k(  308) = (   0.2727273   0.1522105   0.5455682), wk =   0.0030053
        k(  309) = (   0.2727273   0.1522105   0.6550529), wk =   0.0030053
        k(  310) = (   0.2727273   0.1522105  -0.4397947), wk =   0.0030053
        k(  311) = (   0.2727273   0.1522105  -0.3303100), wk =   0.0030053
        k(  312) = (   0.2727273   0.1522105  -0.2208252), wk =   0.0030053
        k(  313) = (   0.2727273   0.1522105  -0.1113404), wk =   0.0030053
        k(  314) = (   0.2727273   0.1522105  -0.0018557), wk =   0.0030053
        k(  315) = (   0.2727273   0.2554338   0.0711342), wk =   0.0030053
        k(  316) = (   0.2727273   0.2554338   0.1806189), wk =   0.0030053
        k(  317) = (   0.2727273   0.2554338   0.2901037), wk =   0.0030053
        k(  318) = (   0.2727273   0.2554338   0.3995885), wk =   0.0030053
        k(  319) = (   0.2727273   0.2554338   0.5090732), wk =   0.0030053
        k(  320) = (   0.2727273   0.2554338   0.6185580), wk =   0.0030053
        k(  321) = (   0.2727273   0.2554338  -0.4762897), wk =   0.0030053
        k(  322) = (   0.2727273   0.2554338  -0.3668049), wk =   0.0030053
        k(  323) = (   0.2727273   0.2554338  -0.2573201), wk =   0.0030053
        k(  324) = (   0.2727273   0.2554338  -0.1478354), wk =   0.0030053
        k(  325) = (   0.2727273   0.2554338  -0.0383506), wk =   0.0030053
        k(  326) = (   0.2727273   0.3586570   0.0346392), wk =   0.0030053
        k(  327) = (   0.2727273   0.3586570   0.1441240), wk =   0.0030053
        k(  328) = (   0.2727273   0.3586570   0.2536088), wk =   0.0030053
        k(  329) = (   0.2727273   0.3586570   0.3630936), wk =   0.0030053
        k(  330) = (   0.2727273   0.3586570   0.4725783), wk =   0.0030053
        k(  331) = (   0.2727273   0.3586570   0.5820631), wk =   0.0030053
        k(  332) = (   0.2727273   0.3586570  -0.5127846), wk =   0.0030053
        k(  333) = (   0.2727273   0.3586570  -0.4032998), wk =   0.0030053
        k(  334) = (   0.2727273   0.3586570  -0.2938151), wk =   0.0030053
        k(  335) = (   0.2727273   0.3586570  -0.1843303), wk =   0.0030053
        k(  336) = (   0.2727273   0.3586570  -0.0748455), wk =   0.0030053
        k(  337) = (   0.2727273   0.4618802  -0.0018557), wk =   0.0030053
        k(  338) = (   0.2727273   0.4618802   0.1076291), wk =   0.0030053
        k(  339) = (   0.2727273   0.4618802   0.2171139), wk =   0.0030053
        k(  340) = (   0.2727273   0.4618802   0.3265986), wk =   0.0030053
        k(  341) = (   0.2727273   0.4618802   0.4360834), wk =   0.0030053
        k(  342) = (   0.2727273   0.4618802   0.5455682), wk =   0.0030053
        k(  343) = (   0.2727273   0.4618802  -0.5492795), wk =   0.0030053
        k(  344) = (   0.2727273   0.4618802  -0.4397947), wk =   0.0030053
        k(  345) = (   0.2727273   0.4618802  -0.3303100), wk =   0.0030053
        k(  346) = (   0.2727273   0.4618802  -0.2208252), wk =   0.0030053
        k(  347) = (   0.2727273   0.4618802  -0.1113404), wk =   0.0030053
        k(  348) = (   0.2727273   0.5651034  -0.0383506), wk =   0.0030053
        k(  349) = (   0.2727273   0.5651034   0.0711342), wk =   0.0030053
        k(  350) = (   0.2727273   0.5651034   0.1806189), wk =   0.0030053
        k(  351) = (   0.2727273   0.5651034   0.2901037), wk =   0.0030053
        k(  352) = (   0.2727273   0.5651034   0.3995885), wk =   0.0030053
        k(  353) = (   0.2727273   0.5651034   0.5090732), wk =   0.0030053
        k(  354) = (   0.2727273   0.5651034  -0.5857744), wk =   0.0030053
        k(  355) = (   0.2727273   0.5651034  -0.4762897), wk =   0.0030053
        k(  356) = (   0.2727273   0.5651034  -0.3668049), wk =   0.0030053
        k(  357) = (   0.2727273   0.5651034  -0.2573201), wk =   0.0030053
        k(  358) = (   0.2727273   0.5651034  -0.1478354), wk =   0.0030053
        k(  359) = (   0.2727273   0.6683267  -0.0748455), wk =   0.0030053
        k(  360) = (   0.2727273   0.6683267   0.0346392), wk =   0.0030053
        k(  361) = (   0.2727273   0.6683267   0.1441240), wk =   0.0030053
        k(  362) = (   0.2727273   0.6683267   0.2536088), wk =   0.0030053
        k(  363) = (   0.2727273   0.6683267   0.3630936), wk =   0.0030053
        k(  364) = (   0.2727273   0.6683267   0.4725783), wk =   0.0030053
        k(  365) = (   0.2727273   0.6683267  -0.6222694), wk =   0.0030053
        k(  366) = (   0.2727273   0.6683267  -0.5127846), wk =   0.0030053
        k(  367) = (   0.2727273   0.6683267  -0.4032998), wk =   0.0030053
        k(  368) = (   0.2727273   0.6683267  -0.2938151), wk =   0.0030053
        k(  369) = (   0.2727273   0.6683267  -0.1843303), wk =   0.0030053
        k(  370) = (   0.2727273  -0.3639056   0.2901037), wk =   0.0030053
        k(  371) = (   0.2727273  -0.3639056   0.3995885), wk =   0.0030053
        k(  372) = (   0.2727273  -0.3639056   0.5090732), wk =   0.0030053
        k(  373) = (   0.2727273  -0.3639056   0.6185580), wk =   0.0030053
        k(  374) = (   0.2727273  -0.3639056   0.7280428), wk =   0.0030053
        k(  375) = (   0.2727273  -0.3639056   0.8375276), wk =   0.0030053
        k(  376) = (   0.2727273  -0.3639056  -0.2573201), wk =   0.0030053
        k(  377) = (   0.2727273  -0.3639056  -0.1478354), wk =   0.0030053
        k(  378) = (   0.2727273  -0.3639056  -0.0383506), wk =   0.0030053
        k(  379) = (   0.2727273  -0.3639056   0.0711342), wk =   0.0030053
        k(  380) = (   0.2727273  -0.3639056   0.1806189), wk =   0.0030053
        k(  381) = (   0.2727273  -0.2606824   0.2536088), wk =   0.0030053
        k(  382) = (   0.2727273  -0.2606824   0.3630936), wk =   0.0030053
        k(  383) = (   0.2727273  -0.2606824   0.4725783), wk =   0.0030053
        k(  384) = (   0.2727273  -0.2606824   0.5820631), wk =   0.0030053
        k(  385) = (   0.2727273  -0.2606824   0.6915479), wk =   0.0030053
        k(  386) = (   0.2727273  -0.2606824   0.8010326), wk =   0.0030053
        k(  387) = (   0.2727273  -0.2606824  -0.2938151), wk =   0.0030053
        k(  388) = (   0.2727273  -0.2606824  -0.1843303), wk =   0.0030053
        k(  389) = (   0.2727273  -0.2606824  -0.0748455), wk =   0.0030053
        k(  390) = (   0.2727273  -0.2606824   0.0346392), wk =   0.0030053
        k(  391) = (   0.2727273  -0.2606824   0.1441240), wk =   0.0030053
        k(  392) = (   0.2727273  -0.1574592   0.2171139), wk =   0.0030053
        k(  393) = (   0.2727273  -0.1574592   0.3265986), wk =   0.0030053
        k(  394) = (   0.2727273  -0.1574592   0.4360834), wk =   0.0030053
        k(  395) = (   0.2727273  -0.1574592   0.5455682), wk =   0.0030053
        k(  396) = (   0.2727273  -0.1574592   0.6550529), wk =   0.0030053
        k(  397) = (   0.2727273  -0.1574592   0.7645377), wk =   0.0030053
        k(  398) = (   0.2727273  -0.1574592  -0.3303100), wk =   0.0030053
        k(  399) = (   0.2727273  -0.1574592  -0.2208252), wk =   0.0030053
        k(  400) = (   0.2727273  -0.1574592  -0.1113404), wk =   0.0030053
        k(  401) = (   0.2727273  -0.1574592  -0.0018557), wk =   0.0030053
        k(  402) = (   0.2727273  -0.1574592   0.1076291), wk =   0.0030053
        k(  403) = (   0.2727273  -0.0542359   0.1806189), wk =   0.0030053
        k(  404) = (   0.2727273  -0.0542359   0.2901037), wk =   0.0030053
        k(  405) = (   0.2727273  -0.0542359   0.3995885), wk =   0.0030053
        k(  406) = (   0.2727273  -0.0542359   0.5090732), wk =   0.0030053
        k(  407) = (   0.2727273  -0.0542359   0.6185580), wk =   0.0030053
        k(  408) = (   0.2727273  -0.0542359   0.7280428), wk =   0.0030053
        k(  409) = (   0.2727273  -0.0542359  -0.3668049), wk =   0.0030053
        k(  410) = (   0.2727273  -0.0542359  -0.2573201), wk =   0.0030053
        k(  411) = (   0.2727273  -0.0542359  -0.1478354), wk =   0.0030053
        k(  412) = (   0.2727273  -0.0542359  -0.0383506), wk =   0.0030053
        k(  413) = (   0.2727273  -0.0542359   0.0711342), wk =   0.0030053
        k(  414) = (   0.2727273   0.0489873   0.1441240), wk =   0.0030053
        k(  415) = (   0.2727273   0.0489873   0.2536088), wk =   0.0030053
        k(  416) = (   0.2727273   0.0489873   0.3630936), wk =   0.0030053
        k(  417) = (   0.2727273   0.0489873   0.4725783), wk =   0.0030053
        k(  418) = (   0.2727273   0.0489873   0.5820631), wk =   0.0030053
        k(  419) = (   0.2727273   0.0489873   0.6915479), wk =   0.0030053
        k(  420) = (   0.2727273   0.0489873  -0.4032998), wk =   0.0030053
        k(  421) = (   0.2727273   0.0489873  -0.2938151), wk =   0.0030053
        k(  422) = (   0.2727273   0.0489873  -0.1843303), wk =   0.0030053
        k(  423) = (   0.2727273   0.0489873  -0.0748455), wk =   0.0030053
        k(  424) = (   0.2727273   0.0489873   0.0346392), wk =   0.0030053
        k(  425) = (   0.3636364   0.2029474   0.1435055), wk =   0.0030053
        k(  426) = (   0.3636364   0.2029474   0.2529902), wk =   0.0030053
        k(  427) = (   0.3636364   0.2029474   0.3624750), wk =   0.0030053
        k(  428) = (   0.3636364   0.2029474   0.4719598), wk =   0.0030053
        k(  429) = (   0.3636364   0.2029474   0.5814445), wk =   0.0030053
        k(  430) = (   0.3636364   0.2029474   0.6909293), wk =   0.0030053
        k(  431) = (   0.3636364   0.2029474  -0.4039184), wk =   0.0030053
        k(  432) = (   0.3636364   0.2029474  -0.2944336), wk =   0.0030053
        k(  433) = (   0.3636364   0.2029474  -0.1849488), wk =   0.0030053
        k(  434) = (   0.3636364   0.2029474  -0.0754641), wk =   0.0030053
        k(  435) = (   0.3636364   0.2029474   0.0340207), wk =   0.0030053
        k(  436) = (   0.3636364   0.3061706   0.1070105), wk =   0.0030053
        k(  437) = (   0.3636364   0.3061706   0.2164953), wk =   0.0030053
        k(  438) = (   0.3636364   0.3061706   0.3259801), wk =   0.0030053
        k(  439) = (   0.3636364   0.3061706   0.4354648), wk =   0.0030053
        k(  440) = (   0.3636364   0.3061706   0.5449496), wk =   0.0030053
        k(  441) = (   0.3636364   0.3061706   0.6544344), wk =   0.0030053
        k(  442) = (   0.3636364   0.3061706  -0.4404133), wk =   0.0030053
        k(  443) = (   0.3636364   0.3061706  -0.3309285), wk =   0.0030053
        k(  444) = (   0.3636364   0.3061706  -0.2214438), wk =   0.0030053
        k(  445) = (   0.3636364   0.3061706  -0.1119590), wk =   0.0030053
        k(  446) = (   0.3636364   0.3061706  -0.0024742), wk =   0.0030053
        k(  447) = (   0.3636364   0.4093938   0.0705156), wk =   0.0030053
        k(  448) = (   0.3636364   0.4093938   0.1800004), wk =   0.0030053
        k(  449) = (   0.3636364   0.4093938   0.2894852), wk =   0.0030053
        k(  450) = (   0.3636364   0.4093938   0.3989699), wk =   0.0030053
        k(  451) = (   0.3636364   0.4093938   0.5084547), wk =   0.0030053
        k(  452) = (   0.3636364   0.4093938   0.6179395), wk =   0.0030053
        k(  453) = (   0.3636364   0.4093938  -0.4769082), wk =   0.0030053
        k(  454) = (   0.3636364   0.4093938  -0.3674235), wk =   0.0030053
        k(  455) = (   0.3636364   0.4093938  -0.2579387), wk =   0.0030053
        k(  456) = (   0.3636364   0.4093938  -0.1484539), wk =   0.0030053
        k(  457) = (   0.3636364   0.4093938  -0.0389692), wk =   0.0030053
        k(  458) = (   0.3636364   0.5126171   0.0340207), wk =   0.0030053
        k(  459) = (   0.3636364   0.5126171   0.1435055), wk =   0.0030053
        k(  460) = (   0.3636364   0.5126171   0.2529902), wk =   0.0030053
        k(  461) = (   0.3636364   0.5126171   0.3624750), wk =   0.0030053
        k(  462) = (   0.3636364   0.5126171   0.4719598), wk =   0.0030053
        k(  463) = (   0.3636364   0.5126171   0.5814445), wk =   0.0030053
        k(  464) = (   0.3636364   0.5126171  -0.5134032), wk =   0.0030053
        k(  465) = (   0.3636364   0.5126171  -0.4039184), wk =   0.0030053
        k(  466) = (   0.3636364   0.5126171  -0.2944336), wk =   0.0030053
        k(  467) = (   0.3636364   0.5126171  -0.1849488), wk =   0.0030053
        k(  468) = (   0.3636364   0.5126171  -0.0754641), wk =   0.0030053
        k(  469) = (   0.3636364   0.6158403  -0.0024742), wk =   0.0030053
        k(  470) = (   0.3636364   0.6158403   0.1070105), wk =   0.0030053
        k(  471) = (   0.3636364   0.6158403   0.2164953), wk =   0.0030053
        k(  472) = (   0.3636364   0.6158403   0.3259801), wk =   0.0030053
        k(  473) = (   0.3636364   0.6158403   0.4354648), wk =   0.0030053
        k(  474) = (   0.3636364   0.6158403   0.5449496), wk =   0.0030053
        k(  475) = (   0.3636364   0.6158403  -0.5498981), wk =   0.0030053
        k(  476) = (   0.3636364   0.6158403  -0.4404133), wk =   0.0030053
        k(  477) = (   0.3636364   0.6158403  -0.3309285), wk =   0.0030053
        k(  478) = (   0.3636364   0.6158403  -0.2214438), wk =   0.0030053
        k(  479) = (   0.3636364   0.6158403  -0.1119590), wk =   0.0030053
        k(  480) = (   0.3636364   0.7190635  -0.0389692), wk =   0.0030053
        k(  481) = (   0.3636364   0.7190635   0.0705156), wk =   0.0030053
        k(  482) = (   0.3636364   0.7190635   0.1800004), wk =   0.0030053
        k(  483) = (   0.3636364   0.7190635   0.2894852), wk =   0.0030053
        k(  484) = (   0.3636364   0.7190635   0.3989699), wk =   0.0030053
        k(  485) = (   0.3636364   0.7190635   0.5084547), wk =   0.0030053
        k(  486) = (   0.3636364   0.7190635  -0.5863930), wk =   0.0030053
        k(  487) = (   0.3636364   0.7190635  -0.4769082), wk =   0.0030053
        k(  488) = (   0.3636364   0.7190635  -0.3674235), wk =   0.0030053
        k(  489) = (   0.3636364   0.7190635  -0.2579387), wk =   0.0030053
        k(  490) = (   0.3636364   0.7190635  -0.1484539), wk =   0.0030053
        k(  491) = (   0.3636364  -0.3131688   0.3259801), wk =   0.0030053
        k(  492) = (   0.3636364  -0.3131688   0.4354648), wk =   0.0030053
        k(  493) = (   0.3636364  -0.3131688   0.5449496), wk =   0.0030053
        k(  494) = (   0.3636364  -0.3131688   0.6544344), wk =   0.0030053
        k(  495) = (   0.3636364  -0.3131688   0.7639191), wk =   0.0030053
        k(  496) = (   0.3636364  -0.3131688   0.8734039), wk =   0.0030053
        k(  497) = (   0.3636364  -0.3131688  -0.2214438), wk =   0.0030053
        k(  498) = (   0.3636364  -0.3131688  -0.1119590), wk =   0.0030053
        k(  499) = (   0.3636364  -0.3131688  -0.0024742), wk =   0.0030053
        k(  500) = (   0.3636364  -0.3131688   0.1070105), wk =   0.0030053
        k(  501) = (   0.3636364  -0.3131688   0.2164953), wk =   0.0030053
        k(  502) = (   0.3636364  -0.2099456   0.2894852), wk =   0.0030053
        k(  503) = (   0.3636364  -0.2099456   0.3989699), wk =   0.0030053
        k(  504) = (   0.3636364  -0.2099456   0.5084547), wk =   0.0030053
        k(  505) = (   0.3636364  -0.2099456   0.6179395), wk =   0.0030053
        k(  506) = (   0.3636364  -0.2099456   0.7274242), wk =   0.0030053
        k(  507) = (   0.3636364  -0.2099456   0.8369090), wk =   0.0030053
        k(  508) = (   0.3636364  -0.2099456  -0.2579387), wk =   0.0030053
        k(  509) = (   0.3636364  -0.2099456  -0.1484539), wk =   0.0030053
        k(  510) = (   0.3636364  -0.2099456  -0.0389692), wk =   0.0030053
        k(  511) = (   0.3636364  -0.2099456   0.0705156), wk =   0.0030053
        k(  512) = (   0.3636364  -0.2099456   0.1800004), wk =   0.0030053
        k(  513) = (   0.3636364  -0.1067223   0.2529902), wk =   0.0030053
        k(  514) = (   0.3636364  -0.1067223   0.3624750), wk =   0.0030053
        k(  515) = (   0.3636364  -0.1067223   0.4719598), wk =   0.0030053
        k(  516) = (   0.3636364  -0.1067223   0.5814445), wk =   0.0030053
        k(  517) = (   0.3636364  -0.1067223   0.6909293), wk =   0.0030053
        k(  518) = (   0.3636364  -0.1067223   0.8004141), wk =   0.0030053
        k(  519) = (   0.3636364  -0.1067223  -0.2944336), wk =   0.0030053
        k(  520) = (   0.3636364  -0.1067223  -0.1849488), wk =   0.0030053
        k(  521) = (   0.3636364  -0.1067223  -0.0754641), wk =   0.0030053
        k(  522) = (   0.3636364  -0.1067223   0.0340207), wk =   0.0030053
        k(  523) = (   0.3636364  -0.1067223   0.1435055), wk =   0.0030053
        k(  524) = (   0.3636364  -0.0034991   0.2164953), wk =   0.0030053
        k(  525) = (   0.3636364  -0.0034991   0.3259801), wk =   0.0030053
        k(  526) = (   0.3636364  -0.0034991   0.4354648), wk =   0.0030053
        k(  527) = (   0.3636364  -0.0034991   0.5449496), wk =   0.0030053
        k(  528) = (   0.3636364  -0.0034991   0.6544344), wk =   0.0030053
        k(  529) = (   0.3636364  -0.0034991   0.7639191), wk =   0.0030053
        k(  530) = (   0.3636364  -0.0034991  -0.3309285), wk =   0.0030053
        k(  531) = (   0.3636364  -0.0034991  -0.2214438), wk =   0.0030053
        k(  532) = (   0.3636364  -0.0034991  -0.1119590), wk =   0.0030053
        k(  533) = (   0.3636364  -0.0034991  -0.0024742), wk =   0.0030053
        k(  534) = (   0.3636364  -0.0034991   0.1070105), wk =   0.0030053
        k(  535) = (   0.3636364   0.0997241   0.1800004), wk =   0.0030053
        k(  536) = (   0.3636364   0.0997241   0.2894852), wk =   0.0030053
        k(  537) = (   0.3636364   0.0997241   0.3989699), wk =   0.0030053
        k(  538) = (   0.3636364   0.0997241   0.5084547), wk =   0.0030053
        k(  539) = (   0.3636364   0.0997241   0.6179395), wk =   0.0030053
        k(  540) = (   0.3636364   0.0997241   0.7274242), wk =   0.0030053
        k(  541) = (   0.3636364   0.0997241  -0.3674235), wk =   0.0030053
        k(  542) = (   0.3636364   0.0997241  -0.2579387), wk =   0.0030053
        k(  543) = (   0.3636364   0.0997241  -0.1484539), wk =   0.0030053
        k(  544) = (   0.3636364   0.0997241  -0.0389692), wk =   0.0030053
        k(  545) = (   0.3636364   0.0997241   0.0705156), wk =   0.0030053
        k(  546) = (   0.4545455   0.2536842   0.1793818), wk =   0.0030053
        k(  547) = (   0.4545455   0.2536842   0.2888666), wk =   0.0030053
        k(  548) = (   0.4545455   0.2536842   0.3983514), wk =   0.0030053
        k(  549) = (   0.4545455   0.2536842   0.5078361), wk =   0.0030053
        k(  550) = (   0.4545455   0.2536842   0.6173209), wk =   0.0030053
        k(  551) = (   0.4545455   0.2536842   0.7268057), wk =   0.0030053
        k(  552) = (   0.4545455   0.2536842  -0.3680420), wk =   0.0030053
        k(  553) = (   0.4545455   0.2536842  -0.2585573), wk =   0.0030053
        k(  554) = (   0.4545455   0.2536842  -0.1490725), wk =   0.0030053
        k(  555) = (   0.4545455   0.2536842  -0.0395877), wk =   0.0030053
        k(  556) = (   0.4545455   0.2536842   0.0698971), wk =   0.0030053
        k(  557) = (   0.4545455   0.3569074   0.1428869), wk =   0.0030053
        k(  558) = (   0.4545455   0.3569074   0.2523717), wk =   0.0030053
        k(  559) = (   0.4545455   0.3569074   0.3618564), wk =   0.0030053
        k(  560) = (   0.4545455   0.3569074   0.4713412), wk =   0.0030053
        k(  561) = (   0.4545455   0.3569074   0.5808260), wk =   0.0030053
        k(  562) = (   0.4545455   0.3569074   0.6903107), wk =   0.0030053
        k(  563) = (   0.4545455   0.3569074  -0.4045369), wk =   0.0030053
        k(  564) = (   0.4545455   0.3569074  -0.2950522), wk =   0.0030053
        k(  565) = (   0.4545455   0.3569074  -0.1855674), wk =   0.0030053
        k(  566) = (   0.4545455   0.3569074  -0.0760826), wk =   0.0030053
        k(  567) = (   0.4545455   0.3569074   0.0334021), wk =   0.0030053
        k(  568) = (   0.4545455   0.4601307   0.1063920), wk =   0.0030053
        k(  569) = (   0.4545455   0.4601307   0.2158767), wk =   0.0030053
        k(  570) = (   0.4545455   0.4601307   0.3253615), wk =   0.0030053
        k(  571) = (   0.4545455   0.4601307   0.4348463), wk =   0.0030053
        k(  572) = (   0.4545455   0.4601307   0.5443311), wk =   0.0030053
        k(  573) = (   0.4545455   0.4601307   0.6538158), wk =   0.0030053
        k(  574) = (   0.4545455   0.4601307  -0.4410319), wk =   0.0030053
        k(  575) = (   0.4545455   0.4601307  -0.3315471), wk =   0.0030053
        k(  576) = (   0.4545455   0.4601307  -0.2220623), wk =   0.0030053
        k(  577) = (   0.4545455   0.4601307  -0.1125776), wk =   0.0030053
        k(  578) = (   0.4545455   0.4601307  -0.0030928), wk =   0.0030053
        k(  579) = (   0.4545455   0.5633539   0.0698971), wk =   0.0030053
        k(  580) = (   0.4545455   0.5633539   0.1793818), wk =   0.0030053
        k(  581) = (   0.4545455   0.5633539   0.2888666), wk =   0.0030053
        k(  582) = (   0.4545455   0.5633539   0.3983514), wk =   0.0030053
        k(  583) = (   0.4545455   0.5633539   0.5078361), wk =   0.0030053
        k(  584) = (   0.4545455   0.5633539   0.6173209), wk =   0.0030053
        k(  585) = (   0.4545455   0.5633539  -0.4775268), wk =   0.0030053
        k(  586) = (   0.4545455   0.5633539  -0.3680420), wk =   0.0030053
        k(  587) = (   0.4545455   0.5633539  -0.2585573), wk =   0.0030053
        k(  588) = (   0.4545455   0.5633539  -0.1490725), wk =   0.0030053
        k(  589) = (   0.4545455   0.5633539  -0.0395877), wk =   0.0030053
        k(  590) = (   0.4545455   0.6665771   0.0334021), wk =   0.0030053
        k(  591) = (   0.4545455   0.6665771   0.1428869), wk =   0.0030053
        k(  592) = (   0.4545455   0.6665771   0.2523717), wk =   0.0030053
        k(  593) = (   0.4545455   0.6665771   0.3618564), wk =   0.0030053
        k(  594) = (   0.4545455   0.6665771   0.4713412), wk =   0.0030053
        k(  595) = (   0.4545455   0.6665771   0.5808260), wk =   0.0030053
        k(  596) = (   0.4545455   0.6665771  -0.5140217), wk =   0.0030053
        k(  597) = (   0.4545455   0.6665771  -0.4045369), wk =   0.0030053
        k(  598) = (   0.4545455   0.6665771  -0.2950522), wk =   0.0030053
        k(  599) = (   0.4545455   0.6665771  -0.1855674), wk =   0.0030053
        k(  600) = (   0.4545455   0.6665771  -0.0760826), wk =   0.0030053
        k(  601) = (   0.4545455   0.7698004  -0.0030928), wk =   0.0030053
        k(  602) = (   0.4545455   0.7698004   0.1063920), wk =   0.0030053
        k(  603) = (   0.4545455   0.7698004   0.2158767), wk =   0.0030053
        k(  604) = (   0.4545455   0.7698004   0.3253615), wk =   0.0030053
        k(  605) = (   0.4545455   0.7698004   0.4348463), wk =   0.0030053
        k(  606) = (   0.4545455   0.7698004   0.5443311), wk =   0.0030053
        k(  607) = (   0.4545455   0.7698004  -0.5505166), wk =   0.0030053
        k(  608) = (   0.4545455   0.7698004  -0.4410319), wk =   0.0030053
        k(  609) = (   0.4545455   0.7698004  -0.3315471), wk =   0.0030053
        k(  610) = (   0.4545455   0.7698004  -0.2220623), wk =   0.0030053
        k(  611) = (   0.4545455   0.7698004  -0.1125776), wk =   0.0030053
        k(  612) = (   0.4545455  -0.2624319   0.3618564), wk =   0.0030053
        k(  613) = (   0.4545455  -0.2624319   0.4713412), wk =   0.0030053
        k(  614) = (   0.4545455  -0.2624319   0.5808260), wk =   0.0030053
        k(  615) = (   0.4545455  -0.2624319   0.6903107), wk =   0.0030053
        k(  616) = (   0.4545455  -0.2624319   0.7997955), wk =   0.0030053
        k(  617) = (   0.4545455  -0.2624319   0.9092803), wk =   0.0030053
        k(  618) = (   0.4545455  -0.2624319  -0.1855674), wk =   0.0030053
        k(  619) = (   0.4545455  -0.2624319  -0.0760826), wk =   0.0030053
        k(  620) = (   0.4545455  -0.2624319   0.0334021), wk =   0.0030053
        k(  621) = (   0.4545455  -0.2624319   0.1428869), wk =   0.0030053
        k(  622) = (   0.4545455  -0.2624319   0.2523717), wk =   0.0030053
        k(  623) = (   0.4545455  -0.1592087   0.3253615), wk =   0.0030053
        k(  624) = (   0.4545455  -0.1592087   0.4348463), wk =   0.0030053
        k(  625) = (   0.4545455  -0.1592087   0.5443311), wk =   0.0030053
        k(  626) = (   0.4545455  -0.1592087   0.6538158), wk =   0.0030053
        k(  627) = (   0.4545455  -0.1592087   0.7633006), wk =   0.0030053
        k(  628) = (   0.4545455  -0.1592087   0.8727854), wk =   0.0030053
        k(  629) = (   0.4545455  -0.1592087  -0.2220623), wk =   0.0030053
        k(  630) = (   0.4545455  -0.1592087  -0.1125776), wk =   0.0030053
        k(  631) = (   0.4545455  -0.1592087  -0.0030928), wk =   0.0030053
        k(  632) = (   0.4545455  -0.1592087   0.1063920), wk =   0.0030053
        k(  633) = (   0.4545455  -0.1592087   0.2158767), wk =   0.0030053
        k(  634) = (   0.4545455  -0.0559855   0.2888666), wk =   0.0030053
        k(  635) = (   0.4545455  -0.0559855   0.3983514), wk =   0.0030053
        k(  636) = (   0.4545455  -0.0559855   0.5078361), wk =   0.0030053
        k(  637) = (   0.4545455  -0.0559855   0.6173209), wk =   0.0030053
        k(  638) = (   0.4545455  -0.0559855   0.7268057), wk =   0.0030053
        k(  639) = (   0.4545455  -0.0559855   0.8362904), wk =   0.0030053
        k(  640) = (   0.4545455  -0.0559855  -0.2585573), wk =   0.0030053
        k(  641) = (   0.4545455  -0.0559855  -0.1490725), wk =   0.0030053
        k(  642) = (   0.4545455  -0.0559855  -0.0395877), wk =   0.0030053
        k(  643) = (   0.4545455  -0.0559855   0.0698971), wk =   0.0030053
        k(  644) = (   0.4545455  -0.0559855   0.1793818), wk =   0.0030053
        k(  645) = (   0.4545455   0.0472377   0.2523717), wk =   0.0030053
        k(  646) = (   0.4545455   0.0472377   0.3618564), wk =   0.0030053
        k(  647) = (   0.4545455   0.0472377   0.4713412), wk =   0.0030053
        k(  648) = (   0.4545455   0.0472377   0.5808260), wk =   0.0030053
        k(  649) = (   0.4545455   0.0472377   0.6903107), wk =   0.0030053
        k(  650) = (   0.4545455   0.0472377   0.7997955), wk =   0.0030053
        k(  651) = (   0.4545455   0.0472377  -0.2950522), wk =   0.0030053
        k(  652) = (   0.4545455   0.0472377  -0.1855674), wk =   0.0030053
        k(  653) = (   0.4545455   0.0472377  -0.0760826), wk =   0.0030053
        k(  654) = (   0.4545455   0.0472377   0.0334021), wk =   0.0030053
        k(  655) = (   0.4545455   0.0472377   0.1428869), wk =   0.0030053
        k(  656) = (   0.4545455   0.1504610   0.2158767), wk =   0.0030053
        k(  657) = (   0.4545455   0.1504610   0.3253615), wk =   0.0030053
        k(  658) = (   0.4545455   0.1504610   0.4348463), wk =   0.0030053
        k(  659) = (   0.4545455   0.1504610   0.5443311), wk =   0.0030053
        k(  660) = (   0.4545455   0.1504610   0.6538158), wk =   0.0030053
        k(  661) = (   0.4545455   0.1504610   0.7633006), wk =   0.0030053
        k(  662) = (   0.4545455   0.1504610  -0.3315471), wk =   0.0030053
        k(  663) = (   0.4545455   0.1504610  -0.2220623), wk =   0.0030053
        k(  664) = (   0.4545455   0.1504610  -0.1125776), wk =   0.0030053
        k(  665) = (   0.4545455   0.1504610  -0.0030928), wk =   0.0030053
        k(  666) = (   0.4545455   0.1504610   0.1063920), wk =   0.0030053

                       cryst. coord.
        k(    1) = (   0.0000000   0.0000000   0.0000000), wk =   0.0015026
        k(    2) = (   0.0000000   0.0000000   0.0909091), wk =   0.0030053
        k(    3) = (   0.0000000   0.0000000   0.1818182), wk =   0.0030053
        k(    4) = (   0.0000000   0.0000000   0.2727273), wk =   0.0030053
        k(    5) = (   0.0000000   0.0000000   0.3636364), wk =   0.0030053
        k(    6) = (   0.0000000   0.0000000   0.4545455), wk =   0.0030053
        k(    7) = (   0.0000000   0.0909091   0.0000000), wk =   0.0030053
        k(    8) = (   0.0000000   0.0909091   0.0909091), wk =   0.0030053
        k(    9) = (   0.0000000   0.0909091   0.1818182), wk =   0.0030053
        k(   10) = (   0.0000000   0.0909091   0.2727273), wk =   0.0030053
        k(   11) = (   0.0000000   0.0909091   0.3636364), wk =   0.0030053
        k(   12) = (   0.0000000   0.0909091   0.4545455), wk =   0.0030053
        k(   13) = (   0.0000000   0.0909091  -0.4545455), wk =   0.0030053
        k(   14) = (   0.0000000   0.0909091  -0.3636364), wk =   0.0030053
        k(   15) = (   0.0000000   0.0909091  -0.2727273), wk =   0.0030053
        k(   16) = (   0.0000000   0.0909091  -0.1818182), wk =   0.0030053
        k(   17) = (   0.0000000   0.0909091  -0.0909091), wk =   0.0030053
        k(   18) = (   0.0000000   0.1818182   0.0000000), wk =   0.0030053
        k(   19) = (   0.0000000   0.1818182   0.0909091), wk =   0.0030053
        k(   20) = (   0.0000000   0.1818182   0.1818182), wk =   0.0030053
        k(   21) = (   0.0000000   0.1818182   0.2727273), wk =   0.0030053
        k(   22) = (   0.0000000   0.1818182   0.3636364), wk =   0.0030053
        k(   23) = (   0.0000000   0.1818182   0.4545455), wk =   0.0030053
        k(   24) = (   0.0000000   0.1818182  -0.4545455), wk =   0.0030053
        k(   25) = (   0.0000000   0.1818182  -0.3636364), wk =   0.0030053
        k(   26) = (   0.0000000   0.1818182  -0.2727273), wk =   0.0030053
        k(   27) = (   0.0000000   0.1818182  -0.1818182), wk =   0.0030053
        k(   28) = (   0.0000000   0.1818182  -0.0909091), wk =   0.0030053
        k(   29) = (   0.0000000   0.2727273   0.0000000), wk =   0.0030053
        k(   30) = (   0.0000000   0.2727273   0.0909091), wk =   0.0030053
        k(   31) = (   0.0000000   0.2727273   0.1818182), wk =   0.0030053
        k(   32) = (   0.0000000   0.2727273   0.2727273), wk =   0.0030053
        k(   33) = (   0.0000000   0.2727273   0.3636364), wk =   0.0030053
        k(   34) = (   0.0000000   0.2727273   0.4545455), wk =   0.0030053
        k(   35) = (   0.0000000   0.2727273  -0.4545455), wk =   0.0030053
        k(   36) = (   0.0000000   0.2727273  -0.3636364), wk =   0.0030053
        k(   37) = (   0.0000000   0.2727273  -0.2727273), wk =   0.0030053
        k(   38) = (   0.0000000   0.2727273  -0.1818182), wk =   0.0030053
        k(   39) = (   0.0000000   0.2727273  -0.0909091), wk =   0.0030053
        k(   40) = (   0.0000000   0.3636364   0.0000000), wk =   0.0030053
        k(   41) = (   0.0000000   0.3636364   0.0909091), wk =   0.0030053
        k(   42) = (   0.0000000   0.3636364   0.1818182), wk =   0.0030053
        k(   43) = (   0.0000000   0.3636364   0.2727273), wk =   0.0030053
        k(   44) = (   0.0000000   0.3636364   0.3636364), wk =   0.0030053
        k(   45) = (   0.0000000   0.3636364   0.4545455), wk =   0.0030053
        k(   46) = (   0.0000000   0.3636364  -0.4545455), wk =   0.0030053
        k(   47) = (   0.0000000   0.3636364  -0.3636364), wk =   0.0030053
        k(   48) = (   0.0000000   0.3636364  -0.2727273), wk =   0.0030053
        k(   49) = (   0.0000000   0.3636364  -0.1818182), wk =   0.0030053
        k(   50) = (   0.0000000   0.3636364  -0.0909091), wk =   0.0030053
        k(   51) = (   0.0000000   0.4545455   0.0000000), wk =   0.0030053
        k(   52) = (   0.0000000   0.4545455   0.0909091), wk =   0.0030053
        k(   53) = (   0.0000000   0.4545455   0.1818182), wk =   0.0030053
        k(   54) = (   0.0000000   0.4545455   0.2727273), wk =   0.0030053
        k(   55) = (   0.0000000   0.4545455   0.3636364), wk =   0.0030053
        k(   56) = (   0.0000000   0.4545455   0.4545455), wk =   0.0030053
        k(   57) = (   0.0000000   0.4545455  -0.4545455), wk =   0.0030053
        k(   58) = (   0.0000000   0.4545455  -0.3636364), wk =   0.0030053
        k(   59) = (   0.0000000   0.4545455  -0.2727273), wk =   0.0030053
        k(   60) = (   0.0000000   0.4545455  -0.1818182), wk =   0.0030053
        k(   61) = (   0.0000000   0.4545455  -0.0909091), wk =   0.0030053
        k(   62) = (   0.0909091   0.0000000  -0.0000000), wk =   0.0030053
        k(   63) = (   0.0909091   0.0000000   0.0909091), wk =   0.0030053
        k(   64) = (   0.0909091   0.0000000   0.1818182), wk =   0.0030053
        k(   65) = (   0.0909091   0.0000000   0.2727273), wk =   0.0030053
        k(   66) = (   0.0909091   0.0000000   0.3636364), wk =   0.0030053
        k(   67) = (   0.0909091   0.0000000   0.4545455), wk =   0.0030053
        k(   68) = (   0.0909091   0.0000000  -0.4545455), wk =   0.0030053
        k(   69) = (   0.0909091   0.0000000  -0.3636364), wk =   0.0030053
        k(   70) = (   0.0909091   0.0000000  -0.2727273), wk =   0.0030053
        k(   71) = (   0.0909091   0.0000000  -0.1818182), wk =   0.0030053
        k(   72) = (   0.0909091   0.0000000  -0.0909091), wk =   0.0030053
        k(   73) = (   0.0909091   0.0909091  -0.0000000), wk =   0.0030053
        k(   74) = (   0.0909091   0.0909091   0.0909091), wk =   0.0030053
        k(   75) = (   0.0909091   0.0909091   0.1818182), wk =   0.0030053
        k(   76) = (   0.0909091   0.0909091   0.2727273), wk =   0.0030053
        k(   77) = (   0.0909091   0.0909091   0.3636364), wk =   0.0030053
        k(   78) = (   0.0909091   0.0909091   0.4545455), wk =   0.0030053
        k(   79) = (   0.0909091   0.0909091  -0.4545455), wk =   0.0030053
        k(   80) = (   0.0909091   0.0909091  -0.3636364), wk =   0.0030053
        k(   81) = (   0.0909091   0.0909091  -0.2727273), wk =   0.0030053
        k(   82) = (   0.0909091   0.0909091  -0.1818182), wk =   0.0030053
        k(   83) = (   0.0909091   0.0909091  -0.0909091), wk =   0.0030053
        k(   84) = (   0.0909091   0.1818182   0.0000000), wk =   0.0030053
        k(   85) = (   0.0909091   0.1818182   0.0909091), wk =   0.0030053
        k(   86) = (   0.0909091   0.1818182   0.1818182), wk =   0.0030053
        k(   87) = (   0.0909091   0.1818182   0.2727273), wk =   0.0030053
        k(   88) = (   0.0909091   0.1818182   0.3636364), wk =   0.0030053
        k(   89) = (   0.0909091   0.1818182   0.4545455), wk =   0.0030053
        k(   90) = (   0.0909091   0.1818182  -0.4545455), wk =   0.0030053
        k(   91) = (   0.0909091   0.1818182  -0.3636364), wk =   0.0030053
        k(   92) = (   0.0909091   0.1818182  -0.2727273), wk =   0.0030053
        k(   93) = (   0.0909091   0.1818182  -0.1818182), wk =   0.0030053
        k(   94) = (   0.0909091   0.1818182  -0.0909091), wk =   0.0030053
        k(   95) = (   0.0909091   0.2727273  -0.0000000), wk =   0.0030053
        k(   96) = (   0.0909091   0.2727273   0.0909091), wk =   0.0030053
        k(   97) = (   0.0909091   0.2727273   0.1818182), wk =   0.0030053
        k(   98) = (   0.0909091   0.2727273   0.2727273), wk =   0.0030053
        k(   99) = (   0.0909091   0.2727273   0.3636364), wk =   0.0030053
        k(  100) = (   0.0909091   0.2727273   0.4545455), wk =   0.0030053
        k(  101) = (   0.0909091   0.2727273  -0.4545455), wk =   0.0030053
        k(  102) = (   0.0909091   0.2727273  -0.3636364), wk =   0.0030053
        k(  103) = (   0.0909091   0.2727273  -0.2727273), wk =   0.0030053
        k(  104) = (   0.0909091   0.2727273  -0.1818182), wk =   0.0030053
        k(  105) = (   0.0909091   0.2727273  -0.0909091), wk =   0.0030053
        k(  106) = (   0.0909091   0.3636364   0.0000000), wk =   0.0030053
        k(  107) = (   0.0909091   0.3636364   0.0909091), wk =   0.0030053
        k(  108) = (   0.0909091   0.3636364   0.1818182), wk =   0.0030053
        k(  109) = (   0.0909091   0.3636364   0.2727273), wk =   0.0030053
        k(  110) = (   0.0909091   0.3636364   0.3636364), wk =   0.0030053
        k(  111) = (   0.0909091   0.3636364   0.4545455), wk =   0.0030053
        k(  112) = (   0.0909091   0.3636364  -0.4545455), wk =   0.0030053
        k(  113) = (   0.0909091   0.3636364  -0.3636364), wk =   0.0030053
        k(  114) = (   0.0909091   0.3636364  -0.2727273), wk =   0.0030053
        k(  115) = (   0.0909091   0.3636364  -0.1818182), wk =   0.0030053
        k(  116) = (   0.0909091   0.3636364  -0.0909091), wk =   0.0030053
        k(  117) = (   0.0909091   0.4545455  -0.0000000), wk =   0.0030053
        k(  118) = (   0.0909091   0.4545455   0.0909091), wk =   0.0030053
        k(  119) = (   0.0909091   0.4545455   0.1818182), wk =   0.0030053
        k(  120) = (   0.0909091   0.4545455   0.2727273), wk =   0.0030053
        k(  121) = (   0.0909091   0.4545455   0.3636364), wk =   0.0030053
        k(  122) = (   0.0909091   0.4545455   0.4545455), wk =   0.0030053
        k(  123) = (   0.0909091   0.4545455  -0.4545455), wk =   0.0030053
        k(  124) = (   0.0909091   0.4545455  -0.3636364), wk =   0.0030053
        k(  125) = (   0.0909091   0.4545455  -0.2727273), wk =   0.0030053
        k(  126) = (   0.0909091   0.4545455  -0.1818182), wk =   0.0030053
        k(  127) = (   0.0909091   0.4545455  -0.0909091), wk =   0.0030053
        k(  128) = (   0.0909091  -0.4545455   0.0000000), wk =   0.0030053
        k(  129) = (   0.0909091  -0.4545455   0.0909091), wk =   0.0030053
        k(  130) = (   0.0909091  -0.4545455   0.1818182), wk =   0.0030053
        k(  131) = (   0.0909091  -0.4545455   0.2727273), wk =   0.0030053
        k(  132) = (   0.0909091  -0.4545455   0.3636364), wk =   0.0030053
        k(  133) = (   0.0909091  -0.4545455   0.4545455), wk =   0.0030053
        k(  134) = (   0.0909091  -0.4545455  -0.4545455), wk =   0.0030053
        k(  135) = (   0.0909091  -0.4545455  -0.3636364), wk =   0.0030053
        k(  136) = (   0.0909091  -0.4545455  -0.2727273), wk =   0.0030053
        k(  137) = (   0.0909091  -0.4545455  -0.1818182), wk =   0.0030053
        k(  138) = (   0.0909091  -0.4545455  -0.0909091), wk =   0.0030053
        k(  139) = (   0.0909091  -0.3636364   0.0000000), wk =   0.0030053
        k(  140) = (   0.0909091  -0.3636364   0.0909091), wk =   0.0030053
        k(  141) = (   0.0909091  -0.3636364   0.1818182), wk =   0.0030053
        k(  142) = (   0.0909091  -0.3636364   0.2727273), wk =   0.0030053
        k(  143) = (   0.0909091  -0.3636364   0.3636364), wk =   0.0030053
        k(  144) = (   0.0909091  -0.3636364   0.4545455), wk =   0.0030053
        k(  145) = (   0.0909091  -0.3636364  -0.4545455), wk =   0.0030053
        k(  146) = (   0.0909091  -0.3636364  -0.3636364), wk =   0.0030053
        k(  147) = (   0.0909091  -0.3636364  -0.2727273), wk =   0.0030053
        k(  148) = (   0.0909091  -0.3636364  -0.1818182), wk =   0.0030053
        k(  149) = (   0.0909091  -0.3636364  -0.0909091), wk =   0.0030053
        k(  150) = (   0.0909091  -0.2727273  -0.0000000), wk =   0.0030053
        k(  151) = (   0.0909091  -0.2727273   0.0909091), wk =   0.0030053
        k(  152) = (   0.0909091  -0.2727273   0.1818182), wk =   0.0030053
        k(  153) = (   0.0909091  -0.2727273   0.2727273), wk =   0.0030053
        k(  154) = (   0.0909091  -0.2727273   0.3636364), wk =   0.0030053
        k(  155) = (   0.0909091  -0.2727273   0.4545455), wk =   0.0030053
        k(  156) = (   0.0909091  -0.2727273  -0.4545455), wk =   0.0030053
        k(  157) = (   0.0909091  -0.2727273  -0.3636364), wk =   0.0030053
        k(  158) = (   0.0909091  -0.2727273  -0.2727273), wk =   0.0030053
        k(  159) = (   0.0909091  -0.2727273  -0.1818182), wk =   0.0030053
        k(  160) = (   0.0909091  -0.2727273  -0.0909091), wk =   0.0030053
        k(  161) = (   0.0909091  -0.1818182  -0.0000000), wk =   0.0030053
        k(  162) = (   0.0909091  -0.1818182   0.0909091), wk =   0.0030053
        k(  163) = (   0.0909091  -0.1818182   0.1818182), wk =   0.0030053
        k(  164) = (   0.0909091  -0.1818182   0.2727273), wk =   0.0030053
        k(  165) = (   0.0909091  -0.1818182   0.3636364), wk =   0.0030053
        k(  166) = (   0.0909091  -0.1818182   0.4545455), wk =   0.0030053
        k(  167) = (   0.0909091  -0.1818182  -0.4545455), wk =   0.0030053
        k(  168) = (   0.0909091  -0.1818182  -0.3636364), wk =   0.0030053
        k(  169) = (   0.0909091  -0.1818182  -0.2727273), wk =   0.0030053
        k(  170) = (   0.0909091  -0.1818182  -0.1818182), wk =   0.0030053
        k(  171) = (   0.0909091  -0.1818182  -0.0909091), wk =   0.0030053
        k(  172) = (   0.0909091  -0.0909091  -0.0000000), wk =   0.0030053
        k(  173) = (   0.0909091  -0.0909091   0.0909091), wk =   0.0030053
        k(  174) = (   0.0909091  -0.0909091   0.1818182), wk =   0.0030053
        k(  175) = (   0.0909091  -0.0909091   0.2727273), wk =   0.0030053
        k(  176) = (   0.0909091  -0.0909091   0.3636364), wk =   0.0030053
        k(  177) = (   0.0909091  -0.0909091   0.4545455), wk =   0.0030053
        k(  178) = (   0.0909091  -0.0909091  -0.4545455), wk =   0.0030053
        k(  179) = (   0.0909091  -0.0909091  -0.3636364), wk =   0.0030053
        k(  180) = (   0.0909091  -0.0909091  -0.2727273), wk =   0.0030053
        k(  181) = (   0.0909091  -0.0909091  -0.1818182), wk =   0.0030053
        k(  182) = (   0.0909091  -0.0909091  -0.0909091), wk =   0.0030053
        k(  183) = (   0.1818182   0.0000000  -0.0000000), wk =   0.0030053
        k(  184) = (   0.1818182   0.0000000   0.0909091), wk =   0.0030053
        k(  185) = (   0.1818182   0.0000000   0.1818182), wk =   0.0030053
        k(  186) = (   0.1818182   0.0000000   0.2727273), wk =   0.0030053
        k(  187) = (   0.1818182   0.0000000   0.3636364), wk =   0.0030053
        k(  188) = (   0.1818182   0.0000000   0.4545455), wk =   0.0030053
        k(  189) = (   0.1818182   0.0000000  -0.4545455), wk =   0.0030053
        k(  190) = (   0.1818182   0.0000000  -0.3636364), wk =   0.0030053
        k(  191) = (   0.1818182   0.0000000  -0.2727273), wk =   0.0030053
        k(  192) = (   0.1818182   0.0000000  -0.1818182), wk =   0.0030053
        k(  193) = (   0.1818182   0.0000000  -0.0909091), wk =   0.0030053
        k(  194) = (   0.1818182   0.0909091  -0.0000000), wk =   0.0030053
        k(  195) = (   0.1818182   0.0909091   0.0909091), wk =   0.0030053
        k(  196) = (   0.1818182   0.0909091   0.1818182), wk =   0.0030053
        k(  197) = (   0.1818182   0.0909091   0.2727273), wk =   0.0030053
        k(  198) = (   0.1818182   0.0909091   0.3636364), wk =   0.0030053
        k(  199) = (   0.1818182   0.0909091   0.4545455), wk =   0.0030053
        k(  200) = (   0.1818182   0.0909091  -0.4545455), wk =   0.0030053
        k(  201) = (   0.1818182   0.0909091  -0.3636364), wk =   0.0030053
        k(  202) = (   0.1818182   0.0909091  -0.2727273), wk =   0.0030053
        k(  203) = (   0.1818182   0.0909091  -0.1818182), wk =   0.0030053
        k(  204) = (   0.1818182   0.0909091  -0.0909091), wk =   0.0030053
        k(  205) = (   0.1818182   0.1818182  -0.0000000), wk =   0.0030053
        k(  206) = (   0.1818182   0.1818182   0.0909091), wk =   0.0030053
        k(  207) = (   0.1818182   0.1818182   0.1818182), wk =   0.0030053
        k(  208) = (   0.1818182   0.1818182   0.2727273), wk =   0.0030053
        k(  209) = (   0.1818182   0.1818182   0.3636364), wk =   0.0030053
        k(  210) = (   0.1818182   0.1818182   0.4545455), wk =   0.0030053
        k(  211) = (   0.1818182   0.1818182  -0.4545455), wk =   0.0030053
        k(  212) = (   0.1818182   0.1818182  -0.3636364), wk =   0.0030053
        k(  213) = (   0.1818182   0.1818182  -0.2727273), wk =   0.0030053
        k(  214) = (   0.1818182   0.1818182  -0.1818182), wk =   0.0030053
        k(  215) = (   0.1818182   0.1818182  -0.0909091), wk =   0.0030053
        k(  216) = (   0.1818182   0.2727273   0.0000000), wk =   0.0030053
        k(  217) = (   0.1818182   0.2727273   0.0909091), wk =   0.0030053
        k(  218) = (   0.1818182   0.2727273   0.1818182), wk =   0.0030053
        k(  219) = (   0.1818182   0.2727273   0.2727273), wk =   0.0030053
        k(  220) = (   0.1818182   0.2727273   0.3636364), wk =   0.0030053
        k(  221) = (   0.1818182   0.2727273   0.4545455), wk =   0.0030053
        k(  222) = (   0.1818182   0.2727273  -0.4545455), wk =   0.0030053
        k(  223) = (   0.1818182   0.2727273  -0.3636364), wk =   0.0030053
        k(  224) = (   0.1818182   0.2727273  -0.2727273), wk =   0.0030053
        k(  225) = (   0.1818182   0.2727273  -0.1818182), wk =   0.0030053
        k(  226) = (   0.1818182   0.2727273  -0.0909091), wk =   0.0030053
        k(  227) = (   0.1818182   0.3636364   0.0000000), wk =   0.0030053
        k(  228) = (   0.1818182   0.3636364   0.0909091), wk =   0.0030053
        k(  229) = (   0.1818182   0.3636364   0.1818182), wk =   0.0030053
        k(  230) = (   0.1818182   0.3636364   0.2727273), wk =   0.0030053
        k(  231) = (   0.1818182   0.3636364   0.3636364), wk =   0.0030053
        k(  232) = (   0.1818182   0.3636364   0.4545455), wk =   0.0030053
        k(  233) = (   0.1818182   0.3636364  -0.4545455), wk =   0.0030053
        k(  234) = (   0.1818182   0.3636364  -0.3636364), wk =   0.0030053
        k(  235) = (   0.1818182   0.3636364  -0.2727273), wk =   0.0030053
        k(  236) = (   0.1818182   0.3636364  -0.1818182), wk =   0.0030053
        k(  237) = (   0.1818182   0.3636364  -0.0909091), wk =   0.0030053
        k(  238) = (   0.1818182   0.4545455  -0.0000000), wk =   0.0030053
        k(  239) = (   0.1818182   0.4545455   0.0909091), wk =   0.0030053
        k(  240) = (   0.1818182   0.4545455   0.1818182), wk =   0.0030053
        k(  241) = (   0.1818182   0.4545455   0.2727273), wk =   0.0030053
        k(  242) = (   0.1818182   0.4545455   0.3636364), wk =   0.0030053
        k(  243) = (   0.1818182   0.4545455   0.4545455), wk =   0.0030053
        k(  244) = (   0.1818182   0.4545455  -0.4545455), wk =   0.0030053
        k(  245) = (   0.1818182   0.4545455  -0.3636364), wk =   0.0030053
        k(  246) = (   0.1818182   0.4545455  -0.2727273), wk =   0.0030053
        k(  247) = (   0.1818182   0.4545455  -0.1818182), wk =   0.0030053
        k(  248) = (   0.1818182   0.4545455  -0.0909091), wk =   0.0030053
        k(  249) = (   0.1818182  -0.4545455   0.0000000), wk =   0.0030053
        k(  250) = (   0.1818182  -0.4545455   0.0909091), wk =   0.0030053
        k(  251) = (   0.1818182  -0.4545455   0.1818182), wk =   0.0030053
        k(  252) = (   0.1818182  -0.4545455   0.2727273), wk =   0.0030053
        k(  253) = (   0.1818182  -0.4545455   0.3636364), wk =   0.0030053
        k(  254) = (   0.1818182  -0.4545455   0.4545455), wk =   0.0030053
        k(  255) = (   0.1818182  -0.4545455  -0.4545455), wk =   0.0030053
        k(  256) = (   0.1818182  -0.4545455  -0.3636364), wk =   0.0030053
        k(  257) = (   0.1818182  -0.4545455  -0.2727273), wk =   0.0030053
        k(  258) = (   0.1818182  -0.4545455  -0.1818182), wk =   0.0030053
        k(  259) = (   0.1818182  -0.4545455  -0.0909091), wk =   0.0030053
        k(  260) = (   0.1818182  -0.3636364  -0.0000000), wk =   0.0030053
        k(  261) = (   0.1818182  -0.3636364   0.0909091), wk =   0.0030053
        k(  262) = (   0.1818182  -0.3636364   0.1818182), wk =   0.0030053
        k(  263) = (   0.1818182  -0.3636364   0.2727273), wk =   0.0030053
        k(  264) = (   0.1818182  -0.3636364   0.3636364), wk =   0.0030053
        k(  265) = (   0.1818182  -0.3636364   0.4545455), wk =   0.0030053
        k(  266) = (   0.1818182  -0.3636364  -0.4545455), wk =   0.0030053
        k(  267) = (   0.1818182  -0.3636364  -0.3636364), wk =   0.0030053
        k(  268) = (   0.1818182  -0.3636364  -0.2727273), wk =   0.0030053
        k(  269) = (   0.1818182  -0.3636364  -0.1818182), wk =   0.0030053
        k(  270) = (   0.1818182  -0.3636364  -0.0909091), wk =   0.0030053
        k(  271) = (   0.1818182  -0.2727273   0.0000000), wk =   0.0030053
        k(  272) = (   0.1818182  -0.2727273   0.0909091), wk =   0.0030053
        k(  273) = (   0.1818182  -0.2727273   0.1818182), wk =   0.0030053
        k(  274) = (   0.1818182  -0.2727273   0.2727273), wk =   0.0030053
        k(  275) = (   0.1818182  -0.2727273   0.3636364), wk =   0.0030053
        k(  276) = (   0.1818182  -0.2727273   0.4545455), wk =   0.0030053
        k(  277) = (   0.1818182  -0.2727273  -0.4545455), wk =   0.0030053
        k(  278) = (   0.1818182  -0.2727273  -0.3636364), wk =   0.0030053
        k(  279) = (   0.1818182  -0.2727273  -0.2727273), wk =   0.0030053
        k(  280) = (   0.1818182  -0.2727273  -0.1818182), wk =   0.0030053
        k(  281) = (   0.1818182  -0.2727273  -0.0909091), wk =   0.0030053
        k(  282) = (   0.1818182  -0.1818182   0.0000000), wk =   0.0030053
        k(  283) = (   0.1818182  -0.1818182   0.0909091), wk =   0.0030053
        k(  284) = (   0.1818182  -0.1818182   0.1818182), wk =   0.0030053
        k(  285) = (   0.1818182  -0.1818182   0.2727273), wk =   0.0030053
        k(  286) = (   0.1818182  -0.1818182   0.3636364), wk =   0.0030053
        k(  287) = (   0.1818182  -0.1818182   0.4545455), wk =   0.0030053
        k(  288) = (   0.1818182  -0.1818182  -0.4545455), wk =   0.0030053
        k(  289) = (   0.1818182  -0.1818182  -0.3636364), wk =   0.0030053
        k(  290) = (   0.1818182  -0.1818182  -0.2727273), wk =   0.0030053
        k(  291) = (   0.1818182  -0.1818182  -0.1818182), wk =   0.0030053
        k(  292) = (   0.1818182  -0.1818182  -0.0909091), wk =   0.0030053
        k(  293) = (   0.1818182  -0.0909091   0.0000000), wk =   0.0030053
        k(  294) = (   0.1818182  -0.0909091   0.0909091), wk =   0.0030053
        k(  295) = (   0.1818182  -0.0909091   0.1818182), wk =   0.0030053
        k(  296) = (   0.1818182  -0.0909091   0.2727273), wk =   0.0030053
        k(  297) = (   0.1818182  -0.0909091   0.3636364), wk =   0.0030053
        k(  298) = (   0.1818182  -0.0909091   0.4545455), wk =   0.0030053
        k(  299) = (   0.1818182  -0.0909091  -0.4545455), wk =   0.0030053
        k(  300) = (   0.1818182  -0.0909091  -0.3636364), wk =   0.0030053
        k(  301) = (   0.1818182  -0.0909091  -0.2727273), wk =   0.0030053
        k(  302) = (   0.1818182  -0.0909091  -0.1818182), wk =   0.0030053
        k(  303) = (   0.1818182  -0.0909091  -0.0909091), wk =   0.0030053
        k(  304) = (   0.2727273   0.0000000  -0.0000000), wk =   0.0030053
        k(  305) = (   0.2727273   0.0000000   0.0909091), wk =   0.0030053
        k(  306) = (   0.2727273   0.0000000   0.1818182), wk =   0.0030053
        k(  307) = (   0.2727273   0.0000000   0.2727273), wk =   0.0030053
        k(  308) = (   0.2727273   0.0000000   0.3636364), wk =   0.0030053
        k(  309) = (   0.2727273   0.0000000   0.4545455), wk =   0.0030053
        k(  310) = (   0.2727273   0.0000000  -0.4545455), wk =   0.0030053
        k(  311) = (   0.2727273   0.0000000  -0.3636364), wk =   0.0030053
        k(  312) = (   0.2727273   0.0000000  -0.2727273), wk =   0.0030053
        k(  313) = (   0.2727273   0.0000000  -0.1818182), wk =   0.0030053
        k(  314) = (   0.2727273   0.0000000  -0.0909091), wk =   0.0030053
        k(  315) = (   0.2727273   0.0909091   0.0000000), wk =   0.0030053
        k(  316) = (   0.2727273   0.0909091   0.0909091), wk =   0.0030053
        k(  317) = (   0.2727273   0.0909091   0.1818182), wk =   0.0030053
        k(  318) = (   0.2727273   0.0909091   0.2727273), wk =   0.0030053
        k(  319) = (   0.2727273   0.0909091   0.3636364), wk =   0.0030053
        k(  320) = (   0.2727273   0.0909091   0.4545455), wk =   0.0030053
[...]

     occupation numbers 
     1.0000   1.0000   1.0000   1.0000   0.0000   0.0000   0.0000   0.0000

          k = 0.4545-0.2624-0.1856 (   951 PWs)   bands (ev):

    -5.0047  -0.6582   1.3133   6.7584  14.7151  21.8352  25.0575  29.2631

     occupation numbers 
     1.0000   1.0000   1.0000   1.0000   0.0000   0.0000   0.0000   0.0000

          k = 0.4545-0.2624-0.0761 (   952 PWs)   bands (ev):

    -5.0974  -0.5595   1.1609   6.8272  14.6298  22.3499  25.5722  27.3784

     occupation numbers 
     1.0000   1.0000   1.0000   1.0000   0.0000   0.0000   0.0000   0.0000

          k = 0.4545-0.2624 0.0334 (   955 PWs)   bands (ev):

    -5.0092  -0.5969   0.8367   6.8802  14.4838  22.9571  25.0090  27.4659

     occupation numbers 
     1.0000   1.0000   1.0000   1.0000   0.0000   0.0000   0.0000   0.0000

          k = 0.4545-0.2624 0.1429 (   958 PWs)   bands (ev):

    -4.7210  -0.8618   0.4750   6.9851  14.2683  22.3285  25.2885  29.1906

     occupation numbers 
     1.0000   1.0000   1.0000   1.0000   0.0000   0.0000   0.0000   0.0000

          k = 0.4545-0.2624 0.2524 (   965 PWs)   bands (ev):

    -4.2353  -1.3650   0.1945   7.1169  14.0095  21.4430  26.2645  30.4211

     occupation numbers 
     1.0000   1.0000   1.0000   1.0000   0.0000   0.0000   0.0000   0.0000

          k = 0.4545-0.1592 0.3254 (   961 PWs)   bands (ev):

    -4.2283  -1.3643  -0.0067   7.3164  14.0979  21.3922  26.5596  30.4112

     occupation numbers 
     1.0000   1.0000   1.0000   1.0000   0.0000   0.0000   0.0000   0.0000

          k = 0.4545-0.1592 0.4348 (   958 PWs)   bands (ev):

    -3.4519  -1.9812  -0.1282   7.1682  13.9411  21.2662  25.9812  29.7433

     occupation numbers 
     1.0000   1.0000   1.0000   1.0000   0.0000   0.0000   0.0000   0.0000

          k = 0.4545-0.1592 0.5443 (   960 PWs)   bands (ev):

    -2.8543  -2.4121  -0.0438   6.8844  13.9948  21.5766  24.8006  28.8359

     occupation numbers 
     1.0000   1.0000   1.0000   1.0000   0.0000   0.0000   0.0000   0.0000

          k = 0.4545-0.1592 0.6538 (   960 PWs)   bands (ev):

    -3.4213  -1.7391   0.2102   6.6494  14.2191  22.3561  23.3966  27.7024

     occupation numbers 
     1.0000   1.0000   1.0000   1.0000   0.0000   0.0000   0.0000   0.0000

          k = 0.4545-0.1592 0.7633 (   957 PWs)   bands (ev):

    -4.0643  -1.1224   0.5694   6.6088  14.4957  22.0196  23.7598  26.6809

     occupation numbers 
     1.0000   1.0000   1.0000   1.0000   0.0000   0.0000   0.0000   0.0000

          k = 0.4545-0.1592 0.8728 (   954 PWs)   bands (ev):

    -4.6387  -0.6985   0.9374   6.7287  14.7069  21.4279  24.3674  27.1033

     occupation numbers 
     1.0000   1.0000   1.0000   1.0000   0.0000   0.0000   0.0000   0.0000

          k = 0.4545-0.1592-0.2221 (   952 PWs)   bands (ev):

    -5.0916  -0.4312   1.1909   6.8669  14.7996  21.5597  24.1415  29.1180

     occupation numbers 
     1.0000   1.0000   1.0000   1.0000   0.0000   0.0000   0.0000   0.0000

          k = 0.4545-0.1592-0.1126 (   949 PWs)   bands (ev):

    -5.3719  -0.2952   1.2316   6.9548  14.7992  22.2581  24.2126  29.4894

     occupation numbers 
     1.0000   1.0000   1.0000   1.0000   0.0000   0.0000   0.0000   0.0000

          k = 0.4545-0.1592-0.0031 (   950 PWs)   bands (ev):

    -5.4382  -0.3107   1.0443   7.0371  14.7283  22.9608  24.6037  28.7355

     occupation numbers 
     1.0000   1.0000   1.0000   1.0000   0.0000   0.0000   0.0000   0.0000

          k = 0.4545-0.1592 0.1064 (   950 PWs)   bands (ev):

    -5.2664  -0.5013   0.6977   7.1576  14.5856  22.6393  25.5019  29.4232

     occupation numbers 
     1.0000   1.0000   1.0000   1.0000   0.0000   0.0000   0.0000   0.0000

          k = 0.4545-0.1592 0.2159 (   956 PWs)   bands (ev):

    -4.8547  -0.8583   0.3028   7.2835  14.3603  21.8876  26.4011  30.5734

     occupation numbers 
     1.0000   1.0000   1.0000   1.0000   0.0000   0.0000   0.0000   0.0000

          k = 0.4545-0.0560 0.2889 (   958 PWs)   bands (ev):

    -4.6636  -1.2439   0.1682   7.5892  14.6605  22.0035  26.3034  29.9643

     occupation numbers 
     1.0000   1.0000   1.0000   1.0000   0.0000   0.0000   0.0000   0.0000

          k = 0.4545-0.0560 0.3984 (   957 PWs)   bands (ev):

    -3.9102  -1.5310  -0.3149   7.5151  14.3115  21.8111  25.4714  29.2218

     occupation numbers 
     1.0000   1.0000   1.0000   1.0000   0.0000   0.0000   0.0000   0.0000

          k = 0.4545-0.0560 0.5078 (   958 PWs)   bands (ev):

    -3.1595  -1.8426  -0.5356   7.3094  14.0663  21.8762  24.2852  28.1993

     occupation numbers 
     1.0000   1.0000   1.0000   1.0000   0.0000   0.0000   0.0000   0.0000

          k = 0.4545-0.0560 0.6173 (   956 PWs)   bands (ev):

    -3.1038  -1.6584  -0.4027   7.0875  14.0665  22.1544  22.7787  27.5380

     occupation numbers 
     1.0000   1.0000   1.0000   1.0000   0.0000   0.0000   0.0000   0.0000

          k = 0.4545-0.0560 0.7268 (   961 PWs)   bands (ev):

    -3.7211  -1.0001  -0.0548   7.0010  14.2845  21.3796  22.4702  27.4481

     occupation numbers 
     1.0000   1.0000   1.0000   1.0000   0.0000   0.0000   0.0000   0.0000

          k = 0.4545-0.0560 0.8363 (   958 PWs)   bands (ev):

    -4.4101  -0.4509   0.3683   7.0690  14.5837  20.6546  22.4977  28.1863

     occupation numbers 
     1.0000   1.0000   1.0000   1.0000   0.0000   0.0000   0.0000   0.0000

          k = 0.4545-0.0560-0.2586 (   955 PWs)   bands (ev):

    -5.0069  -0.1494   0.7831   7.1638  14.8405  20.8160  22.4155  29.5993

     occupation numbers 
     1.0000   1.0000   1.0000   1.0000   0.0000   0.0000   0.0000   0.0000

          k = 0.4545-0.0560-0.1491 (   950 PWs)   bands (ev):

    -5.4297  -0.1056   1.0911   7.2116  15.0186  21.6583  22.6429  30.7121

     occupation numbers 
     1.0000   1.0000   1.0000   1.0000   0.0000   0.0000   0.0000   0.0000

          k = 0.4545-0.0560-0.0396 (   954 PWs)   bands (ev):

    -5.6249  -0.2716   1.1860   7.2744  15.0925  22.4178  23.6622  30.2157

     occupation numbers 
     1.0000   1.0000   1.0000   1.0000   0.0000   0.0000   0.0000   0.0000

          k = 0.4545-0.0560 0.0699 (   950 PWs)   bands (ev):

    -5.5624  -0.5759   1.0328   7.3971  15.0599  22.6264  25.2348  29.7105

     occupation numbers 
     1.0000   1.0000   1.0000   1.0000   0.0000   0.0000   0.0000   0.0000

          k = 0.4545-0.0560 0.1794 (   952 PWs)   bands (ev):

    -5.2352  -0.9258   0.6670   7.5294  14.9262  22.3669  26.4250  29.8339

     occupation numbers 
     1.0000   1.0000   1.0000   1.0000   0.0000   0.0000   0.0000   0.0000

          k = 0.4545 0.0472 0.2524 (   952 PWs)   bands (ev):

    -4.8559  -1.7835   0.7962   7.8296  15.3372  22.6125  25.9345  29.2655

     occupation numbers 
     1.0000   1.0000   1.0000   1.0020   0.0000   0.0000   0.0000   0.0000

          k = 0.4545 0.0472 0.3619 (   957 PWs)   bands (ev):

    -4.1567  -1.9767   0.2354   7.8509  14.8671  22.2934  24.9334  28.9389

     occupation numbers 
     1.0000   1.0000   1.0000   1.0027   0.0000   0.0000   0.0000   0.0000

          k = 0.4545 0.0472 0.4713 (   955 PWs)   bands (ev):

    -3.4295  -1.9234  -0.3628   7.8000  14.2885  21.9501  23.7494  28.1877

     occupation numbers 
     1.0000   1.0000   1.0000   1.0013   0.0000   0.0000   0.0000   0.0000

          k = 0.4545 0.0472 0.5808 (   955 PWs)   bands (ev):

    -3.1145  -1.4712  -0.7640   7.7025  13.9111  21.5834  22.2768  27.9439

     occupation numbers 
     1.0000   1.0000   1.0000   1.0003   0.0000   0.0000   0.0000   0.0000

          k = 0.4545 0.0472 0.6903 (   958 PWs)   bands (ev):

    -3.4501  -0.7876  -0.6870   7.6394  13.8982  20.5725  21.4609  28.3143

     occupation numbers 
     1.0000   1.0000   1.0000   1.0001   0.0000   0.0000   0.0000   0.0000

          k = 0.4545 0.0472 0.7998 (   957 PWs)   bands (ev):

    -4.0928  -0.4105  -0.0871   7.6603  14.1765  19.6992  21.1159  29.1255

     occupation numbers 
     1.0000   1.0000   1.0000   1.0001   0.0000   0.0000   0.0000   0.0000

          k = 0.4545 0.0472-0.2951 (   958 PWs)   bands (ev):

    -4.7448  -0.1394   0.4390   7.6814  14.5941  19.7805  20.9331  30.2058

     occupation numbers 
     1.0000   1.0000   1.0000   1.0002   0.0000   0.0000   0.0000   0.0000

          k = 0.4545 0.0472-0.1856 (   950 PWs)   bands (ev):

    -5.2585  -0.1879   0.9322   7.6293  15.0610  20.6100  21.2522  31.3121

     occupation numbers 
     1.0000   1.0000   1.0000   1.0001   0.0000   0.0000   0.0000   0.0000

          k = 0.4545 0.0472-0.0761 (   950 PWs)   bands (ev):

    -5.5549  -0.5036   1.2787   7.5858  15.4343  21.3608  22.6563  30.8102

     occupation numbers 
     1.0000   1.0000   1.0000   1.0000   0.0000   0.0000   0.0000   0.0000

          k = 0.4545 0.0472 0.0334 (   950 PWs)   bands (ev):

    -5.5916  -0.9568   1.3740   7.6362  15.5903  22.1725  24.4397  29.8406

     occupation numbers 
     1.0000   1.0000   1.0000   1.0001   0.0000   0.0000   0.0000   0.0000

          k = 0.4545 0.0472 0.1429 (   948 PWs)   bands (ev):

    -5.3539  -1.4187   1.1996   7.7443  15.5591  22.6559  25.9709  29.1928

     occupation numbers 
     1.0000   1.0000   1.0000   1.0006   0.0000   0.0000   0.0000   0.0000

          k = 0.4545 0.1505 0.2159 (   953 PWs)   bands (ev):

    -4.7940  -2.4265   1.3401   7.9478  15.9740  23.0609  25.2762  29.0923

     occupation numbers 
     1.0000   1.0000   1.0000   1.0093   0.0000   0.0000   0.0000   0.0000

          k = 0.4545 0.1505 0.3254 (   953 PWs)   bands (ev):

    -4.1773  -2.6789   0.9386   8.0048  15.5397  22.4609  24.5735  28.8176

     occupation numbers 
     1.0000   1.0000   1.0000   1.0170   0.0000   0.0000   0.0000   0.0000

          k = 0.4545 0.1505 0.4348 (   953 PWs)   bands (ev):

    -3.5666  -2.5657   0.3839   8.0828  14.7719  21.5768  23.4878  28.5960

     occupation numbers 
     1.0000   1.0000   1.0000   1.0341   0.0000   0.0000   0.0000   0.0000

          k = 0.4545 0.1505 0.5443 (   958 PWs)   bands (ev):

    -3.3019  -1.9571  -0.1477   8.1853  13.9685  20.8723  21.9483  28.7654

     occupation numbers 
     1.0000   1.0000   1.0000   1.0650   0.0000   0.0000   0.0000   0.0000

          k = 0.4545 0.1505 0.6538 (   961 PWs)   bands (ev):

    -3.3525  -1.3853  -0.2537   8.2918  13.5091  19.9487  20.7357  29.2711

     occupation numbers 
     1.0000   1.0000   1.0000   1.0831   0.0000   0.0000   0.0000   0.0000

          k = 0.4545 0.1505 0.7633 (   964 PWs)   bands (ev):

    -3.7476  -1.0537   0.1461   8.3747  13.5211  18.9369  20.2781  29.9155

     occupation numbers 
     1.0000   1.0000   1.0000   1.0550   0.0000   0.0000   0.0000   0.0000

          k = 0.4545 0.1505-0.3315 (   965 PWs)   bands (ev):

    -4.3304  -0.6874   0.4882   8.3660  13.9112  18.8506  20.0831  30.5550

     occupation numbers 
     1.0000   1.0000   1.0000   1.0606   0.0000   0.0000   0.0000   0.0000

          k = 0.4545 0.1505-0.2221 (   956 PWs)   bands (ev):

    -4.8699  -0.5420   0.7680   8.2109  14.5904  19.7382  20.2509  30.9745

     occupation numbers 
     1.0000   1.0000   1.0000   1.0722   0.0000   0.0000   0.0000   0.0000

          k = 0.4545 0.1505-0.1126 (   952 PWs)   bands (ev):

    -5.2331  -0.8415   1.1391   8.0114  15.3797  20.4865  21.6424  30.6299

     occupation numbers 
     1.0000   1.0000   1.0000   1.0182   0.0000   0.0000   0.0000   0.0000

          k = 0.4545 0.1505-0.0031 (   948 PWs)   bands (ev):

    -5.3539  -1.3886   1.4350   7.9024  15.9249  21.4953  23.4561  29.9346

     occupation numbers 
     1.0000   1.0000   1.0000   1.0054   0.0000   0.0000   0.0000   0.0000

          k = 0.4545 0.1505 0.1064 (   950 PWs)   bands (ev):

    -5.2054  -1.9634   1.5138   7.9016  16.0925  22.6345  24.9404  29.4376

     occupation numbers 
     1.0000   1.0000   1.0000   1.0053   0.0000   0.0000   0.0000   0.0000

     the Fermi energy is     8.7081 ev

!    total energy              =     -21.80896590 Ry
     estimated scf accuracy    <          1.1E-11 Ry
     smearing contrib. (-TS)   =       0.00109936 Ry
     internal energy E=F+TS    =     -21.81006526 Ry

     The total energy is F=E-TS. E is the sum of the following terms:
     one-electron contribution =      -2.45624892 Ry
     hartree contribution      =       7.07801395 Ry
     xc contribution           =     -10.58976406 Ry
     ewald contribution        =     -15.84206622 Ry

     convergence has been achieved in  12 iterations

     Forces acting on atoms (cartesian axes, Ry/au):

     atom    1 type  1   force =    -6.82380021    6.33560138   11.95525311
     atom    2 type  2   force =     6.82380021   -6.33560138  -11.95525311
     The non-local contrib.  to forces
     atom    1 type  1   force =    -1.51221762    1.24461696    2.62852972
     atom    2 type  2   force =     0.28481322   -0.12345844   -0.45279722
     The ionic contribution  to forces
     atom    1 type  1   force =    -9.32440660    8.99358628   16.45151002
     atom    2 type  2   force =     9.32440660   -8.99358628  -16.45151002
     The local contribution  to forces
     atom    1 type  1   force =     3.86407244   -3.76435577   -6.86404675
     atom    2 type  2   force =    -2.70279313    2.70473817    4.80480373
     The core correction contribution to forces
     atom    1 type  1   force =     0.14875111   -0.13824489   -0.26073829
     atom    2 type  2   force =    -0.08262908    0.07670981    0.14425662
     The Hubbard contrib.    to forces
     atom    1 type  1   force =     0.00000000    0.00000000    0.00000000
     atom    2 type  2   force =     0.00000000    0.00000000    0.00000000
     The SCF correction term to forces
     atom    1 type  1   force =    -0.00000009   -0.00000011    0.00000005
     atom    2 type  2   force =     0.00000207   -0.00000353   -0.00000456

     Total force =    21.430454     Total SCF correction =     0.000006


     Computing stress (Cartesian axis) and pressure

          total   stress  (Ry/bohr**3)                   (kbar)     P=    10952.49
   0.04673447  -0.04100472  -0.07158506         6874.88    -6032.00   -10530.53
  -0.04100472   0.04412239   0.07100206        -6032.00     6490.63    10444.76
  -0.07158506   0.07100206   0.13250360       -10530.53    10444.76    19491.95

     kinetic stress (kbar)  31145.87    786.01   1935.00
                              786.01  31343.68  -1521.72
                             1935.00  -1521.72  28972.89

     local   stress (kbar)  -3533.20   3303.56   5144.35
                             3303.56  -1509.15  -4363.89
                             5144.35  -4363.89  -9152.92

     nonloc. stress (kbar)  -3652.46    -61.66   -211.35
                              -61.66  -3725.39    128.63
                             -211.35    128.63  -3419.11

     hartree stress (kbar)   4397.45   -461.85   -571.19
                             -461.85   3857.03    407.47
                             -571.19    407.47   4909.97

     exc-cor stress (kbar)  -1627.62    -23.22    -40.81
                              -23.22  -1641.39     32.07
                              -40.81     32.07  -1580.20

     corecor stress (kbar)  -4137.19     25.93     47.15
                               25.93  -4132.55    -44.37
                               47.15    -44.37  -4193.48

     ewald   stress (kbar) -15717.96  -9600.77 -16833.66
                            -9600.77 -17701.60  15806.56
                           -16833.66  15806.56   3954.80

     hubbard stress (kbar)      0.00      0.00      0.00
                                0.00      0.00      0.00
                                0.00      0.00      0.00

     DFT-D   stress (kbar)      0.00      0.00      0.00
                                0.00      0.00      0.00
                                0.00      0.00      0.00

     XDM     stress (kbar)      0.00      0.00      0.00
                                0.00      0.00      0.00
                                0.00      0.00      0.00

     dft-nl  stress (kbar)      0.00      0.00      0.00
                                0.00      0.00      0.00
                                0.00      0.00      0.00

     TS-vdW  stress (kbar)      0.00      0.00      0.00
                                0.00      0.00      0.00
                                0.00      0.00      0.00



     init_run     :      0.51s CPU      0.65s WALL (       1 calls)
     electrons    :     16.77s CPU     18.20s WALL (       1 calls)
     forces       :      0.11s CPU      0.11s WALL (       1 calls)
     stress       :      0.31s CPU      0.32s WALL (       1 calls)

     Called by init_run:
     wfcinit      :      0.43s CPU      0.51s WALL (       1 calls)
     wfcinit:atom :      0.01s CPU      0.01s WALL (     666 calls)
     wfcinit:wfcr :      0.40s CPU      0.47s WALL (     666 calls)
     potinit      :      0.02s CPU      0.02s WALL (       1 calls)
     hinit0       :      0.05s CPU      0.09s WALL (       1 calls)

     Called by electrons:
     c_bands      :     14.38s CPU     15.59s WALL (      12 calls)
     sum_band     :      2.34s CPU      2.55s WALL (      12 calls)
     v_of_rho     :      0.02s CPU      0.03s WALL (      13 calls)
     v_h          :      0.00s CPU      0.00s WALL (      13 calls)
     v_xc         :      0.03s CPU      0.03s WALL (      15 calls)
     newd         :      0.01s CPU      0.01s WALL (      13 calls)
     mix_rho      :      0.00s CPU      0.01s WALL (      12 calls)

     Called by c_bands:
     init_us_2    :      0.29s CPU      0.32s WALL (   17982 calls)
     cegterg      :     13.93s CPU     15.11s WALL (    7992 calls)

     Called by sum_band:
     sum_band:wei :      0.02s CPU      0.02s WALL (      12 calls)
     sum_band:loo :      2.30s CPU      2.51s WALL (      12 calls)
     sum_band:buf :      0.02s CPU      0.02s WALL (    7992 calls)
     sum_band:ini :      0.13s CPU      0.14s WALL (    7992 calls)
     sum_band:cal :      0.13s CPU      0.15s WALL (    7992 calls)
     sum_band:bec :      0.01s CPU      0.02s WALL (    7992 calls)
     addusdens    :      0.01s CPU      0.01s WALL (      12 calls)
     addusd:skk   :      0.00s CPU      0.00s WALL (      12 calls)
     addusd:dgemm :      0.00s CPU      0.00s WALL (      12 calls)
     addusd:qvan2 :      0.01s CPU      0.01s WALL (      12 calls)

     Called by *egterg:
     cdiaghg      :      1.81s CPU      2.00s WALL (   29199 calls)
     cegterg:over :      0.57s CPU      0.63s WALL (   21207 calls)
     cegterg:upda :      0.11s CPU      0.12s WALL (   21207 calls)
     cegterg:last :      0.14s CPU      0.15s WALL (   16658 calls)
     h_psi        :     10.97s CPU     11.90s WALL (   29865 calls)
     s_psi        :      0.12s CPU      0.13s WALL (   29865 calls)
     g_psi        :      0.04s CPU      0.04s WALL (   21207 calls)

     Called by h_psi:
     h_psi:calbec :      0.46s CPU      0.51s WALL (   29865 calls)
     vloc_psi     :     10.26s CPU     11.13s WALL (   29865 calls)
     add_vuspsi   :      0.16s CPU      0.17s WALL (   29865 calls)

     General routines
     calbec       :      0.60s CPU      0.66s WALL (   41187 calls)
     fft          :      0.03s CPU      0.06s WALL (     192 calls)
     ffts         :      0.00s CPU      0.00s WALL (      25 calls)
     fftw         :     11.43s CPU     12.43s WALL (  400786 calls)
     interpolate  :      0.00s CPU      0.00s WALL (      13 calls)

     Parallel routines
     fft_scatt_xy :      0.94s CPU      1.00s WALL (  401003 calls)
     fft_scatt_yz :      4.35s CPU      4.73s WALL (  401003 calls)

     PWSCF        :     17.82s CPU     19.54s WALL


   This run was terminated on:  21:16:16  28Sep2022            

=------------------------------------------------------------------------------=
   JOB DONE.
=------------------------------------------------------------------------------=
Note: The following floating-point exceptions are signalling: IEEE_UNDERFLOW_FLAG IEEE_DENORMAL
