
     Program PWSCF v.6.7MaX starts on 28Sep2022 at 21:16:48 

     This program is part of the open-source Quantum ESPRESSO suite
     for quantum simulation of materials; please cite
         "P. Giannozzi et al., J. Phys.:Condens. Matter 21 395502 (2009);
         "P. Giannozzi et al., J. Phys.:Condens. Matter 29 465901 (2017);
          URL http://www.quantum-espresso.org", 
     in publications or presentations arising from this work. More details at
     http://www.quantum-espresso.org/quote

     Parallel version (MPI), running on    16 processors

     MPI processes distributed on     1 nodes
     R & G space division:  proc/nbgrp/npool/nimage =      16
     Reading input from scale_2dab-01.in

     Current dimensions of program PWSCF are:
     Max number of different atomic species (ntypx) = 10
     Max number of k-points (npk) =  40000
     Max angular momentum in pseudopotentials (lmaxx) =  3
     Message from routine read_pp_mesh:
     mesh size missing, using the one in header

     Subspace diagonalization in iterative solution of the eigenvalue problem:
     a serial algorithm will be used


     Parallelization info
     --------------------
     sticks:   dense  smooth     PW     G-vecs:    dense   smooth      PW
     Min          41      31     10                  732      455      85
     Max          43      32     11                  733      456      87
     Sum         673     499    163                11715     7293    1377



     bravais-lattice index     =            0
     lattice parameter (alat)  =       4.6837  a.u.
     unit-cell volume          =      75.1604 (a.u.)^3
     number of atoms/cell      =            2
     number of atomic types    =            2
     number of electrons       =         8.00
     number of Kohn-Sham states=            8
     kinetic-energy cutoff     =      80.0000  Ry
     charge density cutoff     =     440.0000  Ry
     scf convergence threshold =      2.0E-10
     mixing beta               =       0.4000
     number of iterations used =            8  plain     mixing
     Exchange-correlation= PBE
                           (   1   4   3   4   0   0   0)

     celldm(1)=   4.683749  celldm(2)=   0.000000  celldm(3)=   0.000000
     celldm(4)=   0.000000  celldm(5)=   0.000000  celldm(6)=   0.000000

     crystal axes: (cart. coord. in units of alat)
               a(1) = (   1.000000   0.000000   0.000000 )  
               a(2) = (  -0.500000   0.866025   0.000000 )  
               a(3) = (  -0.482759   0.298629   0.844652 )  

     reciprocal axes: (cart. coord. in units 2 pi/alat)
               b(1) = (  1.000000  0.577350  0.367423 )  
               b(2) = (  0.000000  1.154701 -0.408248 )  
               b(3) = (  0.000000 -0.000000  1.183920 )  


     PseudoPot. # 1 for B  read from file:
     /opt/QEpot/SSSP_precision_pseudos/B_pbe_v1.01.uspp.F.UPF
     MD5 check sum: d081ebb89d0c768e112975f650467a00
     Pseudo is Ultrasoft + core correction, Zval =  3.0
     Generated by new atomic code, or converted to UPF format
     Using radial grid of  781 points,  4 beta functions with: 
                l(1) =   0
                l(2) =   0
                l(3) =   1
                l(4) =   1
     Q(r) pseudized with  8 coefficients,  rinner =    1.100   1.100   1.100


     PseudoPot. # 2 for N  read from file:
     /opt/QEpot/SSSP_precision_pseudos/N.oncvpsp.upf
     MD5 check sum: 563d65bfb082928f0c9eb97172f6c357
     Pseudo is Norm-conserving + core correction, Zval =  5.0
     Generated using ONCVPSP code by D. R. Hamann
     Using radial grid of 1058 points,  4 beta functions with: 
                l(1) =   0
                l(2) =   0
                l(3) =   1
                l(4) =   1

     atomic species   valence    mass     pseudopotential
        B              3.00    10.81000     B ( 1.00)
        N              5.00    14.00700     N ( 1.00)

     No symmetry found


                                    s                        frac. trans.

      isym =  1     identity                                     

 cryst.   s( 1) = (     1          0          0      )
                  (     0          1          0      )
                  (     0          0          1      )

 cart.    s( 1) = (  1.0000000  0.0000000  0.0000000 )
                  (  0.0000000  1.0000000  0.0000000 )
                  (  0.0000000  0.0000000  1.0000000 )


   Cartesian axes

     site n.     atom                  positions (alat units)
         1           B   tau(   1) = (   0.0021244   0.0030787   0.4013562  )
         2           N   tau(   2) = (   0.1029703   0.2942424   0.2090547  )

   Crystallographic axes

     site n.     atom                  positions (cryst. coord.)
         1           B   tau(   1) = (  0.1513696 -0.1602980  0.4751737  )
         2           N   tau(   2) = (  0.3496629  0.2544156  0.2475041  )

     number of k points=   666  Marzari-Vanderbilt smearing, width (Ry)=  0.0220
                       cart. coord. in units 2pi/alat
        k(    1) = (   0.0000000   0.0000000   0.0000000), wk =   0.0015026
        k(    2) = (   0.0000000   0.0000000   0.1076291), wk =   0.0030053
        k(    3) = (   0.0000000   0.0000000   0.2152582), wk =   0.0030053
        k(    4) = (   0.0000000   0.0000000   0.3228873), wk =   0.0030053
        k(    5) = (   0.0000000   0.0000000   0.4305164), wk =   0.0030053
        k(    6) = (   0.0000000   0.0000000   0.5381455), wk =   0.0030053
        k(    7) = (   0.0000000   0.1049728  -0.0371135), wk =   0.0030053
        k(    8) = (   0.0000000   0.1049728   0.0705156), wk =   0.0030053
        k(    9) = (   0.0000000   0.1049728   0.1781447), wk =   0.0030053
        k(   10) = (   0.0000000   0.1049728   0.2857738), wk =   0.0030053
        k(   11) = (   0.0000000   0.1049728   0.3934029), wk =   0.0030053
        k(   12) = (   0.0000000   0.1049728   0.5010320), wk =   0.0030053
        k(   13) = (   0.0000000   0.1049728  -0.5752590), wk =   0.0030053
        k(   14) = (   0.0000000   0.1049728  -0.4676299), wk =   0.0030053
        k(   15) = (   0.0000000   0.1049728  -0.3600008), wk =   0.0030053
        k(   16) = (   0.0000000   0.1049728  -0.2523717), wk =   0.0030053
        k(   17) = (   0.0000000   0.1049728  -0.1447426), wk =   0.0030053
        k(   18) = (   0.0000000   0.2099456  -0.0742270), wk =   0.0030053
        k(   19) = (   0.0000000   0.2099456   0.0334021), wk =   0.0030053
        k(   20) = (   0.0000000   0.2099456   0.1410312), wk =   0.0030053
        k(   21) = (   0.0000000   0.2099456   0.2486603), wk =   0.0030053
        k(   22) = (   0.0000000   0.2099456   0.3562894), wk =   0.0030053
        k(   23) = (   0.0000000   0.2099456   0.4639185), wk =   0.0030053
        k(   24) = (   0.0000000   0.2099456  -0.6123724), wk =   0.0030053
        k(   25) = (   0.0000000   0.2099456  -0.5047433), wk =   0.0030053
        k(   26) = (   0.0000000   0.2099456  -0.3971142), wk =   0.0030053
        k(   27) = (   0.0000000   0.2099456  -0.2894852), wk =   0.0030053
        k(   28) = (   0.0000000   0.2099456  -0.1818561), wk =   0.0030053
        k(   29) = (   0.0000000   0.3149183  -0.1113404), wk =   0.0030053
        k(   30) = (   0.0000000   0.3149183  -0.0037113), wk =   0.0030053
        k(   31) = (   0.0000000   0.3149183   0.1039177), wk =   0.0030053
        k(   32) = (   0.0000000   0.3149183   0.2115468), wk =   0.0030053
        k(   33) = (   0.0000000   0.3149183   0.3191759), wk =   0.0030053
        k(   34) = (   0.0000000   0.3149183   0.4268050), wk =   0.0030053
        k(   35) = (   0.0000000   0.3149183  -0.6494859), wk =   0.0030053
        k(   36) = (   0.0000000   0.3149183  -0.5418568), wk =   0.0030053
        k(   37) = (   0.0000000   0.3149183  -0.4342277), wk =   0.0030053
        k(   38) = (   0.0000000   0.3149183  -0.3265986), wk =   0.0030053
        k(   39) = (   0.0000000   0.3149183  -0.2189695), wk =   0.0030053
        k(   40) = (   0.0000000   0.4198911  -0.1484539), wk =   0.0030053
        k(   41) = (   0.0000000   0.4198911  -0.0408248), wk =   0.0030053
        k(   42) = (   0.0000000   0.4198911   0.0668043), wk =   0.0030053
        k(   43) = (   0.0000000   0.4198911   0.1744334), wk =   0.0030053
        k(   44) = (   0.0000000   0.4198911   0.2820625), wk =   0.0030053
        k(   45) = (   0.0000000   0.4198911   0.3896915), wk =   0.0030053
        k(   46) = (   0.0000000   0.4198911  -0.6865994), wk =   0.0030053
        k(   47) = (   0.0000000   0.4198911  -0.5789703), wk =   0.0030053
        k(   48) = (   0.0000000   0.4198911  -0.4713412), wk =   0.0030053
        k(   49) = (   0.0000000   0.4198911  -0.3637121), wk =   0.0030053
        k(   50) = (   0.0000000   0.4198911  -0.2560830), wk =   0.0030053
        k(   51) = (   0.0000000   0.5248639  -0.1855674), wk =   0.0030053
        k(   52) = (   0.0000000   0.5248639  -0.0779383), wk =   0.0030053
        k(   53) = (   0.0000000   0.5248639   0.0296908), wk =   0.0030053
        k(   54) = (   0.0000000   0.5248639   0.1373199), wk =   0.0030053
        k(   55) = (   0.0000000   0.5248639   0.2449490), wk =   0.0030053
        k(   56) = (   0.0000000   0.5248639   0.3525781), wk =   0.0030053
        k(   57) = (   0.0000000   0.5248639  -0.7237129), wk =   0.0030053
        k(   58) = (   0.0000000   0.5248639  -0.6160838), wk =   0.0030053
        k(   59) = (   0.0000000   0.5248639  -0.5084547), wk =   0.0030053
        k(   60) = (   0.0000000   0.5248639  -0.4008256), wk =   0.0030053
        k(   61) = (   0.0000000   0.5248639  -0.2931965), wk =   0.0030053
        k(   62) = (   0.0909091   0.0524864   0.0334021), wk =   0.0030053
        k(   63) = (   0.0909091   0.0524864   0.1410312), wk =   0.0030053
        k(   64) = (   0.0909091   0.0524864   0.2486603), wk =   0.0030053
        k(   65) = (   0.0909091   0.0524864   0.3562894), wk =   0.0030053
        k(   66) = (   0.0909091   0.0524864   0.4639185), wk =   0.0030053
        k(   67) = (   0.0909091   0.0524864   0.5715476), wk =   0.0030053
        k(   68) = (   0.0909091   0.0524864  -0.5047433), wk =   0.0030053
        k(   69) = (   0.0909091   0.0524864  -0.3971142), wk =   0.0030053
        k(   70) = (   0.0909091   0.0524864  -0.2894852), wk =   0.0030053
        k(   71) = (   0.0909091   0.0524864  -0.1818561), wk =   0.0030053
        k(   72) = (   0.0909091   0.0524864  -0.0742270), wk =   0.0030053
        k(   73) = (   0.0909091   0.1574592  -0.0037113), wk =   0.0030053
        k(   74) = (   0.0909091   0.1574592   0.1039177), wk =   0.0030053
        k(   75) = (   0.0909091   0.1574592   0.2115468), wk =   0.0030053
        k(   76) = (   0.0909091   0.1574592   0.3191759), wk =   0.0030053
        k(   77) = (   0.0909091   0.1574592   0.4268050), wk =   0.0030053
        k(   78) = (   0.0909091   0.1574592   0.5344341), wk =   0.0030053
        k(   79) = (   0.0909091   0.1574592  -0.5418568), wk =   0.0030053
        k(   80) = (   0.0909091   0.1574592  -0.4342277), wk =   0.0030053
        k(   81) = (   0.0909091   0.1574592  -0.3265986), wk =   0.0030053
        k(   82) = (   0.0909091   0.1574592  -0.2189695), wk =   0.0030053
        k(   83) = (   0.0909091   0.1574592  -0.1113404), wk =   0.0030053
        k(   84) = (   0.0909091   0.2624319  -0.0408248), wk =   0.0030053
        k(   85) = (   0.0909091   0.2624319   0.0668043), wk =   0.0030053
        k(   86) = (   0.0909091   0.2624319   0.1744334), wk =   0.0030053
        k(   87) = (   0.0909091   0.2624319   0.2820625), wk =   0.0030053
        k(   88) = (   0.0909091   0.2624319   0.3896915), wk =   0.0030053
        k(   89) = (   0.0909091   0.2624319   0.4973206), wk =   0.0030053
        k(   90) = (   0.0909091   0.2624319  -0.5789703), wk =   0.0030053
        k(   91) = (   0.0909091   0.2624319  -0.4713412), wk =   0.0030053
        k(   92) = (   0.0909091   0.2624319  -0.3637121), wk =   0.0030053
        k(   93) = (   0.0909091   0.2624319  -0.2560830), wk =   0.0030053
        k(   94) = (   0.0909091   0.2624319  -0.1484539), wk =   0.0030053
        k(   95) = (   0.0909091   0.3674047  -0.0779383), wk =   0.0030053
        k(   96) = (   0.0909091   0.3674047   0.0296908), wk =   0.0030053
        k(   97) = (   0.0909091   0.3674047   0.1373199), wk =   0.0030053
        k(   98) = (   0.0909091   0.3674047   0.2449490), wk =   0.0030053
        k(   99) = (   0.0909091   0.3674047   0.3525781), wk =   0.0030053
        k(  100) = (   0.0909091   0.3674047   0.4602072), wk =   0.0030053
        k(  101) = (   0.0909091   0.3674047  -0.6160838), wk =   0.0030053
        k(  102) = (   0.0909091   0.3674047  -0.5084547), wk =   0.0030053
        k(  103) = (   0.0909091   0.3674047  -0.4008256), wk =   0.0030053
        k(  104) = (   0.0909091   0.3674047  -0.2931965), wk =   0.0030053
        k(  105) = (   0.0909091   0.3674047  -0.1855674), wk =   0.0030053
        k(  106) = (   0.0909091   0.4723775  -0.1150518), wk =   0.0030053
        k(  107) = (   0.0909091   0.4723775  -0.0074227), wk =   0.0030053
        k(  108) = (   0.0909091   0.4723775   0.1002064), wk =   0.0030053
        k(  109) = (   0.0909091   0.4723775   0.2078355), wk =   0.0030053
        k(  110) = (   0.0909091   0.4723775   0.3154646), wk =   0.0030053
        k(  111) = (   0.0909091   0.4723775   0.4230937), wk =   0.0030053
        k(  112) = (   0.0909091   0.4723775  -0.6531973), wk =   0.0030053
        k(  113) = (   0.0909091   0.4723775  -0.5455682), wk =   0.0030053
        k(  114) = (   0.0909091   0.4723775  -0.4379391), wk =   0.0030053
        k(  115) = (   0.0909091   0.4723775  -0.3303100), wk =   0.0030053
        k(  116) = (   0.0909091   0.4723775  -0.2226809), wk =   0.0030053
        k(  117) = (   0.0909091   0.5773503  -0.1521653), wk =   0.0030053
        k(  118) = (   0.0909091   0.5773503  -0.0445362), wk =   0.0030053
        k(  119) = (   0.0909091   0.5773503   0.0630929), wk =   0.0030053
        k(  120) = (   0.0909091   0.5773503   0.1707220), wk =   0.0030053
        k(  121) = (   0.0909091   0.5773503   0.2783511), wk =   0.0030053
        k(  122) = (   0.0909091   0.5773503   0.3859802), wk =   0.0030053
        k(  123) = (   0.0909091   0.5773503  -0.6903107), wk =   0.0030053
        k(  124) = (   0.0909091   0.5773503  -0.5826817), wk =   0.0030053
        k(  125) = (   0.0909091   0.5773503  -0.4750526), wk =   0.0030053
        k(  126) = (   0.0909091   0.5773503  -0.3674235), wk =   0.0030053
        k(  127) = (   0.0909091   0.5773503  -0.2597944), wk =   0.0030053
        k(  128) = (   0.0909091  -0.4723775   0.2189695), wk =   0.0030053
        k(  129) = (   0.0909091  -0.4723775   0.3265986), wk =   0.0030053
        k(  130) = (   0.0909091  -0.4723775   0.4342277), wk =   0.0030053
        k(  131) = (   0.0909091  -0.4723775   0.5418568), wk =   0.0030053
        k(  132) = (   0.0909091  -0.4723775   0.6494859), wk =   0.0030053
        k(  133) = (   0.0909091  -0.4723775   0.7571150), wk =   0.0030053
        k(  134) = (   0.0909091  -0.4723775  -0.3191759), wk =   0.0030053
        k(  135) = (   0.0909091  -0.4723775  -0.2115468), wk =   0.0030053
        k(  136) = (   0.0909091  -0.4723775  -0.1039177), wk =   0.0030053
        k(  137) = (   0.0909091  -0.4723775   0.0037113), wk =   0.0030053
        k(  138) = (   0.0909091  -0.4723775   0.1113404), wk =   0.0030053
        k(  139) = (   0.0909091  -0.3674047   0.1818561), wk =   0.0030053
        k(  140) = (   0.0909091  -0.3674047   0.2894852), wk =   0.0030053
        k(  141) = (   0.0909091  -0.3674047   0.3971142), wk =   0.0030053
        k(  142) = (   0.0909091  -0.3674047   0.5047433), wk =   0.0030053
        k(  143) = (   0.0909091  -0.3674047   0.6123724), wk =   0.0030053
        k(  144) = (   0.0909091  -0.3674047   0.7200015), wk =   0.0030053
        k(  145) = (   0.0909091  -0.3674047  -0.3562894), wk =   0.0030053
        k(  146) = (   0.0909091  -0.3674047  -0.2486603), wk =   0.0030053
        k(  147) = (   0.0909091  -0.3674047  -0.1410312), wk =   0.0030053
        k(  148) = (   0.0909091  -0.3674047  -0.0334021), wk =   0.0030053
        k(  149) = (   0.0909091  -0.3674047   0.0742270), wk =   0.0030053
        k(  150) = (   0.0909091  -0.2624319   0.1447426), wk =   0.0030053
        k(  151) = (   0.0909091  -0.2624319   0.2523717), wk =   0.0030053
        k(  152) = (   0.0909091  -0.2624319   0.3600008), wk =   0.0030053
        k(  153) = (   0.0909091  -0.2624319   0.4676299), wk =   0.0030053
        k(  154) = (   0.0909091  -0.2624319   0.5752590), wk =   0.0030053
        k(  155) = (   0.0909091  -0.2624319   0.6828880), wk =   0.0030053
        k(  156) = (   0.0909091  -0.2624319  -0.3934029), wk =   0.0030053
        k(  157) = (   0.0909091  -0.2624319  -0.2857738), wk =   0.0030053
        k(  158) = (   0.0909091  -0.2624319  -0.1781447), wk =   0.0030053
        k(  159) = (   0.0909091  -0.2624319  -0.0705156), wk =   0.0030053
        k(  160) = (   0.0909091  -0.2624319   0.0371135), wk =   0.0030053
        k(  161) = (   0.0909091  -0.1574592   0.1076291), wk =   0.0030053
        k(  162) = (   0.0909091  -0.1574592   0.2152582), wk =   0.0030053
        k(  163) = (   0.0909091  -0.1574592   0.3228873), wk =   0.0030053
        k(  164) = (   0.0909091  -0.1574592   0.4305164), wk =   0.0030053
        k(  165) = (   0.0909091  -0.1574592   0.5381455), wk =   0.0030053
        k(  166) = (   0.0909091  -0.1574592  -0.0000000), wk =   0.0030053
        k(  167) = (   0.1818182   0.1049728   0.0668043), wk =   0.0030053
        k(  168) = (   0.1818182   0.1049728   0.1744334), wk =   0.0030053
        k(  169) = (   0.1818182   0.1049728   0.2820625), wk =   0.0030053
        k(  170) = (   0.1818182   0.1049728   0.3896915), wk =   0.0030053
        k(  171) = (   0.1818182   0.1049728   0.4973206), wk =   0.0030053
        k(  172) = (   0.1818182   0.1049728   0.6049497), wk =   0.0030053
        k(  173) = (   0.1818182   0.1049728  -0.4713412), wk =   0.0030053
        k(  174) = (   0.1818182   0.1049728  -0.3637121), wk =   0.0030053
        k(  175) = (   0.1818182   0.1049728  -0.2560830), wk =   0.0030053
        k(  176) = (   0.1818182   0.1049728  -0.1484539), wk =   0.0030053
        k(  177) = (   0.1818182   0.1049728  -0.0408248), wk =   0.0030053
        k(  178) = (   0.1818182   0.2099456   0.0296908), wk =   0.0030053
        k(  179) = (   0.1818182   0.2099456   0.1373199), wk =   0.0030053
        k(  180) = (   0.1818182   0.2099456   0.2449490), wk =   0.0030053
        k(  181) = (   0.1818182   0.2099456   0.3525781), wk =   0.0030053
        k(  182) = (   0.1818182   0.2099456   0.4602072), wk =   0.0030053
        k(  183) = (   0.1818182   0.2099456   0.5678363), wk =   0.0030053
        k(  184) = (   0.1818182   0.2099456  -0.5084547), wk =   0.0030053
        k(  185) = (   0.1818182   0.2099456  -0.4008256), wk =   0.0030053
        k(  186) = (   0.1818182   0.2099456  -0.2931965), wk =   0.0030053
        k(  187) = (   0.1818182   0.2099456  -0.1855674), wk =   0.0030053
        k(  188) = (   0.1818182   0.2099456  -0.0779383), wk =   0.0030053
        k(  189) = (   0.1818182   0.3149183  -0.0074227), wk =   0.0030053
        k(  190) = (   0.1818182   0.3149183   0.1002064), wk =   0.0030053
        k(  191) = (   0.1818182   0.3149183   0.2078355), wk =   0.0030053
        k(  192) = (   0.1818182   0.3149183   0.3154646), wk =   0.0030053
        k(  193) = (   0.1818182   0.3149183   0.4230937), wk =   0.0030053
        k(  194) = (   0.1818182   0.3149183   0.5307228), wk =   0.0030053
        k(  195) = (   0.1818182   0.3149183  -0.5455682), wk =   0.0030053
        k(  196) = (   0.1818182   0.3149183  -0.4379391), wk =   0.0030053
        k(  197) = (   0.1818182   0.3149183  -0.3303100), wk =   0.0030053
        k(  198) = (   0.1818182   0.3149183  -0.2226809), wk =   0.0030053
        k(  199) = (   0.1818182   0.3149183  -0.1150518), wk =   0.0030053
        k(  200) = (   0.1818182   0.4198911  -0.0445362), wk =   0.0030053
        k(  201) = (   0.1818182   0.4198911   0.0630929), wk =   0.0030053
        k(  202) = (   0.1818182   0.4198911   0.1707220), wk =   0.0030053
        k(  203) = (   0.1818182   0.4198911   0.2783511), wk =   0.0030053
        k(  204) = (   0.1818182   0.4198911   0.3859802), wk =   0.0030053
        k(  205) = (   0.1818182   0.4198911   0.4936093), wk =   0.0030053
        k(  206) = (   0.1818182   0.4198911  -0.5826817), wk =   0.0030053
        k(  207) = (   0.1818182   0.4198911  -0.4750526), wk =   0.0030053
        k(  208) = (   0.1818182   0.4198911  -0.3674235), wk =   0.0030053
        k(  209) = (   0.1818182   0.4198911  -0.2597944), wk =   0.0030053
        k(  210) = (   0.1818182   0.4198911  -0.1521653), wk =   0.0030053
        k(  211) = (   0.1818182   0.5248639  -0.0816497), wk =   0.0030053
        k(  212) = (   0.1818182   0.5248639   0.0259794), wk =   0.0030053
        k(  213) = (   0.1818182   0.5248639   0.1336085), wk =   0.0030053
        k(  214) = (   0.1818182   0.5248639   0.2412376), wk =   0.0030053
        k(  215) = (   0.1818182   0.5248639   0.3488667), wk =   0.0030053
        k(  216) = (   0.1818182   0.5248639   0.4564958), wk =   0.0030053
        k(  217) = (   0.1818182   0.5248639  -0.6197951), wk =   0.0030053
        k(  218) = (   0.1818182   0.5248639  -0.5121660), wk =   0.0030053
        k(  219) = (   0.1818182   0.5248639  -0.4045369), wk =   0.0030053
        k(  220) = (   0.1818182   0.5248639  -0.2969078), wk =   0.0030053
        k(  221) = (   0.1818182   0.5248639  -0.1892788), wk =   0.0030053
        k(  222) = (   0.1818182   0.6298367  -0.1187631), wk =   0.0030053
        k(  223) = (   0.1818182   0.6298367  -0.0111340), wk =   0.0030053
        k(  224) = (   0.1818182   0.6298367   0.0964951), wk =   0.0030053
        k(  225) = (   0.1818182   0.6298367   0.2041241), wk =   0.0030053
        k(  226) = (   0.1818182   0.6298367   0.3117532), wk =   0.0030053
        k(  227) = (   0.1818182   0.6298367   0.4193823), wk =   0.0030053
        k(  228) = (   0.1818182   0.6298367  -0.6569086), wk =   0.0030053
        k(  229) = (   0.1818182   0.6298367  -0.5492795), wk =   0.0030053
        k(  230) = (   0.1818182   0.6298367  -0.4416504), wk =   0.0030053
        k(  231) = (   0.1818182   0.6298367  -0.3340213), wk =   0.0030053
        k(  232) = (   0.1818182   0.6298367  -0.2263922), wk =   0.0030053
        k(  233) = (   0.1818182  -0.4198911   0.2523717), wk =   0.0030053
        k(  234) = (   0.1818182  -0.4198911   0.3600008), wk =   0.0030053
        k(  235) = (   0.1818182  -0.4198911   0.4676299), wk =   0.0030053
        k(  236) = (   0.1818182  -0.4198911   0.5752590), wk =   0.0030053
        k(  237) = (   0.1818182  -0.4198911   0.6828880), wk =   0.0030053
        k(  238) = (   0.1818182  -0.4198911   0.7905171), wk =   0.0030053
        k(  239) = (   0.1818182  -0.4198911  -0.2857738), wk =   0.0030053
        k(  240) = (   0.1818182  -0.4198911  -0.1781447), wk =   0.0030053
        k(  241) = (   0.1818182  -0.4198911  -0.0705156), wk =   0.0030053
        k(  242) = (   0.1818182  -0.4198911   0.0371135), wk =   0.0030053
        k(  243) = (   0.1818182  -0.4198911   0.1447426), wk =   0.0030053
        k(  244) = (   0.1818182  -0.3149183   0.2152582), wk =   0.0030053
        k(  245) = (   0.1818182  -0.3149183   0.3228873), wk =   0.0030053
        k(  246) = (   0.1818182  -0.3149183   0.4305164), wk =   0.0030053
        k(  247) = (   0.1818182  -0.3149183   0.5381455), wk =   0.0030053
        k(  248) = (   0.1818182  -0.3149183  -0.1076291), wk =   0.0030053
        k(  249) = (   0.1818182  -0.3149183  -0.0000000), wk =   0.0030053
        k(  250) = (   0.2727273   0.1574592   0.1002064), wk =   0.0030053
        k(  251) = (   0.2727273   0.1574592   0.2078355), wk =   0.0030053
        k(  252) = (   0.2727273   0.1574592   0.3154646), wk =   0.0030053
        k(  253) = (   0.2727273   0.1574592   0.4230937), wk =   0.0030053
        k(  254) = (   0.2727273   0.1574592   0.5307228), wk =   0.0030053
        k(  255) = (   0.2727273   0.1574592   0.6383519), wk =   0.0030053
        k(  256) = (   0.2727273   0.1574592  -0.4379391), wk =   0.0030053
        k(  257) = (   0.2727273   0.1574592  -0.3303100), wk =   0.0030053
        k(  258) = (   0.2727273   0.1574592  -0.2226809), wk =   0.0030053
        k(  259) = (   0.2727273   0.1574592  -0.1150518), wk =   0.0030053
        k(  260) = (   0.2727273   0.1574592  -0.0074227), wk =   0.0030053
        k(  261) = (   0.2727273   0.2624319   0.0630929), wk =   0.0030053
        k(  262) = (   0.2727273   0.2624319   0.1707220), wk =   0.0030053
        k(  263) = (   0.2727273   0.2624319   0.2783511), wk =   0.0030053
        k(  264) = (   0.2727273   0.2624319   0.3859802), wk =   0.0030053
        k(  265) = (   0.2727273   0.2624319   0.4936093), wk =   0.0030053
        k(  266) = (   0.2727273   0.2624319   0.6012384), wk =   0.0030053
        k(  267) = (   0.2727273   0.2624319  -0.4750526), wk =   0.0030053
        k(  268) = (   0.2727273   0.2624319  -0.3674235), wk =   0.0030053
        k(  269) = (   0.2727273   0.2624319  -0.2597944), wk =   0.0030053
        k(  270) = (   0.2727273   0.2624319  -0.1521653), wk =   0.0030053
        k(  271) = (   0.2727273   0.2624319  -0.0445362), wk =   0.0030053
        k(  272) = (   0.2727273   0.3674047   0.0259794), wk =   0.0030053
        k(  273) = (   0.2727273   0.3674047   0.1336085), wk =   0.0030053
        k(  274) = (   0.2727273   0.3674047   0.2412376), wk =   0.0030053
        k(  275) = (   0.2727273   0.3674047   0.3488667), wk =   0.0030053
        k(  276) = (   0.2727273   0.3674047   0.4564958), wk =   0.0030053
        k(  277) = (   0.2727273   0.3674047   0.5641249), wk =   0.0030053
        k(  278) = (   0.2727273   0.3674047  -0.5121660), wk =   0.0030053
        k(  279) = (   0.2727273   0.3674047  -0.4045369), wk =   0.0030053
        k(  280) = (   0.2727273   0.3674047  -0.2969078), wk =   0.0030053
        k(  281) = (   0.2727273   0.3674047  -0.1892788), wk =   0.0030053
        k(  282) = (   0.2727273   0.3674047  -0.0816497), wk =   0.0030053
        k(  283) = (   0.2727273   0.4723775  -0.0111340), wk =   0.0030053
        k(  284) = (   0.2727273   0.4723775   0.0964951), wk =   0.0030053
        k(  285) = (   0.2727273   0.4723775   0.2041241), wk =   0.0030053
        k(  286) = (   0.2727273   0.4723775   0.3117532), wk =   0.0030053
        k(  287) = (   0.2727273   0.4723775   0.4193823), wk =   0.0030053
        k(  288) = (   0.2727273   0.4723775   0.5270114), wk =   0.0030053
        k(  289) = (   0.2727273   0.4723775  -0.5492795), wk =   0.0030053
        k(  290) = (   0.2727273   0.4723775  -0.4416504), wk =   0.0030053
        k(  291) = (   0.2727273   0.4723775  -0.3340213), wk =   0.0030053
        k(  292) = (   0.2727273   0.4723775  -0.2263922), wk =   0.0030053
        k(  293) = (   0.2727273   0.4723775  -0.1187631), wk =   0.0030053
        k(  294) = (   0.2727273   0.5773503  -0.0482475), wk =   0.0030053
        k(  295) = (   0.2727273   0.5773503   0.0593816), wk =   0.0030053
        k(  296) = (   0.2727273   0.5773503   0.1670107), wk =   0.0030053
        k(  297) = (   0.2727273   0.5773503   0.2746398), wk =   0.0030053
        k(  298) = (   0.2727273   0.5773503   0.3822689), wk =   0.0030053
        k(  299) = (   0.2727273   0.5773503   0.4898979), wk =   0.0030053
        k(  300) = (   0.2727273   0.5773503  -0.5863930), wk =   0.0030053
        k(  301) = (   0.2727273   0.5773503  -0.4787639), wk =   0.0030053
        k(  302) = (   0.2727273   0.5773503  -0.3711348), wk =   0.0030053
        k(  303) = (   0.2727273   0.5773503  -0.2635057), wk =   0.0030053
        k(  304) = (   0.2727273   0.5773503  -0.1558766), wk =   0.0030053
        k(  305) = (   0.2727273   0.6823230  -0.0853610), wk =   0.0030053
        k(  306) = (   0.2727273   0.6823230   0.0222681), wk =   0.0030053
        k(  307) = (   0.2727273   0.6823230   0.1298972), wk =   0.0030053
        k(  308) = (   0.2727273   0.6823230  -0.6235065), wk =   0.0030053
        k(  309) = (   0.2727273   0.6823230  -0.5158774), wk =   0.0030053
        k(  310) = (   0.2727273   0.6823230  -0.4082483), wk =   0.0030053
        k(  311) = (   0.3636364   0.2099456   0.1336085), wk =   0.0030053
        k(  312) = (   0.3636364   0.2099456   0.2412376), wk =   0.0030053
        k(  313) = (   0.3636364   0.2099456   0.3488667), wk =   0.0030053
        k(  314) = (   0.3636364   0.2099456   0.4564958), wk =   0.0030053
        k(  315) = (   0.3636364   0.2099456   0.5641249), wk =   0.0030053
        k(  316) = (   0.3636364   0.2099456   0.6717540), wk =   0.0030053
        k(  317) = (   0.3636364   0.2099456  -0.4045369), wk =   0.0030053
        k(  318) = (   0.3636364   0.2099456  -0.2969078), wk =   0.0030053
        k(  319) = (   0.3636364   0.2099456  -0.1892788), wk =   0.0030053
        k(  320) = (   0.3636364   0.2099456  -0.0816497), wk =   0.0030053
        k(  321) = (   0.3636364   0.2099456   0.0259794), wk =   0.0030053
        k(  322) = (   0.3636364   0.3149183   0.0964951), wk =   0.0030053
        k(  323) = (   0.3636364   0.3149183   0.2041241), wk =   0.0030053
        k(  324) = (   0.3636364   0.3149183   0.3117532), wk =   0.0030053
        k(  325) = (   0.3636364   0.3149183   0.4193823), wk =   0.0030053
        k(  326) = (   0.3636364   0.3149183   0.5270114), wk =   0.0030053
        k(  327) = (   0.3636364   0.3149183   0.6346405), wk =   0.0030053
        k(  328) = (   0.3636364   0.3149183  -0.4416504), wk =   0.0030053
        k(  329) = (   0.3636364   0.3149183  -0.3340213), wk =   0.0030053
        k(  330) = (   0.3636364   0.3149183  -0.2263922), wk =   0.0030053
        k(  331) = (   0.3636364   0.3149183  -0.1187631), wk =   0.0030053
        k(  332) = (   0.3636364   0.3149183  -0.0111340), wk =   0.0030053
        k(  333) = (   0.3636364   0.4198911   0.0593816), wk =   0.0030053
        k(  334) = (   0.3636364   0.4198911   0.1670107), wk =   0.0030053
        k(  335) = (   0.3636364   0.4198911   0.2746398), wk =   0.0030053
        k(  336) = (   0.3636364   0.4198911   0.3822689), wk =   0.0030053
        k(  337) = (   0.3636364   0.4198911   0.4898979), wk =   0.0030053
        k(  338) = (   0.3636364   0.4198911   0.5975270), wk =   0.0030053
        k(  339) = (   0.3636364   0.4198911  -0.4787639), wk =   0.0030053
        k(  340) = (   0.3636364   0.4198911  -0.3711348), wk =   0.0030053
        k(  341) = (   0.3636364   0.4198911  -0.2635057), wk =   0.0030053
        k(  342) = (   0.3636364   0.4198911  -0.1558766), wk =   0.0030053
        k(  343) = (   0.3636364   0.4198911  -0.0482475), wk =   0.0030053
        k(  344) = (   0.3636364   0.5248639   0.0222681), wk =   0.0030053
        k(  345) = (   0.3636364   0.5248639   0.1298972), wk =   0.0030053
        k(  346) = (   0.3636364   0.5248639   0.4527845), wk =   0.0030053
        k(  347) = (   0.3636364   0.5248639   0.5604136), wk =   0.0030053
        k(  348) = (   0.3636364   0.5248639  -0.5158774), wk =   0.0030053
        k(  349) = (   0.3636364   0.5248639  -0.4082483), wk =   0.0030053
        k(  350) = (   0.4545455   0.2624319   0.1670107), wk =   0.0030053
        k(  351) = (   0.4545455   0.2624319   0.2746398), wk =   0.0030053
        k(  352) = (   0.4545455   0.2624319   0.3822689), wk =   0.0030053
        k(  353) = (   0.4545455   0.2624319   0.4898979), wk =   0.0030053
        k(  354) = (   0.4545455   0.2624319   0.5975270), wk =   0.0030053
        k(  355) = (   0.4545455   0.2624319   0.7051561), wk =   0.0030053
        k(  356) = (   0.4545455   0.2624319  -0.3711348), wk =   0.0030053
        k(  357) = (   0.4545455   0.2624319  -0.2635057), wk =   0.0030053
        k(  358) = (   0.4545455   0.2624319  -0.1558766), wk =   0.0030053
        k(  359) = (   0.4545455   0.2624319  -0.0482475), wk =   0.0030053
        k(  360) = (   0.4545455   0.2624319   0.0593816), wk =   0.0030053
        k(  361) = (   0.4545455   0.3674047   0.1298972), wk =   0.0030053
        k(  362) = (   0.4545455   0.3674047   0.3451554), wk =   0.0030053
        k(  363) = (   0.4545455   0.3674047   0.4527845), wk =   0.0030053
        k(  364) = (   0.4545455   0.3674047   0.5604136), wk =   0.0030053
        k(  365) = (   0.4545455   0.3674047   0.6680427), wk =   0.0030053
        k(  366) = (   0.4545455   0.3674047  -0.4082483), wk =   0.0030053
        k(  367) = (  -0.0909091   0.0524864   0.0371135), wk =   0.0030053
        k(  368) = (  -0.0909091   0.0524864  -0.0705156), wk =   0.0030053
        k(  369) = (  -0.0909091   0.0524864  -0.1781447), wk =   0.0030053
        k(  370) = (  -0.0909091   0.0524864  -0.2857738), wk =   0.0030053
        k(  371) = (  -0.0909091   0.0524864  -0.3934029), wk =   0.0030053
        k(  372) = (  -0.0909091   0.0524864  -0.5010320), wk =   0.0030053
        k(  373) = (  -0.0909091   0.0524864   0.5752590), wk =   0.0030053
        k(  374) = (  -0.0909091   0.0524864   0.4676299), wk =   0.0030053
        k(  375) = (  -0.0909091   0.0524864   0.3600008), wk =   0.0030053
        k(  376) = (  -0.0909091   0.0524864   0.2523717), wk =   0.0030053
        k(  377) = (  -0.0909091   0.0524864   0.1447426), wk =   0.0030053
        k(  378) = (  -0.1818182   0.1049728   0.0742270), wk =   0.0030053
        k(  379) = (  -0.1818182   0.1049728  -0.0334021), wk =   0.0030053
        k(  380) = (  -0.1818182   0.1049728  -0.1410312), wk =   0.0030053
        k(  381) = (  -0.1818182   0.1049728  -0.2486603), wk =   0.0030053
        k(  382) = (  -0.1818182   0.1049728  -0.3562894), wk =   0.0030053
        k(  383) = (  -0.1818182   0.1049728  -0.4639185), wk =   0.0030053
        k(  384) = (  -0.1818182   0.1049728   0.6123724), wk =   0.0030053
        k(  385) = (  -0.1818182   0.1049728   0.5047433), wk =   0.0030053
        k(  386) = (  -0.1818182   0.1049728   0.3971142), wk =   0.0030053
        k(  387) = (  -0.1818182   0.1049728   0.2894852), wk =   0.0030053
        k(  388) = (  -0.1818182   0.1049728   0.1818561), wk =   0.0030053
        k(  389) = (  -0.2727273   0.1574592   0.1113404), wk =   0.0030053
        k(  390) = (  -0.2727273   0.1574592   0.0037113), wk =   0.0030053
        k(  391) = (  -0.2727273   0.1574592  -0.1039177), wk =   0.0030053
        k(  392) = (  -0.2727273   0.1574592  -0.2115468), wk =   0.0030053
        k(  393) = (  -0.2727273   0.1574592  -0.3191759), wk =   0.0030053
        k(  394) = (  -0.2727273   0.1574592  -0.4268050), wk =   0.0030053
        k(  395) = (  -0.2727273   0.1574592   0.6494859), wk =   0.0030053
        k(  396) = (  -0.2727273   0.1574592   0.5418568), wk =   0.0030053
        k(  397) = (  -0.2727273   0.1574592   0.4342277), wk =   0.0030053
        k(  398) = (  -0.2727273   0.1574592   0.3265986), wk =   0.0030053
        k(  399) = (  -0.2727273   0.1574592   0.2189695), wk =   0.0030053
        k(  400) = (  -0.3636364   0.2099456   0.1484539), wk =   0.0030053
        k(  401) = (  -0.3636364   0.2099456   0.0408248), wk =   0.0030053
        k(  402) = (  -0.3636364   0.2099456  -0.0668043), wk =   0.0030053
        k(  403) = (  -0.3636364   0.2099456  -0.1744334), wk =   0.0030053
        k(  404) = (  -0.3636364   0.2099456  -0.2820625), wk =   0.0030053
        k(  405) = (  -0.3636364   0.2099456  -0.3896915), wk =   0.0030053
        k(  406) = (  -0.3636364   0.2099456   0.6865994), wk =   0.0030053
        k(  407) = (  -0.3636364   0.2099456   0.5789703), wk =   0.0030053
        k(  408) = (  -0.3636364   0.2099456   0.4713412), wk =   0.0030053
        k(  409) = (  -0.3636364   0.2099456   0.3637121), wk =   0.0030053
        k(  410) = (  -0.3636364   0.2099456   0.2560830), wk =   0.0030053
        k(  411) = (  -0.4545455   0.2624319   0.1855674), wk =   0.0030053
        k(  412) = (  -0.4545455   0.2624319   0.0779383), wk =   0.0030053
        k(  413) = (  -0.4545455   0.2624319  -0.0296908), wk =   0.0030053
        k(  414) = (  -0.4545455   0.2624319  -0.1373199), wk =   0.0030053
        k(  415) = (  -0.4545455   0.2624319  -0.2449490), wk =   0.0030053
        k(  416) = (  -0.4545455   0.2624319  -0.3525781), wk =   0.0030053
        k(  417) = (  -0.4545455   0.2624319   0.7237129), wk =   0.0030053
        k(  418) = (  -0.4545455   0.2624319   0.6160838), wk =   0.0030053
        k(  419) = (  -0.4545455   0.2624319   0.5084547), wk =   0.0030053
        k(  420) = (  -0.4545455   0.2624319   0.4008256), wk =   0.0030053
        k(  421) = (  -0.4545455   0.2624319   0.2931965), wk =   0.0030053
        k(  422) = (  -0.1818182  -0.0000000   0.0037113), wk =   0.0030053
        k(  423) = (  -0.1818182  -0.0000000  -0.1039177), wk =   0.0030053
        k(  424) = (  -0.1818182  -0.0000000  -0.2115468), wk =   0.0030053
        k(  425) = (  -0.1818182  -0.0000000  -0.3191759), wk =   0.0030053
        k(  426) = (  -0.1818182  -0.0000000  -0.4268050), wk =   0.0030053
        k(  427) = (  -0.1818182  -0.0000000  -0.5344341), wk =   0.0030053
        k(  428) = (  -0.1818182  -0.0000000   0.5418568), wk =   0.0030053
        k(  429) = (  -0.1818182  -0.0000000   0.4342277), wk =   0.0030053
        k(  430) = (  -0.1818182  -0.0000000   0.3265986), wk =   0.0030053
        k(  431) = (  -0.1818182  -0.0000000   0.2189695), wk =   0.0030053
        k(  432) = (  -0.1818182  -0.0000000   0.1113404), wk =   0.0030053
        k(  433) = (  -0.2727273   0.0524864   0.0408248), wk =   0.0030053
        k(  434) = (  -0.2727273   0.0524864  -0.0668043), wk =   0.0030053
        k(  435) = (  -0.2727273   0.0524864  -0.1744334), wk =   0.0030053
        k(  436) = (  -0.2727273   0.0524864  -0.2820625), wk =   0.0030053
        k(  437) = (  -0.2727273   0.0524864  -0.3896915), wk =   0.0030053
        k(  438) = (  -0.2727273   0.0524864  -0.4973206), wk =   0.0030053
        k(  439) = (  -0.2727273   0.0524864   0.5789703), wk =   0.0030053
        k(  440) = (  -0.2727273   0.0524864   0.4713412), wk =   0.0030053
        k(  441) = (  -0.2727273   0.0524864   0.3637121), wk =   0.0030053
        k(  442) = (  -0.2727273   0.0524864   0.2560830), wk =   0.0030053
        k(  443) = (  -0.2727273   0.0524864   0.1484539), wk =   0.0030053
        k(  444) = (  -0.3636364   0.1049728   0.0779383), wk =   0.0030053
        k(  445) = (  -0.3636364   0.1049728  -0.0296908), wk =   0.0030053
        k(  446) = (  -0.3636364   0.1049728  -0.1373199), wk =   0.0030053
        k(  447) = (  -0.3636364   0.1049728  -0.2449490), wk =   0.0030053
        k(  448) = (  -0.3636364   0.1049728  -0.3525781), wk =   0.0030053
        k(  449) = (  -0.3636364   0.1049728  -0.4602072), wk =   0.0030053
        k(  450) = (  -0.3636364   0.1049728   0.6160838), wk =   0.0030053
        k(  451) = (  -0.3636364   0.1049728   0.5084547), wk =   0.0030053
        k(  452) = (  -0.3636364   0.1049728   0.4008256), wk =   0.0030053
        k(  453) = (  -0.3636364   0.1049728   0.2931965), wk =   0.0030053
        k(  454) = (  -0.3636364   0.1049728   0.1855674), wk =   0.0030053
        k(  455) = (  -0.4545455   0.1574592   0.1150518), wk =   0.0030053
        k(  456) = (  -0.4545455   0.1574592   0.0074227), wk =   0.0030053
        k(  457) = (  -0.4545455   0.1574592  -0.1002064), wk =   0.0030053
        k(  458) = (  -0.4545455   0.1574592  -0.2078355), wk =   0.0030053
        k(  459) = (  -0.4545455   0.1574592  -0.3154646), wk =   0.0030053
        k(  460) = (  -0.4545455   0.1574592  -0.4230937), wk =   0.0030053
        k(  461) = (  -0.4545455   0.1574592   0.6531973), wk =   0.0030053
        k(  462) = (  -0.4545455   0.1574592   0.5455682), wk =   0.0030053
        k(  463) = (  -0.4545455   0.1574592   0.4379391), wk =   0.0030053
        k(  464) = (  -0.4545455   0.1574592   0.3303100), wk =   0.0030053
        k(  465) = (  -0.4545455   0.1574592   0.2226809), wk =   0.0030053
        k(  466) = (  -0.5454545   0.2099456   0.1521653), wk =   0.0030053
        k(  467) = (  -0.5454545   0.2099456   0.0445362), wk =   0.0030053
        k(  468) = (  -0.5454545   0.2099456  -0.0630929), wk =   0.0030053
        k(  469) = (  -0.5454545   0.2099456  -0.1707220), wk =   0.0030053
        k(  470) = (  -0.5454545   0.2099456  -0.2783511), wk =   0.0030053
        k(  471) = (  -0.5454545   0.2099456  -0.3859802), wk =   0.0030053
        k(  472) = (  -0.5454545   0.2099456   0.6903107), wk =   0.0030053
        k(  473) = (  -0.5454545   0.2099456   0.5826817), wk =   0.0030053
        k(  474) = (  -0.5454545   0.2099456   0.4750526), wk =   0.0030053
        k(  475) = (  -0.5454545   0.2099456   0.3674235), wk =   0.0030053
        k(  476) = (  -0.5454545   0.2099456   0.2597944), wk =   0.0030053
        k(  477) = (   0.3636364  -0.3149183  -0.2189695), wk =   0.0030053
        k(  478) = (   0.3636364  -0.3149183  -0.3265986), wk =   0.0030053
        k(  479) = (   0.3636364  -0.3149183  -0.4342277), wk =   0.0030053
        k(  480) = (   0.3636364  -0.3149183  -0.5418568), wk =   0.0030053
        k(  481) = (   0.3636364  -0.3149183  -0.6494859), wk =   0.0030053
        k(  482) = (   0.3636364  -0.3149183  -0.7571150), wk =   0.0030053
        k(  483) = (   0.3636364  -0.3149183   0.3191759), wk =   0.0030053
        k(  484) = (   0.3636364  -0.3149183   0.2115468), wk =   0.0030053
        k(  485) = (   0.3636364  -0.3149183   0.1039177), wk =   0.0030053
        k(  486) = (   0.3636364  -0.3149183  -0.0037113), wk =   0.0030053
        k(  487) = (   0.3636364  -0.3149183  -0.1113404), wk =   0.0030053
        k(  488) = (   0.2727273  -0.2624319  -0.1818561), wk =   0.0030053
        k(  489) = (   0.2727273  -0.2624319  -0.2894852), wk =   0.0030053
        k(  490) = (   0.2727273  -0.2624319  -0.3971142), wk =   0.0030053
        k(  491) = (   0.2727273  -0.2624319  -0.5047433), wk =   0.0030053
        k(  492) = (   0.2727273  -0.2624319  -0.6123724), wk =   0.0030053
        k(  493) = (   0.2727273  -0.2624319  -0.7200015), wk =   0.0030053
        k(  494) = (   0.2727273  -0.2624319   0.3562894), wk =   0.0030053
        k(  495) = (   0.2727273  -0.2624319   0.2486603), wk =   0.0030053
        k(  496) = (   0.2727273  -0.2624319   0.1410312), wk =   0.0030053
        k(  497) = (   0.2727273  -0.2624319   0.0334021), wk =   0.0030053
        k(  498) = (   0.2727273  -0.2624319  -0.0742270), wk =   0.0030053
        k(  499) = (   0.1818182  -0.2099456  -0.1447426), wk =   0.0030053
        k(  500) = (   0.1818182  -0.2099456  -0.2523717), wk =   0.0030053
        k(  501) = (   0.1818182  -0.2099456  -0.3600008), wk =   0.0030053
        k(  502) = (   0.1818182  -0.2099456  -0.4676299), wk =   0.0030053
        k(  503) = (   0.1818182  -0.2099456  -0.5752590), wk =   0.0030053
        k(  504) = (   0.1818182  -0.2099456  -0.6828880), wk =   0.0030053
        k(  505) = (   0.1818182  -0.2099456   0.3934029), wk =   0.0030053
        k(  506) = (   0.1818182  -0.2099456   0.2857738), wk =   0.0030053
        k(  507) = (   0.1818182  -0.2099456   0.1781447), wk =   0.0030053
        k(  508) = (   0.1818182  -0.2099456   0.0705156), wk =   0.0030053
        k(  509) = (   0.1818182  -0.2099456  -0.0371135), wk =   0.0030053
        k(  510) = (   0.0909091  -0.1574592  -0.1076291), wk =   0.0030053
        k(  511) = (   0.0909091  -0.1574592  -0.2152582), wk =   0.0030053
        k(  512) = (   0.0909091  -0.1574592  -0.3228873), wk =   0.0030053
        k(  513) = (   0.0909091  -0.1574592  -0.4305164), wk =   0.0030053
        k(  514) = (   0.0909091  -0.1574592  -0.5381455), wk =   0.0030053
        k(  515) = (  -0.2727273  -0.0524864  -0.0296908), wk =   0.0030053
        k(  516) = (  -0.2727273  -0.0524864  -0.1373199), wk =   0.0030053
        k(  517) = (  -0.2727273  -0.0524864  -0.2449490), wk =   0.0030053
        k(  518) = (  -0.2727273  -0.0524864  -0.3525781), wk =   0.0030053
        k(  519) = (  -0.2727273  -0.0524864  -0.4602072), wk =   0.0030053
        k(  520) = (  -0.2727273  -0.0524864  -0.5678363), wk =   0.0030053
        k(  521) = (  -0.2727273  -0.0524864   0.5084547), wk =   0.0030053
        k(  522) = (  -0.2727273  -0.0524864   0.4008256), wk =   0.0030053
        k(  523) = (  -0.2727273  -0.0524864   0.2931965), wk =   0.0030053
        k(  524) = (  -0.2727273  -0.0524864   0.1855674), wk =   0.0030053
        k(  525) = (  -0.2727273  -0.0524864   0.0779383), wk =   0.0030053
        k(  526) = (  -0.3636364  -0.0000000   0.0074227), wk =   0.0030053
        k(  527) = (  -0.3636364  -0.0000000  -0.1002064), wk =   0.0030053
        k(  528) = (  -0.3636364  -0.0000000  -0.2078355), wk =   0.0030053
        k(  529) = (  -0.3636364  -0.0000000  -0.3154646), wk =   0.0030053
        k(  530) = (  -0.3636364  -0.0000000  -0.4230937), wk =   0.0030053
        k(  531) = (  -0.3636364  -0.0000000  -0.5307228), wk =   0.0030053
        k(  532) = (  -0.3636364  -0.0000000   0.5455682), wk =   0.0030053
        k(  533) = (  -0.3636364  -0.0000000   0.4379391), wk =   0.0030053
        k(  534) = (  -0.3636364  -0.0000000   0.3303100), wk =   0.0030053
        k(  535) = (  -0.3636364  -0.0000000   0.2226809), wk =   0.0030053
        k(  536) = (  -0.3636364  -0.0000000   0.1150518), wk =   0.0030053
        k(  537) = (  -0.4545455   0.0524864   0.0445362), wk =   0.0030053
        k(  538) = (  -0.4545455   0.0524864  -0.0630929), wk =   0.0030053
        k(  539) = (  -0.4545455   0.0524864  -0.1707220), wk =   0.0030053
        k(  540) = (  -0.4545455   0.0524864  -0.2783511), wk =   0.0030053
        k(  541) = (  -0.4545455   0.0524864  -0.3859802), wk =   0.0030053
        k(  542) = (  -0.4545455   0.0524864  -0.4936093), wk =   0.0030053
        k(  543) = (  -0.4545455   0.0524864   0.5826817), wk =   0.0030053
        k(  544) = (  -0.4545455   0.0524864   0.4750526), wk =   0.0030053
        k(  545) = (  -0.4545455   0.0524864   0.3674235), wk =   0.0030053
        k(  546) = (  -0.4545455   0.0524864   0.2597944), wk =   0.0030053
        k(  547) = (  -0.4545455   0.0524864   0.1521653), wk =   0.0030053
        k(  548) = (  -0.5454545   0.1049728   0.0816497), wk =   0.0030053
        k(  549) = (  -0.5454545   0.1049728  -0.0259794), wk =   0.0030053
        k(  550) = (  -0.5454545   0.1049728  -0.1336085), wk =   0.0030053
        k(  551) = (  -0.5454545   0.1049728  -0.2412376), wk =   0.0030053
        k(  552) = (  -0.5454545   0.1049728  -0.3488667), wk =   0.0030053
        k(  553) = (  -0.5454545   0.1049728  -0.4564958), wk =   0.0030053
        k(  554) = (  -0.5454545   0.1049728   0.6197951), wk =   0.0030053
        k(  555) = (  -0.5454545   0.1049728   0.5121660), wk =   0.0030053
        k(  556) = (  -0.5454545   0.1049728   0.4045369), wk =   0.0030053
        k(  557) = (  -0.5454545   0.1049728   0.2969078), wk =   0.0030053
        k(  558) = (  -0.5454545   0.1049728   0.1892788), wk =   0.0030053
        k(  559) = (  -0.6363636   0.1574592   0.1187631), wk =   0.0030053
        k(  560) = (  -0.6363636   0.1574592   0.0111340), wk =   0.0030053
        k(  561) = (  -0.6363636   0.1574592  -0.0964951), wk =   0.0030053
        k(  562) = (  -0.6363636   0.1574592  -0.2041241), wk =   0.0030053
        k(  563) = (  -0.6363636   0.1574592  -0.3117532), wk =   0.0030053
        k(  564) = (  -0.6363636   0.1574592  -0.4193823), wk =   0.0030053
        k(  565) = (  -0.6363636   0.1574592   0.6569086), wk =   0.0030053
        k(  566) = (  -0.6363636   0.1574592   0.5492795), wk =   0.0030053
        k(  567) = (  -0.6363636   0.1574592   0.4416504), wk =   0.0030053
        k(  568) = (  -0.6363636   0.1574592   0.3340213), wk =   0.0030053
        k(  569) = (  -0.6363636   0.1574592   0.2263922), wk =   0.0030053
        k(  570) = (   0.2727273  -0.3674047  -0.2523717), wk =   0.0030053
        k(  571) = (   0.2727273  -0.3674047  -0.3600008), wk =   0.0030053
        k(  572) = (   0.2727273  -0.3674047  -0.4676299), wk =   0.0030053
        k(  573) = (   0.2727273  -0.3674047  -0.5752590), wk =   0.0030053
        k(  574) = (   0.2727273  -0.3674047  -0.6828880), wk =   0.0030053
        k(  575) = (   0.2727273  -0.3674047  -0.7905171), wk =   0.0030053
        k(  576) = (   0.2727273  -0.3674047   0.2857738), wk =   0.0030053
        k(  577) = (   0.2727273  -0.3674047   0.1781447), wk =   0.0030053
        k(  578) = (   0.2727273  -0.3674047   0.0705156), wk =   0.0030053
        k(  579) = (   0.2727273  -0.3674047  -0.0371135), wk =   0.0030053
        k(  580) = (   0.2727273  -0.3674047  -0.1447426), wk =   0.0030053
        k(  581) = (   0.1818182  -0.3149183  -0.2152582), wk =   0.0030053
        k(  582) = (   0.1818182  -0.3149183  -0.3228873), wk =   0.0030053
        k(  583) = (   0.1818182  -0.3149183  -0.4305164), wk =   0.0030053
        k(  584) = (   0.1818182  -0.3149183  -0.5381455), wk =   0.0030053
        k(  585) = (   0.1818182  -0.3149183   0.1076291), wk =   0.0030053
        k(  586) = (  -0.3636364  -0.1049728  -0.0630929), wk =   0.0030053
        k(  587) = (  -0.3636364  -0.1049728  -0.1707220), wk =   0.0030053
        k(  588) = (  -0.3636364  -0.1049728  -0.2783511), wk =   0.0030053
        k(  589) = (  -0.3636364  -0.1049728  -0.3859802), wk =   0.0030053
        k(  590) = (  -0.3636364  -0.1049728  -0.4936093), wk =   0.0030053
        k(  591) = (  -0.3636364  -0.1049728  -0.6012384), wk =   0.0030053
        k(  592) = (  -0.3636364  -0.1049728   0.4750526), wk =   0.0030053
        k(  593) = (  -0.3636364  -0.1049728   0.3674235), wk =   0.0030053
        k(  594) = (  -0.3636364  -0.1049728   0.2597944), wk =   0.0030053
        k(  595) = (  -0.3636364  -0.1049728   0.1521653), wk =   0.0030053
        k(  596) = (  -0.3636364  -0.1049728   0.0445362), wk =   0.0030053
        k(  597) = (  -0.4545455  -0.0524864  -0.0259794), wk =   0.0030053
        k(  598) = (  -0.4545455  -0.0524864  -0.1336085), wk =   0.0030053
        k(  599) = (  -0.4545455  -0.0524864  -0.2412376), wk =   0.0030053
        k(  600) = (  -0.4545455  -0.0524864  -0.3488667), wk =   0.0030053
        k(  601) = (  -0.4545455  -0.0524864  -0.4564958), wk =   0.0030053
        k(  602) = (  -0.4545455  -0.0524864  -0.5641249), wk =   0.0030053
        k(  603) = (  -0.4545455  -0.0524864   0.5121660), wk =   0.0030053
        k(  604) = (  -0.4545455  -0.0524864   0.4045369), wk =   0.0030053
        k(  605) = (  -0.4545455  -0.0524864   0.2969078), wk =   0.0030053
        k(  606) = (  -0.4545455  -0.0524864   0.1892788), wk =   0.0030053
        k(  607) = (  -0.4545455  -0.0524864   0.0816497), wk =   0.0030053
        k(  608) = (  -0.5454545  -0.0000000   0.0111340), wk =   0.0030053
        k(  609) = (  -0.5454545  -0.0000000  -0.0964951), wk =   0.0030053
        k(  610) = (  -0.5454545  -0.0000000  -0.2041241), wk =   0.0030053
        k(  611) = (  -0.5454545  -0.0000000  -0.3117532), wk =   0.0030053
        k(  612) = (  -0.5454545  -0.0000000  -0.4193823), wk =   0.0030053
        k(  613) = (  -0.5454545  -0.0000000  -0.5270114), wk =   0.0030053
        k(  614) = (  -0.5454545  -0.0000000   0.5492795), wk =   0.0030053
        k(  615) = (  -0.5454545  -0.0000000   0.4416504), wk =   0.0030053
        k(  616) = (  -0.5454545  -0.0000000   0.3340213), wk =   0.0030053
        k(  617) = (  -0.5454545  -0.0000000   0.2263922), wk =   0.0030053
        k(  618) = (  -0.5454545  -0.0000000   0.1187631), wk =   0.0030053
        k(  619) = (  -0.6363636   0.0524864   0.0482475), wk =   0.0030053
        k(  620) = (  -0.6363636   0.0524864  -0.0593816), wk =   0.0030053
        k(  621) = (  -0.6363636   0.0524864  -0.1670107), wk =   0.0030053
        k(  622) = (  -0.6363636   0.0524864  -0.2746398), wk =   0.0030053
        k(  623) = (  -0.6363636   0.0524864  -0.3822689), wk =   0.0030053
        k(  624) = (  -0.6363636   0.0524864  -0.4898979), wk =   0.0030053
        k(  625) = (  -0.6363636   0.0524864   0.5863930), wk =   0.0030053
        k(  626) = (  -0.6363636   0.0524864   0.4787639), wk =   0.0030053
        k(  627) = (  -0.6363636   0.0524864   0.3711348), wk =   0.0030053
        k(  628) = (  -0.6363636   0.0524864   0.2635057), wk =   0.0030053
        k(  629) = (  -0.6363636   0.0524864   0.1558766), wk =   0.0030053
        k(  630) = (  -0.7272727   0.1049728   0.0853610), wk =   0.0030053
        k(  631) = (  -0.7272727   0.1049728  -0.0222681), wk =   0.0030053
        k(  632) = (  -0.7272727   0.1049728  -0.1298972), wk =   0.0030053
        k(  633) = (  -0.7272727   0.1049728   0.6235065), wk =   0.0030053
        k(  634) = (  -0.7272727   0.1049728   0.5158774), wk =   0.0030053
        k(  635) = (  -0.4545455  -0.1574592  -0.0964951), wk =   0.0030053
        k(  636) = (  -0.4545455  -0.1574592  -0.2041241), wk =   0.0030053
        k(  637) = (  -0.4545455  -0.1574592  -0.3117532), wk =   0.0030053
        k(  638) = (  -0.4545455  -0.1574592  -0.4193823), wk =   0.0030053
        k(  639) = (  -0.4545455  -0.1574592  -0.5270114), wk =   0.0030053
        k(  640) = (  -0.4545455  -0.1574592  -0.6346405), wk =   0.0030053
        k(  641) = (  -0.4545455  -0.1574592   0.4416504), wk =   0.0030053
        k(  642) = (  -0.4545455  -0.1574592   0.3340213), wk =   0.0030053
        k(  643) = (  -0.4545455  -0.1574592   0.2263922), wk =   0.0030053
        k(  644) = (  -0.4545455  -0.1574592   0.1187631), wk =   0.0030053
        k(  645) = (  -0.4545455  -0.1574592   0.0111340), wk =   0.0030053
        k(  646) = (  -0.5454545  -0.1049728  -0.0593816), wk =   0.0030053
        k(  647) = (  -0.5454545  -0.1049728  -0.1670107), wk =   0.0030053
        k(  648) = (  -0.5454545  -0.1049728  -0.2746398), wk =   0.0030053
        k(  649) = (  -0.5454545  -0.1049728  -0.3822689), wk =   0.0030053
        k(  650) = (  -0.5454545  -0.1049728  -0.4898979), wk =   0.0030053
        k(  651) = (  -0.5454545  -0.1049728  -0.5975270), wk =   0.0030053
        k(  652) = (  -0.5454545  -0.1049728   0.4787639), wk =   0.0030053
        k(  653) = (  -0.5454545  -0.1049728   0.3711348), wk =   0.0030053
        k(  654) = (  -0.5454545  -0.1049728   0.2635057), wk =   0.0030053
        k(  655) = (  -0.5454545  -0.1049728   0.1558766), wk =   0.0030053
        k(  656) = (  -0.5454545  -0.1049728   0.0482475), wk =   0.0030053
        k(  657) = (  -0.6363636  -0.0524864  -0.0222681), wk =   0.0030053
        k(  658) = (  -0.6363636  -0.0524864  -0.1298972), wk =   0.0030053
        k(  659) = (  -0.6363636  -0.0524864  -0.4527845), wk =   0.0030053
        k(  660) = (  -0.6363636  -0.0524864  -0.5604136), wk =   0.0030053
        k(  661) = (  -0.6363636  -0.0524864   0.5158774), wk =   0.0030053
        k(  662) = (  -0.5454545  -0.2099456  -0.1298972), wk =   0.0030053
        k(  663) = (  -0.5454545  -0.2099456  -0.3451554), wk =   0.0030053
        k(  664) = (  -0.5454545  -0.2099456  -0.4527845), wk =   0.0030053
        k(  665) = (  -0.5454545  -0.2099456  -0.5604136), wk =   0.0030053
        k(  666) = (  -0.5454545  -0.2099456  -0.6680427), wk =   0.0030053

                       cryst. coord.
        k(    1) = (   0.0000000   0.0000000   0.0000000), wk =   0.0015026
        k(    2) = (   0.0000000   0.0000000   0.0909091), wk =   0.0030053
        k(    3) = (   0.0000000   0.0000000   0.1818182), wk =   0.0030053
        k(    4) = (   0.0000000   0.0000000   0.2727273), wk =   0.0030053
        k(    5) = (   0.0000000   0.0000000   0.3636364), wk =   0.0030053
        k(    6) = (   0.0000000   0.0000000   0.4545455), wk =   0.0030053
        k(    7) = (   0.0000000   0.0909091   0.0000000), wk =   0.0030053
        k(    8) = (   0.0000000   0.0909091   0.0909091), wk =   0.0030053
        k(    9) = (   0.0000000   0.0909091   0.1818182), wk =   0.0030053
        k(   10) = (   0.0000000   0.0909091   0.2727273), wk =   0.0030053
        k(   11) = (   0.0000000   0.0909091   0.3636364), wk =   0.0030053
        k(   12) = (   0.0000000   0.0909091   0.4545455), wk =   0.0030053
        k(   13) = (   0.0000000   0.0909091  -0.4545455), wk =   0.0030053
        k(   14) = (   0.0000000   0.0909091  -0.3636364), wk =   0.0030053
        k(   15) = (   0.0000000   0.0909091  -0.2727273), wk =   0.0030053
        k(   16) = (   0.0000000   0.0909091  -0.1818182), wk =   0.0030053
        k(   17) = (   0.0000000   0.0909091  -0.0909091), wk =   0.0030053
        k(   18) = (   0.0000000   0.1818182   0.0000000), wk =   0.0030053
        k(   19) = (   0.0000000   0.1818182   0.0909091), wk =   0.0030053
        k(   20) = (   0.0000000   0.1818182   0.1818182), wk =   0.0030053
        k(   21) = (   0.0000000   0.1818182   0.2727273), wk =   0.0030053
        k(   22) = (   0.0000000   0.1818182   0.3636364), wk =   0.0030053
        k(   23) = (   0.0000000   0.1818182   0.4545455), wk =   0.0030053
        k(   24) = (   0.0000000   0.1818182  -0.4545455), wk =   0.0030053
        k(   25) = (   0.0000000   0.1818182  -0.3636364), wk =   0.0030053
        k(   26) = (   0.0000000   0.1818182  -0.2727273), wk =   0.0030053
        k(   27) = (   0.0000000   0.1818182  -0.1818182), wk =   0.0030053
        k(   28) = (   0.0000000   0.1818182  -0.0909091), wk =   0.0030053
        k(   29) = (   0.0000000   0.2727273   0.0000000), wk =   0.0030053
        k(   30) = (   0.0000000   0.2727273   0.0909091), wk =   0.0030053
        k(   31) = (   0.0000000   0.2727273   0.1818182), wk =   0.0030053
        k(   32) = (   0.0000000   0.2727273   0.2727273), wk =   0.0030053
        k(   33) = (   0.0000000   0.2727273   0.3636364), wk =   0.0030053
        k(   34) = (   0.0000000   0.2727273   0.4545455), wk =   0.0030053
        k(   35) = (   0.0000000   0.2727273  -0.4545455), wk =   0.0030053
        k(   36) = (   0.0000000   0.2727273  -0.3636364), wk =   0.0030053
        k(   37) = (   0.0000000   0.2727273  -0.2727273), wk =   0.0030053
        k(   38) = (   0.0000000   0.2727273  -0.1818182), wk =   0.0030053
        k(   39) = (   0.0000000   0.2727273  -0.0909091), wk =   0.0030053
        k(   40) = (   0.0000000   0.3636364   0.0000000), wk =   0.0030053
        k(   41) = (   0.0000000   0.3636364   0.0909091), wk =   0.0030053
        k(   42) = (   0.0000000   0.3636364   0.1818182), wk =   0.0030053
        k(   43) = (   0.0000000   0.3636364   0.2727273), wk =   0.0030053
        k(   44) = (   0.0000000   0.3636364   0.3636364), wk =   0.0030053
        k(   45) = (   0.0000000   0.3636364   0.4545455), wk =   0.0030053
        k(   46) = (   0.0000000   0.3636364  -0.4545455), wk =   0.0030053
        k(   47) = (   0.0000000   0.3636364  -0.3636364), wk =   0.0030053
        k(   48) = (   0.0000000   0.3636364  -0.2727273), wk =   0.0030053
        k(   49) = (   0.0000000   0.3636364  -0.1818182), wk =   0.0030053
        k(   50) = (   0.0000000   0.3636364  -0.0909091), wk =   0.0030053
        k(   51) = (   0.0000000   0.4545455  -0.0000000), wk =   0.0030053
        k(   52) = (   0.0000000   0.4545455   0.0909091), wk =   0.0030053
        k(   53) = (   0.0000000   0.4545455   0.1818182), wk =   0.0030053
        k(   54) = (   0.0000000   0.4545455   0.2727273), wk =   0.0030053
        k(   55) = (   0.0000000   0.4545455   0.3636364), wk =   0.0030053
        k(   56) = (   0.0000000   0.4545455   0.4545455), wk =   0.0030053
        k(   57) = (   0.0000000   0.4545455  -0.4545455), wk =   0.0030053
        k(   58) = (   0.0000000   0.4545455  -0.3636364), wk =   0.0030053
        k(   59) = (   0.0000000   0.4545455  -0.2727273), wk =   0.0030053
        k(   60) = (   0.0000000   0.4545455  -0.1818182), wk =   0.0030053
        k(   61) = (   0.0000000   0.4545455  -0.0909091), wk =   0.0030053
        k(   62) = (   0.0909091  -0.0000000   0.0000000), wk =   0.0030053
        k(   63) = (   0.0909091  -0.0000000   0.0909091), wk =   0.0030053
        k(   64) = (   0.0909091  -0.0000000   0.1818182), wk =   0.0030053
        k(   65) = (   0.0909091  -0.0000000   0.2727273), wk =   0.0030053
        k(   66) = (   0.0909091  -0.0000000   0.3636364), wk =   0.0030053
        k(   67) = (   0.0909091  -0.0000000   0.4545455), wk =   0.0030053
        k(   68) = (   0.0909091  -0.0000000  -0.4545455), wk =   0.0030053
        k(   69) = (   0.0909091  -0.0000000  -0.3636364), wk =   0.0030053
        k(   70) = (   0.0909091  -0.0000000  -0.2727273), wk =   0.0030053
        k(   71) = (   0.0909091  -0.0000000  -0.1818182), wk =   0.0030053
        k(   72) = (   0.0909091  -0.0000000  -0.0909091), wk =   0.0030053
        k(   73) = (   0.0909091   0.0909091   0.0000000), wk =   0.0030053
        k(   74) = (   0.0909091   0.0909091   0.0909091), wk =   0.0030053
        k(   75) = (   0.0909091   0.0909091   0.1818182), wk =   0.0030053
        k(   76) = (   0.0909091   0.0909091   0.2727273), wk =   0.0030053
        k(   77) = (   0.0909091   0.0909091   0.3636364), wk =   0.0030053
        k(   78) = (   0.0909091   0.0909091   0.4545455), wk =   0.0030053
        k(   79) = (   0.0909091   0.0909091  -0.4545455), wk =   0.0030053
        k(   80) = (   0.0909091   0.0909091  -0.3636364), wk =   0.0030053
        k(   81) = (   0.0909091   0.0909091  -0.2727273), wk =   0.0030053
        k(   82) = (   0.0909091   0.0909091  -0.1818182), wk =   0.0030053
        k(   83) = (   0.0909091   0.0909091  -0.0909091), wk =   0.0030053
        k(   84) = (   0.0909091   0.1818182   0.0000000), wk =   0.0030053
        k(   85) = (   0.0909091   0.1818182   0.0909091), wk =   0.0030053
        k(   86) = (   0.0909091   0.1818182   0.1818182), wk =   0.0030053
        k(   87) = (   0.0909091   0.1818182   0.2727273), wk =   0.0030053
        k(   88) = (   0.0909091   0.1818182   0.3636364), wk =   0.0030053
        k(   89) = (   0.0909091   0.1818182   0.4545455), wk =   0.0030053
        k(   90) = (   0.0909091   0.1818182  -0.4545455), wk =   0.0030053
        k(   91) = (   0.0909091   0.1818182  -0.3636364), wk =   0.0030053
        k(   92) = (   0.0909091   0.1818182  -0.2727273), wk =   0.0030053
        k(   93) = (   0.0909091   0.1818182  -0.1818182), wk =   0.0030053
        k(   94) = (   0.0909091   0.1818182  -0.0909091), wk =   0.0030053
        k(   95) = (   0.0909091   0.2727273  -0.0000000), wk =   0.0030053
        k(   96) = (   0.0909091   0.2727273   0.0909091), wk =   0.0030053
        k(   97) = (   0.0909091   0.2727273   0.1818182), wk =   0.0030053
        k(   98) = (   0.0909091   0.2727273   0.2727273), wk =   0.0030053
        k(   99) = (   0.0909091   0.2727273   0.3636364), wk =   0.0030053
        k(  100) = (   0.0909091   0.2727273   0.4545455), wk =   0.0030053
        k(  101) = (   0.0909091   0.2727273  -0.4545455), wk =   0.0030053
        k(  102) = (   0.0909091   0.2727273  -0.3636364), wk =   0.0030053
        k(  103) = (   0.0909091   0.2727273  -0.2727273), wk =   0.0030053
        k(  104) = (   0.0909091   0.2727273  -0.1818182), wk =   0.0030053
        k(  105) = (   0.0909091   0.2727273  -0.0909091), wk =   0.0030053
        k(  106) = (   0.0909091   0.3636364   0.0000000), wk =   0.0030053
        k(  107) = (   0.0909091   0.3636364   0.0909091), wk =   0.0030053
        k(  108) = (   0.0909091   0.3636364   0.1818182), wk =   0.0030053
        k(  109) = (   0.0909091   0.3636364   0.2727273), wk =   0.0030053
        k(  110) = (   0.0909091   0.3636364   0.3636364), wk =   0.0030053
        k(  111) = (   0.0909091   0.3636364   0.4545455), wk =   0.0030053
        k(  112) = (   0.0909091   0.3636364  -0.4545455), wk =   0.0030053
        k(  113) = (   0.0909091   0.3636364  -0.3636364), wk =   0.0030053
        k(  114) = (   0.0909091   0.3636364  -0.2727273), wk =   0.0030053
        k(  115) = (   0.0909091   0.3636364  -0.1818182), wk =   0.0030053
        k(  116) = (   0.0909091   0.3636364  -0.0909091), wk =   0.0030053
        k(  117) = (   0.0909091   0.4545455  -0.0000000), wk =   0.0030053
        k(  118) = (   0.0909091   0.4545455   0.0909091), wk =   0.0030053
        k(  119) = (   0.0909091   0.4545455   0.1818182), wk =   0.0030053
        k(  120) = (   0.0909091   0.4545455   0.2727273), wk =   0.0030053
        k(  121) = (   0.0909091   0.4545455   0.3636364), wk =   0.0030053
        k(  122) = (   0.0909091   0.4545455   0.4545455), wk =   0.0030053
        k(  123) = (   0.0909091   0.4545455  -0.4545455), wk =   0.0030053
        k(  124) = (   0.0909091   0.4545455  -0.3636364), wk =   0.0030053
        k(  125) = (   0.0909091   0.4545455  -0.2727273), wk =   0.0030053
        k(  126) = (   0.0909091   0.4545455  -0.1818182), wk =   0.0030053
        k(  127) = (   0.0909091   0.4545455  -0.0909091), wk =   0.0030053
        k(  128) = (   0.0909091  -0.4545455   0.0000000), wk =   0.0030053
        k(  129) = (   0.0909091  -0.4545455   0.0909091), wk =   0.0030053
        k(  130) = (   0.0909091  -0.4545455   0.1818182), wk =   0.0030053
        k(  131) = (   0.0909091  -0.4545455   0.2727273), wk =   0.0030053
        k(  132) = (   0.0909091  -0.4545455   0.3636364), wk =   0.0030053
        k(  133) = (   0.0909091  -0.4545455   0.4545455), wk =   0.0030053
        k(  134) = (   0.0909091  -0.4545455  -0.4545455), wk =   0.0030053
        k(  135) = (   0.0909091  -0.4545455  -0.3636364), wk =   0.0030053
        k(  136) = (   0.0909091  -0.4545455  -0.2727273), wk =   0.0030053
        k(  137) = (   0.0909091  -0.4545455  -0.1818182), wk =   0.0030053
        k(  138) = (   0.0909091  -0.4545455  -0.0909091), wk =   0.0030053
        k(  139) = (   0.0909091  -0.3636364  -0.0000000), wk =   0.0030053
        k(  140) = (   0.0909091  -0.3636364   0.0909091), wk =   0.0030053
        k(  141) = (   0.0909091  -0.3636364   0.1818182), wk =   0.0030053
        k(  142) = (   0.0909091  -0.3636364   0.2727273), wk =   0.0030053
        k(  143) = (   0.0909091  -0.3636364   0.3636364), wk =   0.0030053
        k(  144) = (   0.0909091  -0.3636364   0.4545455), wk =   0.0030053
        k(  145) = (   0.0909091  -0.3636364  -0.4545455), wk =   0.0030053
        k(  146) = (   0.0909091  -0.3636364  -0.3636364), wk =   0.0030053
        k(  147) = (   0.0909091  -0.3636364  -0.2727273), wk =   0.0030053
        k(  148) = (   0.0909091  -0.3636364  -0.1818182), wk =   0.0030053
        k(  149) = (   0.0909091  -0.3636364  -0.0909091), wk =   0.0030053
        k(  150) = (   0.0909091  -0.2727273  -0.0000000), wk =   0.0030053
        k(  151) = (   0.0909091  -0.2727273   0.0909091), wk =   0.0030053
        k(  152) = (   0.0909091  -0.2727273   0.1818182), wk =   0.0030053
        k(  153) = (   0.0909091  -0.2727273   0.2727273), wk =   0.0030053
        k(  154) = (   0.0909091  -0.2727273   0.3636364), wk =   0.0030053
        k(  155) = (   0.0909091  -0.2727273   0.4545455), wk =   0.0030053
        k(  156) = (   0.0909091  -0.2727273  -0.4545455), wk =   0.0030053
        k(  157) = (   0.0909091  -0.2727273  -0.3636364), wk =   0.0030053
        k(  158) = (   0.0909091  -0.2727273  -0.2727273), wk =   0.0030053
        k(  159) = (   0.0909091  -0.2727273  -0.1818182), wk =   0.0030053
        k(  160) = (   0.0909091  -0.2727273  -0.0909091), wk =   0.0030053
        k(  161) = (   0.0909091  -0.1818182   0.0000000), wk =   0.0030053
        k(  162) = (   0.0909091  -0.1818182   0.0909091), wk =   0.0030053
        k(  163) = (   0.0909091  -0.1818182   0.1818182), wk =   0.0030053
        k(  164) = (   0.0909091  -0.1818182   0.2727273), wk =   0.0030053
        k(  165) = (   0.0909091  -0.1818182   0.3636364), wk =   0.0030053
        k(  166) = (   0.0909091  -0.1818182  -0.0909091), wk =   0.0030053
        k(  167) = (   0.1818182  -0.0000000   0.0000000), wk =   0.0030053
        k(  168) = (   0.1818182  -0.0000000   0.0909091), wk =   0.0030053
        k(  169) = (   0.1818182  -0.0000000   0.1818182), wk =   0.0030053
        k(  170) = (   0.1818182  -0.0000000   0.2727273), wk =   0.0030053
        k(  171) = (   0.1818182  -0.0000000   0.3636364), wk =   0.0030053
        k(  172) = (   0.1818182  -0.0000000   0.4545455), wk =   0.0030053
        k(  173) = (   0.1818182  -0.0000000  -0.4545455), wk =   0.0030053
        k(  174) = (   0.1818182  -0.0000000  -0.3636364), wk =   0.0030053
        k(  175) = (   0.1818182  -0.0000000  -0.2727273), wk =   0.0030053
        k(  176) = (   0.1818182  -0.0000000  -0.1818182), wk =   0.0030053
        k(  177) = (   0.1818182  -0.0000000  -0.0909091), wk =   0.0030053
        k(  178) = (   0.1818182   0.0909091   0.0000000), wk =   0.0030053
        k(  179) = (   0.1818182   0.0909091   0.0909091), wk =   0.0030053
        k(  180) = (   0.1818182   0.0909091   0.1818182), wk =   0.0030053
        k(  181) = (   0.1818182   0.0909091   0.2727273), wk =   0.0030053
        k(  182) = (   0.1818182   0.0909091   0.3636364), wk =   0.0030053
        k(  183) = (   0.1818182   0.0909091   0.4545455), wk =   0.0030053
        k(  184) = (   0.1818182   0.0909091  -0.4545455), wk =   0.0030053
        k(  185) = (   0.1818182   0.0909091  -0.3636364), wk =   0.0030053
        k(  186) = (   0.1818182   0.0909091  -0.2727273), wk =   0.0030053
        k(  187) = (   0.1818182   0.0909091  -0.1818182), wk =   0.0030053
        k(  188) = (   0.1818182   0.0909091  -0.0909091), wk =   0.0030053
        k(  189) = (   0.1818182   0.1818182   0.0000000), wk =   0.0030053
        k(  190) = (   0.1818182   0.1818182   0.0909091), wk =   0.0030053
        k(  191) = (   0.1818182   0.1818182   0.1818182), wk =   0.0030053
        k(  192) = (   0.1818182   0.1818182   0.2727273), wk =   0.0030053
        k(  193) = (   0.1818182   0.1818182   0.3636364), wk =   0.0030053
        k(  194) = (   0.1818182   0.1818182   0.4545455), wk =   0.0030053
        k(  195) = (   0.1818182   0.1818182  -0.4545455), wk =   0.0030053
        k(  196) = (   0.1818182   0.1818182  -0.3636364), wk =   0.0030053
        k(  197) = (   0.1818182   0.1818182  -0.2727273), wk =   0.0030053
        k(  198) = (   0.1818182   0.1818182  -0.1818182), wk =   0.0030053
        k(  199) = (   0.1818182   0.1818182  -0.0909091), wk =   0.0030053
        k(  200) = (   0.1818182   0.2727273   0.0000000), wk =   0.0030053
        k(  201) = (   0.1818182   0.2727273   0.0909091), wk =   0.0030053
        k(  202) = (   0.1818182   0.2727273   0.1818182), wk =   0.0030053
        k(  203) = (   0.1818182   0.2727273   0.2727273), wk =   0.0030053
        k(  204) = (   0.1818182   0.2727273   0.3636364), wk =   0.0030053
        k(  205) = (   0.1818182   0.2727273   0.4545455), wk =   0.0030053
        k(  206) = (   0.1818182   0.2727273  -0.4545455), wk =   0.0030053
        k(  207) = (   0.1818182   0.2727273  -0.3636364), wk =   0.0030053
        k(  208) = (   0.1818182   0.2727273  -0.2727273), wk =   0.0030053
        k(  209) = (   0.1818182   0.2727273  -0.1818182), wk =   0.0030053
        k(  210) = (   0.1818182   0.2727273  -0.0909091), wk =   0.0030053
        k(  211) = (   0.1818182   0.3636364   0.0000000), wk =   0.0030053
        k(  212) = (   0.1818182   0.3636364   0.0909091), wk =   0.0030053
        k(  213) = (   0.1818182   0.3636364   0.1818182), wk =   0.0030053
        k(  214) = (   0.1818182   0.3636364   0.2727273), wk =   0.0030053
        k(  215) = (   0.1818182   0.3636364   0.3636364), wk =   0.0030053
        k(  216) = (   0.1818182   0.3636364   0.4545455), wk =   0.0030053
        k(  217) = (   0.1818182   0.3636364  -0.4545455), wk =   0.0030053
        k(  218) = (   0.1818182   0.3636364  -0.3636364), wk =   0.0030053
        k(  219) = (   0.1818182   0.3636364  -0.2727273), wk =   0.0030053
        k(  220) = (   0.1818182   0.3636364  -0.1818182), wk =   0.0030053
        k(  221) = (   0.1818182   0.3636364  -0.0909091), wk =   0.0030053
        k(  222) = (   0.1818182   0.4545455   0.0000000), wk =   0.0030053
        k(  223) = (   0.1818182   0.4545455   0.0909091), wk =   0.0030053
        k(  224) = (   0.1818182   0.4545455   0.1818182), wk =   0.0030053
        k(  225) = (   0.1818182   0.4545455   0.2727273), wk =   0.0030053
        k(  226) = (   0.1818182   0.4545455   0.3636364), wk =   0.0030053
        k(  227) = (   0.1818182   0.4545455   0.4545455), wk =   0.0030053
        k(  228) = (   0.1818182   0.4545455  -0.4545455), wk =   0.0030053
        k(  229) = (   0.1818182   0.4545455  -0.3636364), wk =   0.0030053
        k(  230) = (   0.1818182   0.4545455  -0.2727273), wk =   0.0030053
        k(  231) = (   0.1818182   0.4545455  -0.1818182), wk =   0.0030053
        k(  232) = (   0.1818182   0.4545455  -0.0909091), wk =   0.0030053
        k(  233) = (   0.1818182  -0.4545455  -0.0000000), wk =   0.0030053
        k(  234) = (   0.1818182  -0.4545455   0.0909091), wk =   0.0030053
        k(  235) = (   0.1818182  -0.4545455   0.1818182), wk =   0.0030053
        k(  236) = (   0.1818182  -0.4545455   0.2727273), wk =   0.0030053
        k(  237) = (   0.1818182  -0.4545455   0.3636364), wk =   0.0030053
        k(  238) = (   0.1818182  -0.4545455   0.4545455), wk =   0.0030053
        k(  239) = (   0.1818182  -0.4545455  -0.4545455), wk =   0.0030053
        k(  240) = (   0.1818182  -0.4545455  -0.3636364), wk =   0.0030053
        k(  241) = (   0.1818182  -0.4545455  -0.2727273), wk =   0.0030053
        k(  242) = (   0.1818182  -0.4545455  -0.1818182), wk =   0.0030053
        k(  243) = (   0.1818182  -0.4545455  -0.0909091), wk =   0.0030053
        k(  244) = (   0.1818182  -0.3636364   0.0000000), wk =   0.0030053
        k(  245) = (   0.1818182  -0.3636364   0.0909091), wk =   0.0030053
        k(  246) = (   0.1818182  -0.3636364   0.1818182), wk =   0.0030053
        k(  247) = (   0.1818182  -0.3636364   0.2727273), wk =   0.0030053
        k(  248) = (   0.1818182  -0.3636364  -0.2727273), wk =   0.0030053
        k(  249) = (   0.1818182  -0.3636364  -0.1818182), wk =   0.0030053
        k(  250) = (   0.2727273   0.0000000  -0.0000000), wk =   0.0030053
        k(  251) = (   0.2727273   0.0000000   0.0909091), wk =   0.0030053
        k(  252) = (   0.2727273   0.0000000   0.1818182), wk =   0.0030053
        k(  253) = (   0.2727273   0.0000000   0.2727273), wk =   0.0030053
        k(  254) = (   0.2727273   0.0000000   0.3636364), wk =   0.0030053
        k(  255) = (   0.2727273   0.0000000   0.4545455), wk =   0.0030053
        k(  256) = (   0.2727273   0.0000000  -0.4545455), wk =   0.0030053
        k(  257) = (   0.2727273   0.0000000  -0.3636364), wk =   0.0030053
        k(  258) = (   0.2727273   0.0000000  -0.2727273), wk =   0.0030053
        k(  259) = (   0.2727273   0.0000000  -0.1818182), wk =   0.0030053
        k(  260) = (   0.2727273   0.0000000  -0.0909091), wk =   0.0030053
        k(  261) = (   0.2727273   0.0909091   0.0000000), wk =   0.0030053
        k(  262) = (   0.2727273   0.0909091   0.0909091), wk =   0.0030053
        k(  263) = (   0.2727273   0.0909091   0.1818182), wk =   0.0030053
        k(  264) = (   0.2727273   0.0909091   0.2727273), wk =   0.0030053
        k(  265) = (   0.2727273   0.0909091   0.3636364), wk =   0.0030053
        k(  266) = (   0.2727273   0.0909091   0.4545455), wk =   0.0030053
        k(  267) = (   0.2727273   0.0909091  -0.4545455), wk =   0.0030053
        k(  268) = (   0.2727273   0.0909091  -0.3636364), wk =   0.0030053
        k(  269) = (   0.2727273   0.0909091  -0.2727273), wk =   0.0030053
        k(  270) = (   0.2727273   0.0909091  -0.1818182), wk =   0.0030053
        k(  271) = (   0.2727273   0.0909091  -0.0909091), wk =   0.0030053
        k(  272) = (   0.2727273   0.1818182   0.0000000), wk =   0.0030053
        k(  273) = (   0.2727273   0.1818182   0.0909091), wk =   0.0030053
        k(  274) = (   0.2727273   0.1818182   0.1818182), wk =   0.0030053
        k(  275) = (   0.2727273   0.1818182   0.2727273), wk =   0.0030053
        k(  276) = (   0.2727273   0.1818182   0.3636364), wk =   0.0030053
        k(  277) = (   0.2727273   0.1818182   0.4545455), wk =   0.0030053
        k(  278) = (   0.2727273   0.1818182  -0.4545455), wk =   0.0030053
        k(  279) = (   0.2727273   0.1818182  -0.3636364), wk =   0.0030053
        k(  280) = (   0.2727273   0.1818182  -0.2727273), wk =   0.0030053
        k(  281) = (   0.2727273   0.1818182  -0.1818182), wk =   0.0030053
        k(  282) = (   0.2727273   0.1818182  -0.0909091), wk =   0.0030053
        k(  283) = (   0.2727273   0.2727273  -0.0000000), wk =   0.0030053
        k(  284) = (   0.2727273   0.2727273   0.0909091), wk =   0.0030053
        k(  285) = (   0.2727273   0.2727273   0.1818182), wk =   0.0030053
        k(  286) = (   0.2727273   0.2727273   0.2727273), wk =   0.0030053
        k(  287) = (   0.2727273   0.2727273   0.3636364), wk =   0.0030053
        k(  288) = (   0.2727273   0.2727273   0.4545455), wk =   0.0030053
        k(  289) = (   0.2727273   0.2727273  -0.4545455), wk =   0.0030053
        k(  290) = (   0.2727273   0.2727273  -0.3636364), wk =   0.0030053
        k(  291) = (   0.2727273   0.2727273  -0.2727273), wk =   0.0030053
        k(  292) = (   0.2727273   0.2727273  -0.1818182), wk =   0.0030053
        k(  293) = (   0.2727273   0.2727273  -0.0909091), wk =   0.0030053
        k(  294) = (   0.2727273   0.3636364   0.0000000), wk =   0.0030053
        k(  295) = (   0.2727273   0.3636364   0.0909091), wk =   0.0030053
        k(  296) = (   0.2727273   0.3636364   0.1818182), wk =   0.0030053
        k(  297) = (   0.2727273   0.3636364   0.2727273), wk =   0.0030053
        k(  298) = (   0.2727273   0.3636364   0.3636364), wk =   0.0030053
        k(  299) = (   0.2727273   0.3636364   0.4545455), wk =   0.0030053
        k(  300) = (   0.2727273   0.3636364  -0.4545455), wk =   0.0030053
        k(  301) = (   0.2727273   0.3636364  -0.3636364), wk =   0.0030053
        k(  302) = (   0.2727273   0.3636364  -0.2727273), wk =   0.0030053
        k(  303) = (   0.2727273   0.3636364  -0.1818182), wk =   0.0030053
        k(  304) = (   0.2727273   0.3636364  -0.0909091), wk =   0.0030053
        k(  305) = (   0.2727273   0.4545455  -0.0000000), wk =   0.0030053
        k(  306) = (   0.2727273   0.4545455   0.0909091), wk =   0.0030053
        k(  307) = (   0.2727273   0.4545455   0.1818182), wk =   0.0030053
        k(  308) = (   0.2727273   0.4545455  -0.4545455), wk =   0.0030053
        k(  309) = (   0.2727273   0.4545455  -0.3636364), wk =   0.0030053
        k(  310) = (   0.2727273   0.4545455  -0.2727273), wk =   0.0030053
        k(  311) = (   0.3636364  -0.0000000   0.0000000), wk =   0.0030053
        k(  312) = (   0.3636364  -0.0000000   0.0909091), wk =   0.0030053
        k(  313) = (   0.3636364  -0.0000000   0.1818182), wk =   0.0030053
        k(  314) = (   0.3636364  -0.0000000   0.2727273), wk =   0.0030053
        k(  315) = (   0.3636364  -0.0000000   0.3636364), wk =   0.0030053
        k(  316) = (   0.3636364  -0.0000000   0.4545455), wk =   0.0030053
        k(  317) = (   0.3636364  -0.0000000  -0.4545455), wk =   0.0030053
        k(  318) = (   0.3636364  -0.0000000  -0.3636364), wk =   0.0030053
        k(  319) = (   0.3636364  -0.0000000  -0.2727273), wk =   0.0030053
        k(  320) = (   0.3636364  -0.0000000  -0.1818182), wk =   0.0030053
[...]

     occupation numbers 
     1.0000   1.0000   1.0000   1.0000   0.0000   0.0000   0.0000   0.0000

          k =-0.5455-0.0000 0.1188 (   901 PWs)   bands (ev):

    -4.8541   2.6065   4.9343   7.5098  18.1530  22.4148  24.8410  30.0121

     occupation numbers 
     1.0000   1.0000   1.0000   1.0000   0.0000   0.0000   0.0000   0.0000

          k =-0.6364 0.0525 0.0482 (   906 PWs)   bands (ev):

    -4.1775   2.3500   3.8868   7.7348  16.0887  23.9201  25.8013  31.4934

     occupation numbers 
     1.0000   1.0000   1.0000   1.0000   0.0000   0.0000   0.0000   0.0000

          k =-0.6364 0.0525-0.0594 (   910 PWs)   bands (ev):

    -4.1435   2.5501   3.7770   7.7015  15.2569  24.6592  26.2680  29.8862

     occupation numbers 
     1.0000   1.0000   1.0000   1.0000   0.0000   0.0000   0.0000   0.0000

          k =-0.6364 0.0525-0.1670 (   912 PWs)   bands (ev):

    -4.1523   2.1986   4.5674   7.3487  15.2510  23.5097  26.8494  29.3723

     occupation numbers 
     1.0000   1.0000   1.0000   1.0000   0.0000   0.0000   0.0000   0.0000

          k =-0.6364 0.0525-0.2746 (   912 PWs)   bands (ev):

    -4.2288   2.1596   4.7953   7.4803  15.6174  21.4902  27.6636  30.1545

     occupation numbers 
     1.0000   1.0000   1.0000   1.0000   0.0000   0.0000   0.0000   0.0000

          k =-0.6364 0.0525-0.3823 (   914 PWs)   bands (ev):

    -4.3693   2.4996   4.4843   7.8183  16.0643  20.4252  28.1204  31.2820

     occupation numbers 
     1.0000   1.0000   1.0000   1.0000   0.0000   0.0000   0.0000   0.0000

          k =-0.6364 0.0525-0.4899 (   910 PWs)   bands (ev):

    -4.5189   2.8450   4.5959   7.3472  16.8774  20.5268  27.6664  30.7680

     occupation numbers 
     1.0000   1.0000   1.0000   1.0000   0.0000   0.0000   0.0000   0.0000

          k =-0.6364 0.0525 0.5864 (   911 PWs)   bands (ev):

    -4.6124   2.9110   5.2098   6.4589  18.0141  21.0882  26.3864  29.3013

     occupation numbers 
     1.0000   1.0000   1.0000   1.0000   0.0000   0.0000   0.0000   0.0000

          k =-0.6364 0.0525 0.4788 (   911 PWs)   bands (ev):

    -4.6118   2.8359   4.8259   6.8275  18.9613  21.2486  25.8845  27.8268

     occupation numbers 
     1.0000   1.0000   1.0000   1.0000   0.0000   0.0000   0.0000   0.0000

          k =-0.6364 0.0525 0.3711 (   904 PWs)   bands (ev):

    -4.5191   2.4326   4.6027   7.3713  19.3877  21.2616  25.4024  27.4590

     occupation numbers 
     1.0000   1.0000   1.0000   1.0000   0.0000   0.0000   0.0000   0.0000

          k =-0.6364 0.0525 0.2635 (   903 PWs)   bands (ev):

    -4.3781   1.9889   4.7767   7.4075  19.0544  21.6924  24.7169  28.6281

     occupation numbers 
     1.0000   1.0000   1.0000   1.0000   0.0000   0.0000   0.0000   0.0000

          k =-0.6364 0.0525 0.1559 (   904 PWs)   bands (ev):

    -4.2530   1.9443   4.5676   7.4610  17.6278  22.7380  25.0901  30.2793

     occupation numbers 
     1.0000   1.0000   1.0000   1.0000   0.0000   0.0000   0.0000   0.0000

          k =-0.7273 0.1050 0.0854 (   910 PWs)   bands (ev):

    -4.1644   2.0289   4.3716   7.7517  15.5590  23.7389  25.5531  32.4757

     occupation numbers 
     1.0000   1.0000   1.0000   1.0000   0.0000   0.0000   0.0000   0.0000

          k =-0.7273 0.1050-0.0223 (   912 PWs)   bands (ev):

    -3.8919   2.4732   3.6532   7.5272  14.7225  24.3872  26.2298  31.0343

     occupation numbers 
     1.0000   1.0000   1.0000   1.0000   0.0000   0.0000   0.0000   0.0000

          k =-0.7273 0.1050-0.1299 (   909 PWs)   bands (ev):

    -3.8753   2.9794   3.5009   6.8920  14.8892  24.5873  26.8911  28.7936

     occupation numbers 
     1.0000   1.0000   1.0000   1.0000   0.0000   0.0000   0.0000   0.0000

          k =-0.7273 0.1050 0.6235 (   906 PWs)   bands (ev):

    -5.1703   2.3758   6.1115   7.6460  17.6525  21.6894  26.3948  29.8677

     occupation numbers 
     1.0000   1.0000   1.0000   1.0000   0.0000   0.0000   0.0000   0.0000

          k =-0.7273 0.1050 0.5159 (   901 PWs)   bands (ev):

    -5.3013   2.3898   6.2724   7.5102  18.8528  22.3859  25.3201  28.0839

     occupation numbers 
     1.0000   1.0000   1.0000   1.0000   0.0000   0.0000   0.0000   0.0000

          k =-0.4545-0.1575-0.0965 (   901 PWs)   bands (ev):

    -5.6986   1.6280   7.3313   8.8881  17.4878  22.0654  26.5874  29.7510

     occupation numbers 
     1.0000   1.0000   1.0000   1.0000   0.0000   0.0000   0.0000   0.0000

          k =-0.4545-0.1575-0.2041 (   908 PWs)   bands (ev):

    -5.4239   1.1153   7.3525   9.2109  17.0251  21.5724  26.6821  29.6995

     occupation numbers 
     1.0000   1.0000   1.0000   1.0000   0.0000   0.0000   0.0000   0.0000

          k =-0.4545-0.1575-0.3118 (   910 PWs)   bands (ev):

    -5.0615   1.0445   6.7448   9.2134  17.1614  19.9203  27.1494  30.5746

     occupation numbers 
     1.0000   1.0000   1.0000   1.0000   0.0000   0.0000   0.0000   0.0000

          k =-0.4545-0.1575-0.4194 (   905 PWs)   bands (ev):

    -4.7291   1.5065   5.7668   8.8240  17.2100  18.9028  27.6535  31.8032

     occupation numbers 
     1.0000   1.0000   1.0000   1.0000   0.0000   0.0000   0.0000   0.0000

          k =-0.4545-0.1575-0.5270 (   902 PWs)   bands (ev):

    -4.5216   2.4625   4.7238   8.2623  16.4724  19.1326  27.3451  31.7068

     occupation numbers 
     1.0000   1.0000   1.0000   1.0000   0.0000   0.0000   0.0000   0.0000

          k =-0.4545-0.1575-0.6346 (   911 PWs)   bands (ev):

    -4.4949   3.4800   4.1381   7.7717  15.9179  19.1902  26.2596  31.4537

     occupation numbers 
     1.0000   1.0000   1.0000   1.0000   0.0000   0.0000   0.0000   0.0000

          k =-0.4545-0.1575 0.4417 (   911 PWs)   bands (ev):

    -4.6758   3.2793   5.1455   7.4784  15.8300  18.7643  25.7991  30.9267

     occupation numbers 
     1.0000   1.0000   1.0000   1.0000   0.0000   0.0000   0.0000   0.0000

          k =-0.4545-0.1575 0.3340 (   912 PWs)   bands (ev):

    -5.0208   3.2747   5.8684   7.4438  16.2707  18.6158  25.8621  29.9109

     occupation numbers 
     1.0000   1.0000   1.0000   1.0000   0.0000   0.0000   0.0000   0.0000

          k =-0.4545-0.1575 0.2264 (   907 PWs)   bands (ev):

    -5.4041   3.4293   5.9307   7.6938  17.2053  19.2074  25.7595  29.3299

     occupation numbers 
     1.0000   1.0000   1.0000   1.0000   0.0000   0.0000   0.0000   0.0000

          k =-0.4545-0.1575 0.1188 (   906 PWs)   bands (ev):

    -5.6917   3.1731   6.1064   8.0776  18.2823  19.9383  25.6912  29.8761

     occupation numbers 
     1.0000   1.0000   1.0000   1.0000   0.0000   0.0000   0.0000   0.0000

          k =-0.4545-0.1575 0.0111 (   900 PWs)   bands (ev):

    -5.7985   2.4146   6.7447   8.4901  18.2886  20.9681  26.2326  30.6943

     occupation numbers 
     1.0000   1.0000   1.0000   1.0000   0.0000   0.0000   0.0000   0.0000

          k =-0.5455-0.1050-0.0594 (   903 PWs)   bands (ev):

    -5.0136   1.6738   6.1692   8.0422  17.1465  22.5862  26.6681  29.5952

     occupation numbers 
     1.0000   1.0000   1.0000   1.0000   0.0000   0.0000   0.0000   0.0000

          k =-0.5455-0.1050-0.1670 (   906 PWs)   bands (ev):

    -4.9450   1.1705   6.6191   8.3908  16.7659  22.5202  26.6471  28.9815

     occupation numbers 
     1.0000   1.0000   1.0000   1.0000   0.0000   0.0000   0.0000   0.0000

          k =-0.5455-0.1050-0.2746 (   907 PWs)   bands (ev):

    -4.8348   1.1394   6.3713   8.6537  16.9128  20.9749  27.0517  29.7523

     occupation numbers 
     1.0000   1.0000   1.0000   1.0000   0.0000   0.0000   0.0000   0.0000

          k =-0.5455-0.1050-0.3823 (   909 PWs)   bands (ev):

    -4.7288   1.6374   5.7575   8.3561  17.3909  19.6429  27.6501  30.7820

     occupation numbers 
     1.0000   1.0000   1.0000   1.0000   0.0000   0.0000   0.0000   0.0000

          k =-0.5455-0.1050-0.4899 (   904 PWs)   bands (ev):

    -4.6317   2.5724   5.1282   7.4341  17.6594  19.2586  27.6140  30.7490

     occupation numbers 
     1.0000   1.0000   1.0000   1.0000   0.0000   0.0000   0.0000   0.0000

          k =-0.5455-0.1050-0.5975 (   906 PWs)   bands (ev):

    -4.5406   3.5896   4.7270   6.4135  17.5077  19.3737  26.3720  30.8360

     occupation numbers 
     1.0000   1.0000   1.0000   1.0000   0.0000   0.0000   0.0000   0.0000

          k =-0.5455-0.1050 0.4788 (   911 PWs)   bands (ev):

    -4.4875   3.6061   5.2446   5.8628  17.4165  19.0978  25.7383  30.5071

     occupation numbers 
     1.0000   1.0000   1.0000   1.0000   0.0000   0.0000   0.0000   0.0000

          k =-0.5455-0.1050 0.3711 (   916 PWs)   bands (ev):

    -4.5264   3.2429   5.6126   6.0210  17.6716  18.8238  25.8387  29.4959

     occupation numbers 
     1.0000   1.0000   1.0000   1.0000   0.0000   0.0000   0.0000   0.0000

          k =-0.5455-0.1050 0.2635 (   909 PWs)   bands (ev):

    -4.6705   3.1342   5.4868   6.3560  18.3390  19.1084  25.7752  28.9615

     occupation numbers 
     1.0000   1.0000   1.0000   1.0000   0.0000   0.0000   0.0000   0.0000

          k =-0.5455-0.1050 0.1559 (   901 PWs)   bands (ev):

    -4.8548   3.0487   5.1365   6.9373  18.5219  20.1700  25.6138  29.6415

     occupation numbers 
     1.0000   1.0000   1.0000   1.0000   0.0000   0.0000   0.0000   0.0000

          k =-0.5455-0.1050 0.0482 (   905 PWs)   bands (ev):

    -4.9868   2.4490   5.4405   7.5675  17.9297  21.4592  26.1196  30.7206

     occupation numbers 
     1.0000   1.0000   1.0000   1.0000   0.0000   0.0000   0.0000   0.0000

          k =-0.6364-0.0525-0.0223 (   904 PWs)   bands (ev):

    -4.3483   2.2596   4.4740   7.4551  16.3308  23.2837  26.7353  30.5589

     occupation numbers 
     1.0000   1.0000   1.0000   1.0000   0.0000   0.0000   0.0000   0.0000

          k =-0.6364-0.0525-0.1299 (   909 PWs)   bands (ev):

    -4.4562   1.7733   5.2053   7.6767  16.0786  23.6320  27.1135  28.7198

     occupation numbers 
     1.0000   1.0000   1.0000   1.0000   0.0000   0.0000   0.0000   0.0000

          k =-0.6364-0.0525-0.4528 (   905 PWs)   bands (ev):

    -4.7900   2.9908   4.4175   7.9272  17.3853  20.4674  27.8301  30.4741

     occupation numbers 
     1.0000   1.0000   1.0000   1.0000   0.0000   0.0000   0.0000   0.0000

          k =-0.6364-0.0525-0.5604 (   907 PWs)   bands (ev):

    -4.7668   3.4757   4.6529   6.8277  18.0070  20.4484  26.4173  30.4331

     occupation numbers 
     1.0000   1.0000   1.0000   1.0000   0.0000   0.0000   0.0000   0.0000

          k =-0.6364-0.0525 0.5159 (   911 PWs)   bands (ev):

    -4.6515   3.6197   4.8529   6.1488  18.3904  20.3021  25.4927  30.1854

     occupation numbers 
     1.0000   1.0000   1.0000   1.0000   0.0000   0.0000   0.0000   0.0000

          k =-0.5455-0.2099-0.1299 (   908 PWs)   bands (ev):

    -5.0826   0.8109   6.8809   9.1046  17.3079  21.7262  27.2109  29.8006

     occupation numbers 
     1.0000   1.0000   1.0000   1.0000   0.0000   0.0000   0.0000   0.0000

          k =-0.5455-0.2099-0.3452 (   905 PWs)   bands (ev):

    -5.1283   1.3117   6.3282   9.2602  17.7405  19.9023  27.4724  30.5827

     occupation numbers 
     1.0000   1.0000   1.0000   1.0000   0.0000   0.0000   0.0000   0.0000

          k =-0.5455-0.2099-0.4528 (   901 PWs)   bands (ev):

    -5.0651   2.2020   5.5911   8.7661  17.3396  19.3202  27.2929  31.6916

     occupation numbers 
     1.0000   1.0000   1.0000   1.0000   0.0000   0.0000   0.0000   0.0000

          k =-0.5455-0.2099-0.5604 (   908 PWs)   bands (ev):

    -4.9244   3.1488   4.9958   8.1217  16.2629  19.4205  26.1258  31.8651

     occupation numbers 
     1.0000   1.0000   1.0000   1.0000   0.0000   0.0000   0.0000   0.0000

          k =-0.5455-0.2099-0.6680 (   909 PWs)   bands (ev):

    -4.7500   3.3797   5.1670   7.5936  15.5508  18.9705  25.3936  32.2756

     occupation numbers 
     1.0000   1.0000   1.0000   1.0000   0.0000   0.0000   0.0000   0.0000

     the Fermi energy is    12.9389 ev

!    total energy              =     -26.27632642 Ry
     estimated scf accuracy    <          7.1E-12 Ry
     smearing contrib. (-TS)   =      -0.00000000 Ry
     internal energy E=F+TS    =     -26.27632642 Ry

     The total energy is F=E-TS. E is the sum of the following terms:
     one-electron contribution =       2.43607461 Ry
     hartree contribution      =       4.98284420 Ry
     xc contribution           =      -9.96060376 Ry
     ewald contribution        =     -23.73464146 Ry

     convergence has been achieved in  11 iterations

     Forces acting on atoms (cartesian axes, Ry/au):

     atom    1 type  1   force =    -0.90773770   -2.74772804    1.77759573
     atom    2 type  2   force =     0.90773770    2.74772804   -1.77759573
     The non-local contrib.  to forces
     atom    1 type  1   force =    -0.61187294   -1.90258071    1.21986613
     atom    2 type  2   force =     0.09162355    0.56859887   -0.26195690
     The ionic contribution  to forces
     atom    1 type  1   force =    -2.20898768   -5.95508311    4.08922313
     atom    2 type  2   force =     2.20898768    5.95508311   -4.08922313
     The local contribution  to forces
     atom    1 type  1   force =     1.87540689    4.99784570   -3.45837998
     atom    2 type  2   force =    -1.36699585   -3.69334024    2.52199666
     The core correction contribution to forces
     atom    1 type  1   force =     0.03771296    0.11208773   -0.07311403
     atom    2 type  2   force =    -0.02587919   -0.08261204    0.05158372
     The Hubbard contrib.    to forces
     atom    1 type  1   force =     0.00000000    0.00000000    0.00000000
     atom    2 type  2   force =     0.00000000    0.00000000    0.00000000
     The SCF correction term to forces
     atom    1 type  1   force =     0.00000016    0.00000062   -0.00000035
     atom    2 type  2   force =    -0.00000138   -0.00000338    0.00000310

     Total force =     4.802883     Total SCF correction =     0.000005


     Computing stress (Cartesian axis) and pressure

          total   stress  (Ry/bohr**3)                   (kbar)     P=     3983.51
   0.01156037   0.01343148  -0.01277166         1700.59     1975.84    -1878.78
   0.01343148   0.04905667  -0.02910265         1975.84     7216.49    -4281.15
  -0.01277166  -0.02910265   0.02062091        -1878.78    -4281.15     3033.44

     kinetic stress (kbar)  28578.73   -644.05   -439.30
                             -644.05  27430.61    503.49
                             -439.30    503.49  27269.17

     local   stress (kbar)   3694.21  -4817.47   1507.05
                            -4817.47  -9967.67   8600.75
                             1507.05   8600.75  -1495.01

     nonloc. stress (kbar)  -3449.27      6.37     88.36
                                6.37  -3399.82     19.43
                               88.36     19.43  -3322.21

     hartree stress (kbar)   2572.00    456.54    -23.68
                              456.54   4185.10   -840.97
                              -23.68   -840.97   2995.40

     exc-cor stress (kbar)  -1589.19     31.70     -9.22
                               31.70  -1504.48    -55.02
                               -9.22    -55.02  -1551.33

     corecor stress (kbar)  -3966.14    -41.18     35.40
                              -41.18  -4076.71     88.07
                               35.40     88.07  -3999.07

     ewald   stress (kbar) -24139.75   6983.93  -3037.38
                             6983.93  -5450.54 -12596.90
                            -3037.38 -12596.90 -16863.50

     hubbard stress (kbar)      0.00      0.00      0.00
                                0.00      0.00      0.00
                                0.00      0.00      0.00

     DFT-D   stress (kbar)      0.00      0.00      0.00
                                0.00      0.00      0.00
                                0.00      0.00      0.00

     XDM     stress (kbar)      0.00      0.00      0.00
                                0.00      0.00      0.00
                                0.00      0.00      0.00

     dft-nl  stress (kbar)      0.00      0.00      0.00
                                0.00      0.00      0.00
                                0.00      0.00      0.00

     TS-vdW  stress (kbar)      0.00      0.00      0.00
                                0.00      0.00      0.00
                                0.00      0.00      0.00



     init_run     :      0.45s CPU      1.87s WALL (       1 calls)
     electrons    :     14.22s CPU     15.51s WALL (       1 calls)
     forces       :      0.09s CPU      0.09s WALL (       1 calls)
     stress       :      0.25s CPU      0.25s WALL (       1 calls)

     Called by init_run:
     wfcinit      :      0.37s CPU      0.89s WALL (       1 calls)
     wfcinit:atom :      0.01s CPU      0.01s WALL (     666 calls)
     wfcinit:wfcr :      0.34s CPU      0.84s WALL (     666 calls)
     potinit      :      0.03s CPU      0.12s WALL (       1 calls)
     hinit0       :      0.04s CPU      0.61s WALL (       1 calls)

     Called by electrons:
     c_bands      :     12.30s CPU     13.32s WALL (      11 calls)
     sum_band     :      1.89s CPU      2.10s WALL (      11 calls)
     v_of_rho     :      0.01s CPU      0.03s WALL (      12 calls)
     v_h          :      0.00s CPU      0.00s WALL (      12 calls)
     v_xc         :      0.02s CPU      0.03s WALL (      14 calls)
     newd         :      0.01s CPU      0.08s WALL (      12 calls)
     mix_rho      :      0.00s CPU      0.04s WALL (      11 calls)

     Called by c_bands:
     init_us_2    :      0.26s CPU      0.28s WALL (   16650 calls)
     cegterg      :     11.93s CPU     12.92s WALL (    7326 calls)

     Called by sum_band:
     sum_band:wei :      0.00s CPU      0.00s WALL (      11 calls)
     sum_band:loo :      1.87s CPU      2.07s WALL (      11 calls)
     sum_band:buf :      0.02s CPU      0.02s WALL (    7326 calls)
     sum_band:ini :      0.11s CPU      0.12s WALL (    7326 calls)
     sum_band:cal :      0.10s CPU      0.11s WALL (    7326 calls)
     sum_band:bec :      0.01s CPU      0.05s WALL (    7326 calls)
     addusdens    :      0.01s CPU      0.02s WALL (      11 calls)
     addusd:skk   :      0.00s CPU      0.00s WALL (      11 calls)
     addusd:dgemm :      0.00s CPU      0.01s WALL (      11 calls)
     addusd:qvan2 :      0.00s CPU      0.01s WALL (      11 calls)

     Called by *egterg:
     cdiaghg      :      1.60s CPU      2.11s WALL (   26936 calls)
     cegterg:over :      0.47s CPU      0.51s WALL (   19610 calls)
     cegterg:upda :      0.08s CPU      0.09s WALL (   19610 calls)
     cegterg:last :      0.10s CPU      0.11s WALL (   15008 calls)
     h_psi        :      9.41s CPU     10.28s WALL (   27602 calls)
     s_psi        :      0.09s CPU      0.10s WALL (   27602 calls)
     g_psi        :      0.03s CPU      0.03s WALL (   19610 calls)

     Called by h_psi:
     h_psi:calbec :      0.35s CPU      0.49s WALL (   27602 calls)
     vloc_psi     :      8.86s CPU      9.56s WALL (   27602 calls)
     add_vuspsi   :      0.12s CPU      0.15s WALL (   27602 calls)

     General routines
     calbec       :      0.45s CPU      0.60s WALL (   38258 calls)
     fft          :      0.01s CPU      0.47s WALL (     179 calls)
     ffts         :      0.01s CPU      0.07s WALL (      23 calls)
     fftw         :      9.82s CPU     10.62s WALL (  373938 calls)
     interpolate  :      0.01s CPU      0.07s WALL (      12 calls)

     Parallel routines
     fft_scatt_xy :      0.83s CPU      0.89s WALL (  374140 calls)
     fft_scatt_yz :      3.21s CPU      3.47s WALL (  374140 calls)

     PWSCF        :     15.07s CPU     19.29s WALL


   This run was terminated on:  21:17: 8  28Sep2022            

=------------------------------------------------------------------------------=
   JOB DONE.
=------------------------------------------------------------------------------=
Note: The following floating-point exceptions are signalling: IEEE_UNDERFLOW_FLAG IEEE_DENORMAL
