
     Program PWSCF v.6.7MaX starts on 28Sep2022 at 21:16:42 

     This program is part of the open-source Quantum ESPRESSO suite
     for quantum simulation of materials; please cite
         "P. Giannozzi et al., J. Phys.:Condens. Matter 21 395502 (2009);
         "P. Giannozzi et al., J. Phys.:Condens. Matter 29 465901 (2017);
          URL http://www.quantum-espresso.org", 
     in publications or presentations arising from this work. More details at
     http://www.quantum-espresso.org/quote

     Parallel version (MPI), running on    16 processors

     MPI processes distributed on     1 nodes
     R & G space division:  proc/nbgrp/npool/nimage =      16
     Reading input from scale_2dab-00.in

     Current dimensions of program PWSCF are:
     Max number of different atomic species (ntypx) = 10
     Max number of k-points (npk) =  40000
     Max angular momentum in pseudopotentials (lmaxx) =  3
     Message from routine read_pp_mesh:
     mesh size missing, using the one in header

     Subspace diagonalization in iterative solution of the eigenvalue problem:
     a serial algorithm will be used


     Parallelization info
     --------------------
     sticks:   dense  smooth     PW     G-vecs:    dense   smooth      PW
     Min          40      28      9                  708      436      81
     Max          41      29     10                  711      438      84
     Sum         649     463    151                11353     6997    1313



     bravais-lattice index     =            0
     lattice parameter (alat)  =       4.6030  a.u.
     unit-cell volume          =      72.5910 (a.u.)^3
     number of atoms/cell      =            2
     number of atomic types    =            2
     number of electrons       =         8.00
     number of Kohn-Sham states=            8
     kinetic-energy cutoff     =      80.0000  Ry
     charge density cutoff     =     440.0000  Ry
     scf convergence threshold =      2.0E-10
     mixing beta               =       0.4000
     number of iterations used =            8  plain     mixing
     Exchange-correlation= PBE
                           (   1   4   3   4   0   0   0)

     celldm(1)=   4.602995  celldm(2)=   0.000000  celldm(3)=   0.000000
     celldm(4)=   0.000000  celldm(5)=   0.000000  celldm(6)=   0.000000

     crystal axes: (cart. coord. in units of alat)
               a(1) = (   1.000000   0.000000   0.000000 )  
               a(2) = (  -0.500000   0.866025   0.000000 )  
               a(3) = (  -0.473684   0.303869   0.859470 )  

     reciprocal axes: (cart. coord. in units 2 pi/alat)
               b(1) = (  1.000000  0.577350  0.347011 )  
               b(2) = (  0.000000  1.154701 -0.408248 )  
               b(3) = (  0.000000 -0.000000  1.163508 )  


     PseudoPot. # 1 for B  read from file:
     /opt/QEpot/SSSP_precision_pseudos/B_pbe_v1.01.uspp.F.UPF
     MD5 check sum: d081ebb89d0c768e112975f650467a00
     Pseudo is Ultrasoft + core correction, Zval =  3.0
     Generated by new atomic code, or converted to UPF format
     Using radial grid of  781 points,  4 beta functions with: 
                l(1) =   0
                l(2) =   0
                l(3) =   1
                l(4) =   1
     Q(r) pseudized with  8 coefficients,  rinner =    1.100   1.100   1.100


     PseudoPot. # 2 for N  read from file:
     /opt/QEpot/SSSP_precision_pseudos/N.oncvpsp.upf
     MD5 check sum: 563d65bfb082928f0c9eb97172f6c357
     Pseudo is Norm-conserving + core correction, Zval =  5.0
     Generated using ONCVPSP code by D. R. Hamann
     Using radial grid of 1058 points,  4 beta functions with: 
                l(1) =   0
                l(2) =   0
                l(3) =   1
                l(4) =   1

     atomic species   valence    mass     pseudopotential
        B              3.00    10.81000     B ( 1.00)
        N              5.00    14.00700     N ( 1.00)

     No symmetry found


                                    s                        frac. trans.

      isym =  1     identity                                     

 cryst.   s( 1) = (     1          0          0      )
                  (     0          1          0      )
                  (     0          0          1      )

 cart.    s( 1) = (  1.0000000  0.0000000  0.0000000 )
                  (  0.0000000  1.0000000  0.0000000 )
                  (  0.0000000  0.0000000  1.0000000 )


   Cartesian axes

     site n.     atom                  positions (alat units)
         1           B   tau(   1) = (   0.0028654   0.4065771   0.4072797  )
         2           N   tau(   2) = (   0.0989016   0.2885079   0.2116045  )

   Crystallographic axes

     site n.     atom                  positions (cryst. coord.)
         1           B   tau(   1) = (  0.3789334  0.3032036  0.4738731  )
         2           N   tau(   2) = (  0.3389008  0.2467530  0.2462035  )

     number of k points=   666  Marzari-Vanderbilt smearing, width (Ry)=  0.0220
                       cart. coord. in units 2pi/alat
        k(    1) = (   0.0000000   0.0000000   0.0000000), wk =   0.0015026
        k(    2) = (   0.0000000   0.0000000   0.1057734), wk =   0.0030053
        k(    3) = (   0.0000000   0.0000000   0.2115468), wk =   0.0030053
        k(    4) = (   0.0000000   0.0000000   0.3173203), wk =   0.0030053
        k(    5) = (   0.0000000   0.0000000   0.4230937), wk =   0.0030053
        k(    6) = (   0.0000000   0.0000000   0.5288671), wk =   0.0030053
        k(    7) = (   0.0000000   0.1049728  -0.0371135), wk =   0.0030053
        k(    8) = (   0.0000000   0.1049728   0.0686599), wk =   0.0030053
        k(    9) = (   0.0000000   0.1049728   0.1744334), wk =   0.0030053
        k(   10) = (   0.0000000   0.1049728   0.2802068), wk =   0.0030053
        k(   11) = (   0.0000000   0.1049728   0.3859802), wk =   0.0030053
        k(   12) = (   0.0000000   0.1049728   0.4917536), wk =   0.0030053
        k(   13) = (   0.0000000   0.1049728  -0.5659806), wk =   0.0030053
        k(   14) = (   0.0000000   0.1049728  -0.4602072), wk =   0.0030053
        k(   15) = (   0.0000000   0.1049728  -0.3544337), wk =   0.0030053
        k(   16) = (   0.0000000   0.1049728  -0.2486603), wk =   0.0030053
        k(   17) = (   0.0000000   0.1049728  -0.1428869), wk =   0.0030053
        k(   18) = (   0.0000000   0.2099456  -0.0742270), wk =   0.0030053
        k(   19) = (   0.0000000   0.2099456   0.0315465), wk =   0.0030053
        k(   20) = (   0.0000000   0.2099456   0.1373199), wk =   0.0030053
        k(   21) = (   0.0000000   0.2099456   0.2430933), wk =   0.0030053
        k(   22) = (   0.0000000   0.2099456   0.3488667), wk =   0.0030053
        k(   23) = (   0.0000000   0.2099456   0.4546401), wk =   0.0030053
        k(   24) = (   0.0000000   0.2099456  -0.6030941), wk =   0.0030053
        k(   25) = (   0.0000000   0.2099456  -0.4973206), wk =   0.0030053
        k(   26) = (   0.0000000   0.2099456  -0.3915472), wk =   0.0030053
        k(   27) = (   0.0000000   0.2099456  -0.2857738), wk =   0.0030053
        k(   28) = (   0.0000000   0.2099456  -0.1800004), wk =   0.0030053
        k(   29) = (   0.0000000   0.3149183  -0.1113404), wk =   0.0030053
        k(   30) = (   0.0000000   0.3149183  -0.0055670), wk =   0.0030053
        k(   31) = (   0.0000000   0.3149183   0.1002064), wk =   0.0030053
        k(   32) = (   0.0000000   0.3149183   0.2059798), wk =   0.0030053
        k(   33) = (   0.0000000   0.3149183   0.3117532), wk =   0.0030053
        k(   34) = (   0.0000000   0.3149183   0.4175267), wk =   0.0030053
        k(   35) = (   0.0000000   0.3149183  -0.6402075), wk =   0.0030053
        k(   36) = (   0.0000000   0.3149183  -0.5344341), wk =   0.0030053
        k(   37) = (   0.0000000   0.3149183  -0.4286607), wk =   0.0030053
        k(   38) = (   0.0000000   0.3149183  -0.3228873), wk =   0.0030053
        k(   39) = (   0.0000000   0.3149183  -0.2171139), wk =   0.0030053
        k(   40) = (   0.0000000   0.4198911  -0.1484539), wk =   0.0030053
        k(   41) = (   0.0000000   0.4198911  -0.0426805), wk =   0.0030053
        k(   42) = (   0.0000000   0.4198911   0.0630929), wk =   0.0030053
        k(   43) = (   0.0000000   0.4198911   0.1688663), wk =   0.0030053
        k(   44) = (   0.0000000   0.4198911   0.2746398), wk =   0.0030053
        k(   45) = (   0.0000000   0.4198911   0.3804132), wk =   0.0030053
        k(   46) = (   0.0000000   0.4198911  -0.6773210), wk =   0.0030053
        k(   47) = (   0.0000000   0.4198911  -0.5715476), wk =   0.0030053
        k(   48) = (   0.0000000   0.4198911  -0.4657742), wk =   0.0030053
        k(   49) = (   0.0000000   0.4198911  -0.3600008), wk =   0.0030053
        k(   50) = (   0.0000000   0.4198911  -0.2542273), wk =   0.0030053
        k(   51) = (   0.0000000   0.5248639  -0.1855674), wk =   0.0030053
        k(   52) = (   0.0000000   0.5248639  -0.0797940), wk =   0.0030053
        k(   53) = (   0.0000000   0.5248639   0.0259794), wk =   0.0030053
        k(   54) = (   0.0000000   0.5248639   0.1317529), wk =   0.0030053
        k(   55) = (   0.0000000   0.5248639   0.2375263), wk =   0.0030053
        k(   56) = (   0.0000000   0.5248639   0.3432997), wk =   0.0030053
        k(   57) = (   0.0000000   0.5248639  -0.7144345), wk =   0.0030053
        k(   58) = (   0.0000000   0.5248639  -0.6086611), wk =   0.0030053
        k(   59) = (   0.0000000   0.5248639  -0.5028877), wk =   0.0030053
        k(   60) = (   0.0000000   0.5248639  -0.3971142), wk =   0.0030053
        k(   61) = (   0.0000000   0.5248639  -0.2913408), wk =   0.0030053
        k(   62) = (   0.0909091   0.0524864   0.0315465), wk =   0.0030053
        k(   63) = (   0.0909091   0.0524864   0.1373199), wk =   0.0030053
        k(   64) = (   0.0909091   0.0524864   0.2430933), wk =   0.0030053
        k(   65) = (   0.0909091   0.0524864   0.3488667), wk =   0.0030053
        k(   66) = (   0.0909091   0.0524864   0.4546401), wk =   0.0030053
        k(   67) = (   0.0909091   0.0524864   0.5604136), wk =   0.0030053
        k(   68) = (   0.0909091   0.0524864  -0.4973206), wk =   0.0030053
        k(   69) = (   0.0909091   0.0524864  -0.3915472), wk =   0.0030053
        k(   70) = (   0.0909091   0.0524864  -0.2857738), wk =   0.0030053
        k(   71) = (   0.0909091   0.0524864  -0.1800004), wk =   0.0030053
        k(   72) = (   0.0909091   0.0524864  -0.0742270), wk =   0.0030053
        k(   73) = (   0.0909091   0.1574592  -0.0055670), wk =   0.0030053
        k(   74) = (   0.0909091   0.1574592   0.1002064), wk =   0.0030053
        k(   75) = (   0.0909091   0.1574592   0.2059798), wk =   0.0030053
        k(   76) = (   0.0909091   0.1574592   0.3117532), wk =   0.0030053
        k(   77) = (   0.0909091   0.1574592   0.4175267), wk =   0.0030053
        k(   78) = (   0.0909091   0.1574592   0.5233001), wk =   0.0030053
        k(   79) = (   0.0909091   0.1574592  -0.5344341), wk =   0.0030053
        k(   80) = (   0.0909091   0.1574592  -0.4286607), wk =   0.0030053
        k(   81) = (   0.0909091   0.1574592  -0.3228873), wk =   0.0030053
        k(   82) = (   0.0909091   0.1574592  -0.2171139), wk =   0.0030053
        k(   83) = (   0.0909091   0.1574592  -0.1113404), wk =   0.0030053
        k(   84) = (   0.0909091   0.2624319  -0.0426805), wk =   0.0030053
        k(   85) = (   0.0909091   0.2624319   0.0630929), wk =   0.0030053
        k(   86) = (   0.0909091   0.2624319   0.1688663), wk =   0.0030053
        k(   87) = (   0.0909091   0.2624319   0.2746398), wk =   0.0030053
        k(   88) = (   0.0909091   0.2624319   0.3804132), wk =   0.0030053
        k(   89) = (   0.0909091   0.2624319   0.4861866), wk =   0.0030053
        k(   90) = (   0.0909091   0.2624319  -0.5715476), wk =   0.0030053
        k(   91) = (   0.0909091   0.2624319  -0.4657742), wk =   0.0030053
        k(   92) = (   0.0909091   0.2624319  -0.3600008), wk =   0.0030053
        k(   93) = (   0.0909091   0.2624319  -0.2542273), wk =   0.0030053
        k(   94) = (   0.0909091   0.2624319  -0.1484539), wk =   0.0030053
        k(   95) = (   0.0909091   0.3674047  -0.0797940), wk =   0.0030053
        k(   96) = (   0.0909091   0.3674047   0.0259794), wk =   0.0030053
        k(   97) = (   0.0909091   0.3674047   0.1317529), wk =   0.0030053
        k(   98) = (   0.0909091   0.3674047   0.2375263), wk =   0.0030053
        k(   99) = (   0.0909091   0.3674047   0.3432997), wk =   0.0030053
        k(  100) = (   0.0909091   0.3674047   0.4490731), wk =   0.0030053
        k(  101) = (   0.0909091   0.3674047  -0.6086611), wk =   0.0030053
        k(  102) = (   0.0909091   0.3674047  -0.5028877), wk =   0.0030053
        k(  103) = (   0.0909091   0.3674047  -0.3971142), wk =   0.0030053
        k(  104) = (   0.0909091   0.3674047  -0.2913408), wk =   0.0030053
        k(  105) = (   0.0909091   0.3674047  -0.1855674), wk =   0.0030053
        k(  106) = (   0.0909091   0.4723775  -0.1169075), wk =   0.0030053
        k(  107) = (   0.0909091   0.4723775  -0.0111340), wk =   0.0030053
        k(  108) = (   0.0909091   0.4723775   0.0946394), wk =   0.0030053
        k(  109) = (   0.0909091   0.4723775   0.2004128), wk =   0.0030053
        k(  110) = (   0.0909091   0.4723775   0.3061862), wk =   0.0030053
        k(  111) = (   0.0909091   0.4723775   0.4119596), wk =   0.0030053
        k(  112) = (   0.0909091   0.4723775  -0.6457746), wk =   0.0030053
        k(  113) = (   0.0909091   0.4723775  -0.5400011), wk =   0.0030053
        k(  114) = (   0.0909091   0.4723775  -0.4342277), wk =   0.0030053
        k(  115) = (   0.0909091   0.4723775  -0.3284543), wk =   0.0030053
        k(  116) = (   0.0909091   0.4723775  -0.2226809), wk =   0.0030053
        k(  117) = (   0.0909091   0.5773503  -0.1540209), wk =   0.0030053
        k(  118) = (   0.0909091   0.5773503  -0.0482475), wk =   0.0030053
        k(  119) = (   0.0909091   0.5773503   0.0575259), wk =   0.0030053
        k(  120) = (   0.0909091   0.5773503   0.1632993), wk =   0.0030053
        k(  121) = (   0.0909091   0.5773503   0.2690727), wk =   0.0030053
        k(  122) = (   0.0909091   0.5773503   0.3748462), wk =   0.0030053
        k(  123) = (   0.0909091   0.5773503  -0.6828880), wk =   0.0030053
        k(  124) = (   0.0909091   0.5773503  -0.5771146), wk =   0.0030053
        k(  125) = (   0.0909091   0.5773503  -0.4713412), wk =   0.0030053
        k(  126) = (   0.0909091   0.5773503  -0.3655678), wk =   0.0030053
        k(  127) = (   0.0909091   0.5773503  -0.2597944), wk =   0.0030053
        k(  128) = (   0.0909091  -0.4723775   0.2171139), wk =   0.0030053
        k(  129) = (   0.0909091  -0.4723775   0.3228873), wk =   0.0030053
        k(  130) = (   0.0909091  -0.4723775   0.4286607), wk =   0.0030053
        k(  131) = (   0.0909091  -0.4723775   0.5344341), wk =   0.0030053
        k(  132) = (   0.0909091  -0.4723775   0.6402075), wk =   0.0030053
        k(  133) = (   0.0909091  -0.4723775   0.7459810), wk =   0.0030053
        k(  134) = (   0.0909091  -0.4723775  -0.3117532), wk =   0.0030053
        k(  135) = (   0.0909091  -0.4723775  -0.2059798), wk =   0.0030053
        k(  136) = (   0.0909091  -0.4723775  -0.1002064), wk =   0.0030053
        k(  137) = (   0.0909091  -0.4723775   0.0055670), wk =   0.0030053
        k(  138) = (   0.0909091  -0.4723775   0.1113404), wk =   0.0030053
        k(  139) = (   0.0909091  -0.3674047   0.1800004), wk =   0.0030053
        k(  140) = (   0.0909091  -0.3674047   0.2857738), wk =   0.0030053
        k(  141) = (   0.0909091  -0.3674047   0.3915472), wk =   0.0030053
        k(  142) = (   0.0909091  -0.3674047   0.4973206), wk =   0.0030053
        k(  143) = (   0.0909091  -0.3674047   0.6030941), wk =   0.0030053
        k(  144) = (   0.0909091  -0.3674047   0.7088675), wk =   0.0030053
        k(  145) = (   0.0909091  -0.3674047  -0.3488667), wk =   0.0030053
        k(  146) = (   0.0909091  -0.3674047  -0.2430933), wk =   0.0030053
        k(  147) = (   0.0909091  -0.3674047  -0.1373199), wk =   0.0030053
        k(  148) = (   0.0909091  -0.3674047  -0.0315465), wk =   0.0030053
        k(  149) = (   0.0909091  -0.3674047   0.0742270), wk =   0.0030053
        k(  150) = (   0.0909091  -0.2624319   0.1428869), wk =   0.0030053
        k(  151) = (   0.0909091  -0.2624319   0.2486603), wk =   0.0030053
        k(  152) = (   0.0909091  -0.2624319   0.3544337), wk =   0.0030053
        k(  153) = (   0.0909091  -0.2624319   0.4602072), wk =   0.0030053
        k(  154) = (   0.0909091  -0.2624319   0.5659806), wk =   0.0030053
        k(  155) = (   0.0909091  -0.2624319   0.6717540), wk =   0.0030053
        k(  156) = (   0.0909091  -0.2624319  -0.3859802), wk =   0.0030053
        k(  157) = (   0.0909091  -0.2624319  -0.2802068), wk =   0.0030053
        k(  158) = (   0.0909091  -0.2624319  -0.1744334), wk =   0.0030053
        k(  159) = (   0.0909091  -0.2624319  -0.0686599), wk =   0.0030053
        k(  160) = (   0.0909091  -0.2624319   0.0371135), wk =   0.0030053
        k(  161) = (   0.0909091  -0.1574592   0.1057734), wk =   0.0030053
        k(  162) = (   0.0909091  -0.1574592   0.2115468), wk =   0.0030053
        k(  163) = (   0.0909091  -0.1574592   0.3173203), wk =   0.0030053
        k(  164) = (   0.0909091  -0.1574592   0.4230937), wk =   0.0030053
        k(  165) = (   0.0909091  -0.1574592   0.5288671), wk =   0.0030053
        k(  166) = (   0.0909091  -0.1574592  -0.0000000), wk =   0.0030053
        k(  167) = (   0.1818182   0.1049728   0.0630929), wk =   0.0030053
        k(  168) = (   0.1818182   0.1049728   0.1688663), wk =   0.0030053
        k(  169) = (   0.1818182   0.1049728   0.2746398), wk =   0.0030053
        k(  170) = (   0.1818182   0.1049728   0.3804132), wk =   0.0030053
        k(  171) = (   0.1818182   0.1049728   0.4861866), wk =   0.0030053
        k(  172) = (   0.1818182   0.1049728   0.5919600), wk =   0.0030053
        k(  173) = (   0.1818182   0.1049728  -0.4657742), wk =   0.0030053
        k(  174) = (   0.1818182   0.1049728  -0.3600008), wk =   0.0030053
        k(  175) = (   0.1818182   0.1049728  -0.2542273), wk =   0.0030053
        k(  176) = (   0.1818182   0.1049728  -0.1484539), wk =   0.0030053
        k(  177) = (   0.1818182   0.1049728  -0.0426805), wk =   0.0030053
        k(  178) = (   0.1818182   0.2099456   0.0259794), wk =   0.0030053
        k(  179) = (   0.1818182   0.2099456   0.1317529), wk =   0.0030053
        k(  180) = (   0.1818182   0.2099456   0.2375263), wk =   0.0030053
        k(  181) = (   0.1818182   0.2099456   0.3432997), wk =   0.0030053
        k(  182) = (   0.1818182   0.2099456   0.4490731), wk =   0.0030053
        k(  183) = (   0.1818182   0.2099456   0.5548465), wk =   0.0030053
        k(  184) = (   0.1818182   0.2099456  -0.5028877), wk =   0.0030053
        k(  185) = (   0.1818182   0.2099456  -0.3971142), wk =   0.0030053
        k(  186) = (   0.1818182   0.2099456  -0.2913408), wk =   0.0030053
        k(  187) = (   0.1818182   0.2099456  -0.1855674), wk =   0.0030053
        k(  188) = (   0.1818182   0.2099456  -0.0797940), wk =   0.0030053
        k(  189) = (   0.1818182   0.3149183  -0.0111340), wk =   0.0030053
        k(  190) = (   0.1818182   0.3149183   0.0946394), wk =   0.0030053
        k(  191) = (   0.1818182   0.3149183   0.2004128), wk =   0.0030053
        k(  192) = (   0.1818182   0.3149183   0.3061862), wk =   0.0030053
        k(  193) = (   0.1818182   0.3149183   0.4119596), wk =   0.0030053
        k(  194) = (   0.1818182   0.3149183   0.5177331), wk =   0.0030053
        k(  195) = (   0.1818182   0.3149183  -0.5400011), wk =   0.0030053
        k(  196) = (   0.1818182   0.3149183  -0.4342277), wk =   0.0030053
        k(  197) = (   0.1818182   0.3149183  -0.3284543), wk =   0.0030053
        k(  198) = (   0.1818182   0.3149183  -0.2226809), wk =   0.0030053
        k(  199) = (   0.1818182   0.3149183  -0.1169075), wk =   0.0030053
        k(  200) = (   0.1818182   0.4198911  -0.0482475), wk =   0.0030053
        k(  201) = (   0.1818182   0.4198911   0.0575259), wk =   0.0030053
        k(  202) = (   0.1818182   0.4198911   0.1632993), wk =   0.0030053
        k(  203) = (   0.1818182   0.4198911   0.2690727), wk =   0.0030053
        k(  204) = (   0.1818182   0.4198911   0.3748462), wk =   0.0030053
        k(  205) = (   0.1818182   0.4198911   0.4806196), wk =   0.0030053
        k(  206) = (   0.1818182   0.4198911  -0.5771146), wk =   0.0030053
        k(  207) = (   0.1818182   0.4198911  -0.4713412), wk =   0.0030053
        k(  208) = (   0.1818182   0.4198911  -0.3655678), wk =   0.0030053
        k(  209) = (   0.1818182   0.4198911  -0.2597944), wk =   0.0030053
        k(  210) = (   0.1818182   0.4198911  -0.1540209), wk =   0.0030053
        k(  211) = (   0.1818182   0.5248639  -0.0853610), wk =   0.0030053
        k(  212) = (   0.1818182   0.5248639   0.0204124), wk =   0.0030053
        k(  213) = (   0.1818182   0.5248639   0.1261858), wk =   0.0030053
        k(  214) = (   0.1818182   0.5248639   0.2319593), wk =   0.0030053
        k(  215) = (   0.1818182   0.5248639   0.3377327), wk =   0.0030053
        k(  216) = (   0.1818182   0.5248639   0.4435061), wk =   0.0030053
        k(  217) = (   0.1818182   0.5248639  -0.6142281), wk =   0.0030053
        k(  218) = (   0.1818182   0.5248639  -0.5084547), wk =   0.0030053
        k(  219) = (   0.1818182   0.5248639  -0.4026813), wk =   0.0030053
        k(  220) = (   0.1818182   0.5248639  -0.2969078), wk =   0.0030053
        k(  221) = (   0.1818182   0.5248639  -0.1911344), wk =   0.0030053
        k(  222) = (   0.1818182   0.6298367  -0.1224745), wk =   0.0030053
        k(  223) = (   0.1818182   0.6298367  -0.0167011), wk =   0.0030053
        k(  224) = (   0.1818182   0.6298367   0.0890724), wk =   0.0030053
        k(  225) = (   0.1818182   0.6298367   0.1948458), wk =   0.0030053
        k(  226) = (   0.1818182   0.6298367   0.3006192), wk =   0.0030053
        k(  227) = (   0.1818182   0.6298367   0.4063926), wk =   0.0030053
        k(  228) = (   0.1818182   0.6298367  -0.6513416), wk =   0.0030053
        k(  229) = (   0.1818182   0.6298367  -0.5455682), wk =   0.0030053
        k(  230) = (   0.1818182   0.6298367  -0.4397947), wk =   0.0030053
        k(  231) = (   0.1818182   0.6298367  -0.3340213), wk =   0.0030053
        k(  232) = (   0.1818182   0.6298367  -0.2282479), wk =   0.0030053
        k(  233) = (   0.1818182  -0.4198911   0.2486603), wk =   0.0030053
        k(  234) = (   0.1818182  -0.4198911   0.3544337), wk =   0.0030053
        k(  235) = (   0.1818182  -0.4198911   0.4602072), wk =   0.0030053
        k(  236) = (   0.1818182  -0.4198911   0.5659806), wk =   0.0030053
        k(  237) = (   0.1818182  -0.4198911   0.6717540), wk =   0.0030053
        k(  238) = (   0.1818182  -0.4198911   0.7775274), wk =   0.0030053
        k(  239) = (   0.1818182  -0.4198911  -0.2802068), wk =   0.0030053
        k(  240) = (   0.1818182  -0.4198911  -0.1744334), wk =   0.0030053
        k(  241) = (   0.1818182  -0.4198911  -0.0686599), wk =   0.0030053
        k(  242) = (   0.1818182  -0.4198911   0.0371135), wk =   0.0030053
        k(  243) = (   0.1818182  -0.4198911   0.1428869), wk =   0.0030053
        k(  244) = (   0.1818182  -0.3149183   0.2115468), wk =   0.0030053
        k(  245) = (   0.1818182  -0.3149183   0.3173203), wk =   0.0030053
        k(  246) = (   0.1818182  -0.3149183   0.4230937), wk =   0.0030053
        k(  247) = (   0.1818182  -0.3149183   0.5288671), wk =   0.0030053
        k(  248) = (   0.1818182  -0.3149183  -0.1057734), wk =   0.0030053
        k(  249) = (   0.1818182  -0.3149183  -0.0000000), wk =   0.0030053
        k(  250) = (   0.2727273   0.1574592   0.0946394), wk =   0.0030053
        k(  251) = (   0.2727273   0.1574592   0.2004128), wk =   0.0030053
        k(  252) = (   0.2727273   0.1574592   0.3061862), wk =   0.0030053
        k(  253) = (   0.2727273   0.1574592   0.4119596), wk =   0.0030053
        k(  254) = (   0.2727273   0.1574592   0.5177331), wk =   0.0030053
        k(  255) = (   0.2727273   0.1574592   0.6235065), wk =   0.0030053
        k(  256) = (   0.2727273   0.1574592  -0.4342277), wk =   0.0030053
        k(  257) = (   0.2727273   0.1574592  -0.3284543), wk =   0.0030053
        k(  258) = (   0.2727273   0.1574592  -0.2226809), wk =   0.0030053
        k(  259) = (   0.2727273   0.1574592  -0.1169075), wk =   0.0030053
        k(  260) = (   0.2727273   0.1574592  -0.0111340), wk =   0.0030053
        k(  261) = (   0.2727273   0.2624319   0.0575259), wk =   0.0030053
        k(  262) = (   0.2727273   0.2624319   0.1632993), wk =   0.0030053
        k(  263) = (   0.2727273   0.2624319   0.2690727), wk =   0.0030053
        k(  264) = (   0.2727273   0.2624319   0.3748462), wk =   0.0030053
        k(  265) = (   0.2727273   0.2624319   0.4806196), wk =   0.0030053
        k(  266) = (   0.2727273   0.2624319   0.5863930), wk =   0.0030053
        k(  267) = (   0.2727273   0.2624319  -0.4713412), wk =   0.0030053
        k(  268) = (   0.2727273   0.2624319  -0.3655678), wk =   0.0030053
        k(  269) = (   0.2727273   0.2624319  -0.2597944), wk =   0.0030053
        k(  270) = (   0.2727273   0.2624319  -0.1540209), wk =   0.0030053
        k(  271) = (   0.2727273   0.2624319  -0.0482475), wk =   0.0030053
        k(  272) = (   0.2727273   0.3674047   0.0204124), wk =   0.0030053
        k(  273) = (   0.2727273   0.3674047   0.1261858), wk =   0.0030053
        k(  274) = (   0.2727273   0.3674047   0.2319593), wk =   0.0030053
        k(  275) = (   0.2727273   0.3674047   0.3377327), wk =   0.0030053
        k(  276) = (   0.2727273   0.3674047   0.4435061), wk =   0.0030053
        k(  277) = (   0.2727273   0.3674047   0.5492795), wk =   0.0030053
        k(  278) = (   0.2727273   0.3674047  -0.5084547), wk =   0.0030053
        k(  279) = (   0.2727273   0.3674047  -0.4026813), wk =   0.0030053
        k(  280) = (   0.2727273   0.3674047  -0.2969078), wk =   0.0030053
        k(  281) = (   0.2727273   0.3674047  -0.1911344), wk =   0.0030053
        k(  282) = (   0.2727273   0.3674047  -0.0853610), wk =   0.0030053
        k(  283) = (   0.2727273   0.4723775  -0.0167011), wk =   0.0030053
        k(  284) = (   0.2727273   0.4723775   0.0890724), wk =   0.0030053
        k(  285) = (   0.2727273   0.4723775   0.1948458), wk =   0.0030053
        k(  286) = (   0.2727273   0.4723775   0.3006192), wk =   0.0030053
        k(  287) = (   0.2727273   0.4723775   0.4063926), wk =   0.0030053
        k(  288) = (   0.2727273   0.4723775   0.5121660), wk =   0.0030053
        k(  289) = (   0.2727273   0.4723775  -0.5455682), wk =   0.0030053
        k(  290) = (   0.2727273   0.4723775  -0.4397947), wk =   0.0030053
        k(  291) = (   0.2727273   0.4723775  -0.3340213), wk =   0.0030053
        k(  292) = (   0.2727273   0.4723775  -0.2282479), wk =   0.0030053
        k(  293) = (   0.2727273   0.4723775  -0.1224745), wk =   0.0030053
        k(  294) = (   0.2727273   0.5773503  -0.0538145), wk =   0.0030053
        k(  295) = (   0.2727273   0.5773503   0.0519589), wk =   0.0030053
        k(  296) = (   0.2727273   0.5773503   0.1577323), wk =   0.0030053
        k(  297) = (   0.2727273   0.5773503   0.2635057), wk =   0.0030053
        k(  298) = (   0.2727273   0.5773503   0.3692791), wk =   0.0030053
        k(  299) = (   0.2727273   0.5773503   0.4750526), wk =   0.0030053
        k(  300) = (   0.2727273   0.5773503  -0.5826817), wk =   0.0030053
        k(  301) = (   0.2727273   0.5773503  -0.4769082), wk =   0.0030053
        k(  302) = (   0.2727273   0.5773503  -0.3711348), wk =   0.0030053
        k(  303) = (   0.2727273   0.5773503  -0.2653614), wk =   0.0030053
        k(  304) = (   0.2727273   0.5773503  -0.1595880), wk =   0.0030053
        k(  305) = (   0.2727273   0.6823230  -0.0909280), wk =   0.0030053
        k(  306) = (   0.2727273   0.6823230   0.0148454), wk =   0.0030053
        k(  307) = (   0.2727273   0.6823230   0.1206188), wk =   0.0030053
        k(  308) = (   0.2727273   0.6823230  -0.6197951), wk =   0.0030053
        k(  309) = (   0.2727273   0.6823230  -0.5140217), wk =   0.0030053
        k(  310) = (   0.2727273   0.6823230  -0.4082483), wk =   0.0030053
        k(  311) = (   0.3636364   0.2099456   0.1261858), wk =   0.0030053
        k(  312) = (   0.3636364   0.2099456   0.2319593), wk =   0.0030053
        k(  313) = (   0.3636364   0.2099456   0.3377327), wk =   0.0030053
        k(  314) = (   0.3636364   0.2099456   0.4435061), wk =   0.0030053
        k(  315) = (   0.3636364   0.2099456   0.5492795), wk =   0.0030053
        k(  316) = (   0.3636364   0.2099456   0.6550529), wk =   0.0030053
        k(  317) = (   0.3636364   0.2099456  -0.4026813), wk =   0.0030053
        k(  318) = (   0.3636364   0.2099456  -0.2969078), wk =   0.0030053
        k(  319) = (   0.3636364   0.2099456  -0.1911344), wk =   0.0030053
        k(  320) = (   0.3636364   0.2099456  -0.0853610), wk =   0.0030053
        k(  321) = (   0.3636364   0.2099456   0.0204124), wk =   0.0030053
        k(  322) = (   0.3636364   0.3149183   0.0890724), wk =   0.0030053
        k(  323) = (   0.3636364   0.3149183   0.1948458), wk =   0.0030053
        k(  324) = (   0.3636364   0.3149183   0.3006192), wk =   0.0030053
        k(  325) = (   0.3636364   0.3149183   0.4063926), wk =   0.0030053
        k(  326) = (   0.3636364   0.3149183   0.5121660), wk =   0.0030053
        k(  327) = (   0.3636364   0.3149183   0.6179395), wk =   0.0030053
        k(  328) = (   0.3636364   0.3149183  -0.4397947), wk =   0.0030053
        k(  329) = (   0.3636364   0.3149183  -0.3340213), wk =   0.0030053
        k(  330) = (   0.3636364   0.3149183  -0.2282479), wk =   0.0030053
        k(  331) = (   0.3636364   0.3149183  -0.1224745), wk =   0.0030053
        k(  332) = (   0.3636364   0.3149183  -0.0167011), wk =   0.0030053
        k(  333) = (   0.3636364   0.4198911   0.0519589), wk =   0.0030053
        k(  334) = (   0.3636364   0.4198911   0.1577323), wk =   0.0030053
        k(  335) = (   0.3636364   0.4198911   0.2635057), wk =   0.0030053
        k(  336) = (   0.3636364   0.4198911   0.3692791), wk =   0.0030053
        k(  337) = (   0.3636364   0.4198911   0.4750526), wk =   0.0030053
        k(  338) = (   0.3636364   0.4198911   0.5808260), wk =   0.0030053
        k(  339) = (   0.3636364   0.4198911  -0.4769082), wk =   0.0030053
        k(  340) = (   0.3636364   0.4198911  -0.3711348), wk =   0.0030053
        k(  341) = (   0.3636364   0.4198911  -0.2653614), wk =   0.0030053
        k(  342) = (   0.3636364   0.4198911  -0.1595880), wk =   0.0030053
        k(  343) = (   0.3636364   0.4198911  -0.0538145), wk =   0.0030053
        k(  344) = (   0.3636364   0.5248639   0.0148454), wk =   0.0030053
        k(  345) = (   0.3636364   0.5248639   0.1206188), wk =   0.0030053
        k(  346) = (   0.3636364   0.5248639   0.4379391), wk =   0.0030053
        k(  347) = (   0.3636364   0.5248639   0.5437125), wk =   0.0030053
        k(  348) = (   0.3636364   0.5248639  -0.5140217), wk =   0.0030053
        k(  349) = (   0.3636364   0.5248639  -0.4082483), wk =   0.0030053
        k(  350) = (   0.4545455   0.2624319   0.1577323), wk =   0.0030053
        k(  351) = (   0.4545455   0.2624319   0.2635057), wk =   0.0030053
        k(  352) = (   0.4545455   0.2624319   0.3692791), wk =   0.0030053
        k(  353) = (   0.4545455   0.2624319   0.4750526), wk =   0.0030053
        k(  354) = (   0.4545455   0.2624319   0.5808260), wk =   0.0030053
        k(  355) = (   0.4545455   0.2624319   0.6865994), wk =   0.0030053
        k(  356) = (   0.4545455   0.2624319  -0.3711348), wk =   0.0030053
        k(  357) = (   0.4545455   0.2624319  -0.2653614), wk =   0.0030053
        k(  358) = (   0.4545455   0.2624319  -0.1595880), wk =   0.0030053
        k(  359) = (   0.4545455   0.2624319  -0.0538145), wk =   0.0030053
        k(  360) = (   0.4545455   0.2624319   0.0519589), wk =   0.0030053
        k(  361) = (   0.4545455   0.3674047   0.1206188), wk =   0.0030053
        k(  362) = (   0.4545455   0.3674047   0.3321657), wk =   0.0030053
        k(  363) = (   0.4545455   0.3674047   0.4379391), wk =   0.0030053
        k(  364) = (   0.4545455   0.3674047   0.5437125), wk =   0.0030053
        k(  365) = (   0.4545455   0.3674047   0.6494859), wk =   0.0030053
        k(  366) = (   0.4545455   0.3674047  -0.4082483), wk =   0.0030053
        k(  367) = (  -0.0909091   0.0524864   0.0371135), wk =   0.0030053
        k(  368) = (  -0.0909091   0.0524864  -0.0686599), wk =   0.0030053
        k(  369) = (  -0.0909091   0.0524864  -0.1744334), wk =   0.0030053
        k(  370) = (  -0.0909091   0.0524864  -0.2802068), wk =   0.0030053
        k(  371) = (  -0.0909091   0.0524864  -0.3859802), wk =   0.0030053
        k(  372) = (  -0.0909091   0.0524864  -0.4917536), wk =   0.0030053
        k(  373) = (  -0.0909091   0.0524864   0.5659806), wk =   0.0030053
        k(  374) = (  -0.0909091   0.0524864   0.4602072), wk =   0.0030053
        k(  375) = (  -0.0909091   0.0524864   0.3544337), wk =   0.0030053
        k(  376) = (  -0.0909091   0.0524864   0.2486603), wk =   0.0030053
        k(  377) = (  -0.0909091   0.0524864   0.1428869), wk =   0.0030053
        k(  378) = (  -0.1818182   0.1049728   0.0742270), wk =   0.0030053
        k(  379) = (  -0.1818182   0.1049728  -0.0315465), wk =   0.0030053
        k(  380) = (  -0.1818182   0.1049728  -0.1373199), wk =   0.0030053
        k(  381) = (  -0.1818182   0.1049728  -0.2430933), wk =   0.0030053
        k(  382) = (  -0.1818182   0.1049728  -0.3488667), wk =   0.0030053
        k(  383) = (  -0.1818182   0.1049728  -0.4546401), wk =   0.0030053
        k(  384) = (  -0.1818182   0.1049728   0.6030941), wk =   0.0030053
        k(  385) = (  -0.1818182   0.1049728   0.4973206), wk =   0.0030053
        k(  386) = (  -0.1818182   0.1049728   0.3915472), wk =   0.0030053
        k(  387) = (  -0.1818182   0.1049728   0.2857738), wk =   0.0030053
        k(  388) = (  -0.1818182   0.1049728   0.1800004), wk =   0.0030053
        k(  389) = (  -0.2727273   0.1574592   0.1113404), wk =   0.0030053
        k(  390) = (  -0.2727273   0.1574592   0.0055670), wk =   0.0030053
        k(  391) = (  -0.2727273   0.1574592  -0.1002064), wk =   0.0030053
        k(  392) = (  -0.2727273   0.1574592  -0.2059798), wk =   0.0030053
        k(  393) = (  -0.2727273   0.1574592  -0.3117532), wk =   0.0030053
        k(  394) = (  -0.2727273   0.1574592  -0.4175267), wk =   0.0030053
        k(  395) = (  -0.2727273   0.1574592   0.6402075), wk =   0.0030053
        k(  396) = (  -0.2727273   0.1574592   0.5344341), wk =   0.0030053
        k(  397) = (  -0.2727273   0.1574592   0.4286607), wk =   0.0030053
        k(  398) = (  -0.2727273   0.1574592   0.3228873), wk =   0.0030053
        k(  399) = (  -0.2727273   0.1574592   0.2171139), wk =   0.0030053
        k(  400) = (  -0.3636364   0.2099456   0.1484539), wk =   0.0030053
        k(  401) = (  -0.3636364   0.2099456   0.0426805), wk =   0.0030053
        k(  402) = (  -0.3636364   0.2099456  -0.0630929), wk =   0.0030053
        k(  403) = (  -0.3636364   0.2099456  -0.1688663), wk =   0.0030053
        k(  404) = (  -0.3636364   0.2099456  -0.2746398), wk =   0.0030053
        k(  405) = (  -0.3636364   0.2099456  -0.3804132), wk =   0.0030053
        k(  406) = (  -0.3636364   0.2099456   0.6773210), wk =   0.0030053
        k(  407) = (  -0.3636364   0.2099456   0.5715476), wk =   0.0030053
        k(  408) = (  -0.3636364   0.2099456   0.4657742), wk =   0.0030053
        k(  409) = (  -0.3636364   0.2099456   0.3600008), wk =   0.0030053
        k(  410) = (  -0.3636364   0.2099456   0.2542273), wk =   0.0030053
        k(  411) = (  -0.4545455   0.2624319   0.1855674), wk =   0.0030053
        k(  412) = (  -0.4545455   0.2624319   0.0797940), wk =   0.0030053
        k(  413) = (  -0.4545455   0.2624319  -0.0259794), wk =   0.0030053
        k(  414) = (  -0.4545455   0.2624319  -0.1317529), wk =   0.0030053
        k(  415) = (  -0.4545455   0.2624319  -0.2375263), wk =   0.0030053
        k(  416) = (  -0.4545455   0.2624319  -0.3432997), wk =   0.0030053
        k(  417) = (  -0.4545455   0.2624319   0.7144345), wk =   0.0030053
        k(  418) = (  -0.4545455   0.2624319   0.6086611), wk =   0.0030053
        k(  419) = (  -0.4545455   0.2624319   0.5028877), wk =   0.0030053
        k(  420) = (  -0.4545455   0.2624319   0.3971142), wk =   0.0030053
        k(  421) = (  -0.4545455   0.2624319   0.2913408), wk =   0.0030053
        k(  422) = (  -0.1818182   0.0000000   0.0055670), wk =   0.0030053
        k(  423) = (  -0.1818182   0.0000000  -0.1002064), wk =   0.0030053
        k(  424) = (  -0.1818182   0.0000000  -0.2059798), wk =   0.0030053
        k(  425) = (  -0.1818182   0.0000000  -0.3117532), wk =   0.0030053
        k(  426) = (  -0.1818182   0.0000000  -0.4175267), wk =   0.0030053
        k(  427) = (  -0.1818182   0.0000000  -0.5233001), wk =   0.0030053
        k(  428) = (  -0.1818182   0.0000000   0.5344341), wk =   0.0030053
        k(  429) = (  -0.1818182   0.0000000   0.4286607), wk =   0.0030053
        k(  430) = (  -0.1818182   0.0000000   0.3228873), wk =   0.0030053
        k(  431) = (  -0.1818182   0.0000000   0.2171139), wk =   0.0030053
        k(  432) = (  -0.1818182   0.0000000   0.1113404), wk =   0.0030053
        k(  433) = (  -0.2727273   0.0524864   0.0426805), wk =   0.0030053
        k(  434) = (  -0.2727273   0.0524864  -0.0630929), wk =   0.0030053
        k(  435) = (  -0.2727273   0.0524864  -0.1688663), wk =   0.0030053
        k(  436) = (  -0.2727273   0.0524864  -0.2746398), wk =   0.0030053
        k(  437) = (  -0.2727273   0.0524864  -0.3804132), wk =   0.0030053
        k(  438) = (  -0.2727273   0.0524864  -0.4861866), wk =   0.0030053
        k(  439) = (  -0.2727273   0.0524864   0.5715476), wk =   0.0030053
        k(  440) = (  -0.2727273   0.0524864   0.4657742), wk =   0.0030053
        k(  441) = (  -0.2727273   0.0524864   0.3600008), wk =   0.0030053
        k(  442) = (  -0.2727273   0.0524864   0.2542273), wk =   0.0030053
        k(  443) = (  -0.2727273   0.0524864   0.1484539), wk =   0.0030053
        k(  444) = (  -0.3636364   0.1049728   0.0797940), wk =   0.0030053
        k(  445) = (  -0.3636364   0.1049728  -0.0259794), wk =   0.0030053
        k(  446) = (  -0.3636364   0.1049728  -0.1317529), wk =   0.0030053
        k(  447) = (  -0.3636364   0.1049728  -0.2375263), wk =   0.0030053
        k(  448) = (  -0.3636364   0.1049728  -0.3432997), wk =   0.0030053
        k(  449) = (  -0.3636364   0.1049728  -0.4490731), wk =   0.0030053
        k(  450) = (  -0.3636364   0.1049728   0.6086611), wk =   0.0030053
        k(  451) = (  -0.3636364   0.1049728   0.5028877), wk =   0.0030053
        k(  452) = (  -0.3636364   0.1049728   0.3971142), wk =   0.0030053
        k(  453) = (  -0.3636364   0.1049728   0.2913408), wk =   0.0030053
        k(  454) = (  -0.3636364   0.1049728   0.1855674), wk =   0.0030053
        k(  455) = (  -0.4545455   0.1574592   0.1169075), wk =   0.0030053
        k(  456) = (  -0.4545455   0.1574592   0.0111340), wk =   0.0030053
        k(  457) = (  -0.4545455   0.1574592  -0.0946394), wk =   0.0030053
        k(  458) = (  -0.4545455   0.1574592  -0.2004128), wk =   0.0030053
        k(  459) = (  -0.4545455   0.1574592  -0.3061862), wk =   0.0030053
        k(  460) = (  -0.4545455   0.1574592  -0.4119596), wk =   0.0030053
        k(  461) = (  -0.4545455   0.1574592   0.6457746), wk =   0.0030053
        k(  462) = (  -0.4545455   0.1574592   0.5400011), wk =   0.0030053
        k(  463) = (  -0.4545455   0.1574592   0.4342277), wk =   0.0030053
        k(  464) = (  -0.4545455   0.1574592   0.3284543), wk =   0.0030053
        k(  465) = (  -0.4545455   0.1574592   0.2226809), wk =   0.0030053
        k(  466) = (  -0.5454545   0.2099456   0.1540209), wk =   0.0030053
        k(  467) = (  -0.5454545   0.2099456   0.0482475), wk =   0.0030053
        k(  468) = (  -0.5454545   0.2099456  -0.0575259), wk =   0.0030053
        k(  469) = (  -0.5454545   0.2099456  -0.1632993), wk =   0.0030053
        k(  470) = (  -0.5454545   0.2099456  -0.2690727), wk =   0.0030053
        k(  471) = (  -0.5454545   0.2099456  -0.3748462), wk =   0.0030053
        k(  472) = (  -0.5454545   0.2099456   0.6828880), wk =   0.0030053
        k(  473) = (  -0.5454545   0.2099456   0.5771146), wk =   0.0030053
        k(  474) = (  -0.5454545   0.2099456   0.4713412), wk =   0.0030053
        k(  475) = (  -0.5454545   0.2099456   0.3655678), wk =   0.0030053
        k(  476) = (  -0.5454545   0.2099456   0.2597944), wk =   0.0030053
        k(  477) = (   0.3636364  -0.3149183  -0.2171139), wk =   0.0030053
        k(  478) = (   0.3636364  -0.3149183  -0.3228873), wk =   0.0030053
        k(  479) = (   0.3636364  -0.3149183  -0.4286607), wk =   0.0030053
        k(  480) = (   0.3636364  -0.3149183  -0.5344341), wk =   0.0030053
        k(  481) = (   0.3636364  -0.3149183  -0.6402075), wk =   0.0030053
        k(  482) = (   0.3636364  -0.3149183  -0.7459810), wk =   0.0030053
        k(  483) = (   0.3636364  -0.3149183   0.3117532), wk =   0.0030053
        k(  484) = (   0.3636364  -0.3149183   0.2059798), wk =   0.0030053
        k(  485) = (   0.3636364  -0.3149183   0.1002064), wk =   0.0030053
        k(  486) = (   0.3636364  -0.3149183  -0.0055670), wk =   0.0030053
        k(  487) = (   0.3636364  -0.3149183  -0.1113404), wk =   0.0030053
        k(  488) = (   0.2727273  -0.2624319  -0.1800004), wk =   0.0030053
        k(  489) = (   0.2727273  -0.2624319  -0.2857738), wk =   0.0030053
        k(  490) = (   0.2727273  -0.2624319  -0.3915472), wk =   0.0030053
        k(  491) = (   0.2727273  -0.2624319  -0.4973206), wk =   0.0030053
        k(  492) = (   0.2727273  -0.2624319  -0.6030941), wk =   0.0030053
        k(  493) = (   0.2727273  -0.2624319  -0.7088675), wk =   0.0030053
        k(  494) = (   0.2727273  -0.2624319   0.3488667), wk =   0.0030053
        k(  495) = (   0.2727273  -0.2624319   0.2430933), wk =   0.0030053
        k(  496) = (   0.2727273  -0.2624319   0.1373199), wk =   0.0030053
        k(  497) = (   0.2727273  -0.2624319   0.0315465), wk =   0.0030053
        k(  498) = (   0.2727273  -0.2624319  -0.0742270), wk =   0.0030053
        k(  499) = (   0.1818182  -0.2099456  -0.1428869), wk =   0.0030053
        k(  500) = (   0.1818182  -0.2099456  -0.2486603), wk =   0.0030053
        k(  501) = (   0.1818182  -0.2099456  -0.3544337), wk =   0.0030053
        k(  502) = (   0.1818182  -0.2099456  -0.4602072), wk =   0.0030053
        k(  503) = (   0.1818182  -0.2099456  -0.5659806), wk =   0.0030053
        k(  504) = (   0.1818182  -0.2099456  -0.6717540), wk =   0.0030053
        k(  505) = (   0.1818182  -0.2099456   0.3859802), wk =   0.0030053
        k(  506) = (   0.1818182  -0.2099456   0.2802068), wk =   0.0030053
        k(  507) = (   0.1818182  -0.2099456   0.1744334), wk =   0.0030053
        k(  508) = (   0.1818182  -0.2099456   0.0686599), wk =   0.0030053
        k(  509) = (   0.1818182  -0.2099456  -0.0371135), wk =   0.0030053
        k(  510) = (   0.0909091  -0.1574592  -0.1057734), wk =   0.0030053
        k(  511) = (   0.0909091  -0.1574592  -0.2115468), wk =   0.0030053
        k(  512) = (   0.0909091  -0.1574592  -0.3173203), wk =   0.0030053
        k(  513) = (   0.0909091  -0.1574592  -0.4230937), wk =   0.0030053
        k(  514) = (   0.0909091  -0.1574592  -0.5288671), wk =   0.0030053
        k(  515) = (  -0.2727273  -0.0524864  -0.0259794), wk =   0.0030053
        k(  516) = (  -0.2727273  -0.0524864  -0.1317529), wk =   0.0030053
        k(  517) = (  -0.2727273  -0.0524864  -0.2375263), wk =   0.0030053
        k(  518) = (  -0.2727273  -0.0524864  -0.3432997), wk =   0.0030053
        k(  519) = (  -0.2727273  -0.0524864  -0.4490731), wk =   0.0030053
        k(  520) = (  -0.2727273  -0.0524864  -0.5548465), wk =   0.0030053
        k(  521) = (  -0.2727273  -0.0524864   0.5028877), wk =   0.0030053
        k(  522) = (  -0.2727273  -0.0524864   0.3971142), wk =   0.0030053
        k(  523) = (  -0.2727273  -0.0524864   0.2913408), wk =   0.0030053
        k(  524) = (  -0.2727273  -0.0524864   0.1855674), wk =   0.0030053
        k(  525) = (  -0.2727273  -0.0524864   0.0797940), wk =   0.0030053
        k(  526) = (  -0.3636364   0.0000000   0.0111340), wk =   0.0030053
        k(  527) = (  -0.3636364   0.0000000  -0.0946394), wk =   0.0030053
        k(  528) = (  -0.3636364   0.0000000  -0.2004128), wk =   0.0030053
        k(  529) = (  -0.3636364   0.0000000  -0.3061862), wk =   0.0030053
        k(  530) = (  -0.3636364   0.0000000  -0.4119596), wk =   0.0030053
        k(  531) = (  -0.3636364   0.0000000  -0.5177331), wk =   0.0030053
        k(  532) = (  -0.3636364   0.0000000   0.5400011), wk =   0.0030053
        k(  533) = (  -0.3636364   0.0000000   0.4342277), wk =   0.0030053
        k(  534) = (  -0.3636364   0.0000000   0.3284543), wk =   0.0030053
        k(  535) = (  -0.3636364   0.0000000   0.2226809), wk =   0.0030053
        k(  536) = (  -0.3636364   0.0000000   0.1169075), wk =   0.0030053
        k(  537) = (  -0.4545455   0.0524864   0.0482475), wk =   0.0030053
        k(  538) = (  -0.4545455   0.0524864  -0.0575259), wk =   0.0030053
        k(  539) = (  -0.4545455   0.0524864  -0.1632993), wk =   0.0030053
        k(  540) = (  -0.4545455   0.0524864  -0.2690727), wk =   0.0030053
        k(  541) = (  -0.4545455   0.0524864  -0.3748462), wk =   0.0030053
        k(  542) = (  -0.4545455   0.0524864  -0.4806196), wk =   0.0030053
        k(  543) = (  -0.4545455   0.0524864   0.5771146), wk =   0.0030053
        k(  544) = (  -0.4545455   0.0524864   0.4713412), wk =   0.0030053
        k(  545) = (  -0.4545455   0.0524864   0.3655678), wk =   0.0030053
        k(  546) = (  -0.4545455   0.0524864   0.2597944), wk =   0.0030053
        k(  547) = (  -0.4545455   0.0524864   0.1540209), wk =   0.0030053
        k(  548) = (  -0.5454545   0.1049728   0.0853610), wk =   0.0030053
        k(  549) = (  -0.5454545   0.1049728  -0.0204124), wk =   0.0030053
        k(  550) = (  -0.5454545   0.1049728  -0.1261858), wk =   0.0030053
        k(  551) = (  -0.5454545   0.1049728  -0.2319593), wk =   0.0030053
        k(  552) = (  -0.5454545   0.1049728  -0.3377327), wk =   0.0030053
        k(  553) = (  -0.5454545   0.1049728  -0.4435061), wk =   0.0030053
        k(  554) = (  -0.5454545   0.1049728   0.6142281), wk =   0.0030053
        k(  555) = (  -0.5454545   0.1049728   0.5084547), wk =   0.0030053
        k(  556) = (  -0.5454545   0.1049728   0.4026813), wk =   0.0030053
        k(  557) = (  -0.5454545   0.1049728   0.2969078), wk =   0.0030053
        k(  558) = (  -0.5454545   0.1049728   0.1911344), wk =   0.0030053
        k(  559) = (  -0.6363636   0.1574592   0.1224745), wk =   0.0030053
        k(  560) = (  -0.6363636   0.1574592   0.0167011), wk =   0.0030053
        k(  561) = (  -0.6363636   0.1574592  -0.0890724), wk =   0.0030053
        k(  562) = (  -0.6363636   0.1574592  -0.1948458), wk =   0.0030053
        k(  563) = (  -0.6363636   0.1574592  -0.3006192), wk =   0.0030053
        k(  564) = (  -0.6363636   0.1574592  -0.4063926), wk =   0.0030053
        k(  565) = (  -0.6363636   0.1574592   0.6513416), wk =   0.0030053
        k(  566) = (  -0.6363636   0.1574592   0.5455682), wk =   0.0030053
        k(  567) = (  -0.6363636   0.1574592   0.4397947), wk =   0.0030053
        k(  568) = (  -0.6363636   0.1574592   0.3340213), wk =   0.0030053
        k(  569) = (  -0.6363636   0.1574592   0.2282479), wk =   0.0030053
        k(  570) = (   0.2727273  -0.3674047  -0.2486603), wk =   0.0030053
        k(  571) = (   0.2727273  -0.3674047  -0.3544337), wk =   0.0030053
        k(  572) = (   0.2727273  -0.3674047  -0.4602072), wk =   0.0030053
        k(  573) = (   0.2727273  -0.3674047  -0.5659806), wk =   0.0030053
        k(  574) = (   0.2727273  -0.3674047  -0.6717540), wk =   0.0030053
        k(  575) = (   0.2727273  -0.3674047  -0.7775274), wk =   0.0030053
        k(  576) = (   0.2727273  -0.3674047   0.2802068), wk =   0.0030053
        k(  577) = (   0.2727273  -0.3674047   0.1744334), wk =   0.0030053
        k(  578) = (   0.2727273  -0.3674047   0.0686599), wk =   0.0030053
        k(  579) = (   0.2727273  -0.3674047  -0.0371135), wk =   0.0030053
        k(  580) = (   0.2727273  -0.3674047  -0.1428869), wk =   0.0030053
        k(  581) = (   0.1818182  -0.3149183  -0.2115468), wk =   0.0030053
        k(  582) = (   0.1818182  -0.3149183  -0.3173203), wk =   0.0030053
        k(  583) = (   0.1818182  -0.3149183  -0.4230937), wk =   0.0030053
        k(  584) = (   0.1818182  -0.3149183  -0.5288671), wk =   0.0030053
        k(  585) = (   0.1818182  -0.3149183   0.1057734), wk =   0.0030053
        k(  586) = (  -0.3636364  -0.1049728  -0.0575259), wk =   0.0030053
        k(  587) = (  -0.3636364  -0.1049728  -0.1632993), wk =   0.0030053
        k(  588) = (  -0.3636364  -0.1049728  -0.2690727), wk =   0.0030053
        k(  589) = (  -0.3636364  -0.1049728  -0.3748462), wk =   0.0030053
        k(  590) = (  -0.3636364  -0.1049728  -0.4806196), wk =   0.0030053
        k(  591) = (  -0.3636364  -0.1049728  -0.5863930), wk =   0.0030053
        k(  592) = (  -0.3636364  -0.1049728   0.4713412), wk =   0.0030053
        k(  593) = (  -0.3636364  -0.1049728   0.3655678), wk =   0.0030053
        k(  594) = (  -0.3636364  -0.1049728   0.2597944), wk =   0.0030053
        k(  595) = (  -0.3636364  -0.1049728   0.1540209), wk =   0.0030053
        k(  596) = (  -0.3636364  -0.1049728   0.0482475), wk =   0.0030053
        k(  597) = (  -0.4545455  -0.0524864  -0.0204124), wk =   0.0030053
        k(  598) = (  -0.4545455  -0.0524864  -0.1261858), wk =   0.0030053
        k(  599) = (  -0.4545455  -0.0524864  -0.2319593), wk =   0.0030053
        k(  600) = (  -0.4545455  -0.0524864  -0.3377327), wk =   0.0030053
        k(  601) = (  -0.4545455  -0.0524864  -0.4435061), wk =   0.0030053
        k(  602) = (  -0.4545455  -0.0524864  -0.5492795), wk =   0.0030053
        k(  603) = (  -0.4545455  -0.0524864   0.5084547), wk =   0.0030053
        k(  604) = (  -0.4545455  -0.0524864   0.4026813), wk =   0.0030053
        k(  605) = (  -0.4545455  -0.0524864   0.2969078), wk =   0.0030053
        k(  606) = (  -0.4545455  -0.0524864   0.1911344), wk =   0.0030053
        k(  607) = (  -0.4545455  -0.0524864   0.0853610), wk =   0.0030053
        k(  608) = (  -0.5454545  -0.0000000   0.0167011), wk =   0.0030053
        k(  609) = (  -0.5454545  -0.0000000  -0.0890724), wk =   0.0030053
        k(  610) = (  -0.5454545  -0.0000000  -0.1948458), wk =   0.0030053
        k(  611) = (  -0.5454545  -0.0000000  -0.3006192), wk =   0.0030053
        k(  612) = (  -0.5454545  -0.0000000  -0.4063926), wk =   0.0030053
        k(  613) = (  -0.5454545  -0.0000000  -0.5121660), wk =   0.0030053
        k(  614) = (  -0.5454545  -0.0000000   0.5455682), wk =   0.0030053
        k(  615) = (  -0.5454545  -0.0000000   0.4397947), wk =   0.0030053
        k(  616) = (  -0.5454545  -0.0000000   0.3340213), wk =   0.0030053
        k(  617) = (  -0.5454545  -0.0000000   0.2282479), wk =   0.0030053
        k(  618) = (  -0.5454545  -0.0000000   0.1224745), wk =   0.0030053
        k(  619) = (  -0.6363636   0.0524864   0.0538145), wk =   0.0030053
        k(  620) = (  -0.6363636   0.0524864  -0.0519589), wk =   0.0030053
        k(  621) = (  -0.6363636   0.0524864  -0.1577323), wk =   0.0030053
        k(  622) = (  -0.6363636   0.0524864  -0.2635057), wk =   0.0030053
        k(  623) = (  -0.6363636   0.0524864  -0.3692791), wk =   0.0030053
        k(  624) = (  -0.6363636   0.0524864  -0.4750526), wk =   0.0030053
        k(  625) = (  -0.6363636   0.0524864   0.5826817), wk =   0.0030053
        k(  626) = (  -0.6363636   0.0524864   0.4769082), wk =   0.0030053
        k(  627) = (  -0.6363636   0.0524864   0.3711348), wk =   0.0030053
        k(  628) = (  -0.6363636   0.0524864   0.2653614), wk =   0.0030053
        k(  629) = (  -0.6363636   0.0524864   0.1595880), wk =   0.0030053
        k(  630) = (  -0.7272727   0.1049728   0.0909280), wk =   0.0030053
        k(  631) = (  -0.7272727   0.1049728  -0.0148454), wk =   0.0030053
        k(  632) = (  -0.7272727   0.1049728  -0.1206188), wk =   0.0030053
        k(  633) = (  -0.7272727   0.1049728   0.6197951), wk =   0.0030053
        k(  634) = (  -0.7272727   0.1049728   0.5140217), wk =   0.0030053
        k(  635) = (  -0.4545455  -0.1574592  -0.0890724), wk =   0.0030053
        k(  636) = (  -0.4545455  -0.1574592  -0.1948458), wk =   0.0030053
        k(  637) = (  -0.4545455  -0.1574592  -0.3006192), wk =   0.0030053
        k(  638) = (  -0.4545455  -0.1574592  -0.4063926), wk =   0.0030053
        k(  639) = (  -0.4545455  -0.1574592  -0.5121660), wk =   0.0030053
        k(  640) = (  -0.4545455  -0.1574592  -0.6179395), wk =   0.0030053
        k(  641) = (  -0.4545455  -0.1574592   0.4397947), wk =   0.0030053
        k(  642) = (  -0.4545455  -0.1574592   0.3340213), wk =   0.0030053
        k(  643) = (  -0.4545455  -0.1574592   0.2282479), wk =   0.0030053
        k(  644) = (  -0.4545455  -0.1574592   0.1224745), wk =   0.0030053
        k(  645) = (  -0.4545455  -0.1574592   0.0167011), wk =   0.0030053
        k(  646) = (  -0.5454545  -0.1049728  -0.0519589), wk =   0.0030053
        k(  647) = (  -0.5454545  -0.1049728  -0.1577323), wk =   0.0030053
        k(  648) = (  -0.5454545  -0.1049728  -0.2635057), wk =   0.0030053
        k(  649) = (  -0.5454545  -0.1049728  -0.3692791), wk =   0.0030053
        k(  650) = (  -0.5454545  -0.1049728  -0.4750526), wk =   0.0030053
        k(  651) = (  -0.5454545  -0.1049728  -0.5808260), wk =   0.0030053
        k(  652) = (  -0.5454545  -0.1049728   0.4769082), wk =   0.0030053
        k(  653) = (  -0.5454545  -0.1049728   0.3711348), wk =   0.0030053
        k(  654) = (  -0.5454545  -0.1049728   0.2653614), wk =   0.0030053
        k(  655) = (  -0.5454545  -0.1049728   0.1595880), wk =   0.0030053
        k(  656) = (  -0.5454545  -0.1049728   0.0538145), wk =   0.0030053
        k(  657) = (  -0.6363636  -0.0524864  -0.0148454), wk =   0.0030053
        k(  658) = (  -0.6363636  -0.0524864  -0.1206188), wk =   0.0030053
        k(  659) = (  -0.6363636  -0.0524864  -0.4379391), wk =   0.0030053
        k(  660) = (  -0.6363636  -0.0524864  -0.5437125), wk =   0.0030053
        k(  661) = (  -0.6363636  -0.0524864   0.5140217), wk =   0.0030053
        k(  662) = (  -0.5454545  -0.2099456  -0.1206188), wk =   0.0030053
        k(  663) = (  -0.5454545  -0.2099456  -0.3321657), wk =   0.0030053
        k(  664) = (  -0.5454545  -0.2099456  -0.4379391), wk =   0.0030053
        k(  665) = (  -0.5454545  -0.2099456  -0.5437125), wk =   0.0030053
        k(  666) = (  -0.5454545  -0.2099456  -0.6494859), wk =   0.0030053

                       cryst. coord.
        k(    1) = (   0.0000000   0.0000000   0.0000000), wk =   0.0015026
        k(    2) = (   0.0000000   0.0000000   0.0909091), wk =   0.0030053
        k(    3) = (   0.0000000   0.0000000   0.1818182), wk =   0.0030053
        k(    4) = (   0.0000000   0.0000000   0.2727273), wk =   0.0030053
        k(    5) = (   0.0000000   0.0000000   0.3636364), wk =   0.0030053
        k(    6) = (   0.0000000   0.0000000   0.4545455), wk =   0.0030053
        k(    7) = (   0.0000000   0.0909091   0.0000000), wk =   0.0030053
        k(    8) = (   0.0000000   0.0909091   0.0909091), wk =   0.0030053
        k(    9) = (   0.0000000   0.0909091   0.1818182), wk =   0.0030053
        k(   10) = (   0.0000000   0.0909091   0.2727273), wk =   0.0030053
        k(   11) = (   0.0000000   0.0909091   0.3636364), wk =   0.0030053
        k(   12) = (   0.0000000   0.0909091   0.4545455), wk =   0.0030053
        k(   13) = (   0.0000000   0.0909091  -0.4545455), wk =   0.0030053
        k(   14) = (   0.0000000   0.0909091  -0.3636364), wk =   0.0030053
        k(   15) = (   0.0000000   0.0909091  -0.2727273), wk =   0.0030053
        k(   16) = (   0.0000000   0.0909091  -0.1818182), wk =   0.0030053
        k(   17) = (   0.0000000   0.0909091  -0.0909091), wk =   0.0030053
        k(   18) = (   0.0000000   0.1818182   0.0000000), wk =   0.0030053
        k(   19) = (   0.0000000   0.1818182   0.0909091), wk =   0.0030053
        k(   20) = (   0.0000000   0.1818182   0.1818182), wk =   0.0030053
        k(   21) = (   0.0000000   0.1818182   0.2727273), wk =   0.0030053
        k(   22) = (   0.0000000   0.1818182   0.3636364), wk =   0.0030053
        k(   23) = (   0.0000000   0.1818182   0.4545455), wk =   0.0030053
        k(   24) = (   0.0000000   0.1818182  -0.4545455), wk =   0.0030053
        k(   25) = (   0.0000000   0.1818182  -0.3636364), wk =   0.0030053
        k(   26) = (   0.0000000   0.1818182  -0.2727273), wk =   0.0030053
        k(   27) = (   0.0000000   0.1818182  -0.1818182), wk =   0.0030053
        k(   28) = (   0.0000000   0.1818182  -0.0909091), wk =   0.0030053
        k(   29) = (   0.0000000   0.2727273   0.0000000), wk =   0.0030053
        k(   30) = (   0.0000000   0.2727273   0.0909091), wk =   0.0030053
        k(   31) = (   0.0000000   0.2727273   0.1818182), wk =   0.0030053
        k(   32) = (   0.0000000   0.2727273   0.2727273), wk =   0.0030053
        k(   33) = (   0.0000000   0.2727273   0.3636364), wk =   0.0030053
        k(   34) = (   0.0000000   0.2727273   0.4545455), wk =   0.0030053
        k(   35) = (   0.0000000   0.2727273  -0.4545455), wk =   0.0030053
        k(   36) = (   0.0000000   0.2727273  -0.3636364), wk =   0.0030053
        k(   37) = (   0.0000000   0.2727273  -0.2727273), wk =   0.0030053
        k(   38) = (   0.0000000   0.2727273  -0.1818182), wk =   0.0030053
        k(   39) = (   0.0000000   0.2727273  -0.0909091), wk =   0.0030053
        k(   40) = (   0.0000000   0.3636364   0.0000000), wk =   0.0030053
        k(   41) = (   0.0000000   0.3636364   0.0909091), wk =   0.0030053
        k(   42) = (   0.0000000   0.3636364   0.1818182), wk =   0.0030053
        k(   43) = (   0.0000000   0.3636364   0.2727273), wk =   0.0030053
        k(   44) = (   0.0000000   0.3636364   0.3636364), wk =   0.0030053
        k(   45) = (   0.0000000   0.3636364   0.4545455), wk =   0.0030053
        k(   46) = (   0.0000000   0.3636364  -0.4545455), wk =   0.0030053
        k(   47) = (   0.0000000   0.3636364  -0.3636364), wk =   0.0030053
        k(   48) = (   0.0000000   0.3636364  -0.2727273), wk =   0.0030053
        k(   49) = (   0.0000000   0.3636364  -0.1818182), wk =   0.0030053
        k(   50) = (   0.0000000   0.3636364  -0.0909091), wk =   0.0030053
        k(   51) = (   0.0000000   0.4545455   0.0000000), wk =   0.0030053
        k(   52) = (   0.0000000   0.4545455   0.0909091), wk =   0.0030053
        k(   53) = (   0.0000000   0.4545455   0.1818182), wk =   0.0030053
        k(   54) = (   0.0000000   0.4545455   0.2727273), wk =   0.0030053
        k(   55) = (   0.0000000   0.4545455   0.3636364), wk =   0.0030053
        k(   56) = (   0.0000000   0.4545455   0.4545455), wk =   0.0030053
        k(   57) = (   0.0000000   0.4545455  -0.4545455), wk =   0.0030053
        k(   58) = (   0.0000000   0.4545455  -0.3636364), wk =   0.0030053
        k(   59) = (   0.0000000   0.4545455  -0.2727273), wk =   0.0030053
        k(   60) = (   0.0000000   0.4545455  -0.1818182), wk =   0.0030053
        k(   61) = (   0.0000000   0.4545455  -0.0909091), wk =   0.0030053
        k(   62) = (   0.0909091   0.0000000   0.0000000), wk =   0.0030053
        k(   63) = (   0.0909091   0.0000000   0.0909091), wk =   0.0030053
        k(   64) = (   0.0909091   0.0000000   0.1818182), wk =   0.0030053
        k(   65) = (   0.0909091   0.0000000   0.2727273), wk =   0.0030053
        k(   66) = (   0.0909091   0.0000000   0.3636364), wk =   0.0030053
        k(   67) = (   0.0909091   0.0000000   0.4545455), wk =   0.0030053
        k(   68) = (   0.0909091   0.0000000  -0.4545455), wk =   0.0030053
        k(   69) = (   0.0909091   0.0000000  -0.3636364), wk =   0.0030053
        k(   70) = (   0.0909091   0.0000000  -0.2727273), wk =   0.0030053
        k(   71) = (   0.0909091   0.0000000  -0.1818182), wk =   0.0030053
        k(   72) = (   0.0909091   0.0000000  -0.0909091), wk =   0.0030053
        k(   73) = (   0.0909091   0.0909091   0.0000000), wk =   0.0030053
        k(   74) = (   0.0909091   0.0909091   0.0909091), wk =   0.0030053
        k(   75) = (   0.0909091   0.0909091   0.1818182), wk =   0.0030053
        k(   76) = (   0.0909091   0.0909091   0.2727273), wk =   0.0030053
        k(   77) = (   0.0909091   0.0909091   0.3636364), wk =   0.0030053
        k(   78) = (   0.0909091   0.0909091   0.4545455), wk =   0.0030053
        k(   79) = (   0.0909091   0.0909091  -0.4545455), wk =   0.0030053
        k(   80) = (   0.0909091   0.0909091  -0.3636364), wk =   0.0030053
        k(   81) = (   0.0909091   0.0909091  -0.2727273), wk =   0.0030053
        k(   82) = (   0.0909091   0.0909091  -0.1818182), wk =   0.0030053
        k(   83) = (   0.0909091   0.0909091  -0.0909091), wk =   0.0030053
        k(   84) = (   0.0909091   0.1818182   0.0000000), wk =   0.0030053
        k(   85) = (   0.0909091   0.1818182   0.0909091), wk =   0.0030053
        k(   86) = (   0.0909091   0.1818182   0.1818182), wk =   0.0030053
        k(   87) = (   0.0909091   0.1818182   0.2727273), wk =   0.0030053
        k(   88) = (   0.0909091   0.1818182   0.3636364), wk =   0.0030053
        k(   89) = (   0.0909091   0.1818182   0.4545455), wk =   0.0030053
        k(   90) = (   0.0909091   0.1818182  -0.4545455), wk =   0.0030053
        k(   91) = (   0.0909091   0.1818182  -0.3636364), wk =   0.0030053
        k(   92) = (   0.0909091   0.1818182  -0.2727273), wk =   0.0030053
        k(   93) = (   0.0909091   0.1818182  -0.1818182), wk =   0.0030053
        k(   94) = (   0.0909091   0.1818182  -0.0909091), wk =   0.0030053
        k(   95) = (   0.0909091   0.2727273   0.0000000), wk =   0.0030053
        k(   96) = (   0.0909091   0.2727273   0.0909091), wk =   0.0030053
        k(   97) = (   0.0909091   0.2727273   0.1818182), wk =   0.0030053
        k(   98) = (   0.0909091   0.2727273   0.2727273), wk =   0.0030053
        k(   99) = (   0.0909091   0.2727273   0.3636364), wk =   0.0030053
        k(  100) = (   0.0909091   0.2727273   0.4545455), wk =   0.0030053
        k(  101) = (   0.0909091   0.2727273  -0.4545455), wk =   0.0030053
        k(  102) = (   0.0909091   0.2727273  -0.3636364), wk =   0.0030053
        k(  103) = (   0.0909091   0.2727273  -0.2727273), wk =   0.0030053
        k(  104) = (   0.0909091   0.2727273  -0.1818182), wk =   0.0030053
        k(  105) = (   0.0909091   0.2727273  -0.0909091), wk =   0.0030053
        k(  106) = (   0.0909091   0.3636364   0.0000000), wk =   0.0030053
        k(  107) = (   0.0909091   0.3636364   0.0909091), wk =   0.0030053
        k(  108) = (   0.0909091   0.3636364   0.1818182), wk =   0.0030053
        k(  109) = (   0.0909091   0.3636364   0.2727273), wk =   0.0030053
        k(  110) = (   0.0909091   0.3636364   0.3636364), wk =   0.0030053
        k(  111) = (   0.0909091   0.3636364   0.4545455), wk =   0.0030053
        k(  112) = (   0.0909091   0.3636364  -0.4545455), wk =   0.0030053
        k(  113) = (   0.0909091   0.3636364  -0.3636364), wk =   0.0030053
        k(  114) = (   0.0909091   0.3636364  -0.2727273), wk =   0.0030053
        k(  115) = (   0.0909091   0.3636364  -0.1818182), wk =   0.0030053
        k(  116) = (   0.0909091   0.3636364  -0.0909091), wk =   0.0030053
        k(  117) = (   0.0909091   0.4545455   0.0000000), wk =   0.0030053
        k(  118) = (   0.0909091   0.4545455   0.0909091), wk =   0.0030053
        k(  119) = (   0.0909091   0.4545455   0.1818182), wk =   0.0030053
        k(  120) = (   0.0909091   0.4545455   0.2727273), wk =   0.0030053
        k(  121) = (   0.0909091   0.4545455   0.3636364), wk =   0.0030053
        k(  122) = (   0.0909091   0.4545455   0.4545455), wk =   0.0030053
        k(  123) = (   0.0909091   0.4545455  -0.4545455), wk =   0.0030053
        k(  124) = (   0.0909091   0.4545455  -0.3636364), wk =   0.0030053
        k(  125) = (   0.0909091   0.4545455  -0.2727273), wk =   0.0030053
        k(  126) = (   0.0909091   0.4545455  -0.1818182), wk =   0.0030053
        k(  127) = (   0.0909091   0.4545455  -0.0909091), wk =   0.0030053
        k(  128) = (   0.0909091  -0.4545455  -0.0000000), wk =   0.0030053
        k(  129) = (   0.0909091  -0.4545455   0.0909091), wk =   0.0030053
        k(  130) = (   0.0909091  -0.4545455   0.1818182), wk =   0.0030053
        k(  131) = (   0.0909091  -0.4545455   0.2727273), wk =   0.0030053
        k(  132) = (   0.0909091  -0.4545455   0.3636364), wk =   0.0030053
        k(  133) = (   0.0909091  -0.4545455   0.4545455), wk =   0.0030053
        k(  134) = (   0.0909091  -0.4545455  -0.4545455), wk =   0.0030053
        k(  135) = (   0.0909091  -0.4545455  -0.3636364), wk =   0.0030053
        k(  136) = (   0.0909091  -0.4545455  -0.2727273), wk =   0.0030053
        k(  137) = (   0.0909091  -0.4545455  -0.1818182), wk =   0.0030053
        k(  138) = (   0.0909091  -0.4545455  -0.0909091), wk =   0.0030053
        k(  139) = (   0.0909091  -0.3636364   0.0000000), wk =   0.0030053
        k(  140) = (   0.0909091  -0.3636364   0.0909091), wk =   0.0030053
        k(  141) = (   0.0909091  -0.3636364   0.1818182), wk =   0.0030053
        k(  142) = (   0.0909091  -0.3636364   0.2727273), wk =   0.0030053
        k(  143) = (   0.0909091  -0.3636364   0.3636364), wk =   0.0030053
        k(  144) = (   0.0909091  -0.3636364   0.4545455), wk =   0.0030053
        k(  145) = (   0.0909091  -0.3636364  -0.4545455), wk =   0.0030053
        k(  146) = (   0.0909091  -0.3636364  -0.3636364), wk =   0.0030053
        k(  147) = (   0.0909091  -0.3636364  -0.2727273), wk =   0.0030053
        k(  148) = (   0.0909091  -0.3636364  -0.1818182), wk =   0.0030053
        k(  149) = (   0.0909091  -0.3636364  -0.0909091), wk =   0.0030053
        k(  150) = (   0.0909091  -0.2727273  -0.0000000), wk =   0.0030053
        k(  151) = (   0.0909091  -0.2727273   0.0909091), wk =   0.0030053
        k(  152) = (   0.0909091  -0.2727273   0.1818182), wk =   0.0030053
        k(  153) = (   0.0909091  -0.2727273   0.2727273), wk =   0.0030053
        k(  154) = (   0.0909091  -0.2727273   0.3636364), wk =   0.0030053
        k(  155) = (   0.0909091  -0.2727273   0.4545455), wk =   0.0030053
        k(  156) = (   0.0909091  -0.2727273  -0.4545455), wk =   0.0030053
        k(  157) = (   0.0909091  -0.2727273  -0.3636364), wk =   0.0030053
        k(  158) = (   0.0909091  -0.2727273  -0.2727273), wk =   0.0030053
        k(  159) = (   0.0909091  -0.2727273  -0.1818182), wk =   0.0030053
        k(  160) = (   0.0909091  -0.2727273  -0.0909091), wk =   0.0030053
        k(  161) = (   0.0909091  -0.1818182  -0.0000000), wk =   0.0030053
        k(  162) = (   0.0909091  -0.1818182   0.0909091), wk =   0.0030053
        k(  163) = (   0.0909091  -0.1818182   0.1818182), wk =   0.0030053
        k(  164) = (   0.0909091  -0.1818182   0.2727273), wk =   0.0030053
        k(  165) = (   0.0909091  -0.1818182   0.3636364), wk =   0.0030053
        k(  166) = (   0.0909091  -0.1818182  -0.0909091), wk =   0.0030053
        k(  167) = (   0.1818182   0.0000000   0.0000000), wk =   0.0030053
        k(  168) = (   0.1818182   0.0000000   0.0909091), wk =   0.0030053
        k(  169) = (   0.1818182   0.0000000   0.1818182), wk =   0.0030053
        k(  170) = (   0.1818182   0.0000000   0.2727273), wk =   0.0030053
        k(  171) = (   0.1818182   0.0000000   0.3636364), wk =   0.0030053
        k(  172) = (   0.1818182   0.0000000   0.4545455), wk =   0.0030053
        k(  173) = (   0.1818182   0.0000000  -0.4545455), wk =   0.0030053
        k(  174) = (   0.1818182   0.0000000  -0.3636364), wk =   0.0030053
        k(  175) = (   0.1818182   0.0000000  -0.2727273), wk =   0.0030053
        k(  176) = (   0.1818182   0.0000000  -0.1818182), wk =   0.0030053
        k(  177) = (   0.1818182   0.0000000  -0.0909091), wk =   0.0030053
        k(  178) = (   0.1818182   0.0909091   0.0000000), wk =   0.0030053
        k(  179) = (   0.1818182   0.0909091   0.0909091), wk =   0.0030053
        k(  180) = (   0.1818182   0.0909091   0.1818182), wk =   0.0030053
        k(  181) = (   0.1818182   0.0909091   0.2727273), wk =   0.0030053
        k(  182) = (   0.1818182   0.0909091   0.3636364), wk =   0.0030053
        k(  183) = (   0.1818182   0.0909091   0.4545455), wk =   0.0030053
        k(  184) = (   0.1818182   0.0909091  -0.4545455), wk =   0.0030053
        k(  185) = (   0.1818182   0.0909091  -0.3636364), wk =   0.0030053
        k(  186) = (   0.1818182   0.0909091  -0.2727273), wk =   0.0030053
        k(  187) = (   0.1818182   0.0909091  -0.1818182), wk =   0.0030053
        k(  188) = (   0.1818182   0.0909091  -0.0909091), wk =   0.0030053
        k(  189) = (   0.1818182   0.1818182   0.0000000), wk =   0.0030053
        k(  190) = (   0.1818182   0.1818182   0.0909091), wk =   0.0030053
        k(  191) = (   0.1818182   0.1818182   0.1818182), wk =   0.0030053
        k(  192) = (   0.1818182   0.1818182   0.2727273), wk =   0.0030053
        k(  193) = (   0.1818182   0.1818182   0.3636364), wk =   0.0030053
        k(  194) = (   0.1818182   0.1818182   0.4545455), wk =   0.0030053
        k(  195) = (   0.1818182   0.1818182  -0.4545455), wk =   0.0030053
        k(  196) = (   0.1818182   0.1818182  -0.3636364), wk =   0.0030053
        k(  197) = (   0.1818182   0.1818182  -0.2727273), wk =   0.0030053
        k(  198) = (   0.1818182   0.1818182  -0.1818182), wk =   0.0030053
        k(  199) = (   0.1818182   0.1818182  -0.0909091), wk =   0.0030053
        k(  200) = (   0.1818182   0.2727273   0.0000000), wk =   0.0030053
        k(  201) = (   0.1818182   0.2727273   0.0909091), wk =   0.0030053
        k(  202) = (   0.1818182   0.2727273   0.1818182), wk =   0.0030053
        k(  203) = (   0.1818182   0.2727273   0.2727273), wk =   0.0030053
        k(  204) = (   0.1818182   0.2727273   0.3636364), wk =   0.0030053
        k(  205) = (   0.1818182   0.2727273   0.4545455), wk =   0.0030053
        k(  206) = (   0.1818182   0.2727273  -0.4545455), wk =   0.0030053
        k(  207) = (   0.1818182   0.2727273  -0.3636364), wk =   0.0030053
        k(  208) = (   0.1818182   0.2727273  -0.2727273), wk =   0.0030053
        k(  209) = (   0.1818182   0.2727273  -0.1818182), wk =   0.0030053
        k(  210) = (   0.1818182   0.2727273  -0.0909091), wk =   0.0030053
        k(  211) = (   0.1818182   0.3636364   0.0000000), wk =   0.0030053
        k(  212) = (   0.1818182   0.3636364   0.0909091), wk =   0.0030053
        k(  213) = (   0.1818182   0.3636364   0.1818182), wk =   0.0030053
        k(  214) = (   0.1818182   0.3636364   0.2727273), wk =   0.0030053
        k(  215) = (   0.1818182   0.3636364   0.3636364), wk =   0.0030053
        k(  216) = (   0.1818182   0.3636364   0.4545455), wk =   0.0030053
        k(  217) = (   0.1818182   0.3636364  -0.4545455), wk =   0.0030053
        k(  218) = (   0.1818182   0.3636364  -0.3636364), wk =   0.0030053
        k(  219) = (   0.1818182   0.3636364  -0.2727273), wk =   0.0030053
        k(  220) = (   0.1818182   0.3636364  -0.1818182), wk =   0.0030053
        k(  221) = (   0.1818182   0.3636364  -0.0909091), wk =   0.0030053
        k(  222) = (   0.1818182   0.4545455  -0.0000000), wk =   0.0030053
        k(  223) = (   0.1818182   0.4545455   0.0909091), wk =   0.0030053
        k(  224) = (   0.1818182   0.4545455   0.1818182), wk =   0.0030053
        k(  225) = (   0.1818182   0.4545455   0.2727273), wk =   0.0030053
        k(  226) = (   0.1818182   0.4545455   0.3636364), wk =   0.0030053
        k(  227) = (   0.1818182   0.4545455   0.4545455), wk =   0.0030053
        k(  228) = (   0.1818182   0.4545455  -0.4545455), wk =   0.0030053
        k(  229) = (   0.1818182   0.4545455  -0.3636364), wk =   0.0030053
        k(  230) = (   0.1818182   0.4545455  -0.2727273), wk =   0.0030053
        k(  231) = (   0.1818182   0.4545455  -0.1818182), wk =   0.0030053
        k(  232) = (   0.1818182   0.4545455  -0.0909091), wk =   0.0030053
        k(  233) = (   0.1818182  -0.4545455  -0.0000000), wk =   0.0030053
        k(  234) = (   0.1818182  -0.4545455   0.0909091), wk =   0.0030053
        k(  235) = (   0.1818182  -0.4545455   0.1818182), wk =   0.0030053
        k(  236) = (   0.1818182  -0.4545455   0.2727273), wk =   0.0030053
        k(  237) = (   0.1818182  -0.4545455   0.3636364), wk =   0.0030053
        k(  238) = (   0.1818182  -0.4545455   0.4545455), wk =   0.0030053
        k(  239) = (   0.1818182  -0.4545455  -0.4545455), wk =   0.0030053
        k(  240) = (   0.1818182  -0.4545455  -0.3636364), wk =   0.0030053
        k(  241) = (   0.1818182  -0.4545455  -0.2727273), wk =   0.0030053
        k(  242) = (   0.1818182  -0.4545455  -0.1818182), wk =   0.0030053
        k(  243) = (   0.1818182  -0.4545455  -0.0909091), wk =   0.0030053
        k(  244) = (   0.1818182  -0.3636364   0.0000000), wk =   0.0030053
        k(  245) = (   0.1818182  -0.3636364   0.0909091), wk =   0.0030053
        k(  246) = (   0.1818182  -0.3636364   0.1818182), wk =   0.0030053
        k(  247) = (   0.1818182  -0.3636364   0.2727273), wk =   0.0030053
        k(  248) = (   0.1818182  -0.3636364  -0.2727273), wk =   0.0030053
        k(  249) = (   0.1818182  -0.3636364  -0.1818182), wk =   0.0030053
        k(  250) = (   0.2727273   0.0000000  -0.0000000), wk =   0.0030053
        k(  251) = (   0.2727273   0.0000000   0.0909091), wk =   0.0030053
        k(  252) = (   0.2727273   0.0000000   0.1818182), wk =   0.0030053
        k(  253) = (   0.2727273   0.0000000   0.2727273), wk =   0.0030053
        k(  254) = (   0.2727273   0.0000000   0.3636364), wk =   0.0030053
        k(  255) = (   0.2727273   0.0000000   0.4545455), wk =   0.0030053
        k(  256) = (   0.2727273   0.0000000  -0.4545455), wk =   0.0030053
        k(  257) = (   0.2727273   0.0000000  -0.3636364), wk =   0.0030053
        k(  258) = (   0.2727273   0.0000000  -0.2727273), wk =   0.0030053
        k(  259) = (   0.2727273   0.0000000  -0.1818182), wk =   0.0030053
        k(  260) = (   0.2727273   0.0000000  -0.0909091), wk =   0.0030053
        k(  261) = (   0.2727273   0.0909091  -0.0000000), wk =   0.0030053
        k(  262) = (   0.2727273   0.0909091   0.0909091), wk =   0.0030053
        k(  263) = (   0.2727273   0.0909091   0.1818182), wk =   0.0030053
        k(  264) = (   0.2727273   0.0909091   0.2727273), wk =   0.0030053
        k(  265) = (   0.2727273   0.0909091   0.3636364), wk =   0.0030053
        k(  266) = (   0.2727273   0.0909091   0.4545455), wk =   0.0030053
        k(  267) = (   0.2727273   0.0909091  -0.4545455), wk =   0.0030053
        k(  268) = (   0.2727273   0.0909091  -0.3636364), wk =   0.0030053
        k(  269) = (   0.2727273   0.0909091  -0.2727273), wk =   0.0030053
        k(  270) = (   0.2727273   0.0909091  -0.1818182), wk =   0.0030053
        k(  271) = (   0.2727273   0.0909091  -0.0909091), wk =   0.0030053
        k(  272) = (   0.2727273   0.1818182  -0.0000000), wk =   0.0030053
        k(  273) = (   0.2727273   0.1818182   0.0909091), wk =   0.0030053
        k(  274) = (   0.2727273   0.1818182   0.1818182), wk =   0.0030053
        k(  275) = (   0.2727273   0.1818182   0.2727273), wk =   0.0030053
        k(  276) = (   0.2727273   0.1818182   0.3636364), wk =   0.0030053
        k(  277) = (   0.2727273   0.1818182   0.4545455), wk =   0.0030053
        k(  278) = (   0.2727273   0.1818182  -0.4545455), wk =   0.0030053
        k(  279) = (   0.2727273   0.1818182  -0.3636364), wk =   0.0030053
        k(  280) = (   0.2727273   0.1818182  -0.2727273), wk =   0.0030053
        k(  281) = (   0.2727273   0.1818182  -0.1818182), wk =   0.0030053
        k(  282) = (   0.2727273   0.1818182  -0.0909091), wk =   0.0030053
        k(  283) = (   0.2727273   0.2727273  -0.0000000), wk =   0.0030053
        k(  284) = (   0.2727273   0.2727273   0.0909091), wk =   0.0030053
        k(  285) = (   0.2727273   0.2727273   0.1818182), wk =   0.0030053
        k(  286) = (   0.2727273   0.2727273   0.2727273), wk =   0.0030053
        k(  287) = (   0.2727273   0.2727273   0.3636364), wk =   0.0030053
        k(  288) = (   0.2727273   0.2727273   0.4545455), wk =   0.0030053
        k(  289) = (   0.2727273   0.2727273  -0.4545455), wk =   0.0030053
        k(  290) = (   0.2727273   0.2727273  -0.3636364), wk =   0.0030053
        k(  291) = (   0.2727273   0.2727273  -0.2727273), wk =   0.0030053
        k(  292) = (   0.2727273   0.2727273  -0.1818182), wk =   0.0030053
        k(  293) = (   0.2727273   0.2727273  -0.0909091), wk =   0.0030053
        k(  294) = (   0.2727273   0.3636364   0.0000000), wk =   0.0030053
        k(  295) = (   0.2727273   0.3636364   0.0909091), wk =   0.0030053
        k(  296) = (   0.2727273   0.3636364   0.1818182), wk =   0.0030053
        k(  297) = (   0.2727273   0.3636364   0.2727273), wk =   0.0030053
        k(  298) = (   0.2727273   0.3636364   0.3636364), wk =   0.0030053
        k(  299) = (   0.2727273   0.3636364   0.4545455), wk =   0.0030053
        k(  300) = (   0.2727273   0.3636364  -0.4545455), wk =   0.0030053
        k(  301) = (   0.2727273   0.3636364  -0.3636364), wk =   0.0030053
        k(  302) = (   0.2727273   0.3636364  -0.2727273), wk =   0.0030053
        k(  303) = (   0.2727273   0.3636364  -0.1818182), wk =   0.0030053
        k(  304) = (   0.2727273   0.3636364  -0.0909091), wk =   0.0030053
        k(  305) = (   0.2727273   0.4545455  -0.0000000), wk =   0.0030053
        k(  306) = (   0.2727273   0.4545455   0.0909091), wk =   0.0030053
        k(  307) = (   0.2727273   0.4545455   0.1818182), wk =   0.0030053
        k(  308) = (   0.2727273   0.4545455  -0.4545455), wk =   0.0030053
        k(  309) = (   0.2727273   0.4545455  -0.3636364), wk =   0.0030053
        k(  310) = (   0.2727273   0.4545455  -0.2727273), wk =   0.0030053
        k(  311) = (   0.3636364   0.0000000   0.0000000), wk =   0.0030053
        k(  312) = (   0.3636364   0.0000000   0.0909091), wk =   0.0030053
        k(  313) = (   0.3636364   0.0000000   0.1818182), wk =   0.0030053
        k(  314) = (   0.3636364   0.0000000   0.2727273), wk =   0.0030053
        k(  315) = (   0.3636364   0.0000000   0.3636364), wk =   0.0030053
        k(  316) = (   0.3636364   0.0000000   0.4545455), wk =   0.0030053
        k(  317) = (   0.3636364   0.0000000  -0.4545455), wk =   0.0030053
        k(  318) = (   0.3636364   0.0000000  -0.3636364), wk =   0.0030053
        k(  319) = (   0.3636364   0.0000000  -0.2727273), wk =   0.0030053
        k(  320) = (   0.3636364   0.0000000  -0.1818182), wk =   0.0030053
[...]

     occupation numbers 
     1.0000   1.0000   1.0000   1.0000   0.0000   0.0000   0.0000   0.0000

          k =-0.5455-0.0000 0.1225 (   874 PWs)   bands (ev):

    -3.6428   0.2417   1.9985   8.6726  16.4516  22.2430  24.0278  33.0677

     occupation numbers 
     1.0000   1.0000   1.0000   1.0000   0.0000   0.0000   0.0000   0.0000

          k =-0.6364 0.0525 0.0538 (   879 PWs)   bands (ev):

    -2.8874  -0.1948   1.6203   8.1049  16.7961  21.6268  24.3279  33.1538

     occupation numbers 
     1.0000   1.0000   1.0000   1.0000   0.0000   0.0000   0.0000   0.0000

          k =-0.6364 0.0525-0.0520 (   877 PWs)   bands (ev):

    -2.6841  -0.5347   1.3802   8.0919  16.9721  21.9006  25.3480  32.7943

     occupation numbers 
     1.0000   1.0000   1.0000   1.0000   0.0000   0.0000   0.0000   0.0000

          k =-0.6364 0.0525-0.1577 (   881 PWs)   bands (ev):

    -2.3459  -0.8478   0.8785   8.2661  16.9559  22.4381  26.5149  32.6373

     occupation numbers 
     1.0000   1.0000   1.0000   1.0000   0.0000   0.0000   0.0000   0.0000

          k =-0.6364 0.0525-0.2635 (   878 PWs)   bands (ev):

    -1.9078  -1.0833   0.2861   8.5397  16.7551  23.0471  27.4287  32.1315

     occupation numbers 
     1.0000   1.0000   1.0000   1.0000   0.0000   0.0000   0.0000   0.0000

          k =-0.6364 0.0525-0.3693 (   875 PWs)   bands (ev):

    -1.5729  -1.1775  -0.1149   8.8201  16.3530  23.6854  27.4990  30.9297

     occupation numbers 
     1.0000   1.0000   1.0000   1.0000   0.0000   0.0000   0.0000   0.0000

          k =-0.6364 0.0525-0.4751 (   876 PWs)   bands (ev):

    -1.7653  -1.0192   0.0329   9.0295  15.8700  24.2004  26.4818  30.1876

     occupation numbers 
     1.0000   1.0000   1.0000   1.0000   0.0000   0.0000   0.0000   0.0000

          k =-0.6364 0.0525 0.5827 (   872 PWs)   bands (ev):

    -2.1666  -0.7305   0.4688   9.1293  15.5103  23.8165  25.7021  29.9567

     occupation numbers 
     1.0000   1.0000   1.0000   1.0000   0.0000   0.0000   0.0000   0.0000

          k =-0.6364 0.0525 0.4769 (   870 PWs)   bands (ev):

    -2.5226  -0.3149   0.8110   9.1210  15.3924  22.6725  25.5509  29.9804

     occupation numbers 
     1.0000   1.0000   1.0000   1.0000   0.0000   0.0000   0.0000   0.0000

          k =-0.6364 0.0525 0.3711 (   871 PWs)   bands (ev):

    -2.7767   0.1189   0.9935   8.9834  15.5259  21.9950  24.8735  30.6210

     occupation numbers 
     1.0000   1.0000   1.0000   1.0000   0.0000   0.0000   0.0000   0.0000

          k =-0.6364 0.0525 0.2654 (   869 PWs)   bands (ev):

    -2.9229   0.2860   1.2295   8.6894  15.8920  21.8678  23.9603  31.8356

     occupation numbers 
     1.0000   1.0000   1.0000   1.0000   0.0000   0.0000   0.0000   0.0000

          k =-0.6364 0.0525 0.1596 (   871 PWs)   bands (ev):

    -2.9622   0.1130   1.5326   8.3365  16.3889  21.7580  23.7079  33.0421

     occupation numbers 
     1.0000   1.0000   1.0000   1.0000   0.0000   0.0000   0.0000   0.0000

          k =-0.7273 0.1050 0.0909 (   877 PWs)   bands (ev):

    -2.9679   0.3759   1.4143   7.8846  16.9287  21.2355  23.2394  33.9907

     occupation numbers 
     1.0000   1.0000   1.0000   1.0000   0.0000   0.0000   0.0000   0.0000

          k =-0.7273 0.1050-0.0148 (   881 PWs)   bands (ev):

    -2.4888  -0.0453   1.1158   7.6928  17.0864  21.1520  23.7981  33.8398

     occupation numbers 
     1.0000   1.0000   1.0000   1.0000   0.0000   0.0000   0.0000   0.0000

          k =-0.7273 0.1050-0.1206 (   883 PWs)   bands (ev):

    -2.0034  -0.4399   0.5794   7.7661  17.0519  21.5550  24.9031  33.6600

     occupation numbers 
     1.0000   1.0000   1.0000   1.0000   0.0000   0.0000   0.0000   0.0000

          k =-0.7273 0.1050 0.6198 (   875 PWs)   bands (ev):

    -3.1679  -0.6538   1.2519   9.1401  16.1507  24.4635  26.4964  30.6683

     occupation numbers 
     1.0000   1.0000   1.0000   1.0000   0.0000   0.0000   0.0000   0.0000

          k =-0.7273 0.1050 0.5140 (   871 PWs)   bands (ev):

    -3.5314  -0.2475   1.5494   9.2049  16.0120  23.9326  26.0709  30.4446

     occupation numbers 
     1.0000   1.0000   1.0000   1.0000   0.0000   0.0000   0.0000   0.0000

          k =-0.4545-0.1575-0.0891 (   878 PWs)   bands (ev):

    -4.3987  -0.8691   2.8929   9.3917  17.7333  24.4395  26.6561  31.7836

     occupation numbers 
     1.0000   1.0000   1.0000   1.0000   0.0000   0.0000   0.0000   0.0000

          k =-0.4545-0.1575-0.1948 (   880 PWs)   bands (ev):

    -4.0081  -1.3048   2.6947   9.4229  17.5202  25.1662  26.8775  31.4114

     occupation numbers 
     1.0000   1.0000   1.0000   1.0000   0.0000   0.0000   0.0000   0.0000

          k =-0.4545-0.1575-0.3006 (   876 PWs)   bands (ev):

    -3.3652  -1.5646   2.2515   9.5129  16.8373  24.6764  26.4540  30.9704

     occupation numbers 
     1.0000   1.0000   1.0000   1.0000   0.0000   0.0000   0.0000   0.0000

          k =-0.4545-0.1575-0.4064 (   869 PWs)   bands (ev):

    -2.5737  -1.5989   1.6421   9.6645  15.8110  23.8060  25.4748  30.6209

     occupation numbers 
     1.0000   1.0000   1.0000   1.0000   0.0000   0.0000   0.0000   0.0000

          k =-0.4545-0.1575-0.5122 (   870 PWs)   bands (ev):

    -2.0039  -1.2515   1.0551   9.8556  14.8672  22.6509  24.1407  30.9124

     occupation numbers 
     1.0000   1.0000   1.0000   1.0001   0.0000   0.0000   0.0000   0.0000

          k =-0.4545-0.1575-0.6179 (   872 PWs)   bands (ev):

    -2.0359  -0.6316   0.8894  10.0277  14.3980  20.9746  23.3500  31.5935

     occupation numbers 
     1.0000   1.0000   1.0000   1.0017   0.0000   0.0000   0.0000   0.0000

          k =-0.4545-0.1575 0.4398 (   875 PWs)   bands (ev):

    -2.5523  -0.1142   1.2484  10.1464  14.4780  19.7234  22.8399  32.3745

     occupation numbers 
     1.0000   1.0000   1.0000   1.0083   0.0000   0.0000   0.0000   0.0000

          k =-0.4545-0.1575 0.3340 (   874 PWs)   bands (ev):

    -3.2554   0.3335   1.6540  10.1500  14.9327  19.6137  22.5016  33.1172

     occupation numbers 
     1.0000   1.0000   1.0000   1.0086   0.0000   0.0000   0.0000   0.0000

          k =-0.4545-0.1575 0.2282 (   871 PWs)   bands (ev):

    -3.8884   0.4736   2.0485   9.9455  15.7108  20.7439  22.3960  33.7045

     occupation numbers 
     1.0000   1.0000   1.0000   1.0005   0.0000   0.0000   0.0000   0.0000

          k =-0.4545-0.1575 0.1225 (   871 PWs)   bands (ev):

    -4.3253   0.1845   2.4921   9.6509  16.6976  22.3483  22.9676  33.3314

     occupation numbers 
     1.0000   1.0000   1.0000   1.0000   0.0000   0.0000   0.0000   0.0000

          k =-0.4545-0.1575 0.0167 (   873 PWs)   bands (ev):

    -4.5044  -0.3303   2.8161   9.4514  17.4693  23.2638  24.9975  32.4550

     occupation numbers 
     1.0000   1.0000   1.0000   1.0000   0.0000   0.0000   0.0000   0.0000

          k =-0.5455-0.1050-0.0520 (   876 PWs)   bands (ev):

    -3.5280  -1.1546   2.4744   8.9821  17.4567  22.8595  26.4678  31.1339

     occupation numbers 
     1.0000   1.0000   1.0000   1.0000   0.0000   0.0000   0.0000   0.0000

          k =-0.5455-0.1050-0.1577 (   880 PWs)   bands (ev):

    -3.2555  -1.6312   2.2681   9.1290  17.5336  23.9357  27.5546  30.2923

     occupation numbers 
     1.0000   1.0000   1.0000   1.0000   0.0000   0.0000   0.0000   0.0000

          k =-0.5455-0.1050-0.2635 (   879 PWs)   bands (ev):

    -2.7609  -1.9272   1.8223   9.3124  17.2185  24.5079  27.2157  30.3263

     occupation numbers 
     1.0000   1.0000   1.0000   1.0000   0.0000   0.0000   0.0000   0.0000

          k =-0.5455-0.1050-0.3693 (   870 PWs)   bands (ev):

    -2.2751  -1.8153   1.2282   9.5120  16.4428  24.5092  26.0651  30.2721

     occupation numbers 
     1.0000   1.0000   1.0000   1.0000   0.0000   0.0000   0.0000   0.0000

          k =-0.5455-0.1050-0.4751 (   872 PWs)   bands (ev):

    -2.0905  -1.1141   0.6016   9.7110  15.4790  23.8185  24.7312  30.3346

     occupation numbers 
     1.0000   1.0000   1.0000   1.0000   0.0000   0.0000   0.0000   0.0000

          k =-0.5455-0.1050-0.5808 (   868 PWs)   bands (ev):

    -1.8804  -0.5868   0.2942   9.8553  14.7731  21.9817  24.2151  30.7926

     occupation numbers 
     1.0000   1.0000   1.0000   1.0001   0.0000   0.0000   0.0000   0.0000

          k =-0.5455-0.1050 0.4769 (   875 PWs)   bands (ev):

    -1.9147  -0.5152   0.7011   9.8918  14.5321  20.5660  23.6477  31.4801

     occupation numbers 
     1.0000   1.0000   1.0000   1.0002   0.0000   0.0000   0.0000   0.0000

          k =-0.5455-0.1050 0.3711 (   877 PWs)   bands (ev):

    -2.3789  -0.1487   1.1020   9.7758  14.7000  20.2078  23.0085  32.2746

     occupation numbers 
     1.0000   1.0000   1.0000   1.0000   0.0000   0.0000   0.0000   0.0000

          k =-0.5455-0.1050 0.2654 (   876 PWs)   bands (ev):

    -2.9153   0.1031   1.4745   9.4751  15.2666  20.8945  22.5294  33.0774

     occupation numbers 
     1.0000   1.0000   1.0000   1.0000   0.0000   0.0000   0.0000   0.0000

          k =-0.5455-0.1050 0.1596 (   872 PWs)   bands (ev):

    -3.3323  -0.1062   1.9738   9.1341  16.1520  21.5782  23.0754  33.1770

     occupation numbers 
     1.0000   1.0000   1.0000   1.0000   0.0000   0.0000   0.0000   0.0000

          k =-0.5455-0.1050 0.0538 (   872 PWs)   bands (ev):

    -3.5498  -0.5987   2.3701   8.9542  16.9970  21.9484  24.7676  32.1659

     occupation numbers 
     1.0000   1.0000   1.0000   1.0000   0.0000   0.0000   0.0000   0.0000

          k =-0.6364-0.0525-0.0148 (   874 PWs)   bands (ev):

    -2.6068  -1.1460   1.8606   8.4371  17.2964  21.4347  25.3347  32.0927

     occupation numbers 
     1.0000   1.0000   1.0000   1.0000   0.0000   0.0000   0.0000   0.0000

          k =-0.6364-0.0525-0.1206 (   878 PWs)   bands (ev):

    -2.4359  -1.5987   1.6515   8.6436  17.5110  22.3980  26.4377  31.3499

     occupation numbers 
     1.0000   1.0000   1.0000   1.0000   0.0000   0.0000   0.0000   0.0000

          k =-0.6364-0.0525-0.4379 (   874 PWs)   bands (ev):

    -2.3479  -0.5576  -0.0072   9.4433  16.3607  24.2600  25.8278  30.2596

     occupation numbers 
     1.0000   1.0000   1.0000   1.0000   0.0000   0.0000   0.0000   0.0000

          k =-0.6364-0.0525-0.5437 (   873 PWs)   bands (ev):

    -2.0954  -0.6840   0.2021   9.6219  15.5766  23.1369  25.2704  30.2902

     occupation numbers 
     1.0000   1.0000   1.0000   1.0000   0.0000   0.0000   0.0000   0.0000

          k =-0.6364-0.0525 0.5140 (   870 PWs)   bands (ev):

    -1.8007  -1.0090   0.6818   9.6485  15.0865  21.6963  24.8711  30.6815

     occupation numbers 
     1.0000   1.0000   1.0000   1.0000   0.0000   0.0000   0.0000   0.0000

          k =-0.5455-0.2099-0.1206 (   877 PWs)   bands (ev):

    -3.0214  -2.3474   2.7695   9.3213  17.9033  24.0758  26.7483  30.9318

     occupation numbers 
     1.0000   1.0000   1.0000   1.0000   0.0000   0.0000   0.0000   0.0000

          k =-0.5455-0.2099-0.3322 (   872 PWs)   bands (ev):

    -3.1359  -1.8011   2.1917   9.6700  17.2438  24.2928  25.7931  30.7842

     occupation numbers 
     1.0000   1.0000   1.0000   1.0000   0.0000   0.0000   0.0000   0.0000

          k =-0.5455-0.2099-0.4379 (   868 PWs)   bands (ev):

    -3.0740  -1.0884   1.6681   9.9827  16.1144  23.3381  24.2289  31.4133

     occupation numbers 
     1.0000   1.0000   1.0000   1.0009   0.0000   0.0000   0.0000   0.0000

          k =-0.5455-0.2099-0.5437 (   867 PWs)   bands (ev):

    -2.8030  -0.5162   1.2343  10.3615  14.9328  21.5258  23.3972  32.0705

     occupation numbers 
     1.0000   1.0000   1.0000   1.0550   0.0000   0.0000   0.0000   0.0000

          k =-0.5455-0.2099-0.6495 (   870 PWs)   bands (ev):

    -2.4160  -0.4847   1.2455  10.6510  14.1572  19.8819  22.9017  32.6220

     occupation numbers 
     1.0000   1.0000   1.0000   0.9861   0.0000   0.0000   0.0000   0.0000

     the Fermi energy is    10.9167 ev

!    total energy              =     -21.68445948 Ry
     estimated scf accuracy    <          9.8E-11 Ry
     smearing contrib. (-TS)   =       0.00009075 Ry
     internal energy E=F+TS    =     -21.68455023 Ry

     The total energy is F=E-TS. E is the sum of the following terms:
     one-electron contribution =      -0.74398221 Ry
     hartree contribution      =       6.60646835 Ry
     xc contribution           =     -10.64967102 Ry
     ewald contribution        =     -16.89736536 Ry

     convergence has been achieved in  10 iterations

     Forces acting on atoms (cartesian axes, Ry/au):

     atom    1 type  1   force =    -6.03445924    7.10082231   12.19041303
     atom    2 type  2   force =     6.03445924   -7.10082231  -12.19041303
     The non-local contrib.  to forces
     atom    1 type  1   force =    -1.35523175    1.32819366    2.65558670
     atom    2 type  2   force =     0.26521393   -0.09761700   -0.41145594
     The ionic contribution  to forces
     atom    1 type  1   force =    -8.09254028   10.04103085   16.68891065
     atom    2 type  2   force =     8.09254028  -10.04103085  -16.68891065
     The local contribution  to forces
     atom    1 type  1   force =     3.28214602   -4.11429636   -6.88908444
     atom    2 type  2   force =    -2.25152971    2.95304490    4.76597383
     The core correction contribution to forces
     atom    1 type  1   force =     0.13117030   -0.15411167   -0.26501046
     atom    2 type  2   force =    -0.07176048    0.08476548    0.14396434
     The Hubbard contrib.    to forces
     atom    1 type  1   force =     0.00000000    0.00000000    0.00000000
     atom    2 type  2   force =     0.00000000    0.00000000    0.00000000
     The SCF correction term to forces
     atom    1 type  1   force =     0.00000006    0.00000124    0.00000050
     atom    2 type  2   force =    -0.00000117    0.00001059    0.00000532

     Total force =    21.699887     Total SCF correction =     0.000012


     Computing stress (Cartesian axis) and pressure

          total   stress  (Ry/bohr**3)                   (kbar)     P=    12218.68
   0.04073146  -0.04373045  -0.06803457         5991.81    -6432.97   -10008.23
  -0.04373045   0.06048414   0.08742222        -6432.97     8897.52    12860.25
  -0.06803457   0.08742222   0.14796718       -10008.23    12860.25    21766.72

     kinetic stress (kbar)  34436.23    793.83   1897.92
                              793.83  34368.28  -1786.17
                             1897.92  -1786.17  31808.84

     local   stress (kbar)  -2224.44   3462.89   4899.36
                             3462.89  -2308.83  -4630.18
                             4899.36  -4630.18  -7639.25

     nonloc. stress (kbar)  -4036.99    -52.49   -205.80
                              -52.49  -4152.81    115.63
                             -205.80    115.63  -3762.89

     hartree stress (kbar)   4468.74   -478.60   -543.17
                             -478.60   4330.00    304.20
                             -543.17    304.20   4589.21

     exc-cor stress (kbar)  -1807.86    -23.86    -38.88
                              -23.86  -1811.40     35.38
                              -38.88     35.38  -1754.12

     corecor stress (kbar)  -4508.70     27.01     45.07
                               27.01  -4517.45    -53.75
                               45.07    -53.75  -4578.13

     ewald   stress (kbar) -20335.17 -10161.76 -16062.73
                           -10161.76 -17010.27  18875.15
                           -16062.73  18875.15   3103.06

     hubbard stress (kbar)      0.00      0.00      0.00
                                0.00      0.00      0.00
                                0.00      0.00      0.00

     DFT-D   stress (kbar)      0.00      0.00      0.00
                                0.00      0.00      0.00
                                0.00      0.00      0.00

     XDM     stress (kbar)      0.00      0.00      0.00
                                0.00      0.00      0.00
                                0.00      0.00      0.00

     dft-nl  stress (kbar)      0.00      0.00      0.00
                                0.00      0.00      0.00
                                0.00      0.00      0.00

     TS-vdW  stress (kbar)      0.00      0.00      0.00
                                0.00      0.00      0.00
                                0.00      0.00      0.00



     init_run     :      0.49s CPU      0.65s WALL (       1 calls)
     electrons    :     13.89s CPU     15.14s WALL (       1 calls)
     forces       :      0.15s CPU      0.15s WALL (       1 calls)
     stress       :      0.29s CPU      0.31s WALL (       1 calls)

     Called by init_run:
     wfcinit      :      0.41s CPU      0.52s WALL (       1 calls)
     wfcinit:atom :      0.01s CPU      0.01s WALL (     666 calls)
     wfcinit:wfcr :      0.38s CPU      0.48s WALL (     666 calls)
     potinit      :      0.02s CPU      0.02s WALL (       1 calls)
     hinit0       :      0.05s CPU      0.09s WALL (       1 calls)

     Called by electrons:
     c_bands      :     11.92s CPU     12.97s WALL (      10 calls)
     sum_band     :      1.94s CPU      2.13s WALL (      10 calls)
     v_of_rho     :      0.01s CPU      0.01s WALL (      11 calls)
     v_h          :      0.00s CPU      0.00s WALL (      11 calls)
     v_xc         :      0.01s CPU      0.02s WALL (      13 calls)
     newd         :      0.01s CPU      0.01s WALL (      11 calls)
     mix_rho      :      0.00s CPU      0.01s WALL (      10 calls)

     Called by c_bands:
     init_us_2    :      0.22s CPU      0.24s WALL (   15318 calls)
     cegterg      :     11.56s CPU     12.58s WALL (    6660 calls)

     Called by sum_band:
     sum_band:wei :      0.02s CPU      0.02s WALL (      10 calls)
     sum_band:loo :      1.91s CPU      2.10s WALL (      10 calls)
     sum_band:buf :      0.02s CPU      0.02s WALL (    6660 calls)
     sum_band:ini :      0.09s CPU      0.10s WALL (    6660 calls)
     sum_band:cal :      0.10s CPU      0.11s WALL (    6660 calls)
     sum_band:bec :      0.01s CPU      0.02s WALL (    6660 calls)
     addusdens    :      0.01s CPU      0.01s WALL (      10 calls)
     addusd:skk   :      0.00s CPU      0.00s WALL (      10 calls)
     addusd:dgemm :      0.00s CPU      0.00s WALL (      10 calls)
     addusd:qvan2 :      0.00s CPU      0.00s WALL (      10 calls)

     Called by *egterg:
     cdiaghg      :      1.53s CPU      1.72s WALL (   24722 calls)
     cegterg:over :      0.48s CPU      0.53s WALL (   18062 calls)
     cegterg:upda :      0.08s CPU      0.09s WALL (   18062 calls)
     cegterg:last :      0.11s CPU      0.12s WALL (   14100 calls)
     h_psi        :      9.13s CPU      9.95s WALL (   25388 calls)
     s_psi        :      0.10s CPU      0.10s WALL (   25388 calls)
     g_psi        :      0.03s CPU      0.03s WALL (   18062 calls)

     Called by h_psi:
     h_psi:calbec :      0.36s CPU      0.40s WALL (   25388 calls)
     vloc_psi     :      8.57s CPU      9.34s WALL (   25388 calls)
     add_vuspsi   :      0.12s CPU      0.14s WALL (   25388 calls)

     General routines
     calbec       :      0.53s CPU      0.59s WALL (   35378 calls)
     fft          :      0.02s CPU      0.05s WALL (     166 calls)
     ffts         :      0.00s CPU      0.00s WALL (      21 calls)
     fftw         :      9.56s CPU     10.44s WALL (  340894 calls)
     interpolate  :      0.00s CPU      0.00s WALL (      11 calls)

     Parallel routines
     fft_scatt_xy :      0.80s CPU      0.84s WALL (  341081 calls)
     fft_scatt_yz :      3.60s CPU      3.93s WALL (  341081 calls)

     PWSCF        :     14.91s CPU     16.46s WALL


   This run was terminated on:  21:16:58  28Sep2022            

=------------------------------------------------------------------------------=
   JOB DONE.
=------------------------------------------------------------------------------=
Note: The following floating-point exceptions are signalling: IEEE_UNDERFLOW_FLAG IEEE_DENORMAL
