ITEM: TIMESTEP
1500
ITEM: NUMBER OF ATOMS
8
ITEM: BOX BOUNDS xy xz yz pp pp pp
-3.5317457826446497e-01 6.7932090070066113e+00 -2.7350147585033258e-01
-4.7553914633577055e-02 2.5222741196654384e+00 3.9791404592468931e-02
-3.7505228750734698e-02 4.4358282333677090e+00 7.6249469338645721e-03
ITEM: ATOMS id type x y z
6 2 -0.0962524 1.01278 0.680417
2 1 2.60364 0.55246 2.57062
4 1 0.421325 1.79703 1.9726
1 1 -0.46951 2.27435 0.0210367
7 2 1.77574 1.83501 2.37426
8 2 4.09702 0.836431 2.68228
3 1 4.60571 2.20655 2.80869
5 2 6.13657 2.18178 3.00292
