ITEM: TIMESTEP
4000
ITEM: NUMBER OF ATOMS
8
ITEM: BOX BOUNDS xy xz yz pp pp pp
-2.8042212105458786e-01 6.7241504538893864e+00 -2.6879569417016125e-01
-2.5511678276504801e-02 2.5000379843247296e+00 3.8779527004948293e-02
1.9372203928305964e-02 4.3789508006886422e+00 7.4310479502164113e-03
ITEM: ATOMS id type x y z
6 2 -0.02347 1.18968 0.775644
2 1 2.64997 0.624372 2.55559
4 1 0.408076 1.69891 2.07747
1 1 -0.315207 2.4179 0.0924976
7 2 1.80454 1.78585 2.41983
8 2 4.0982 0.711923 2.62988
3 1 4.60765 2.11779 2.57822
5 2 6.00731 2.11508 2.99729
