ITEM: TIMESTEP
0
ITEM: NUMBER OF ATOMS
8
ITEM: BOX BOUNDS xy xz yz pp pp pp
0.0000000000000000e+00 1.2913861059514000e+01 6.2009923914440002e+00
0.0000000000000000e+00 2.4745923471909999e+00 3.9124168070000000e-02
0.0000000000000000e+00 4.3983230046169997e+00 7.4970890930000002e-03
ITEM: ATOMS id type x y z
2 1 2.57254 0.503054 2.48201
8 2 4.00834 0.812342 2.68407
6 2 6.52445 1.23023 0.733288
1 1 6.67005 0.0464783 4.37118
3 1 11.1209 2.15937 2.74019
4 1 6.87584 1.35871 2.21133
5 2 12.6064 2.40038 2.8906
7 2 8.37296 1.56863 2.42549
