ITEM: TIMESTEP
3500
ITEM: NUMBER OF ATOMS
8
ITEM: BOX BOUNDS xy xz yz pp pp pp
-2.6849622040489091e-01 6.7096607011268476e+00 -2.7115056334451398e-01
-3.6542063121979274e-02 2.5110283232398678e+00 3.8570544066457019e-02
3.1119092249280111e-02 4.3672039123676836e+00 7.3910020198855071e-03
ITEM: ATOMS id type x y z
6 2 0.0754332 1.17454 0.706213
2 1 2.61548 0.587565 2.5148
4 1 0.382832 1.72655 2.13133
1 1 -0.260303 2.38711 0.0776863
7 2 1.78544 1.80535 2.4019
8 2 4.0165 0.667763 2.66018
3 1 4.62312 2.11873 2.6817
5 2 6.01117 2.20526 2.9819
