
     Program PWSCF v.6.7MaX starts on 19Dec2022 at 12:47: 8 

     This program is part of the open-source Quantum ESPRESSO suite
     for quantum simulation of materials; please cite
         "P. Giannozzi et al., J. Phys.:Condens. Matter 21 395502 (2009);
         "P. Giannozzi et al., J. Phys.:Condens. Matter 29 465901 (2017);
          URL http://www.quantum-espresso.org", 
     in publications or presentations arising from this work. More details at
     http://www.quantum-espresso.org/quote

     Parallel version (MPI), running on    24 processors

     MPI processes distributed on     1 nodes
     R & G space division:  proc/nbgrp/npool/nimage =      24
     Reading input from scale_3d-03.in

     Current dimensions of program PWSCF are:
     Max number of different atomic species (ntypx) = 10
     Max number of k-points (npk) =  40000
     Max angular momentum in pseudopotentials (lmaxx) =  3
     Message from routine read_pp_mesh:
     mesh size missing, using the one in header
     file Fe.pbe-spn-kjpaw_psl.0.2.1.UPF: wavefunction(s)  3D renormalized
     file O.pbe-n-kjpaw_psl.0.1.UPF: wavefunction(s)  2P renormalized

     Subspace diagonalization in iterative solution of the eigenvalue problem:
     a serial algorithm will be used


     Parallelization info
     --------------------
     sticks:   dense  smooth     PW     G-vecs:    dense   smooth      PW
     Min         854     316     85                56700    12780    1793
     Max         856     317     86                56703    12783    1795
     Sum       20521    7599   2049              1360823   306739   43063



     bravais-lattice index     =            0
     lattice parameter (alat)  =      19.9928  a.u.
     unit-cell volume          =    2270.1860 (a.u.)^3
     number of atoms/cell      =           25
     number of atomic types    =            4
     number of electrons       =       189.00
     number of Kohn-Sham states=          114
     kinetic-energy cutoff     =     100.0000  Ry
     charge density cutoff     =    1080.0000  Ry
     scf convergence threshold =      2.0E-10
     mixing beta               =       0.4000
     number of iterations used =            8  plain     mixing
     Exchange-correlation= PBE
                           (   1   4   3   4   0   0   0)

     celldm(1)=  19.992808  celldm(2)=   0.000000  celldm(3)=   0.000000
     celldm(4)=   0.000000  celldm(5)=   0.000000  celldm(6)=   0.000000

     crystal axes: (cart. coord. in units of alat)
               a(1) = (   1.000000   0.000000   0.000000 )  
               a(2) = (   0.000000   0.597590   0.000000 )  
               a(3) = (   0.000000   0.000000   0.475375 )  

     reciprocal axes: (cart. coord. in units 2 pi/alat)
               b(1) = (  1.000000  0.000000  0.000000 )  
               b(2) = (  0.000000  1.673388  0.000000 )  
               b(3) = (  0.000000  0.000000  2.103600 )  


     PseudoPot. # 1 for Fe read from file:
     /opt/QEpot/SSSP_precision_pseudos/Fe.pbe-spn-kjpaw_psl.0.2.1.UPF
     MD5 check sum: e86618425769142926afa95317d90200
     Pseudo is Projector augmented-wave + core cor, Zval = 16.0
     Generated using "atomic" code by A. Dal Corso  v.5.0.99 svn rev. 10869
     Shape of augmentation charge: PSQ
     Using radial grid of 1191 points,  6 beta functions with: 
                l(1) =   0
                l(2) =   0
                l(3) =   1
                l(4) =   1
                l(5) =   2
                l(6) =   2
     Q(r) pseudized with 0 coefficients 


     PseudoPot. # 2 for Na read from file:
     /opt/QEpot/SSSP_precision_pseudos/Na_ONCV_PBE-1.0.oncvpsp.upf
     MD5 check sum: 24a298df0a6742ae313db96548fdb2a4
     Pseudo is Norm-conserving, Zval =  9.0
     Generated using ONCVPSP code by D. R. Hamann
     Using radial grid of 1992 points,  4 beta functions with: 
                l(1) =   0
                l(2) =   0
                l(3) =   1
                l(4) =   1

     PseudoPot. # 3 for O  read from file:
     /opt/QEpot/SSSP_precision_pseudos/O.pbe-n-kjpaw_psl.0.1.UPF
     MD5 check sum: 0234752ac141de4415c5fc33072bef88
     Pseudo is Projector augmented-wave + core cor, Zval =  6.0
     Generated using "atomic" code by A. Dal Corso  v.5.0.99 svn rev. 10869
     Shape of augmentation charge: BESSEL
     Using radial grid of 1095 points,  4 beta functions with: 
                l(1) =   0
                l(2) =   0
                l(3) =   1
                l(4) =   1
     Q(r) pseudized with 0 coefficients 


     PseudoPot. # 4 for P  read from file:
     /opt/QEpot/SSSP_precision_pseudos/P.pbe-n-rrkjus_psl.1.0.0.UPF
     MD5 check sum: 8b930f418f0a4573dca56cd030ffe088
     Pseudo is Ultrasoft + core correction, Zval =  5.0
     Generated using "atomic" code by A. Dal Corso  v.5.1
     Using radial grid of 1147 points,  6 beta functions with: 
                l(1) =   0
                l(2) =   0
                l(3) =   1
                l(4) =   1
                l(5) =   2
                l(6) =   2
     Q(r) pseudized with 0 coefficients 


     atomic species   valence    mass     pseudopotential
        Fe            16.00    55.84500     Fe( 1.00)
        Na             9.00    22.98977     Na( 1.00)
        O              6.00    15.99940     O ( 1.00)
        P              5.00    30.97376     P ( 1.00)

     Starting magnetic structure 
     atomic species   magnetization
        Fe           0.312
        Na           0.000
        O            0.000
        P            0.000

     No symmetry found


                                    s                        frac. trans.

      isym =  1     identity                                     

 cryst.   s( 1) = (     1          0          0      )
                  (     0          1          0      )
                  (     0          0          1      )

 cart.    s( 1) = (  1.0000000  0.0000000  0.0000000 )
                  (  0.0000000  1.0000000  0.0000000 )
                  (  0.0000000  0.0000000  1.0000000 )


   Cartesian axes

     site n.     atom                  positions (alat units)
         1           Na  tau(   1) = (   0.5267800   0.2501284   0.2306180  )
         2           Fe  tau(   2) = (   0.2775050   0.4472674   0.4722466  )
         3           Fe  tau(   3) = (   0.2107690   0.1466874   0.2330719  )
         4           Fe  tau(   4) = (   0.7260420   0.1429088   0.0026588  )
         5           Fe  tau(   5) = (   0.7842060   0.4498914   0.2425851  )
         6           P   tau(   6) = (   0.1068460   0.4463178   0.2112516  )
         7           P   tau(   7) = (   0.3892680   0.1441405   0.4489717  )
         8           P   tau(   8) = (   0.8912160   0.1490282   0.2646648  )
         9           P   tau(   9) = (   0.6066990   0.4473576   0.0266572  )
        10           O   tau(  10) = (   0.1320850   0.4449702   0.3572247  )
        11           O   tau(  11) = (   0.3656990   0.1484640   0.1199059  )
        12           O   tau(  12) = (   0.8700850   0.1481975   0.1181826  )
        13           O   tau(  13) = (   0.6284590   0.4431267   0.3551991  )
        14           O   tau(  14) = (   0.4610830   0.4426086   0.0588087  )
        15           O   tau(  15) = (   0.0360890   0.1497536   0.2963752  )
        16           O   tau(  16) = (   0.5370310   0.1458765   0.4233822  )
        17           O   tau(  17) = (   0.9604850   0.4463668   0.1846211  )
        18           O   tau(  18) = (   0.1757850   0.5636456   0.1436124  )
        19           O   tau(  19) = (   0.3203990   0.0278513   0.3823364  )
        20           O   tau(  20) = (   0.8166330   0.2634439   0.3310230  )
        21           O   tau(  21) = (   0.6775460   0.3312519   0.0961033  )
        22           O   tau(  22) = (   0.8196290   0.0319944   0.3313272  )
        23           O   tau(  23) = (   0.6770700   0.5640789   0.0933780  )
        24           O   tau(  24) = (   0.1771920   0.3306824   0.1421829  )
        25           O   tau(  25) = (   0.3254700   0.2612077   0.3758404  )

   Crystallographic axes

     site n.     atom                  positions (cryst. coord.)
         1           Na  tau(   1) = (  0.5267800  0.4185620  0.4851280  )
         2           Fe  tau(   2) = (  0.2775050  0.7484520  0.9934180  )
         3           Fe  tau(   3) = (  0.2107690  0.2454650  0.4902900  )
         4           Fe  tau(   4) = (  0.7260420  0.2391420  0.0055930  )
         5           Fe  tau(   5) = (  0.7842060  0.7528430  0.5103020  )
         6           P   tau(   6) = (  0.1068460  0.7468630  0.4443890  )
         7           P   tau(   7) = (  0.3892680  0.2412030  0.9444570  )
         8           P   tau(   8) = (  0.8912160  0.2493820  0.5567490  )
         9           P   tau(   9) = (  0.6066990  0.7486030  0.0560760  )
        10           O   tau(  10) = (  0.1320850  0.7446080  0.7514580  )
        11           O   tau(  11) = (  0.3656990  0.2484380  0.2522340  )
        12           O   tau(  12) = (  0.8700850  0.2479920  0.2486090  )
        13           O   tau(  13) = (  0.6284590  0.7415230  0.7471970  )
        14           O   tau(  14) = (  0.4610830  0.7406560  0.1237100  )
        15           O   tau(  15) = (  0.0360890  0.2505960  0.6234550  )
        16           O   tau(  16) = (  0.5370310  0.2441080  0.8906270  )
        17           O   tau(  17) = (  0.9604850  0.7469450  0.3883690  )
        18           O   tau(  18) = (  0.1757850  0.9431980  0.3021030  )
        19           O   tau(  19) = (  0.3203990  0.0466060  0.8042830  )
        20           O   tau(  20) = (  0.8166330  0.4408440  0.6963400  )
        21           O   tau(  21) = (  0.6775460  0.5543130  0.2021630  )
        22           O   tau(  22) = (  0.8196290  0.0535390  0.6969800  )
        23           O   tau(  23) = (  0.6770700  0.9439230  0.1964300  )
        24           O   tau(  24) = (  0.1771920  0.5533600  0.2990960  )
        25           O   tau(  25) = (  0.3254700  0.4371020  0.7906180  )

     number of k points=   158  Marzari-Vanderbilt smearing, width (Ry)=  0.0073
                       cart. coord. in units 2pi/alat
        k(    1) = (   0.0000000   0.0000000   0.0000000), wk =   0.0031746
        k(    2) = (   0.0000000   0.0000000   0.2337334), wk =   0.0063492
        k(    3) = (   0.0000000   0.0000000   0.4674667), wk =   0.0063492
        k(    4) = (   0.0000000   0.0000000   0.7012001), wk =   0.0063492
        k(    5) = (   0.0000000   0.0000000   0.9349334), wk =   0.0063492
        k(    6) = (   0.0000000   0.2390555   0.0000000), wk =   0.0063492
        k(    7) = (   0.0000000   0.2390555   0.2337334), wk =   0.0063492
        k(    8) = (   0.0000000   0.2390555   0.4674667), wk =   0.0063492
        k(    9) = (   0.0000000   0.2390555   0.7012001), wk =   0.0063492
        k(   10) = (   0.0000000   0.2390555   0.9349334), wk =   0.0063492
        k(   11) = (   0.0000000   0.4781110   0.0000000), wk =   0.0063492
        k(   12) = (   0.0000000   0.4781110   0.2337334), wk =   0.0063492
        k(   13) = (   0.0000000   0.4781110   0.4674667), wk =   0.0063492
        k(   14) = (   0.0000000   0.4781110   0.7012001), wk =   0.0063492
        k(   15) = (   0.0000000   0.4781110   0.9349334), wk =   0.0063492
        k(   16) = (   0.0000000   0.7171664   0.0000000), wk =   0.0063492
        k(   17) = (   0.0000000   0.7171664   0.2337334), wk =   0.0063492
        k(   18) = (   0.0000000   0.7171664   0.4674667), wk =   0.0063492
        k(   19) = (   0.0000000   0.7171664   0.7012001), wk =   0.0063492
        k(   20) = (   0.0000000   0.7171664   0.9349334), wk =   0.0063492
        k(   21) = (   0.2000000   0.0000000   0.0000000), wk =   0.0063492
        k(   22) = (   0.2000000   0.0000000   0.2337334), wk =   0.0063492
        k(   23) = (   0.2000000   0.0000000   0.4674667), wk =   0.0063492
        k(   24) = (   0.2000000   0.0000000   0.7012001), wk =   0.0063492
        k(   25) = (   0.2000000   0.0000000   0.9349334), wk =   0.0063492
        k(   26) = (   0.2000000   0.2390555   0.0000000), wk =   0.0063492
        k(   27) = (   0.2000000   0.2390555   0.2337334), wk =   0.0063492
        k(   28) = (   0.2000000   0.2390555   0.4674667), wk =   0.0063492
        k(   29) = (   0.2000000   0.2390555   0.7012001), wk =   0.0063492
        k(   30) = (   0.2000000   0.2390555   0.9349334), wk =   0.0063492
        k(   31) = (   0.2000000   0.4781110   0.0000000), wk =   0.0063492
        k(   32) = (   0.2000000   0.4781110   0.2337334), wk =   0.0063492
        k(   33) = (   0.2000000   0.4781110   0.4674667), wk =   0.0063492
        k(   34) = (   0.2000000   0.4781110   0.7012001), wk =   0.0063492
        k(   35) = (   0.2000000   0.4781110   0.9349334), wk =   0.0063492
        k(   36) = (   0.2000000   0.7171664   0.0000000), wk =   0.0063492
        k(   37) = (   0.2000000   0.7171664   0.2337334), wk =   0.0063492
        k(   38) = (   0.2000000   0.7171664   0.4674667), wk =   0.0063492
        k(   39) = (   0.2000000   0.7171664   0.7012001), wk =   0.0063492
        k(   40) = (   0.2000000   0.7171664   0.9349334), wk =   0.0063492
        k(   41) = (   0.4000000   0.0000000   0.0000000), wk =   0.0063492
        k(   42) = (   0.4000000   0.0000000   0.2337334), wk =   0.0063492
        k(   43) = (   0.4000000   0.0000000   0.4674667), wk =   0.0063492
        k(   44) = (   0.4000000   0.0000000   0.7012001), wk =   0.0063492
        k(   45) = (   0.4000000   0.0000000   0.9349334), wk =   0.0063492
        k(   46) = (   0.4000000   0.2390555   0.0000000), wk =   0.0063492
        k(   47) = (   0.4000000   0.2390555   0.2337334), wk =   0.0063492
        k(   48) = (   0.4000000   0.2390555   0.4674667), wk =   0.0063492
        k(   49) = (   0.4000000   0.2390555   0.7012001), wk =   0.0063492
        k(   50) = (   0.4000000   0.2390555   0.9349334), wk =   0.0063492
        k(   51) = (   0.4000000   0.4781110   0.0000000), wk =   0.0063492
        k(   52) = (   0.4000000   0.4781110   0.2337334), wk =   0.0063492
        k(   53) = (   0.4000000   0.4781110   0.4674667), wk =   0.0063492
        k(   54) = (   0.4000000   0.4781110   0.7012001), wk =   0.0063492
        k(   55) = (   0.4000000   0.4781110   0.9349334), wk =   0.0063492
        k(   56) = (   0.4000000   0.7171664   0.0000000), wk =   0.0063492
        k(   57) = (   0.4000000   0.7171664   0.2337334), wk =   0.0063492
        k(   58) = (   0.4000000   0.7171664   0.4674667), wk =   0.0063492
        k(   59) = (   0.4000000   0.7171664   0.7012001), wk =   0.0063492
        k(   60) = (   0.4000000   0.7171664   0.9349334), wk =   0.0063492
        k(   61) = (   0.0000000  -0.2390555   0.2337334), wk =   0.0063492
        k(   62) = (   0.0000000  -0.2390555   0.4674667), wk =   0.0063492
        k(   63) = (   0.0000000  -0.2390555   0.7012001), wk =   0.0063492
        k(   64) = (   0.0000000  -0.2390555   0.9349334), wk =   0.0063492
        k(   65) = (   0.0000000  -0.4781110   0.2337334), wk =   0.0063492
        k(   66) = (   0.0000000  -0.4781110   0.4674667), wk =   0.0063492
        k(   67) = (   0.0000000  -0.4781110   0.7012001), wk =   0.0063492
        k(   68) = (   0.0000000  -0.4781110   0.9349334), wk =   0.0063492
        k(   69) = (   0.0000000  -0.7171664   0.2337334), wk =   0.0063492
        k(   70) = (   0.0000000  -0.7171664   0.4674667), wk =   0.0063492
        k(   71) = (   0.0000000  -0.7171664   0.7012001), wk =   0.0063492
        k(   72) = (   0.0000000  -0.7171664   0.9349334), wk =   0.0063492
        k(   73) = (  -0.2000000   0.0000000   0.2337334), wk =   0.0063492
        k(   74) = (  -0.2000000   0.0000000   0.4674667), wk =   0.0063492
        k(   75) = (  -0.2000000   0.0000000   0.7012001), wk =   0.0063492
        k(   76) = (  -0.2000000   0.0000000   0.9349334), wk =   0.0063492
        k(   77) = (  -0.2000000   0.2390555   0.0000000), wk =   0.0063492
        k(   78) = (  -0.2000000  -0.2390555   0.2337334), wk =   0.0063492
        k(   79) = (  -0.2000000   0.2390555  -0.2337334), wk =   0.0063492
        k(   80) = (   0.2000000  -0.2390555  -0.2337334), wk =   0.0063492
        k(   81) = (  -0.2000000  -0.2390555   0.4674667), wk =   0.0063492
        k(   82) = (  -0.2000000   0.2390555  -0.4674667), wk =   0.0063492
        k(   83) = (   0.2000000  -0.2390555  -0.4674667), wk =   0.0063492
        k(   84) = (  -0.2000000  -0.2390555   0.7012001), wk =   0.0063492
        k(   85) = (  -0.2000000   0.2390555  -0.7012001), wk =   0.0063492
        k(   86) = (   0.2000000  -0.2390555  -0.7012001), wk =   0.0063492
        k(   87) = (  -0.2000000  -0.2390555   0.9349334), wk =   0.0063492
        k(   88) = (  -0.2000000   0.2390555  -0.9349334), wk =   0.0063492
        k(   89) = (   0.2000000  -0.2390555  -0.9349334), wk =   0.0063492
        k(   90) = (  -0.2000000   0.4781110   0.0000000), wk =   0.0063492
        k(   91) = (  -0.2000000  -0.4781110   0.2337334), wk =   0.0063492
        k(   92) = (  -0.2000000   0.4781110  -0.2337334), wk =   0.0063492
        k(   93) = (   0.2000000  -0.4781110  -0.2337334), wk =   0.0063492
        k(   94) = (  -0.2000000  -0.4781110   0.4674667), wk =   0.0063492
        k(   95) = (  -0.2000000   0.4781110  -0.4674667), wk =   0.0063492
        k(   96) = (   0.2000000  -0.4781110  -0.4674667), wk =   0.0063492
        k(   97) = (  -0.2000000  -0.4781110   0.7012001), wk =   0.0063492
        k(   98) = (  -0.2000000   0.4781110  -0.7012001), wk =   0.0063492
        k(   99) = (   0.2000000  -0.4781110  -0.7012001), wk =   0.0063492
        k(  100) = (  -0.2000000  -0.4781110   0.9349334), wk =   0.0063492
        k(  101) = (  -0.2000000   0.4781110  -0.9349334), wk =   0.0063492
        k(  102) = (   0.2000000  -0.4781110  -0.9349334), wk =   0.0063492
        k(  103) = (  -0.2000000   0.7171664   0.0000000), wk =   0.0063492
        k(  104) = (  -0.2000000  -0.7171664   0.2337334), wk =   0.0063492
        k(  105) = (  -0.2000000   0.7171664  -0.2337334), wk =   0.0063492
        k(  106) = (   0.2000000  -0.7171664  -0.2337334), wk =   0.0063492
        k(  107) = (  -0.2000000  -0.7171664   0.4674667), wk =   0.0063492
        k(  108) = (  -0.2000000   0.7171664  -0.4674667), wk =   0.0063492
        k(  109) = (   0.2000000  -0.7171664  -0.4674667), wk =   0.0063492
        k(  110) = (  -0.2000000  -0.7171664   0.7012001), wk =   0.0063492
        k(  111) = (  -0.2000000   0.7171664  -0.7012001), wk =   0.0063492
        k(  112) = (   0.2000000  -0.7171664  -0.7012001), wk =   0.0063492
        k(  113) = (  -0.2000000  -0.7171664   0.9349334), wk =   0.0063492
        k(  114) = (  -0.2000000   0.7171664  -0.9349334), wk =   0.0063492
        k(  115) = (   0.2000000  -0.7171664  -0.9349334), wk =   0.0063492
        k(  116) = (  -0.4000000   0.0000000   0.2337334), wk =   0.0063492
        k(  117) = (  -0.4000000   0.0000000   0.4674667), wk =   0.0063492
        k(  118) = (  -0.4000000   0.0000000   0.7012001), wk =   0.0063492
        k(  119) = (  -0.4000000   0.0000000   0.9349334), wk =   0.0063492
        k(  120) = (  -0.4000000   0.2390555   0.0000000), wk =   0.0063492
        k(  121) = (  -0.4000000  -0.2390555   0.2337334), wk =   0.0063492
        k(  122) = (  -0.4000000   0.2390555  -0.2337334), wk =   0.0063492
        k(  123) = (   0.4000000  -0.2390555  -0.2337334), wk =   0.0063492
        k(  124) = (  -0.4000000  -0.2390555   0.4674667), wk =   0.0063492
        k(  125) = (  -0.4000000   0.2390555  -0.4674667), wk =   0.0063492
        k(  126) = (   0.4000000  -0.2390555  -0.4674667), wk =   0.0063492
        k(  127) = (  -0.4000000  -0.2390555   0.7012001), wk =   0.0063492
        k(  128) = (  -0.4000000   0.2390555  -0.7012001), wk =   0.0063492
        k(  129) = (   0.4000000  -0.2390555  -0.7012001), wk =   0.0063492
        k(  130) = (  -0.4000000  -0.2390555   0.9349334), wk =   0.0063492
        k(  131) = (  -0.4000000   0.2390555  -0.9349334), wk =   0.0063492
        k(  132) = (   0.4000000  -0.2390555  -0.9349334), wk =   0.0063492
        k(  133) = (  -0.4000000   0.4781110   0.0000000), wk =   0.0063492
        k(  134) = (  -0.4000000  -0.4781110   0.2337334), wk =   0.0063492
        k(  135) = (  -0.4000000   0.4781110  -0.2337334), wk =   0.0063492
        k(  136) = (   0.4000000  -0.4781110  -0.2337334), wk =   0.0063492
        k(  137) = (  -0.4000000  -0.4781110   0.4674667), wk =   0.0063492
        k(  138) = (  -0.4000000   0.4781110  -0.4674667), wk =   0.0063492
        k(  139) = (   0.4000000  -0.4781110  -0.4674667), wk =   0.0063492
        k(  140) = (  -0.4000000  -0.4781110   0.7012001), wk =   0.0063492
        k(  141) = (  -0.4000000   0.4781110  -0.7012001), wk =   0.0063492
        k(  142) = (   0.4000000  -0.4781110  -0.7012001), wk =   0.0063492
        k(  143) = (  -0.4000000  -0.4781110   0.9349334), wk =   0.0063492
        k(  144) = (  -0.4000000   0.4781110  -0.9349334), wk =   0.0063492
        k(  145) = (   0.4000000  -0.4781110  -0.9349334), wk =   0.0063492
        k(  146) = (  -0.4000000   0.7171664   0.0000000), wk =   0.0063492
        k(  147) = (  -0.4000000  -0.7171664   0.2337334), wk =   0.0063492
        k(  148) = (  -0.4000000   0.7171664  -0.2337334), wk =   0.0063492
        k(  149) = (   0.4000000  -0.7171664  -0.2337334), wk =   0.0063492
        k(  150) = (  -0.4000000  -0.7171664   0.4674667), wk =   0.0063492
        k(  151) = (  -0.4000000   0.7171664  -0.4674667), wk =   0.0063492
        k(  152) = (   0.4000000  -0.7171664  -0.4674667), wk =   0.0063492
        k(  153) = (  -0.4000000  -0.7171664   0.7012001), wk =   0.0063492
        k(  154) = (  -0.4000000   0.7171664  -0.7012001), wk =   0.0063492
        k(  155) = (   0.4000000  -0.7171664  -0.7012001), wk =   0.0063492
        k(  156) = (  -0.4000000  -0.7171664   0.9349334), wk =   0.0063492
        k(  157) = (  -0.4000000   0.7171664  -0.9349334), wk =   0.0063492
        k(  158) = (   0.4000000  -0.7171664  -0.9349334), wk =   0.0063492

                       cryst. coord.
        k(    1) = (   0.0000000   0.0000000   0.0000000), wk =   0.0031746
        k(    2) = (   0.0000000   0.0000000   0.1111111), wk =   0.0063492
        k(    3) = (   0.0000000   0.0000000   0.2222222), wk =   0.0063492
        k(    4) = (   0.0000000   0.0000000   0.3333333), wk =   0.0063492
        k(    5) = (   0.0000000   0.0000000   0.4444444), wk =   0.0063492
        k(    6) = (   0.0000000   0.1428571   0.0000000), wk =   0.0063492
        k(    7) = (   0.0000000   0.1428571   0.1111111), wk =   0.0063492
        k(    8) = (   0.0000000   0.1428571   0.2222222), wk =   0.0063492
        k(    9) = (   0.0000000   0.1428571   0.3333333), wk =   0.0063492
        k(   10) = (   0.0000000   0.1428571   0.4444444), wk =   0.0063492
        k(   11) = (   0.0000000   0.2857143   0.0000000), wk =   0.0063492
        k(   12) = (   0.0000000   0.2857143   0.1111111), wk =   0.0063492
        k(   13) = (   0.0000000   0.2857143   0.2222222), wk =   0.0063492
        k(   14) = (   0.0000000   0.2857143   0.3333333), wk =   0.0063492
        k(   15) = (   0.0000000   0.2857143   0.4444444), wk =   0.0063492
        k(   16) = (   0.0000000   0.4285714   0.0000000), wk =   0.0063492
        k(   17) = (   0.0000000   0.4285714   0.1111111), wk =   0.0063492
        k(   18) = (   0.0000000   0.4285714   0.2222222), wk =   0.0063492
        k(   19) = (   0.0000000   0.4285714   0.3333333), wk =   0.0063492
        k(   20) = (   0.0000000   0.4285714   0.4444444), wk =   0.0063492
        k(   21) = (   0.2000000   0.0000000   0.0000000), wk =   0.0063492
        k(   22) = (   0.2000000   0.0000000   0.1111111), wk =   0.0063492
        k(   23) = (   0.2000000   0.0000000   0.2222222), wk =   0.0063492
        k(   24) = (   0.2000000   0.0000000   0.3333333), wk =   0.0063492
        k(   25) = (   0.2000000   0.0000000   0.4444444), wk =   0.0063492
        k(   26) = (   0.2000000   0.1428571   0.0000000), wk =   0.0063492
        k(   27) = (   0.2000000   0.1428571   0.1111111), wk =   0.0063492
        k(   28) = (   0.2000000   0.1428571   0.2222222), wk =   0.0063492
        k(   29) = (   0.2000000   0.1428571   0.3333333), wk =   0.0063492
        k(   30) = (   0.2000000   0.1428571   0.4444444), wk =   0.0063492
        k(   31) = (   0.2000000   0.2857143   0.0000000), wk =   0.0063492
        k(   32) = (   0.2000000   0.2857143   0.1111111), wk =   0.0063492
        k(   33) = (   0.2000000   0.2857143   0.2222222), wk =   0.0063492
        k(   34) = (   0.2000000   0.2857143   0.3333333), wk =   0.0063492
        k(   35) = (   0.2000000   0.2857143   0.4444444), wk =   0.0063492
        k(   36) = (   0.2000000   0.4285714   0.0000000), wk =   0.0063492
        k(   37) = (   0.2000000   0.4285714   0.1111111), wk =   0.0063492
        k(   38) = (   0.2000000   0.4285714   0.2222222), wk =   0.0063492
        k(   39) = (   0.2000000   0.4285714   0.3333333), wk =   0.0063492
        k(   40) = (   0.2000000   0.4285714   0.4444444), wk =   0.0063492
        k(   41) = (   0.4000000   0.0000000   0.0000000), wk =   0.0063492
        k(   42) = (   0.4000000   0.0000000   0.1111111), wk =   0.0063492
        k(   43) = (   0.4000000   0.0000000   0.2222222), wk =   0.0063492
        k(   44) = (   0.4000000   0.0000000   0.3333333), wk =   0.0063492
        k(   45) = (   0.4000000   0.0000000   0.4444444), wk =   0.0063492
        k(   46) = (   0.4000000   0.1428571   0.0000000), wk =   0.0063492
        k(   47) = (   0.4000000   0.1428571   0.1111111), wk =   0.0063492
        k(   48) = (   0.4000000   0.1428571   0.2222222), wk =   0.0063492
        k(   49) = (   0.4000000   0.1428571   0.3333333), wk =   0.0063492
        k(   50) = (   0.4000000   0.1428571   0.4444444), wk =   0.0063492
        k(   51) = (   0.4000000   0.2857143   0.0000000), wk =   0.0063492
        k(   52) = (   0.4000000   0.2857143   0.1111111), wk =   0.0063492
        k(   53) = (   0.4000000   0.2857143   0.2222222), wk =   0.0063492
        k(   54) = (   0.4000000   0.2857143   0.3333333), wk =   0.0063492
        k(   55) = (   0.4000000   0.2857143   0.4444444), wk =   0.0063492
        k(   56) = (   0.4000000   0.4285714   0.0000000), wk =   0.0063492
        k(   57) = (   0.4000000   0.4285714   0.1111111), wk =   0.0063492
        k(   58) = (   0.4000000   0.4285714   0.2222222), wk =   0.0063492
        k(   59) = (   0.4000000   0.4285714   0.3333333), wk =   0.0063492
        k(   60) = (   0.4000000   0.4285714   0.4444444), wk =   0.0063492
        k(   61) = (   0.0000000  -0.1428571   0.1111111), wk =   0.0063492
        k(   62) = (   0.0000000  -0.1428571   0.2222222), wk =   0.0063492
        k(   63) = (   0.0000000  -0.1428571   0.3333333), wk =   0.0063492
        k(   64) = (   0.0000000  -0.1428571   0.4444444), wk =   0.0063492
        k(   65) = (   0.0000000  -0.2857143   0.1111111), wk =   0.0063492
        k(   66) = (   0.0000000  -0.2857143   0.2222222), wk =   0.0063492
        k(   67) = (   0.0000000  -0.2857143   0.3333333), wk =   0.0063492
        k(   68) = (   0.0000000  -0.2857143   0.4444444), wk =   0.0063492
        k(   69) = (   0.0000000  -0.4285714   0.1111111), wk =   0.0063492
        k(   70) = (   0.0000000  -0.4285714   0.2222222), wk =   0.0063492
        k(   71) = (   0.0000000  -0.4285714   0.3333333), wk =   0.0063492
        k(   72) = (   0.0000000  -0.4285714   0.4444444), wk =   0.0063492
        k(   73) = (  -0.2000000   0.0000000   0.1111111), wk =   0.0063492
        k(   74) = (  -0.2000000   0.0000000   0.2222222), wk =   0.0063492
        k(   75) = (  -0.2000000   0.0000000   0.3333333), wk =   0.0063492
        k(   76) = (  -0.2000000   0.0000000   0.4444444), wk =   0.0063492
        k(   77) = (  -0.2000000   0.1428571   0.0000000), wk =   0.0063492
        k(   78) = (  -0.2000000  -0.1428571   0.1111111), wk =   0.0063492
        k(   79) = (  -0.2000000   0.1428571  -0.1111111), wk =   0.0063492
        k(   80) = (   0.2000000  -0.1428571  -0.1111111), wk =   0.0063492
        k(   81) = (  -0.2000000  -0.1428571   0.2222222), wk =   0.0063492
        k(   82) = (  -0.2000000   0.1428571  -0.2222222), wk =   0.0063492
        k(   83) = (   0.2000000  -0.1428571  -0.2222222), wk =   0.0063492
        k(   84) = (  -0.2000000  -0.1428571   0.3333333), wk =   0.0063492
        k(   85) = (  -0.2000000   0.1428571  -0.3333333), wk =   0.0063492
        k(   86) = (   0.2000000  -0.1428571  -0.3333333), wk =   0.0063492
        k(   87) = (  -0.2000000  -0.1428571   0.4444444), wk =   0.0063492
        k(   88) = (  -0.2000000   0.1428571  -0.4444444), wk =   0.0063492
        k(   89) = (   0.2000000  -0.1428571  -0.4444444), wk =   0.0063492
        k(   90) = (  -0.2000000   0.2857143   0.0000000), wk =   0.0063492
        k(   91) = (  -0.2000000  -0.2857143   0.1111111), wk =   0.0063492
        k(   92) = (  -0.2000000   0.2857143  -0.1111111), wk =   0.0063492
        k(   93) = (   0.2000000  -0.2857143  -0.1111111), wk =   0.0063492
        k(   94) = (  -0.2000000  -0.2857143   0.2222222), wk =   0.0063492
        k(   95) = (  -0.2000000   0.2857143  -0.2222222), wk =   0.0063492
        k(   96) = (   0.2000000  -0.2857143  -0.2222222), wk =   0.0063492
        k(   97) = (  -0.2000000  -0.2857143   0.3333333), wk =   0.0063492
        k(   98) = (  -0.2000000   0.2857143  -0.3333333), wk =   0.0063492
        k(   99) = (   0.2000000  -0.2857143  -0.3333333), wk =   0.0063492
        k(  100) = (  -0.2000000  -0.2857143   0.4444444), wk =   0.0063492
        k(  101) = (  -0.2000000   0.2857143  -0.4444444), wk =   0.0063492
        k(  102) = (   0.2000000  -0.2857143  -0.4444444), wk =   0.0063492
        k(  103) = (  -0.2000000   0.4285714   0.0000000), wk =   0.0063492
        k(  104) = (  -0.2000000  -0.4285714   0.1111111), wk =   0.0063492
        k(  105) = (  -0.2000000   0.4285714  -0.1111111), wk =   0.0063492
        k(  106) = (   0.2000000  -0.4285714  -0.1111111), wk =   0.0063492
        k(  107) = (  -0.2000000  -0.4285714   0.2222222), wk =   0.0063492
        k(  108) = (  -0.2000000   0.4285714  -0.2222222), wk =   0.0063492
        k(  109) = (   0.2000000  -0.4285714  -0.2222222), wk =   0.0063492
        k(  110) = (  -0.2000000  -0.4285714   0.3333333), wk =   0.0063492
        k(  111) = (  -0.2000000   0.4285714  -0.3333333), wk =   0.0063492
        k(  112) = (   0.2000000  -0.4285714  -0.3333333), wk =   0.0063492
        k(  113) = (  -0.2000000  -0.4285714   0.4444444), wk =   0.0063492
        k(  114) = (  -0.2000000   0.4285714  -0.4444444), wk =   0.0063492
        k(  115) = (   0.2000000  -0.4285714  -0.4444444), wk =   0.0063492
        k(  116) = (  -0.4000000   0.0000000   0.1111111), wk =   0.0063492
        k(  117) = (  -0.4000000   0.0000000   0.2222222), wk =   0.0063492
        k(  118) = (  -0.4000000   0.0000000   0.3333333), wk =   0.0063492
        k(  119) = (  -0.4000000   0.0000000   0.4444444), wk =   0.0063492
        k(  120) = (  -0.4000000   0.1428571   0.0000000), wk =   0.0063492
        k(  121) = (  -0.4000000  -0.1428571   0.1111111), wk =   0.0063492
        k(  122) = (  -0.4000000   0.1428571  -0.1111111), wk =   0.0063492
        k(  123) = (   0.4000000  -0.1428571  -0.1111111), wk =   0.0063492
        k(  124) = (  -0.4000000  -0.1428571   0.2222222), wk =   0.0063492
        k(  125) = (  -0.4000000   0.1428571  -0.2222222), wk =   0.0063492
        k(  126) = (   0.4000000  -0.1428571  -0.2222222), wk =   0.0063492
        k(  127) = (  -0.4000000  -0.1428571   0.3333333), wk =   0.0063492
        k(  128) = (  -0.4000000   0.1428571  -0.3333333), wk =   0.0063492
        k(  129) = (   0.4000000  -0.1428571  -0.3333333), wk =   0.0063492
        k(  130) = (  -0.4000000  -0.1428571   0.4444444), wk =   0.0063492
        k(  131) = (  -0.4000000   0.1428571  -0.4444444), wk =   0.0063492
        k(  132) = (   0.4000000  -0.1428571  -0.4444444), wk =   0.0063492
        k(  133) = (  -0.4000000   0.2857143   0.0000000), wk =   0.0063492
        k(  134) = (  -0.4000000  -0.2857143   0.1111111), wk =   0.0063492
        k(  135) = (  -0.4000000   0.2857143  -0.1111111), wk =   0.0063492
        k(  136) = (   0.4000000  -0.2857143  -0.1111111), wk =   0.0063492
        k(  137) = (  -0.4000000  -0.2857143   0.2222222), wk =   0.0063492
        k(  138) = (  -0.4000000   0.2857143  -0.2222222), wk =   0.0063492
        k(  139) = (   0.4000000  -0.2857143  -0.2222222), wk =   0.0063492
        k(  140) = (  -0.4000000  -0.2857143   0.3333333), wk =   0.0063492
        k(  141) = (  -0.4000000   0.2857143  -0.3333333), wk =   0.0063492
        k(  142) = (   0.4000000  -0.2857143  -0.3333333), wk =   0.0063492
        k(  143) = (  -0.4000000  -0.2857143   0.4444444), wk =   0.0063492
        k(  144) = (  -0.4000000   0.2857143  -0.4444444), wk =   0.0063492
        k(  145) = (   0.4000000  -0.2857143  -0.4444444), wk =   0.0063492
        k(  146) = (  -0.4000000   0.4285714   0.0000000), wk =   0.0063492
        k(  147) = (  -0.4000000  -0.4285714   0.1111111), wk =   0.0063492
        k(  148) = (  -0.4000000   0.4285714  -0.1111111), wk =   0.0063492
        k(  149) = (   0.4000000  -0.4285714  -0.1111111), wk =   0.0063492
        k(  150) = (  -0.4000000  -0.4285714   0.2222222), wk =   0.0063492
        k(  151) = (  -0.4000000   0.4285714  -0.2222222), wk =   0.0063492
        k(  152) = (   0.4000000  -0.4285714  -0.2222222), wk =   0.0063492
        k(  153) = (  -0.4000000  -0.4285714   0.3333333), wk =   0.0063492
        k(  154) = (  -0.4000000   0.4285714  -0.3333333), wk =   0.0063492
        k(  155) = (   0.4000000  -0.4285714  -0.3333333), wk =   0.0063492
        k(  156) = (  -0.4000000  -0.4285714   0.4444444), wk =   0.0063492
        k(  157) = (  -0.4000000   0.4285714  -0.4444444), wk =   0.0063492
        k(  158) = (   0.4000000  -0.4285714  -0.4444444), wk =   0.0063492

     Dense  grid:  1360823 G-vectors     FFT dimensions: ( 216, 125, 100)

     Smooth grid:   306739 G-vectors     FFT dimensions: ( 128,  80,  64)

     Dynamical RAM for                 wfc:       2.78 MB

     Dynamical RAM for     wfc (w. buffer):     880.62 MB

     Dynamical RAM for           str. fact:       3.46 MB

     Dynamical RAM for           local pot:       0.00 MB

     Dynamical RAM for          nlocal pot:       6.82 MB

     Dynamical RAM for                qrad:      10.54 MB

     Dynamical RAM for          rho,v,vnew:      11.37 MB

     Dynamical RAM for               rhoin:       3.79 MB

     Dynamical RAM for            rho*nmix:      27.69 MB

     Dynamical RAM for           G-vectors:       3.34 MB

     Dynamical RAM for          h,s,v(r/c):       2.38 MB

     Dynamical RAM for          <psi|beta>:       0.49 MB

     Dynamical RAM for                 psi:       5.56 MB

     Dynamical RAM for                hpsi:       5.56 MB

     Dynamical RAM for                spsi:       5.56 MB

     Dynamical RAM for      wfcinit/wfcrot:       7.11 MB

     Dynamical RAM for           addusdens:     175.63 MB

     Dynamical RAM for          addusforce:     201.71 MB

     Dynamical RAM for         addusstress:     175.20 MB

     Estimated static dynamical RAM per process >     958.14 MB

     Estimated max dynamical RAM per process >       1.13 GB

     Estimated total dynamical RAM >      27.18 GB

     Check: negative core charge=   -0.000003
     Generating pointlists ...
     new r_m :   0.0762 (alat units)  1.5234 (a.u.) for type    1
     new r_m :   0.0898 (alat units)  1.7956 (a.u.) for type    2
     new r_m :   0.0611 (alat units)  1.2206 (a.u.) for type    3
     new r_m :   0.0611 (alat units)  1.2206 (a.u.) for type    4

     Initial potential from superposition of free atoms

     starting charge  188.99132, renormalised to  189.00000
     Starting wfcs are  137 randomized atomic wfcs
     Checking if some PAW data can be deallocated... 
       PAW data deallocated on   20 nodes for type:  1
       PAW data deallocated on    8 nodes for type:  3

     total cpu time spent up to now is      180.7 secs

     Self-consistent Calculation

     iteration #  1     ecut=   100.00 Ry     beta= 0.40
     Davidson diagonalization with overlap
     ethr =  1.00E-02,  avg # of iterations =  2.9

     negative rho (up, down):  0.000E+00 8.748E-05

     total cpu time spent up to now is      738.8 secs

     total energy              =   -2123.85847989 Ry
     estimated scf accuracy    <       6.96386883 Ry

     total magnetization       =    19.00 Bohr mag/cell
     absolute magnetization    =    19.00 Bohr mag/cell

     iteration #  2     ecut=   100.00 Ry     beta= 0.40
     Davidson diagonalization with overlap
     ethr =  3.68E-03,  avg # of iterations =  2.0

     negative rho (up, down):  0.000E+00 4.482E-05

     total cpu time spent up to now is     1262.5 secs

     total energy              =   -2120.81785789 Ry
     estimated scf accuracy    <      40.76254262 Ry

     total magnetization       =     7.96 Bohr mag/cell
     absolute magnetization    =     9.37 Bohr mag/cell

     iteration #  3     ecut=   100.00 Ry     beta= 0.40
     Davidson diagonalization with overlap
     ethr =  3.68E-03,  avg # of iterations =  3.3

     negative rho (up, down):  0.000E+00 1.310E-05

     total cpu time spent up to now is     1733.3 secs

     total energy              =   -2122.96905695 Ry
     estimated scf accuracy    <      78.44773150 Ry

     total magnetization       =     1.00 Bohr mag/cell
     absolute magnetization    =     5.23 Bohr mag/cell

     iteration #  4     ecut=   100.00 Ry     beta= 0.40
     Davidson diagonalization with overlap
     ethr =  3.68E-03,  avg # of iterations =  1.5

     negative rho (up, down):  0.000E+00 2.580E-05

     total cpu time spent up to now is     2134.8 secs

     total energy              =   -2125.38683410 Ry
     estimated scf accuracy    <       7.97409055 Ry

     total magnetization       =    14.69 Bohr mag/cell
     absolute magnetization    =    14.79 Bohr mag/cell

     iteration #  5     ecut=   100.00 Ry     beta= 0.40
     Davidson diagonalization with overlap
     ethr =  3.68E-03,  avg # of iterations =  1.5

     negative rho (up, down):  0.000E+00 7.129E-05

     total cpu time spent up to now is     2543.9 secs

     total energy              =   -2125.54328453 Ry
     estimated scf accuracy    <      10.29361074 Ry

     total magnetization       =    14.86 Bohr mag/cell
     absolute magnetization    =    15.05 Bohr mag/cell

     iteration #  6     ecut=   100.00 Ry     beta= 0.40
     Davidson diagonalization with overlap
     ethr =  3.68E-03,  avg # of iterations =  1.5

     negative rho (up, down):  0.000E+00 2.555E-04

     total cpu time spent up to now is     2945.0 secs

     total energy              =   -2126.08485540 Ry
     estimated scf accuracy    <       0.98816506 Ry

     total magnetization       =    19.00 Bohr mag/cell
     absolute magnetization    =    19.00 Bohr mag/cell

     iteration #  7     ecut=   100.00 Ry     beta= 0.40
     Davidson diagonalization with overlap
     ethr =  5.23E-04,  avg # of iterations =  1.2

     negative rho (up, down):  0.000E+00 6.000E-04

     total cpu time spent up to now is     3321.6 secs

     total energy              =   -2126.06069274 Ry
     estimated scf accuracy    <       0.41021676 Ry

     total magnetization       =    19.00 Bohr mag/cell
     absolute magnetization    =    19.00 Bohr mag/cell

     iteration #  8     ecut=   100.00 Ry     beta= 0.40
     Davidson diagonalization with overlap
     c_bands:  1 eigenvalues not converged
     ethr =  2.17E-04,  avg # of iterations =  7.5

     negative rho (up, down):  0.000E+00 6.192E-04

     total cpu time spent up to now is     3860.8 secs

     total energy              =   -2126.07923190 Ry
     estimated scf accuracy    <       0.43125976 Ry

     total magnetization       =    19.00 Bohr mag/cell
     absolute magnetization    =    19.01 Bohr mag/cell

     iteration #  9     ecut=   100.00 Ry     beta= 0.40
     Davidson diagonalization with overlap
     ethr =  2.17E-04,  avg # of iterations =  1.1

     negative rho (up, down):  0.000E+00 6.201E-04

     total cpu time spent up to now is     4234.0 secs

     total energy              =   -2126.08362519 Ry
     estimated scf accuracy    <       0.47833057 Ry

     total magnetization       =    19.00 Bohr mag/cell
     absolute magnetization    =    19.01 Bohr mag/cell

     iteration # 10     ecut=   100.00 Ry     beta= 0.40
     Davidson diagonalization with overlap
     ethr =  2.17E-04,  avg # of iterations =  1.0

     negative rho (up, down):  0.000E+00 7.375E-04

     total cpu time spent up to now is     4602.5 secs

     total energy              =   -2126.09177342 Ry
     estimated scf accuracy    <       0.07171566 Ry

     total magnetization       =    19.00 Bohr mag/cell
     absolute magnetization    =    19.01 Bohr mag/cell

     iteration # 11     ecut=   100.00 Ry     beta= 0.40
     Davidson diagonalization with overlap
     c_bands:  1 eigenvalues not converged
     c_bands:  1 eigenvalues not converged
     c_bands:  1 eigenvalues not converged
     c_bands:  1 eigenvalues not converged
     c_bands:  1 eigenvalues not converged
     c_bands:  1 eigenvalues not converged
     c_bands:  1 eigenvalues not converged
     c_bands:  1 eigenvalues not converged
     c_bands:  1 eigenvalues not converged
     c_bands:  1 eigenvalues not converged
     c_bands:  1 eigenvalues not converged
     c_bands:  1 eigenvalues not converged
     c_bands:  1 eigenvalues not converged
     c_bands:  3 eigenvalues not converged
     c_bands:  1 eigenvalues not converged
     c_bands:  1 eigenvalues not converged
     c_bands:  1 eigenvalues not converged
     c_bands:  1 eigenvalues not converged
     ethr =  3.79E-05,  avg # of iterations = 12.4

     negative rho (up, down):  0.000E+00 8.887E-04

     total cpu time spent up to now is     5314.0 secs

     total energy              =   -2126.09348322 Ry
     estimated scf accuracy    <       0.04053508 Ry

     total magnetization       =    19.00 Bohr mag/cell
     absolute magnetization    =    19.02 Bohr mag/cell

     iteration # 12     ecut=   100.00 Ry     beta= 0.40
     Davidson diagonalization with overlap
     c_bands:  1 eigenvalues not converged
     c_bands:  1 eigenvalues not converged
     c_bands:  1 eigenvalues not converged
     c_bands:  1 eigenvalues not converged
     c_bands:  1 eigenvalues not converged
     c_bands:  1 eigenvalues not converged
     c_bands:  1 eigenvalues not converged
     ethr =  2.14E-05,  avg # of iterations =  2.9

     negative rho (up, down):  0.000E+00 9.559E-04

     total cpu time spent up to now is     5742.1 secs

     total energy              =   -2126.09500671 Ry
     estimated scf accuracy    <       0.07736888 Ry

     total magnetization       =    19.00 Bohr mag/cell
     absolute magnetization    =    19.03 Bohr mag/cell

     iteration # 13     ecut=   100.00 Ry     beta= 0.40
     Davidson diagonalization with overlap
     c_bands:  1 eigenvalues not converged
     ethr =  2.14E-05,  avg # of iterations =  1.2

     negative rho (up, down):  0.000E+00 9.808E-04

     total cpu time spent up to now is     6118.2 secs

     total energy              =   -2126.09747015 Ry
     estimated scf accuracy    <       0.03759530 Ry

     total magnetization       =    19.00 Bohr mag/cell
     absolute magnetization    =    19.04 Bohr mag/cell

     iteration # 14     ecut=   100.00 Ry     beta= 0.40
     Davidson diagonalization with overlap
     ethr =  1.99E-05,  avg # of iterations =  1.1

     negative rho (up, down):  0.000E+00 9.783E-04

     total cpu time spent up to now is     6489.4 secs

     total energy              =   -2126.09744235 Ry
     estimated scf accuracy    <       0.01500637 Ry

     total magnetization       =    19.00 Bohr mag/cell
     absolute magnetization    =    19.04 Bohr mag/cell

     iteration # 15     ecut=   100.00 Ry     beta= 0.40
     Davidson diagonalization with overlap
     c_bands:  1 eigenvalues not converged
     c_bands:  1 eigenvalues not converged
     c_bands:  1 eigenvalues not converged
     c_bands:  1 eigenvalues not converged
     c_bands:  1 eigenvalues not converged
     c_bands:  1 eigenvalues not converged
     c_bands:  2 eigenvalues not converged
     c_bands:  1 eigenvalues not converged
     c_bands:  1 eigenvalues not converged
     c_bands:  1 eigenvalues not converged
     c_bands:  1 eigenvalues not converged
     c_bands:  1 eigenvalues not converged
     c_bands:  3 eigenvalues not converged
     c_bands:  1 eigenvalues not converged
     c_bands:  1 eigenvalues not converged
     c_bands:  1 eigenvalues not converged
     c_bands:  1 eigenvalues not converged
     ethr =  7.94E-06,  avg # of iterations =  5.4

     negative rho (up, down):  0.000E+00 9.706E-04

     total cpu time spent up to now is     6965.7 secs

     total energy              =   -2126.09789298 Ry
     estimated scf accuracy    <       0.00071525 Ry

     total magnetization       =    19.00 Bohr mag/cell
     absolute magnetization    =    19.05 Bohr mag/cell

     iteration # 16     ecut=   100.00 Ry     beta= 0.40
     Davidson diagonalization with overlap
     c_bands:  1 eigenvalues not converged
     c_bands:  1 eigenvalues not converged
     c_bands:  1 eigenvalues not converged
     c_bands:  1 eigenvalues not converged
     c_bands:  1 eigenvalues not converged
     c_bands:  1 eigenvalues not converged
     c_bands:  1 eigenvalues not converged
     c_bands:  1 eigenvalues not converged
     c_bands:  1 eigenvalues not converged
     c_bands:  1 eigenvalues not converged
     c_bands:  1 eigenvalues not converged
     c_bands:  1 eigenvalues not converged
     c_bands:  1 eigenvalues not converged
     c_bands:  1 eigenvalues not converged
     c_bands:  2 eigenvalues not converged
     c_bands:  1 eigenvalues not converged
     c_bands:  1 eigenvalues not converged
     c_bands:  1 eigenvalues not converged
     c_bands:  1 eigenvalues not converged
     c_bands:  1 eigenvalues not converged
     c_bands:  1 eigenvalues not converged
     c_bands:  1 eigenvalues not converged
     c_bands:  1 eigenvalues not converged
     c_bands:  1 eigenvalues not converged
     c_bands:  1 eigenvalues not converged
     ethr =  3.78E-07,  avg # of iterations =  9.8

     negative rho (up, down):  0.000E+00 9.629E-04

     total cpu time spent up to now is     7880.0 secs

     total energy              =   -2126.09830214 Ry
     estimated scf accuracy    <       0.00040939 Ry

     total magnetization       =    19.00 Bohr mag/cell
     absolute magnetization    =    19.05 Bohr mag/cell

     iteration # 17     ecut=   100.00 Ry     beta= 0.40
     Davidson diagonalization with overlap
     c_bands:  1 eigenvalues not converged
     c_bands:  1 eigenvalues not converged
     ethr =  2.17E-07,  avg # of iterations =  1.6

     negative rho (up, down):  0.000E+00 9.587E-04

     total cpu time spent up to now is     8261.9 secs

     total energy              =   -2126.09832593 Ry
     estimated scf accuracy    <       0.00066336 Ry

     total magnetization       =    19.00 Bohr mag/cell
     absolute magnetization    =    19.05 Bohr mag/cell

     iteration # 18     ecut=   100.00 Ry     beta= 0.40
     Davidson diagonalization with overlap
     ethr =  2.17E-07,  avg # of iterations =  1.0

     negative rho (up, down):  0.000E+00 9.532E-04

     total cpu time spent up to now is     8631.3 secs

     total energy              =   -2126.09833551 Ry
     estimated scf accuracy    <       0.00019926 Ry

     total magnetization       =    19.00 Bohr mag/cell
     absolute magnetization    =    19.05 Bohr mag/cell

     iteration # 19     ecut=   100.00 Ry     beta= 0.40
     Davidson diagonalization with overlap
     ethr =  1.05E-07,  avg # of iterations =  1.0

     negative rho (up, down):  0.000E+00 9.546E-04

     total cpu time spent up to now is     8999.9 secs

     total energy              =   -2126.09832750 Ry
     estimated scf accuracy    <       0.00085490 Ry

     total magnetization       =    19.00 Bohr mag/cell
     absolute magnetization    =    19.05 Bohr mag/cell

     iteration # 20     ecut=   100.00 Ry     beta= 0.40
     Davidson diagonalization with overlap
     ethr =  1.05E-07,  avg # of iterations =  1.0

     negative rho (up, down):  0.000E+00 9.513E-04

     total cpu time spent up to now is     9368.5 secs

     total energy              =   -2126.09835449 Ry
     estimated scf accuracy    <       0.00003009 Ry

     total magnetization       =    19.00 Bohr mag/cell
     absolute magnetization    =    19.05 Bohr mag/cell

     iteration # 21     ecut=   100.00 Ry     beta= 0.40
     Davidson diagonalization with overlap
     ethr =  1.59E-08,  avg # of iterations =  2.1

     negative rho (up, down):  0.000E+00 9.505E-04

     total cpu time spent up to now is     9816.7 secs

     total energy              =   -2126.09835898 Ry
     estimated scf accuracy    <       0.00001907 Ry

     total magnetization       =    19.00 Bohr mag/cell
     absolute magnetization    =    19.05 Bohr mag/cell

     iteration # 22     ecut=   100.00 Ry     beta= 0.40
     Davidson diagonalization with overlap
     ethr =  1.01E-08,  avg # of iterations =  2.0

     negative rho (up, down):  0.000E+00 9.518E-04

     total cpu time spent up to now is    10264.4 secs

     total energy              =   -2126.09836268 Ry
     estimated scf accuracy    <       0.00000588 Ry

     total magnetization       =    19.00 Bohr mag/cell
     absolute magnetization    =    19.05 Bohr mag/cell

     iteration # 23     ecut=   100.00 Ry     beta= 0.40
     Davidson diagonalization with overlap
     ethr =  3.11E-09,  avg # of iterations =  2.9

     negative rho (up, down):  0.000E+00 9.514E-04

     total cpu time spent up to now is    10723.6 secs

     total energy              =   -2126.09836339 Ry
     estimated scf accuracy    <       0.00000322 Ry

     total magnetization       =    19.00 Bohr mag/cell
     absolute magnetization    =    19.05 Bohr mag/cell

     iteration # 24     ecut=   100.00 Ry     beta= 0.40
     Davidson diagonalization with overlap
     ethr =  1.70E-09,  avg # of iterations =  2.0

     negative rho (up, down):  0.000E+00 9.521E-04

     total cpu time spent up to now is    11160.9 secs

     total energy              =   -2126.09836387 Ry
     estimated scf accuracy    <       0.00000302 Ry

     total magnetization       =    19.00 Bohr mag/cell
     absolute magnetization    =    19.05 Bohr mag/cell

     iteration # 25     ecut=   100.00 Ry     beta= 0.40
     Davidson diagonalization with overlap
     ethr =  1.60E-09,  avg # of iterations =  1.8

     negative rho (up, down):  0.000E+00 9.524E-04

     total cpu time spent up to now is    11572.6 secs

     total energy              =   -2126.09836421 Ry
     estimated scf accuracy    <       0.00000015 Ry

     total magnetization       =    19.00 Bohr mag/cell
     absolute magnetization    =    19.05 Bohr mag/cell

     iteration # 26     ecut=   100.00 Ry     beta= 0.40
     Davidson diagonalization with overlap
     ethr =  8.02E-11,  avg # of iterations =  5.9

     negative rho (up, down):  0.000E+00 9.524E-04

     total cpu time spent up to now is    12494.5 secs

     total energy              =   -2126.09836438 Ry
     estimated scf accuracy    <       0.00000008 Ry

     total magnetization       =    19.00 Bohr mag/cell
     absolute magnetization    =    19.05 Bohr mag/cell

     iteration # 27     ecut=   100.00 Ry     beta= 0.40
     Davidson diagonalization with overlap
     ethr =  4.10E-11,  avg # of iterations =  1.1

     negative rho (up, down):  0.000E+00 9.523E-04

     total cpu time spent up to now is    12867.0 secs

     total energy              =   -2126.09836440 Ry
     estimated scf accuracy    <       0.00000002 Ry

     total magnetization       =    19.00 Bohr mag/cell
     absolute magnetization    =    19.05 Bohr mag/cell

     iteration # 28     ecut=   100.00 Ry     beta= 0.40
     Davidson diagonalization with overlap
     ethr =  1.32E-11,  avg # of iterations =  2.1

     negative rho (up, down):  0.000E+00 9.523E-04

     total cpu time spent up to now is    13295.1 secs

     total energy              =   -2126.09836441 Ry
     estimated scf accuracy    <       0.00000001 Ry

     total magnetization       =    19.00 Bohr mag/cell
     absolute magnetization    =    19.05 Bohr mag/cell

     iteration # 29     ecut=   100.00 Ry     beta= 0.40
     Davidson diagonalization with overlap
     ethr =  7.43E-12,  avg # of iterations =  2.1

     negative rho (up, down):  0.000E+00 9.523E-04

     total cpu time spent up to now is    13743.3 secs

     total energy              =   -2126.09836441 Ry
     estimated scf accuracy    <       0.00000002 Ry

     total magnetization       =    19.00 Bohr mag/cell
     absolute magnetization    =    19.05 Bohr mag/cell

     iteration # 30     ecut=   100.00 Ry     beta= 0.40
     Davidson diagonalization with overlap
     ethr =  7.43E-12,  avg # of iterations =  1.0

     negative rho (up, down):  0.000E+00 9.523E-04

     total cpu time spent up to now is    14111.9 secs

     total energy              =   -2126.09836441 Ry
     estimated scf accuracy    <       0.00000003 Ry

     total magnetization       =    19.00 Bohr mag/cell
     absolute magnetization    =    19.05 Bohr mag/cell

     iteration # 31     ecut=   100.00 Ry     beta= 0.40
     Davidson diagonalization with overlap
     ethr =  7.43E-12,  avg # of iterations =  1.0

     negative rho (up, down):  0.000E+00 9.522E-04

     total cpu time spent up to now is    14480.3 secs

     total energy              =   -2126.09836442 Ry
     estimated scf accuracy    <          2.9E-09 Ry

     total magnetization       =    19.00 Bohr mag/cell
     absolute magnetization    =    19.05 Bohr mag/cell

     iteration # 32     ecut=   100.00 Ry     beta= 0.40
     Davidson diagonalization with overlap
     ethr =  1.52E-12,  avg # of iterations =  2.6

     negative rho (up, down):  0.000E+00 9.522E-04

     total cpu time spent up to now is    14942.7 secs

     total energy              =   -2126.09836442 Ry
     estimated scf accuracy    <          1.7E-09 Ry

     total magnetization       =    19.00 Bohr mag/cell
     absolute magnetization    =    19.05 Bohr mag/cell

     iteration # 33     ecut=   100.00 Ry     beta= 0.40
     Davidson diagonalization with overlap
     ethr =  9.16E-13,  avg # of iterations =  2.0

     negative rho (up, down):  0.000E+00 9.523E-04

     total cpu time spent up to now is    15393.3 secs

     total energy              =   -2126.09836442 Ry
     estimated scf accuracy    <          9.5E-10 Ry

     total magnetization       =    19.00 Bohr mag/cell
     absolute magnetization    =    19.05 Bohr mag/cell

     iteration # 34     ecut=   100.00 Ry     beta= 0.40
     Davidson diagonalization with overlap
     ethr =  5.01E-13,  avg # of iterations =  1.9

     negative rho (up, down):  0.000E+00 9.523E-04

     total cpu time spent up to now is    15809.2 secs

     total energy              =   -2126.09836442 Ry
     estimated scf accuracy    <          1.4E-09 Ry

     total magnetization       =    19.00 Bohr mag/cell
     absolute magnetization    =    19.05 Bohr mag/cell

     iteration # 35     ecut=   100.00 Ry     beta= 0.40
     Davidson diagonalization with overlap
     ethr =  5.01E-13,  avg # of iterations =  1.2

     negative rho (up, down):  0.000E+00 9.523E-04

     total cpu time spent up to now is    16187.0 secs

     total energy              =   -2126.09836442 Ry
     estimated scf accuracy    <          6.3E-10 Ry

     total magnetization       =    19.00 Bohr mag/cell
     absolute magnetization    =    19.05 Bohr mag/cell

     iteration # 36     ecut=   100.00 Ry     beta= 0.40
     Davidson diagonalization with overlap
     ethr =  3.31E-13,  avg # of iterations =  1.1

     negative rho (up, down):  0.000E+00 9.523E-04

     Magnetic moment per site:
     atom:    1    charge:    7.9319    magn:    0.0005    constr:    0.0000
     atom:    2    charge:   12.9286    magn:    3.6829    constr:    0.0000
     atom:    3    charge:   12.9354    magn:    3.6647    constr:    0.0000
     atom:    4    charge:   12.9470    magn:    3.6422    constr:    0.0000
     atom:    5    charge:   12.9360    magn:    3.6654    constr:    0.0000
     atom:    6    charge:    0.8809    magn:    0.0103    constr:    0.0000
     atom:    7    charge:    0.8837    magn:    0.0081    constr:    0.0000
     atom:    8    charge:    0.8819    magn:    0.0106    constr:    0.0000
     atom:    9    charge:    0.8800    magn:    0.0081    constr:    0.0000
     atom:   10    charge:    4.3332    magn:    0.1399    constr:    0.0000
     atom:   11    charge:    4.3460    magn:    0.0867    constr:    0.0000
     atom:   12    charge:    4.3356    magn:    0.1349    constr:    0.0000
     atom:   13    charge:    4.3327    magn:    0.0956    constr:    0.0000
     atom:   14    charge:    4.3236    magn:    0.1035    constr:    0.0000
     atom:   15    charge:    4.3310    magn:    0.1372    constr:    0.0000
     atom:   16    charge:    4.3316    magn:    0.0874    constr:    0.0000
     atom:   17    charge:    4.3290    magn:    0.1445    constr:    0.0000
     atom:   18    charge:    4.3072    magn:    0.1545    constr:    0.0000
     atom:   19    charge:    4.3122    magn:    0.1332    constr:    0.0000
     atom:   20    charge:    4.3083    magn:    0.1424    constr:    0.0000
     atom:   21    charge:    4.3143    magn:    0.1194    constr:    0.0000
     atom:   22    charge:    4.3111    magn:    0.1544    constr:    0.0000
     atom:   23    charge:    4.3088    magn:    0.1362    constr:    0.0000
     atom:   24    charge:    4.3058    magn:    0.1493    constr:    0.0000
     atom:   25    charge:    4.3067    magn:    0.1242    constr:    0.0000

     total cpu time spent up to now is    16560.9 secs

     End of self-consistent calculation

 ------ SPIN UP ------------


          k = 0.0000 0.0000 0.0000 ( 38251 PWs)   bands (ev):

   -85.8903 -85.8186 -85.8178 -85.7409 -51.9895 -51.9882 -51.9684 -51.9310
   -51.8491 -51.7851 -51.7388 -51.7209 -51.7128 -51.7085 -51.7034 -51.5657
   -45.3981 -17.3977 -17.3808 -17.3468 -16.3847 -16.2097 -16.1119 -16.0041
   -14.1073 -14.0736 -14.0062 -13.9382 -13.8623 -13.8500 -13.8103 -13.7997
   -13.7656 -13.7394 -13.6460 -13.5877  -4.5662  -4.1089  -4.0643  -3.6951
    -2.5851  -2.2742  -2.1991  -2.0502  -1.8395  -1.7441  -1.6639  -1.6183
    -1.4710  -1.3684  -1.0918  -0.8220  -0.7119  -0.6891  -0.2383  -0.1763
    -0.0934  -0.0233   0.1198   0.2643   0.3030   0.3988   0.4160   0.5116
     0.5684   0.7543   0.7853   0.8821   1.1336   1.1450   1.2393   1.2803
     1.4184   1.4566   1.6125   1.6606   1.6967   1.7423   1.8322   1.9641
     2.0190   2.1254   2.1483   2.2681   2.3517   2.3996   2.4872   2.5752
     2.7014   2.7266   2.8179   2.8391   2.9020   3.1108   3.1650   3.3101
     3.3842   3.4402   3.4733   3.5813   3.6815   3.7760   4.0712   4.1612
     8.1362  10.1234  10.6751  10.9835  11.2237  11.9923  12.1037  12.2740
    12.5429  12.7164

     occupation numbers 
     1.0000   1.0000   1.0000   1.0000   1.0000   1.0000   1.0000   1.0000
     1.0000   1.0000   1.0000   1.0000   1.0000   1.0000   1.0000   1.0000
     1.0000   1.0000   1.0000   1.0000   1.0000   1.0000   1.0000   1.0000
     1.0000   1.0000   1.0000   1.0000   1.0000   1.0000   1.0000   1.0000
     1.0000   1.0000   1.0000   1.0000   1.0000   1.0000   1.0000   1.0000
     1.0000   1.0000   1.0000   1.0000   1.0000   1.0000   1.0000   1.0000
     1.0000   1.0000   1.0000   1.0000   1.0000   1.0000   1.0000   1.0000
     1.0000   1.0000   1.0000   1.0000   1.0000   1.0000   1.0000   1.0000
     1.0000   1.0000   1.0000   1.0000   1.0000   1.0000   1.0000   1.0000
     1.0000   1.0000   1.0000   1.0000   1.0000   1.0000   1.0000   1.0000
     1.0000   1.0000   1.0000   1.0000   1.0000   1.0000   1.0000   1.0000
     1.0000   1.0000   1.0000   1.0000   1.0000   1.0000   1.0000   1.0000
     1.0000   1.0000   1.0000   1.0000   1.0000   1.0000   1.0000   1.0000
     0.0000   0.0000   0.0000   0.0000   0.0000   0.0000   0.0000   0.0000
     0.0000   0.0000

          k = 0.0000 0.0000 0.2337 ( 38277 PWs)   bands (ev):

   -85.8903 -85.8186 -85.8178 -85.7409 -51.9895 -51.9882 -51.9684 -51.9310
   -51.8491 -51.7851 -51.7388 -51.7209 -51.7128 -51.7085 -51.7034 -51.5657
   -45.3981 -17.3983 -17.3805 -17.3482 -16.3693 -16.2036 -16.1065 -16.0029
   -14.1165 -14.0803 -14.0184 -13.9425 -13.8649 -13.8540 -13.8124 -13.7968
   -13.7616 -13.7439 -13.6506 -13.5916  -4.5446  -4.1057  -4.0600  -3.7051
    -2.5428  -2.2489  -2.1967  -2.0365  -1.8344  -1.7649  -1.6650  -1.5618
    -1.4612  -1.3364  -1.1345  -0.8005  -0.7510  -0.6710  -0.2256  -0.1619
    -0.0918   0.0143   0.1169   0.2648   0.2955   0.3718   0.4041   0.5308
     0.5660   0.7548   0.7763   0.8745   1.0903   1.0983   1.1869   1.2510
     1.4276   1.5085   1.5545   1.6298   1.6770   1.7104   1.8481   1.9785
     2.0606   2.1253   2.1715   2.2383   2.3689   2.4312   2.4580   2.5306
     2.6749   2.7237   2.8287   2.8427   2.8619   3.1560   3.1738   3.3126
     3.3973   3.4509   3.5039   3.5773   3.6731   3.7796   4.0477   4.1399
     8.2837  10.2015  10.7145  10.9893  11.2704  11.8861  12.1341  12.2526
    12.4550  12.6932

     occupation numbers 
     1.0000   1.0000   1.0000   1.0000   1.0000   1.0000   1.0000   1.0000
     1.0000   1.0000   1.0000   1.0000   1.0000   1.0000   1.0000   1.0000
     1.0000   1.0000   1.0000   1.0000   1.0000   1.0000   1.0000   1.0000
     1.0000   1.0000   1.0000   1.0000   1.0000   1.0000   1.0000   1.0000
     1.0000   1.0000   1.0000   1.0000   1.0000   1.0000   1.0000   1.0000
     1.0000   1.0000   1.0000   1.0000   1.0000   1.0000   1.0000   1.0000
     1.0000   1.0000   1.0000   1.0000   1.0000   1.0000   1.0000   1.0000
     1.0000   1.0000   1.0000   1.0000   1.0000   1.0000   1.0000   1.0000
     1.0000   1.0000   1.0000   1.0000   1.0000   1.0000   1.0000   1.0000
     1.0000   1.0000   1.0000   1.0000   1.0000   1.0000   1.0000   1.0000
     1.0000   1.0000   1.0000   1.0000   1.0000   1.0000   1.0000   1.0000
     1.0000   1.0000   1.0000   1.0000   1.0000   1.0000   1.0000   1.0000
     1.0000   1.0000   1.0000   1.0000   1.0000   1.0000   1.0000   1.0000
     0.0000   0.0000   0.0000   0.0000   0.0000   0.0000   0.0000   0.0000
     0.0000   0.0000

          k = 0.0000 0.0000 0.4675 ( 38350 PWs)   bands (ev):

   -85.8903 -85.8186 -85.8178 -85.7409 -51.9896 -51.9882 -51.9684 -51.9311
   -51.8491 -51.7851 -51.7388 -51.7209 -51.7128 -51.7085 -51.7034 -51.5657
   -45.3981 -17.4007 -17.3801 -17.3505 -16.3279 -16.1894 -16.0922 -16.0010
   -14.1419 -14.0975 -14.0479 -13.9589 -13.8746 -13.8629 -13.8125 -13.7875
   -13.7554 -13.7487 -13.6640 -13.6026  -4.4822  -4.1038  -4.0461  -3.7424
    -2.4260  -2.1973  -2.1717  -2.0195  -1.8181  -1.7787  -1.6640  -1.4660
    -1.3930  -1.2592  -1.2407  -0.8709  -0.7184  -0.6136  -0.1844  -0.1307
    -0.0668   0.0864   0.1201   0.2632   0.2733   0.3334   0.3484   0.5516
     0.5777   0.7303   0.7822   0.8446   0.9492   1.0276   1.1387   1.1958
     1.2764   1.4035   1.5674   1.6033   1.6678   1.7027   1.8914   1.9523
     2.0987   2.1288   2.1634   2.2532   2.2686   2.3758   2.4424   2.5436
     2.6026   2.7542   2.8577   2.8783   2.9141   3.1701   3.2235   3.3218
     3.4363   3.4988   3.5606   3.5634   3.6594   3.7893   3.9758   4.0758
     8.6779  10.4130  10.7827  11.0296  11.4025  11.7661  11.9794  12.2015
    12.2959  12.4934

     occupation numbers 
     1.0000   1.0000   1.0000   1.0000   1.0000   1.0000   1.0000   1.0000
     1.0000   1.0000   1.0000   1.0000   1.0000   1.0000   1.0000   1.0000
     1.0000   1.0000   1.0000   1.0000   1.0000   1.0000   1.0000   1.0000
     1.0000   1.0000   1.0000   1.0000   1.0000   1.0000   1.0000   1.0000
     1.0000   1.0000   1.0000   1.0000   1.0000   1.0000   1.0000   1.0000
     1.0000   1.0000   1.0000   1.0000   1.0000   1.0000   1.0000   1.0000
     1.0000   1.0000   1.0000   1.0000   1.0000   1.0000   1.0000   1.0000
     1.0000   1.0000   1.0000   1.0000   1.0000   1.0000   1.0000   1.0000
     1.0000   1.0000   1.0000   1.0000   1.0000   1.0000   1.0000   1.0000
     1.0000   1.0000   1.0000   1.0000   1.0000   1.0000   1.0000   1.0000
     1.0000   1.0000   1.0000   1.0000   1.0000   1.0000   1.0000   1.0000
     1.0000   1.0000   1.0000   1.0000   1.0000   1.0000   1.0000   1.0000
     1.0000   1.0000   1.0000   1.0000   1.0000   1.0000   1.0000   1.0000
     0.0000   0.0000   0.0000   0.0000   0.0000   0.0000   0.0000   0.0000
     0.0000   0.0000

          k = 0.0000 0.0000 0.7012 ( 38330 PWs)   bands (ev):

   -85.8903 -85.8186 -85.8178 -85.7409 -51.9896 -51.9882 -51.9684 -51.9311
   -51.8491 -51.7851 -51.7388 -51.7209 -51.7128 -51.7085 -51.7034 -51.5657
   -45.3981 -17.4050 -17.3799 -17.3509 -16.2729 -16.1781 -16.0742 -16.0020
   -14.1728 -14.1189 -14.0796 -13.9864 -13.8859 -13.8703 -13.8085 -13.7754
   -13.7590 -13.7340 -13.6846 -13.6176  -4.3882  -4.1210  -4.0203  -3.8102
    -2.2874  -2.1629  -2.1011  -2.0195  -1.8000  -1.7498  -1.6534  -1.4388
    -1.3596  -1.2400  -1.1448  -1.0189  -0.5913  -0.4987  -0.1234  -0.0909
    -0.0274   0.0694   0.1700   0.2106   0.2475   0.3014   0.3286   0.5608
     0.5829   0.6727   0.7616   0.8138   0.8317   0.9179   1.0153   1.0828
     1.2083   1.2913   1.4945   1.5540   1.6534   1.8384   1.8705   2.0161
     2.0359   2.0713   2.0895   2.1500   2.2666   2.3100   2.3642   2.4965
     2.6393   2.7813   2.9259   3.0305   3.1033   3.1839   3.2284   3.3354
     3.4883   3.5328   3.5605   3.6059   3.6806   3.7922   3.8563   3.9715
     9.2179  10.6654  10.7549  11.1438  11.5590  11.6371  11.8392  12.0173
    12.1918  12.2782

     occupation numbers 
     1.0000   1.0000   1.0000   1.0000   1.0000   1.0000   1.0000   1.0000
     1.0000   1.0000   1.0000   1.0000   1.0000   1.0000   1.0000   1.0000
     1.0000   1.0000   1.0000   1.0000   1.0000   1.0000   1.0000   1.0000
     1.0000   1.0000   1.0000   1.0000   1.0000   1.0000   1.0000   1.0000
     1.0000   1.0000   1.0000   1.0000   1.0000   1.0000   1.0000   1.0000
     1.0000   1.0000   1.0000   1.0000   1.0000   1.0000   1.0000   1.0000
     1.0000   1.0000   1.0000   1.0000   1.0000   1.0000   1.0000   1.0000
     1.0000   1.0000   1.0000   1.0000   1.0000   1.0000   1.0000   1.0000
     1.0000   1.0000   1.0000   1.0000   1.0000   1.0000   1.0000   1.0000
     1.0000   1.0000   1.0000   1.0000   1.0000   1.0000   1.0000   1.0000
     1.0000   1.0000   1.0000   1.0000   1.0000   1.0000   1.0000   1.0000
     1.0000   1.0000   1.0000   1.0000   1.0000   1.0000   1.0000   1.0000
     1.0000   1.0000   1.0000   1.0000   1.0000   1.0000   1.0000   1.0000
     0.0000   0.0000   0.0000   0.0000   0.0000   0.0000   0.0000   0.0000
     0.0000   0.0000

          k = 0.0000 0.0000 0.9349 ( 38332 PWs)   bands (ev):

   -85.8903 -85.8186 -85.8178 -85.7409 -51.9896 -51.9882 -51.9684 -51.9311
   -51.8491 -51.7851 -51.7388 -51.7209 -51.7128 -51.7085 -51.7034 -51.5657
   -45.3981 -17.4084 -17.3799 -17.3501 -16.2225 -16.1836 -16.0596 -16.0062
   -14.1936 -14.1342 -14.0997 -14.0085 -13.8920 -13.8738 -13.8051 -13.7760
   -13.7411 -13.7219 -13.7085 -13.6300  -4.2834  -4.1737  -3.9804  -3.8856
    -2.2035  -2.1513  -2.0421  -2.0088  -1.7766  -1.6761  -1.6581  -1.5524
    -1.3013  -1.1747  -1.1334  -1.0525  -0.4055  -0.3076  -0.1537  -0.0747
    -0.0191   0.0074   0.1158   0.1480   0.2122   0.3265   0.4175   0.4980
     0.5927   0.6239   0.6579   0.7307   0.8158   0.8552   0.8845   1.0476
     1.2510   1.3103   1.3869   1.4872   1.6827   1.8163   1.9151   1.9518
     1.9961   2.0264   2.0999   2.1456   2.1839   2.2604   2.3455   2.4859
     2.6483   2.7907   2.9869   3.1520   3.1780   3.2430   3.3398   3.3753
     3.4706   3.5251   3.6122   3.6301   3.6868   3.7389   3.7930   3.8526
     9.8031  10.3544  11.0363  11.3042  11.4076  11.5524  11.8385  11.9796
    12.1707  12.2036

     occupation numbers 
     1.0000   1.0000   1.0000   1.0000   1.0000   1.0000   1.0000   1.0000
     1.0000   1.0000   1.0000   1.0000   1.0000   1.0000   1.0000   1.0000
     1.0000   1.0000   1.0000   1.0000   1.0000   1.0000   1.0000   1.0000
     1.0000   1.0000   1.0000   1.0000   1.0000   1.0000   1.0000   1.0000
     1.0000   1.0000   1.0000   1.0000   1.0000   1.0000   1.0000   1.0000
     1.0000   1.0000   1.0000   1.0000   1.0000   1.0000   1.0000   1.0000
     1.0000   1.0000   1.0000   1.0000   1.0000   1.0000   1.0000   1.0000
     1.0000   1.0000   1.0000   1.0000   1.0000   1.0000   1.0000   1.0000
     1.0000   1.0000   1.0000   1.0000   1.0000   1.0000   1.0000   1.0000
     1.0000   1.0000   1.0000   1.0000   1.0000   1.0000   1.0000   1.0000
     1.0000   1.0000   1.0000   1.0000   1.0000   1.0000   1.0000   1.0000
     1.0000   1.0000   1.0000   1.0000   1.0000   1.0000   1.0000   1.0000
     1.0000   1.0000   1.0000   1.0000   1.0000   1.0000   1.0000   1.0000
     0.0000   0.0000   0.0000   0.0000   0.0000   0.0000   0.0000   0.0000
     0.0000   0.0000

          k = 0.0000 0.2391 0.0000 ( 38300 PWs)   bands (ev):

   -85.8903 -85.8186 -85.8178 -85.7409 -51.9895 -51.9882 -51.9684 -51.9310
   -51.8491 -51.7851 -51.7388 -51.7209 -51.7128 -51.7085 -51.7034 -51.5657
   -45.3981 -17.3979 -17.3810 -17.3468 -16.3683 -16.2078 -16.1098 -16.0212
   -14.1088 -14.0713 -14.0033 -13.9430 -13.9031 -13.8494 -13.8230 -13.7947
   -13.7455 -13.7179 -13.6441 -13.5905  -4.5423  -4.1281  -4.0425  -3.7043
    -2.5607  -2.2805  -2.1899  -2.0549  -1.8223  -1.7415  -1.6418  -1.5996
    -1.4405  -1.3636  -1.0742  -0.8072  -0.7644  -0.6471  -0.1981  -0.1454
    -0.0827  -0.0457   0.0305   0.1435   0.2505   0.4069   0.4940   0.5426
     0.6719   0.7482   0.7807   0.8733   1.0272   1.0439   1.1276   1.2286
     1.4005   1.5867   1.6272   1.6795   1.7124   1.7778   1.8116   1.8953
     2.0306   2.1194   2.1385   2.1965   2.3059   2.4866   2.5360   2.6140
     2.6688   2.7004   2.7482   2.8827   2.9733   3.1105   3.1558   3.3169
     3.3502   3.4117   3.4845   3.5939   3.6242   3.8099   4.0991   4.1503
     8.2905  10.2114  10.7450  10.8797  11.3002  11.9784  12.1327  12.3548
    12.4624  12.7063

     occupation numbers 
     1.0000   1.0000   1.0000   1.0000   1.0000   1.0000   1.0000   1.0000
     1.0000   1.0000   1.0000   1.0000   1.0000   1.0000   1.0000   1.0000
     1.0000   1.0000   1.0000   1.0000   1.0000   1.0000   1.0000   1.0000
     1.0000   1.0000   1.0000   1.0000   1.0000   1.0000   1.0000   1.0000
     1.0000   1.0000   1.0000   1.0000   1.0000   1.0000   1.0000   1.0000
     1.0000   1.0000   1.0000   1.0000   1.0000   1.0000   1.0000   1.0000
     1.0000   1.0000   1.0000   1.0000   1.0000   1.0000   1.0000   1.0000
     1.0000   1.0000   1.0000   1.0000   1.0000   1.0000   1.0000   1.0000
     1.0000   1.0000   1.0000   1.0000   1.0000   1.0000   1.0000   1.0000
     1.0000   1.0000   1.0000   1.0000   1.0000   1.0000   1.0000   1.0000
     1.0000   1.0000   1.0000   1.0000   1.0000   1.0000   1.0000   1.0000
     1.0000   1.0000   1.0000   1.0000   1.0000   1.0000   1.0000   1.0000
     1.0000   1.0000   1.0000   1.0000   1.0000   1.0000   1.0000   1.0000
     0.0000   0.0000   0.0000   0.0000   0.0000   0.0000   0.0000   0.0000
     0.0000   0.0000

          k = 0.0000 0.2391 0.2337 ( 38294 PWs)   bands (ev):

   -85.8903 -85.8186 -85.8178 -85.7409 -51.9895 -51.9882 -51.9684 -51.9310
   -51.8491 -51.7851 -51.7388 -51.7209 -51.7128 -51.7085 -51.7034 -51.5657
   -45.3981 -17.3981 -17.3806 -17.3483 -16.3556 -16.2014 -16.1045 -16.0177
   -14.1182 -14.0775 -14.0160 -13.9462 -13.9041 -13.8535 -13.8287 -13.7919
   -13.7474 -13.7148 -13.6499 -13.5944  -4.5209  -4.1233  -4.0381  -3.7150
    -2.5194  -2.2556  -2.1837  -2.0432  -1.8166  -1.7568  -1.6383  -1.5537
    -1.4237  -1.3365  -1.1143  -0.8406  -0.7433  -0.6373  -0.1886  -0.1510
    -0.0745  -0.0101   0.0286   0.1461   0.2366   0.4066   0.4672   0.5578
     0.6405   0.7456   0.7874   0.8664   0.9786   1.0142   1.0964   1.2084
     1.5109   1.5396   1.6103   1.6631   1.6969   1.7340   1.8102   1.9326
     2.0402   2.0958   2.1515   2.2117   2.3113   2.4231   2.5095   2.6064
     2.6544   2.6843   2.7851   2.8557   2.9308   3.1529   3.1797   3.3205
     3.3465   3.4360   3.5119   3.5832   3.6230   3.8191   4.0836   4.1372
     8.4321  10.2913  10.7717  10.9217  11.3256  11.9011  12.1635  12.2572
    12.4565  12.6837

     occupation numbers 
     1.0000   1.0000   1.0000   1.0000   1.0000   1.0000   1.0000   1.0000
     1.0000   1.0000   1.0000   1.0000   1.0000   1.0000   1.0000   1.0000
     1.0000   1.0000   1.0000   1.0000   1.0000   1.0000   1.0000   1.0000
     1.0000   1.0000   1.0000   1.0000   1.0000   1.0000   1.0000   1.0000
     1.0000   1.0000   1.0000   1.0000   1.0000   1.0000   1.0000   1.0000
     1.0000   1.0000   1.0000   1.0000   1.0000   1.0000   1.0000   1.0000
     1.0000   1.0000   1.0000   1.0000   1.0000   1.0000   1.0000   1.0000
     1.0000   1.0000   1.0000   1.0000   1.0000   1.0000   1.0000   1.0000
     1.0000   1.0000   1.0000   1.0000   1.0000   1.0000   1.0000   1.0000
     1.0000   1.0000   1.0000   1.0000   1.0000   1.0000   1.0000   1.0000
     1.0000   1.0000   1.0000   1.0000   1.0000   1.0000   1.0000   1.0000
     1.0000   1.0000   1.0000   1.0000   1.0000   1.0000   1.0000   1.0000
     1.0000   1.0000   1.0000   1.0000   1.0000   1.0000   1.0000   1.0000
     0.0000   0.0000   0.0000   0.0000   0.0000   0.0000   0.0000   0.0000
     0.0000   0.0000

          k = 0.0000 0.2391 0.4675 ( 38323 PWs)   bands (ev):

   -85.8903 -85.8186 -85.8178 -85.7409 -51.9896 -51.9882 -51.9684 -51.9311
   -51.8491 -51.7851 -51.7388 -51.7209 -51.7128 -51.7085 -51.7034 -51.5657
   -45.3981 -17.4002 -17.3800 -17.3506 -16.3171 -16.1875 -16.0898 -16.0124
   -14.1439 -14.0956 -14.0482 -13.9603 -13.9042 -13.8645 -13.8385 -13.7801
   -13.7545 -13.7080 -13.6627 -13.6035  -4.4597  -4.1166  -4.0259  -3.7512
    -2.4069  -2.1969  -2.1600  -2.0252  -1.8016  -1.7657  -1.6350  -1.4439
    -1.3770  -1.2629  -1.2160  -0.9249  -0.6864  -0.6018  -0.1627  -0.1370
    -0.0532  -0.0330   0.1074   0.1584   0.2438   0.3797   0.4341   0.5666
     0.5861   0.7494   0.7844   0.8334   0.8832   0.9703   1.0466   1.1984
     1.3376   1.5149   1.5818   1.6257   1.6629   1.7040   1.8911   1.9266
     2.0238   2.1142   2.1564   2.2036   2.2686   2.3450   2.4450   2.5382
     2.6279   2.7016   2.8314   2.9001   2.9391   3.1786   3.2127   3.3395
     3.3875   3.4736   3.5317   3.5798   3.6460   3.8286   4.0395   4.0908
     8.8132  10.5035  10.8469  11.0062  11.4319  11.7996  12.0178  12.1889
    12.3135  12.5286

     occupation numbers 
     1.0000   1.0000   1.0000   1.0000   1.0000   1.0000   1.0000   1.0000
     1.0000   1.0000   1.0000   1.0000   1.0000   1.0000   1.0000   1.0000
     1.0000   1.0000   1.0000   1.0000   1.0000   1.0000   1.0000   1.0000
     1.0000   1.0000   1.0000   1.0000   1.0000   1.0000   1.0000   1.0000
     1.0000   1.0000   1.0000   1.0000   1.0000   1.0000   1.0000   1.0000
     1.0000   1.0000   1.0000   1.0000   1.0000   1.0000   1.0000   1.0000
     1.0000   1.0000   1.0000   1.0000   1.0000   1.0000   1.0000   1.0000
     1.0000   1.0000   1.0000   1.0000   1.0000   1.0000   1.0000   1.0000
     1.0000   1.0000   1.0000   1.0000   1.0000   1.0000   1.0000   1.0000
     1.0000   1.0000   1.0000   1.0000   1.0000   1.0000   1.0000   1.0000
     1.0000   1.0000   1.0000   1.0000   1.0000   1.0000   1.0000   1.0000
     1.0000   1.0000   1.0000   1.0000   1.0000   1.0000   1.0000   1.0000
     1.0000   1.0000   1.0000   1.0000   1.0000   1.0000   1.0000   1.0000
     0.0000   0.0000   0.0000   0.0000   0.0000   0.0000   0.0000   0.0000
     0.0000   0.0000

          k = 0.0000 0.2391 0.7012 ( 38349 PWs)   bands (ev):

   -85.8903 -85.8186 -85.8178 -85.7409 -51.9896 -51.9882 -51.9684 -51.9311
   -51.8491 -51.7851 -51.7388 -51.7209 -51.7128 -51.7085 -51.7034 -51.5657
   -45.3981 -17.4043 -17.3798 -17.3510 -16.2644 -16.1768 -16.0713 -16.0099
   -14.1757 -14.1178 -14.0831 -13.9864 -13.9075 -13.8740 -13.8385 -13.7734
   -13.7524 -13.6991 -13.6802 -13.6158  -4.3685  -4.1266  -4.0035  -3.8159
    -2.2716  -2.1536  -2.0962  -2.0208  -1.7871  -1.7326  -1.6234  -1.4199
    -1.3295  -1.2394  -1.1456  -1.0463  -0.5826  -0.5215  -0.1756  -0.0932
    -0.0755  -0.0111   0.1300   0.2606   0.2837   0.3335   0.3775   0.5285
     0.5898   0.7085   0.7677   0.7999   0.8076   0.9291   0.9672   1.0841
     1.1923   1.3678   1.4777   1.5943   1.6647   1.8097   1.8741   1.9430
     1.9897   2.0723   2.1106   2.1872   2.2052   2.2837   2.3932   2.4815
     2.6216   2.7135   2.9029   3.0157   3.0800   3.1906   3.2179   3.3513
     3.4206   3.4904   3.5512   3.5908   3.7124   3.8311   3.9696   4.0152
     9.3402  10.7723  10.8302  11.1414  11.5988  11.6926  11.8610  12.0508
    12.1726  12.2573

     occupation numbers 
     1.0000   1.0000   1.0000   1.0000   1.0000   1.0000   1.0000   1.0000
     1.0000   1.0000   1.0000   1.0000   1.0000   1.0000   1.0000   1.0000
     1.0000   1.0000   1.0000   1.0000   1.0000   1.0000   1.0000   1.0000
     1.0000   1.0000   1.0000   1.0000   1.0000   1.0000   1.0000   1.0000
     1.0000   1.0000   1.0000   1.0000   1.0000   1.0000   1.0000   1.0000
     1.0000   1.0000   1.0000   1.0000   1.0000   1.0000   1.0000   1.0000
     1.0000   1.0000   1.0000   1.0000   1.0000   1.0000   1.0000   1.0000
     1.0000   1.0000   1.0000   1.0000   1.0000   1.0000   1.0000   1.0000
     1.0000   1.0000   1.0000   1.0000   1.0000   1.0000   1.0000   1.0000
     1.0000   1.0000   1.0000   1.0000   1.0000   1.0000   1.0000   1.0000
     1.0000   1.0000   1.0000   1.0000   1.0000   1.0000   1.0000   1.0000
     1.0000   1.0000   1.0000   1.0000   1.0000   1.0000   1.0000   1.0000
     1.0000   1.0000   1.0000   1.0000   1.0000   1.0000   1.0000   1.0000
     0.0000   0.0000   0.0000   0.0000   0.0000   0.0000   0.0000   0.0000
     0.0000   0.0000

          k = 0.0000 0.2391 0.9349 ( 38302 PWs)   bands (ev):

   -85.8903 -85.8186 -85.8178 -85.7409 -51.9896 -51.9882 -51.9684 -51.9311
   -51.8491 -51.7851 -51.7388 -51.7209 -51.7128 -51.7085 -51.7034 -51.5657
   -45.3981 -17.4079 -17.3798 -17.3502 -16.2149 -16.1804 -16.0598 -16.0112
   -14.1971 -14.1333 -14.1054 -14.0086 -13.9114 -13.8776 -13.8344 -13.7773
   -13.7341 -13.7063 -13.6855 -13.6251  -4.2693  -4.1687  -3.9712  -3.8850
    -2.1854  -2.1434  -2.0376  -2.0096  -1.7636  -1.6811  -1.6084  -1.5252
    -1.2821  -1.1974  -1.1263  -1.0489  -0.4460  -0.3755  -0.2682  -0.2030
     0.0057   0.0733   0.1476   0.2385   0.2557   0.3698   0.4361   0.4758
     0.5916   0.6226   0.7015   0.7467   0.8030   0.8491   0.8828   0.9798
     1.2231   1.3473   1.3807   1.4995   1.6972   1.8144   1.8643   1.9003
     1.9612   2.0451   2.1013   2.1256   2.2026   2.2782   2.3573   2.4628
     2.6159   2.7172   2.9608   3.1445   3.1793   3.1967   3.2757   3.3530
     3.3913   3.4772   3.5864   3.6323   3.7659   3.8216   3.8843   3.9489
     9.9168  10.4604  11.1194  11.3484  11.4727  11.5887  11.8677  12.0235
    12.0887  12.1705

     occupation numbers 
     1.0000   1.0000   1.0000   1.0000   1.0000   1.0000   1.0000   1.0000
     1.0000   1.0000   1.0000   1.0000   1.0000   1.0000   1.0000   1.0000
[...]
     atom   23 type  3   force =    -0.01160112   -0.02463894   -0.01513217
     atom   24 type  3   force =    -0.01068937    0.02615104    0.01390823
     atom   25 type  3   force =     0.01151179   -0.02663947    0.01418220
     The non-local contrib.  to forces
     atom    1 type  2   force =     0.03015505   -0.01429356   -0.00246223
     atom    2 type  1   force =     0.09362967   -0.04897509    0.11976347
     atom    3 type  1   force =     0.05023320    0.00469499    0.10095158
     atom    4 type  1   force =    -0.14694238    0.06845078   -0.10219355
     atom    5 type  1   force =    -0.04958337   -0.01911808   -0.08954365
     atom    6 type  4   force =    -0.02638703    0.00012601   -0.03675101
     atom    7 type  4   force =     0.03552044    0.00295065   -0.01476965
     atom    8 type  4   force =     0.01464156   -0.00882473    0.03955951
     atom    9 type  4   force =    -0.00849909    0.00034276    0.03259016
     atom   10 type  3   force =     0.33186264    0.02686474   -1.50431930
     atom   11 type  3   force =    -0.14828232    0.02126819   -1.44981817
     atom   12 type  3   force =    -0.39596494   -0.01636782    1.50846742
     atom   13 type  3   force =     0.26402609   -0.00334035    1.49798806
     atom   14 type  3   force =     1.24196338    0.02555769   -0.64534865
     atom   15 type  3   force =    -1.20463716   -0.02197187   -0.75284718
     atom   16 type  3   force =    -1.22937281    0.05520666    0.40461914
     atom   17 type  3   force =     1.19119808    0.01022829    0.65765546
     atom   18 type  3   force =    -0.53016234   -1.09792213    0.77206222
     atom   19 type  3   force =     0.58315665    1.11218832    0.84137773
     atom   20 type  3   force =     0.60097006   -1.12869949   -0.72341824
     atom   21 type  3   force =    -0.68862365    1.04964831   -0.62197204
     atom   22 type  3   force =     0.52493044    1.08979825   -0.69630058
     atom   23 type  3   force =    -0.54621663   -1.08490782   -0.78409865
     atom   24 type  3   force =    -0.54570214    1.11861276    0.75797130
     atom   25 type  3   force =     0.54000890   -1.16805660    0.75652789
     The ionic contribution  to forces
     atom    1 type  2   force =    -1.53016407   -0.31335081    0.30151247
     atom    2 type  1   force =    -0.69755454    0.52877677   -0.42939642
     atom    3 type  1   force =    -8.78832939   -1.06734289   -0.44310389
     atom    4 type  1   force =     2.45998897   -1.10459783    0.47235347
     atom    5 type  1   force =     8.86785331    1.43802344    0.78103437
     atom    6 type  4   force =    -3.68858639    0.04612945    0.34461286
     atom    7 type  4   force =     0.87527507   -1.19092026    0.74784760
     atom    8 type  4   force =     4.53632515    0.00731941   -0.40693788
     atom    9 type  4   force =    -2.09201621    1.33331670   -0.83452044
     atom   10 type  3   force =   -10.24862185   -0.09056710    2.65401724
     atom   11 type  3   force =     4.61360846   -1.98283882    1.40132424
     atom   12 type  3   force =    11.32679104    0.14327260   -2.73923267
     atom   13 type  3   force =    -7.11844951    1.87961480   -2.10618610
     atom   14 type  3   force =     0.20294473    1.76425038    4.75267762
     atom   15 type  3   force =    -2.28624394    0.12920131    6.45236105
     atom   16 type  3   force =    -1.14979959   -2.54070580   -2.64774132
     atom   17 type  3   force =     3.30499751   -0.13214092   -5.87007252
     atom   18 type  3   force =    -4.16003995    2.68921350   -2.84962161
     atom   19 type  3   force =     1.13348057   -3.08064235   -2.99377225
     atom   20 type  3   force =     5.08441755    3.50638872    2.61133441
     atom   21 type  3   force =     1.28425886   -1.67589565    0.20879728
     atom   22 type  3   force =     4.82166267   -3.38541482    2.29478680
     atom   23 type  3   force =    -1.84628122    2.23799060    2.60136518
     atom   24 type  3   force =    -4.52513199   -2.88550978   -2.79036378
     atom   25 type  3   force =    -0.38038522    3.74642936   -1.51307569
     The local contribution  to forces
     atom    1 type  2   force =     1.49444798    0.34033801   -0.29635727
     atom    2 type  1   force =     0.59871861   -0.47867651    0.30570995
     atom    3 type  1   force =     8.73612857    1.06210364    0.34002255
     atom    4 type  1   force =    -2.30715980    1.03440193   -0.36607563
     atom    5 type  1   force =    -8.81534907   -1.41912886   -0.69022533
     atom    6 type  4   force =     3.71603390   -0.04645561   -0.30998303
     atom    7 type  4   force =    -0.90761382    1.18736015   -0.73261773
     atom    8 type  4   force =    -4.55337670    0.00040433    0.36896523
     atom    9 type  4   force =     2.10055235   -1.33423115    0.80223200
     atom   10 type  3   force =     9.92629282    0.06375572   -1.19194999
     atom   11 type  3   force =    -4.46812767    1.96195422    0.00677552
     atom   12 type  3   force =   -10.94199600   -0.12809362    1.27332749
     atom   13 type  3   force =     6.86078085   -1.87671677    0.65144537
     atom   14 type  3   force =    -1.40491021   -1.79052045   -4.12425281
     atom   15 type  3   force =     3.45529291   -0.10786213   -5.72148653
     atom   16 type  3   force =     2.33832904    2.48659209    2.25214527
     atom   17 type  3   force =    -4.45998947    0.12192329    5.23063067
     atom   18 type  3   force =     4.67517139   -1.62700883    2.09964049
     atom   19 type  3   force =    -1.69930971    2.00165332    2.17739879
     atom   20 type  3   force =    -5.66746761   -2.41412437   -1.90843861
     atom   21 type  3   force =    -0.61556271    0.65932626    0.39579733
     atom   22 type  3   force =    -5.33077179    2.32930114   -1.61821780
     atom   23 type  3   force =     2.37596897   -1.18751331   -1.83986230
     atom   24 type  3   force =     5.05519335    1.80317928    2.05342952
     atom   25 type  3   force =    -0.14328575   -2.61564595    0.77789804
     The core correction contribution to forces
     atom    1 type  2   force =     0.00000000    0.00000000    0.00000000
     atom    2 type  1   force =    -0.00120295    0.00039491   -0.00044568
     atom    3 type  1   force =    -0.00013303   -0.00013393    0.00036427
     atom    4 type  1   force =     0.00219263   -0.00066544    0.00022870
     atom    5 type  1   force =     0.00014872    0.00030007   -0.00031764
     atom    6 type  4   force =     0.00192063    0.00001809    0.00264514
     atom    7 type  4   force =    -0.00230633    0.00003231    0.00082741
     atom    8 type  4   force =    -0.00122586    0.00054721   -0.00280376
     atom    9 type  4   force =     0.00063836   -0.00054493   -0.00188799
     atom   10 type  3   force =    -0.00370664   -0.00025462    0.01368361
     atom   11 type  3   force =     0.00202612   -0.00018131    0.01308682
     atom   12 type  3   force =     0.00429815    0.00017672   -0.01369175
     atom   13 type  3   force =    -0.00307793    0.00002563   -0.01359826
     atom   14 type  3   force =    -0.01098394   -0.00028577    0.00642825
     atom   15 type  3   force =     0.01069702    0.00021337    0.00739160
     atom   16 type  3   force =     0.01084652   -0.00045331   -0.00412250
     atom   17 type  3   force =    -0.01061829   -0.00009211   -0.00650042
     atom   18 type  3   force =     0.00479144    0.00990742   -0.00729991
     atom   19 type  3   force =    -0.00526297   -0.00995072   -0.00799879
     atom   20 type  3   force =    -0.00551041    0.01020340    0.00679984
     atom   21 type  3   force =     0.00627243   -0.00950475    0.00589956
     atom   22 type  3   force =    -0.00477011   -0.00983294    0.00654387
     atom   23 type  3   force =     0.00492575    0.00979142    0.00746512
     atom   24 type  3   force =     0.00495474   -0.01012592   -0.00713116
     atom   25 type  3   force =    -0.00482331    0.01063900   -0.00716273
     The Hubbard contrib.    to forces
     atom    1 type  2   force =     0.00000000    0.00000000    0.00000000
     atom    2 type  1   force =     0.00000000    0.00000000    0.00000000
     atom    3 type  1   force =     0.00000000    0.00000000    0.00000000
     atom    4 type  1   force =     0.00000000    0.00000000    0.00000000
     atom    5 type  1   force =     0.00000000    0.00000000    0.00000000
     atom    6 type  4   force =     0.00000000    0.00000000    0.00000000
     atom    7 type  4   force =     0.00000000    0.00000000    0.00000000
     atom    8 type  4   force =     0.00000000    0.00000000    0.00000000
     atom    9 type  4   force =     0.00000000    0.00000000    0.00000000
     atom   10 type  3   force =     0.00000000    0.00000000    0.00000000
     atom   11 type  3   force =     0.00000000    0.00000000    0.00000000
     atom   12 type  3   force =     0.00000000    0.00000000    0.00000000
     atom   13 type  3   force =     0.00000000    0.00000000    0.00000000
     atom   14 type  3   force =     0.00000000    0.00000000    0.00000000
     atom   15 type  3   force =     0.00000000    0.00000000    0.00000000
     atom   16 type  3   force =     0.00000000    0.00000000    0.00000000
     atom   17 type  3   force =     0.00000000    0.00000000    0.00000000
     atom   18 type  3   force =     0.00000000    0.00000000    0.00000000
     atom   19 type  3   force =     0.00000000    0.00000000    0.00000000
     atom   20 type  3   force =     0.00000000    0.00000000    0.00000000
     atom   21 type  3   force =     0.00000000    0.00000000    0.00000000
     atom   22 type  3   force =     0.00000000    0.00000000    0.00000000
     atom   23 type  3   force =     0.00000000    0.00000000    0.00000000
     atom   24 type  3   force =     0.00000000    0.00000000    0.00000000
     atom   25 type  3   force =     0.00000000    0.00000000    0.00000000
     The SCF correction term to forces
     atom    1 type  2   force =     0.00000028   -0.00000117    0.00000004
     atom    2 type  1   force =    -0.00000660   -0.00000002   -0.00000060
     atom    3 type  1   force =    -0.00000626    0.00000033    0.00000029
     atom    4 type  1   force =     0.00000513    0.00000016   -0.00000013
     atom    5 type  1   force =     0.00000576   -0.00000004    0.00000019
     atom    6 type  4   force =    -0.00000219   -0.00000008    0.00000074
     atom    7 type  4   force =    -0.00000156    0.00000023   -0.00000058
     atom    8 type  4   force =     0.00000178   -0.00000004   -0.00000034
     atom    9 type  4   force =     0.00000155   -0.00000016    0.00000000
     atom   10 type  3   force =    -0.00000529   -0.00000014   -0.00000390
     atom   11 type  3   force =    -0.00000388    0.00000012    0.00000246
     atom   12 type  3   force =     0.00000208    0.00000005    0.00000090
     atom   13 type  3   force =     0.00000175   -0.00000014   -0.00000046
     atom   14 type  3   force =     0.00000379   -0.00000025    0.00000185
     atom   15 type  3   force =     0.00000281   -0.00000005   -0.00000160
     atom   16 type  3   force =     0.00000036    0.00000016   -0.00000035
     atom   17 type  3   force =     0.00000061   -0.00000000    0.00000035
     atom   18 type  3   force =    -0.00000339    0.00000526    0.00000410
     atom   19 type  3   force =    -0.00000276    0.00000579   -0.00000368
     atom   20 type  3   force =     0.00000171   -0.00000006   -0.00000049
     atom   21 type  3   force =     0.00000192   -0.00000028    0.00000020
     atom   22 type  3   force =     0.00000179    0.00000006   -0.00000055
     atom   23 type  3   force =     0.00000197    0.00000016    0.00000029
     atom   24 type  3   force =    -0.00000340   -0.00000532    0.00000416
     atom   25 type  3   force =    -0.00000288   -0.00000529   -0.00000350

     Total force =     0.122820     Total SCF correction =     0.000022


     Computing stress (Cartesian axis) and pressure


     negative rho (up, down):  0.000E+00 9.523E-04
          total   stress  (Ry/bohr**3)                   (kbar)     P=      -92.16
  -0.00081242  -0.00000003  -0.00002330         -119.51       -0.01       -3.43
  -0.00000003  -0.00056316  -0.00001855           -0.01      -82.84       -2.73
  -0.00002330  -0.00001855  -0.00050387           -3.43       -2.73      -74.12

     kinetic stress (kbar)  24953.04    -14.04     -2.74
                              -14.04  25174.39     -2.59
                               -2.74     -2.59  24989.58

     local   stress (kbar)  -4909.59  -2254.03    927.22
                            -2254.03 -14093.49    835.02
                              927.22    835.02  -7836.51

     nonloc. stress (kbar)  -6334.89     -1.10     -0.35
                               -1.10  -6287.73      1.41
                               -0.35      1.41  -6288.27

     hartree stress (kbar)  12170.15    919.15   -365.43
                              919.15  17165.85   -338.88
                             -365.43   -338.88  14037.35

     exc-cor stress (kbar)  -2648.72      1.17     -0.71
                                1.17  -2655.22     -0.37
                               -0.71     -0.37  -2653.13

     corecor stress (kbar)  -2962.54     -0.41      0.66
                               -0.41  -2962.30     -0.00
                                0.66     -0.00  -2963.77

     ewald   stress (kbar) -20386.97   1349.25   -562.07
                             1349.25 -16424.35   -497.32
                             -562.07   -497.32 -19359.38

     hubbard stress (kbar)      0.00      0.00      0.00
                                0.00      0.00      0.00
                                0.00      0.00      0.00

     DFT-D   stress (kbar)      0.00      0.00      0.00
                                0.00      0.00      0.00
                                0.00      0.00      0.00

     XDM     stress (kbar)      0.00      0.00      0.00
                                0.00      0.00      0.00
                                0.00      0.00      0.00

     dft-nl  stress (kbar)      0.00      0.00      0.00
                                0.00      0.00      0.00
                                0.00      0.00      0.00

     TS-vdW  stress (kbar)      0.00      0.00      0.00
                                0.00      0.00      0.00
                                0.00      0.00      0.00



     init_run     :    176.45s CPU    179.85s WALL (       1 calls)
     electrons    :  16186.07s CPU  16380.31s WALL (       1 calls)
     forces       :    113.06s CPU    114.79s WALL (       1 calls)
     stress       :    788.35s CPU    793.29s WALL (       1 calls)

     Called by init_run:
     wfcinit      :    167.42s CPU    170.04s WALL (       1 calls)
     wfcinit:atom :      2.52s CPU      2.56s WALL (     316 calls)
     wfcinit:wfcr :    156.11s CPU    158.55s WALL (     316 calls)
     potinit      :      3.06s CPU      3.21s WALL (       1 calls)
     hinit0       :      3.53s CPU      3.66s WALL (       1 calls)

     Called by electrons:
     c_bands      :  14377.63s CPU  14509.73s WALL (      36 calls)
     sum_band     :   1716.09s CPU   1757.47s WALL (      36 calls)
     v_of_rho     :     24.85s CPU     26.05s WALL (      37 calls)
     v_h          :      1.03s CPU      1.11s WALL (      37 calls)
     v_xc         :     25.10s CPU     26.29s WALL (      39 calls)
     newd         :     46.59s CPU     66.18s WALL (      37 calls)
     PAW_pot      :     15.21s CPU     15.26s WALL (      37 calls)
     mix_rho      :      5.42s CPU      5.68s WALL (      36 calls)

     Called by c_bands:
     init_us_2    :    256.66s CPU    261.06s WALL (   23700 calls)
     cegterg      :  13954.68s CPU  14080.23s WALL (   11376 calls)

     Called by sum_band:
     sum_band:wei :      0.57s CPU      0.57s WALL (      36 calls)
     sum_band:loo :   1579.13s CPU   1596.31s WALL (      36 calls)
     sum_band:buf :     68.09s CPU     69.16s WALL (   11376 calls)
     sum_band:ini :    123.52s CPU    125.38s WALL (   11376 calls)
     sum_band:cal :    765.35s CPU    772.44s WALL (   11376 calls)
     sum_band:bec :      5.53s CPU      5.61s WALL (   11376 calls)
     addusdens    :    132.34s CPU    156.34s WALL (      36 calls)
     addusd:skk   :      0.87s CPU      0.90s WALL (     108 calls)
     addusd:dgemm :     58.43s CPU     77.40s WALL (     216 calls)
     addusd:qvan2 :     71.21s CPU     71.62s WALL (     216 calls)

     Called by *egterg:
     cdiaghg      :    868.83s CPU    892.17s WALL (   40992 calls)
     cegterg:over :   1423.71s CPU   1443.95s WALL (   29616 calls)
     cegterg:upda :    818.81s CPU    822.11s WALL (   29616 calls)
     cegterg:last :   1677.09s CPU   1683.58s WALL (   18735 calls)
     h_psi        :   6587.58s CPU   6644.58s WALL (   41308 calls)
     s_psi        :   1813.88s CPU   1820.79s WALL (   41308 calls)
     g_psi        :     17.77s CPU     17.97s WALL (   29616 calls)

     Called by h_psi:
     h_psi:calbec :   1887.52s CPU   1905.71s WALL (   41308 calls)
     vloc_psi     :   2658.43s CPU   2686.96s WALL (   41308 calls)
     add_vuspsi   :   1898.17s CPU   1905.48s WALL (   41308 calls)

     General routines
     calbec       :   2763.87s CPU   2790.39s WALL (   54264 calls)
     fft          :     19.09s CPU     20.75s WALL (     963 calls)
     ffts         :      0.26s CPU      0.34s WALL (     146 calls)
     fftw         :   3006.64s CPU   3039.00s WALL ( 7047500 calls)
     interpolate  :      1.62s CPU      1.79s WALL (      74 calls)

     Parallel routines
     fft_scatt_xy :    377.14s CPU    380.92s WALL ( 7048609 calls)
     fft_scatt_yz :    987.35s CPU   1000.75s WALL ( 7048609 calls)

     PAW routines
     PAW_pot      :     15.21s CPU     15.26s WALL (      37 calls)

     PWSCF        :      4h47m CPU      4h51m WALL


   This run was terminated on:  17:38:18  19Dec2022            

=------------------------------------------------------------------------------=
   JOB DONE.
=------------------------------------------------------------------------------=
Note: The following floating-point exceptions are signalling: IEEE_DENORMAL
Note: The following floating-point exceptions are signalling: IEEE_UNDERFLOW_FLAG IEEE_DENORMAL
Note: The following floating-point exceptions are signalling: IEEE_DENORMAL
Note: The following floating-point exceptions are signalling: IEEE_DENORMAL
Note: The following floating-point exceptions are signalling: IEEE_DENORMAL
Note: The following floating-point exceptions are signalling: IEEE_DENORMAL
Note: The following floating-point exceptions are signalling: IEEE_DENORMAL
Note: The following floating-point exceptions are signalling: IEEE_DENORMAL
Note: The following floating-point exceptions are signalling: IEEE_DENORMAL
Note: The following floating-point exceptions are signalling: IEEE_DENORMAL
Note: The following floating-point exceptions are signalling: IEEE_DENORMAL
Note: The following floating-point exceptions are signalling: IEEE_DENORMAL
Note: The following floating-point exceptions are signalling: IEEE_DENORMAL
Note: The following floating-point exceptions are signalling: IEEE_DENORMAL
Note: The following floating-point exceptions are signalling: IEEE_DENORMAL
Note: The following floating-point exceptions are signalling: IEEE_DENORMAL
Note: The following floating-point exceptions are signalling: IEEE_DENORMAL
Note: The following floating-point exceptions are signalling: IEEE_DENORMAL
Note: The following floating-point exceptions are signalling: IEEE_DENORMAL
Note: The following floating-point exceptions are signalling: IEEE_DENORMAL
Note: The following floating-point exceptions are signalling: IEEE_DENORMAL
Note: The following floating-point exceptions are signalling: IEEE_DENORMAL
Note: The following floating-point exceptions are signalling: IEEE_DENORMAL
Note: The following floating-point exceptions are signalling: IEEE_DENORMAL
