
     Program PWSCF v.6.7MaX starts on 19Dec2022 at  1:54: 4 

     This program is part of the open-source Quantum ESPRESSO suite
     for quantum simulation of materials; please cite
         "P. Giannozzi et al., J. Phys.:Condens. Matter 21 395502 (2009);
         "P. Giannozzi et al., J. Phys.:Condens. Matter 29 465901 (2017);
          URL http://www.quantum-espresso.org", 
     in publications or presentations arising from this work. More details at
     http://www.quantum-espresso.org/quote

     Parallel version (MPI), running on    24 processors

     MPI processes distributed on     1 nodes
     R & G space division:  proc/nbgrp/npool/nimage =      24
     Reading input from scale_1da-02.in

     Current dimensions of program PWSCF are:
     Max number of different atomic species (ntypx) = 10
     Max number of k-points (npk) =  40000
     Max angular momentum in pseudopotentials (lmaxx) =  3
     Message from routine read_pp_mesh:
     mesh size missing, using the one in header
     file Fe.pbe-spn-kjpaw_psl.0.2.1.UPF: wavefunction(s)  3D renormalized
     file O.pbe-n-kjpaw_psl.0.1.UPF: wavefunction(s)  2P renormalized

     Subspace diagonalization in iterative solution of the eigenvalue problem:
     a serial algorithm will be used


     Parallelization info
     --------------------
     sticks:   dense  smooth     PW     G-vecs:    dense   smooth      PW
     Min         814     301     81                53060    11960    1683
     Max         815     303     82                53063    11961    1686
     Sum       19549    7233   1959              1273469   287059   40409



     bravais-lattice index     =            0
     lattice parameter (alat)  =      19.3373  a.u.
     unit-cell volume          =    2124.3518 (a.u.)^3
     number of atoms/cell      =           25
     number of atomic types    =            4
     number of electrons       =       189.00
     number of Kohn-Sham states=          114
     kinetic-energy cutoff     =     100.0000  Ry
     charge density cutoff     =    1080.0000  Ry
     scf convergence threshold =      2.0E-10
     mixing beta               =       0.4000
     number of iterations used =            8  plain     mixing
     Exchange-correlation= PBE
                           (   1   4   3   4   0   0   0)

     celldm(1)=  19.337306  celldm(2)=   0.000000  celldm(3)=   0.000000
     celldm(4)=   0.000000  celldm(5)=   0.000000  celldm(6)=   0.000000

     crystal axes: (cart. coord. in units of alat)
               a(1) = (   1.000000   0.000000   0.000000 )  
               a(2) = (   0.000000   0.607719   0.000000 )  
               a(3) = (   0.000000   0.000000   0.483433 )  

     reciprocal axes: (cart. coord. in units 2 pi/alat)
               b(1) = (  1.000000  0.000000  0.000000 )  
               b(2) = (  0.000000  1.645499  0.000000 )  
               b(3) = (  0.000000  0.000000  2.068540 )  


     PseudoPot. # 1 for Fe read from file:
     /opt/QEpot/SSSP_precision_pseudos/Fe.pbe-spn-kjpaw_psl.0.2.1.UPF
     MD5 check sum: e86618425769142926afa95317d90200
     Pseudo is Projector augmented-wave + core cor, Zval = 16.0
     Generated using "atomic" code by A. Dal Corso  v.5.0.99 svn rev. 10869
     Shape of augmentation charge: PSQ
     Using radial grid of 1191 points,  6 beta functions with: 
                l(1) =   0
                l(2) =   0
                l(3) =   1
                l(4) =   1
                l(5) =   2
                l(6) =   2
     Q(r) pseudized with 0 coefficients 


     PseudoPot. # 2 for Na read from file:
     /opt/QEpot/SSSP_precision_pseudos/Na_ONCV_PBE-1.0.oncvpsp.upf
     MD5 check sum: 24a298df0a6742ae313db96548fdb2a4
     Pseudo is Norm-conserving, Zval =  9.0
     Generated using ONCVPSP code by D. R. Hamann
     Using radial grid of 1992 points,  4 beta functions with: 
                l(1) =   0
                l(2) =   0
                l(3) =   1
                l(4) =   1

     PseudoPot. # 3 for O  read from file:
     /opt/QEpot/SSSP_precision_pseudos/O.pbe-n-kjpaw_psl.0.1.UPF
     MD5 check sum: 0234752ac141de4415c5fc33072bef88
     Pseudo is Projector augmented-wave + core cor, Zval =  6.0
     Generated using "atomic" code by A. Dal Corso  v.5.0.99 svn rev. 10869
     Shape of augmentation charge: BESSEL
     Using radial grid of 1095 points,  4 beta functions with: 
                l(1) =   0
                l(2) =   0
                l(3) =   1
                l(4) =   1
     Q(r) pseudized with 0 coefficients 


     PseudoPot. # 4 for P  read from file:
     /opt/QEpot/SSSP_precision_pseudos/P.pbe-n-rrkjus_psl.1.0.0.UPF
     MD5 check sum: 8b930f418f0a4573dca56cd030ffe088
     Pseudo is Ultrasoft + core correction, Zval =  5.0
     Generated using "atomic" code by A. Dal Corso  v.5.1
     Using radial grid of 1147 points,  6 beta functions with: 
                l(1) =   0
                l(2) =   0
                l(3) =   1
                l(4) =   1
                l(5) =   2
                l(6) =   2
     Q(r) pseudized with 0 coefficients 


     atomic species   valence    mass     pseudopotential
        Fe            16.00    55.84500     Fe( 1.00)
        Na             9.00    22.98977     Na( 1.00)
        O              6.00    15.99940     O ( 1.00)
        P              5.00    30.97376     P ( 1.00)

     Starting magnetic structure 
     atomic species   magnetization
        Fe           0.312
        Na           0.000
        O            0.000
        P            0.000

     No symmetry found


                                    s                        frac. trans.

      isym =  1     identity                                     

 cryst.   s( 1) = (     1          0          0      )
                  (     0          1          0      )
                  (     0          0          1      )

 cart.    s( 1) = (  1.0000000  0.0000000  0.0000000 )
                  (  0.0000000  1.0000000  0.0000000 )
                  (  0.0000000  0.0000000  1.0000000 )


   Cartesian axes

     site n.     atom                  positions (alat units)
         1           Na  tau(   1) = (   0.5267800   0.2543679   0.2345267  )
         2           Fe  tau(   2) = (   0.2775050   0.4548482   0.4802508  )
         3           Fe  tau(   3) = (   0.2107690   0.1491736   0.2370222  )
         4           Fe  tau(   4) = (   0.7260420   0.1453310   0.0027038  )
         5           Fe  tau(   5) = (   0.7842060   0.4575167   0.2466967  )
         6           P   tau(   6) = (   0.1068460   0.4538825   0.2148322  )
         7           P   tau(   7) = (   0.3892680   0.1465835   0.4565814  )
         8           P   tau(   8) = (   0.8912160   0.1515541   0.2691507  )
         9           P   tau(   9) = (   0.6066990   0.4549399   0.0271090  )
        10           O   tau(  10) = (   0.1320850   0.4525121   0.3632794  )
        11           O   tau(  11) = (   0.3656990   0.1509804   0.1219382  )
        12           O   tau(  12) = (   0.8700850   0.1507093   0.1201857  )
        13           O   tau(  13) = (   0.6284590   0.4506373   0.3612195  )
        14           O   tau(  14) = (   0.4610830   0.4501104   0.0598055  )
        15           O   tau(  15) = (   0.0360890   0.1522918   0.3013985  )
        16           O   tau(  16) = (   0.5370310   0.1483490   0.4305582  )
        17           O   tau(  17) = (   0.9604850   0.4539323   0.1877503  )
        18           O   tau(  18) = (   0.1757850   0.5731989   0.1460465  )
        19           O   tau(  19) = (   0.3203990   0.0283233   0.3888167  )
        20           O   tau(  20) = (   0.8166330   0.2679091   0.3366335  )
        21           O   tau(  21) = (   0.6775460   0.3368663   0.0977322  )
        22           O   tau(  22) = (   0.8196290   0.0325366   0.3369429  )
        23           O   tau(  23) = (   0.6770700   0.5736395   0.0949607  )
        24           O   tau(  24) = (   0.1771920   0.3362871   0.1445928  )
        25           O   tau(  25) = (   0.3254700   0.2656350   0.3822106  )

   Crystallographic axes

     site n.     atom                  positions (cryst. coord.)
         1           Na  tau(   1) = (  0.5267800  0.4185620  0.4851280  )
         2           Fe  tau(   2) = (  0.2775050  0.7484520  0.9934180  )
         3           Fe  tau(   3) = (  0.2107690  0.2454650  0.4902900  )
         4           Fe  tau(   4) = (  0.7260420  0.2391420  0.0055930  )
         5           Fe  tau(   5) = (  0.7842060  0.7528430  0.5103020  )
         6           P   tau(   6) = (  0.1068460  0.7468630  0.4443890  )
         7           P   tau(   7) = (  0.3892680  0.2412030  0.9444570  )
         8           P   tau(   8) = (  0.8912160  0.2493820  0.5567490  )
         9           P   tau(   9) = (  0.6066990  0.7486030  0.0560760  )
        10           O   tau(  10) = (  0.1320850  0.7446080  0.7514580  )
        11           O   tau(  11) = (  0.3656990  0.2484380  0.2522340  )
        12           O   tau(  12) = (  0.8700850  0.2479920  0.2486090  )
        13           O   tau(  13) = (  0.6284590  0.7415230  0.7471970  )
        14           O   tau(  14) = (  0.4610830  0.7406560  0.1237100  )
        15           O   tau(  15) = (  0.0360890  0.2505960  0.6234550  )
        16           O   tau(  16) = (  0.5370310  0.2441080  0.8906270  )
        17           O   tau(  17) = (  0.9604850  0.7469450  0.3883690  )
        18           O   tau(  18) = (  0.1757850  0.9431980  0.3021030  )
        19           O   tau(  19) = (  0.3203990  0.0466060  0.8042830  )
        20           O   tau(  20) = (  0.8166330  0.4408440  0.6963400  )
        21           O   tau(  21) = (  0.6775460  0.5543130  0.2021630  )
        22           O   tau(  22) = (  0.8196290  0.0535390  0.6969800  )
        23           O   tau(  23) = (  0.6770700  0.9439230  0.1964300  )
        24           O   tau(  24) = (  0.1771920  0.5533600  0.2990960  )
        25           O   tau(  25) = (  0.3254700  0.4371020  0.7906180  )

     number of k points=   158  Marzari-Vanderbilt smearing, width (Ry)=  0.0073
                       cart. coord. in units 2pi/alat
        k(    1) = (   0.0000000   0.0000000   0.0000000), wk =   0.0031746
        k(    2) = (   0.0000000   0.0000000   0.2298378), wk =   0.0063492
        k(    3) = (   0.0000000   0.0000000   0.4596756), wk =   0.0063492
        k(    4) = (   0.0000000   0.0000000   0.6895134), wk =   0.0063492
        k(    5) = (   0.0000000   0.0000000   0.9193512), wk =   0.0063492
        k(    6) = (   0.0000000   0.2350712   0.0000000), wk =   0.0063492
        k(    7) = (   0.0000000   0.2350712   0.2298378), wk =   0.0063492
        k(    8) = (   0.0000000   0.2350712   0.4596756), wk =   0.0063492
        k(    9) = (   0.0000000   0.2350712   0.6895134), wk =   0.0063492
        k(   10) = (   0.0000000   0.2350712   0.9193512), wk =   0.0063492
        k(   11) = (   0.0000000   0.4701424   0.0000000), wk =   0.0063492
        k(   12) = (   0.0000000   0.4701424   0.2298378), wk =   0.0063492
        k(   13) = (   0.0000000   0.4701424   0.4596756), wk =   0.0063492
        k(   14) = (   0.0000000   0.4701424   0.6895134), wk =   0.0063492
        k(   15) = (   0.0000000   0.4701424   0.9193512), wk =   0.0063492
        k(   16) = (   0.0000000   0.7052137   0.0000000), wk =   0.0063492
        k(   17) = (   0.0000000   0.7052137   0.2298378), wk =   0.0063492
        k(   18) = (   0.0000000   0.7052137   0.4596756), wk =   0.0063492
        k(   19) = (   0.0000000   0.7052137   0.6895134), wk =   0.0063492
        k(   20) = (   0.0000000   0.7052137   0.9193512), wk =   0.0063492
        k(   21) = (   0.2000000   0.0000000   0.0000000), wk =   0.0063492
        k(   22) = (   0.2000000   0.0000000   0.2298378), wk =   0.0063492
        k(   23) = (   0.2000000   0.0000000   0.4596756), wk =   0.0063492
        k(   24) = (   0.2000000   0.0000000   0.6895134), wk =   0.0063492
        k(   25) = (   0.2000000   0.0000000   0.9193512), wk =   0.0063492
        k(   26) = (   0.2000000   0.2350712   0.0000000), wk =   0.0063492
        k(   27) = (   0.2000000   0.2350712   0.2298378), wk =   0.0063492
        k(   28) = (   0.2000000   0.2350712   0.4596756), wk =   0.0063492
        k(   29) = (   0.2000000   0.2350712   0.6895134), wk =   0.0063492
        k(   30) = (   0.2000000   0.2350712   0.9193512), wk =   0.0063492
        k(   31) = (   0.2000000   0.4701424   0.0000000), wk =   0.0063492
        k(   32) = (   0.2000000   0.4701424   0.2298378), wk =   0.0063492
        k(   33) = (   0.2000000   0.4701424   0.4596756), wk =   0.0063492
        k(   34) = (   0.2000000   0.4701424   0.6895134), wk =   0.0063492
        k(   35) = (   0.2000000   0.4701424   0.9193512), wk =   0.0063492
        k(   36) = (   0.2000000   0.7052137   0.0000000), wk =   0.0063492
        k(   37) = (   0.2000000   0.7052137   0.2298378), wk =   0.0063492
        k(   38) = (   0.2000000   0.7052137   0.4596756), wk =   0.0063492
        k(   39) = (   0.2000000   0.7052137   0.6895134), wk =   0.0063492
        k(   40) = (   0.2000000   0.7052137   0.9193512), wk =   0.0063492
        k(   41) = (   0.4000000   0.0000000   0.0000000), wk =   0.0063492
        k(   42) = (   0.4000000   0.0000000   0.2298378), wk =   0.0063492
        k(   43) = (   0.4000000   0.0000000   0.4596756), wk =   0.0063492
        k(   44) = (   0.4000000   0.0000000   0.6895134), wk =   0.0063492
        k(   45) = (   0.4000000   0.0000000   0.9193512), wk =   0.0063492
        k(   46) = (   0.4000000   0.2350712   0.0000000), wk =   0.0063492
        k(   47) = (   0.4000000   0.2350712   0.2298378), wk =   0.0063492
        k(   48) = (   0.4000000   0.2350712   0.4596756), wk =   0.0063492
        k(   49) = (   0.4000000   0.2350712   0.6895134), wk =   0.0063492
        k(   50) = (   0.4000000   0.2350712   0.9193512), wk =   0.0063492
        k(   51) = (   0.4000000   0.4701424   0.0000000), wk =   0.0063492
        k(   52) = (   0.4000000   0.4701424   0.2298378), wk =   0.0063492
        k(   53) = (   0.4000000   0.4701424   0.4596756), wk =   0.0063492
        k(   54) = (   0.4000000   0.4701424   0.6895134), wk =   0.0063492
        k(   55) = (   0.4000000   0.4701424   0.9193512), wk =   0.0063492
        k(   56) = (   0.4000000   0.7052137   0.0000000), wk =   0.0063492
        k(   57) = (   0.4000000   0.7052137   0.2298378), wk =   0.0063492
        k(   58) = (   0.4000000   0.7052137   0.4596756), wk =   0.0063492
        k(   59) = (   0.4000000   0.7052137   0.6895134), wk =   0.0063492
        k(   60) = (   0.4000000   0.7052137   0.9193512), wk =   0.0063492
        k(   61) = (   0.0000000  -0.2350712   0.2298378), wk =   0.0063492
        k(   62) = (   0.0000000  -0.2350712   0.4596756), wk =   0.0063492
        k(   63) = (   0.0000000  -0.2350712   0.6895134), wk =   0.0063492
        k(   64) = (   0.0000000  -0.2350712   0.9193512), wk =   0.0063492
        k(   65) = (   0.0000000  -0.4701424   0.2298378), wk =   0.0063492
        k(   66) = (   0.0000000  -0.4701424   0.4596756), wk =   0.0063492
        k(   67) = (   0.0000000  -0.4701424   0.6895134), wk =   0.0063492
        k(   68) = (   0.0000000  -0.4701424   0.9193512), wk =   0.0063492
        k(   69) = (   0.0000000  -0.7052137   0.2298378), wk =   0.0063492
        k(   70) = (   0.0000000  -0.7052137   0.4596756), wk =   0.0063492
        k(   71) = (   0.0000000  -0.7052137   0.6895134), wk =   0.0063492
        k(   72) = (   0.0000000  -0.7052137   0.9193512), wk =   0.0063492
        k(   73) = (  -0.2000000   0.0000000   0.2298378), wk =   0.0063492
        k(   74) = (  -0.2000000   0.0000000   0.4596756), wk =   0.0063492
        k(   75) = (  -0.2000000   0.0000000   0.6895134), wk =   0.0063492
        k(   76) = (  -0.2000000   0.0000000   0.9193512), wk =   0.0063492
        k(   77) = (  -0.2000000   0.2350712   0.0000000), wk =   0.0063492
        k(   78) = (  -0.2000000  -0.2350712   0.2298378), wk =   0.0063492
        k(   79) = (  -0.2000000   0.2350712  -0.2298378), wk =   0.0063492
        k(   80) = (   0.2000000  -0.2350712  -0.2298378), wk =   0.0063492
        k(   81) = (  -0.2000000  -0.2350712   0.4596756), wk =   0.0063492
        k(   82) = (  -0.2000000   0.2350712  -0.4596756), wk =   0.0063492
        k(   83) = (   0.2000000  -0.2350712  -0.4596756), wk =   0.0063492
        k(   84) = (  -0.2000000  -0.2350712   0.6895134), wk =   0.0063492
        k(   85) = (  -0.2000000   0.2350712  -0.6895134), wk =   0.0063492
        k(   86) = (   0.2000000  -0.2350712  -0.6895134), wk =   0.0063492
        k(   87) = (  -0.2000000  -0.2350712   0.9193512), wk =   0.0063492
        k(   88) = (  -0.2000000   0.2350712  -0.9193512), wk =   0.0063492
        k(   89) = (   0.2000000  -0.2350712  -0.9193512), wk =   0.0063492
        k(   90) = (  -0.2000000   0.4701424   0.0000000), wk =   0.0063492
        k(   91) = (  -0.2000000  -0.4701424   0.2298378), wk =   0.0063492
        k(   92) = (  -0.2000000   0.4701424  -0.2298378), wk =   0.0063492
        k(   93) = (   0.2000000  -0.4701424  -0.2298378), wk =   0.0063492
        k(   94) = (  -0.2000000  -0.4701424   0.4596756), wk =   0.0063492
        k(   95) = (  -0.2000000   0.4701424  -0.4596756), wk =   0.0063492
        k(   96) = (   0.2000000  -0.4701424  -0.4596756), wk =   0.0063492
        k(   97) = (  -0.2000000  -0.4701424   0.6895134), wk =   0.0063492
        k(   98) = (  -0.2000000   0.4701424  -0.6895134), wk =   0.0063492
        k(   99) = (   0.2000000  -0.4701424  -0.6895134), wk =   0.0063492
        k(  100) = (  -0.2000000  -0.4701424   0.9193512), wk =   0.0063492
        k(  101) = (  -0.2000000   0.4701424  -0.9193512), wk =   0.0063492
        k(  102) = (   0.2000000  -0.4701424  -0.9193512), wk =   0.0063492
        k(  103) = (  -0.2000000   0.7052137   0.0000000), wk =   0.0063492
        k(  104) = (  -0.2000000  -0.7052137   0.2298378), wk =   0.0063492
        k(  105) = (  -0.2000000   0.7052137  -0.2298378), wk =   0.0063492
        k(  106) = (   0.2000000  -0.7052137  -0.2298378), wk =   0.0063492
        k(  107) = (  -0.2000000  -0.7052137   0.4596756), wk =   0.0063492
        k(  108) = (  -0.2000000   0.7052137  -0.4596756), wk =   0.0063492
        k(  109) = (   0.2000000  -0.7052137  -0.4596756), wk =   0.0063492
        k(  110) = (  -0.2000000  -0.7052137   0.6895134), wk =   0.0063492
        k(  111) = (  -0.2000000   0.7052137  -0.6895134), wk =   0.0063492
        k(  112) = (   0.2000000  -0.7052137  -0.6895134), wk =   0.0063492
        k(  113) = (  -0.2000000  -0.7052137   0.9193512), wk =   0.0063492
        k(  114) = (  -0.2000000   0.7052137  -0.9193512), wk =   0.0063492
        k(  115) = (   0.2000000  -0.7052137  -0.9193512), wk =   0.0063492
        k(  116) = (  -0.4000000   0.0000000   0.2298378), wk =   0.0063492
        k(  117) = (  -0.4000000   0.0000000   0.4596756), wk =   0.0063492
        k(  118) = (  -0.4000000   0.0000000   0.6895134), wk =   0.0063492
        k(  119) = (  -0.4000000   0.0000000   0.9193512), wk =   0.0063492
        k(  120) = (  -0.4000000   0.2350712   0.0000000), wk =   0.0063492
        k(  121) = (  -0.4000000  -0.2350712   0.2298378), wk =   0.0063492
        k(  122) = (  -0.4000000   0.2350712  -0.2298378), wk =   0.0063492
        k(  123) = (   0.4000000  -0.2350712  -0.2298378), wk =   0.0063492
        k(  124) = (  -0.4000000  -0.2350712   0.4596756), wk =   0.0063492
        k(  125) = (  -0.4000000   0.2350712  -0.4596756), wk =   0.0063492
        k(  126) = (   0.4000000  -0.2350712  -0.4596756), wk =   0.0063492
        k(  127) = (  -0.4000000  -0.2350712   0.6895134), wk =   0.0063492
        k(  128) = (  -0.4000000   0.2350712  -0.6895134), wk =   0.0063492
        k(  129) = (   0.4000000  -0.2350712  -0.6895134), wk =   0.0063492
        k(  130) = (  -0.4000000  -0.2350712   0.9193512), wk =   0.0063492
        k(  131) = (  -0.4000000   0.2350712  -0.9193512), wk =   0.0063492
        k(  132) = (   0.4000000  -0.2350712  -0.9193512), wk =   0.0063492
        k(  133) = (  -0.4000000   0.4701424   0.0000000), wk =   0.0063492
        k(  134) = (  -0.4000000  -0.4701424   0.2298378), wk =   0.0063492
        k(  135) = (  -0.4000000   0.4701424  -0.2298378), wk =   0.0063492
        k(  136) = (   0.4000000  -0.4701424  -0.2298378), wk =   0.0063492
        k(  137) = (  -0.4000000  -0.4701424   0.4596756), wk =   0.0063492
        k(  138) = (  -0.4000000   0.4701424  -0.4596756), wk =   0.0063492
        k(  139) = (   0.4000000  -0.4701424  -0.4596756), wk =   0.0063492
        k(  140) = (  -0.4000000  -0.4701424   0.6895134), wk =   0.0063492
        k(  141) = (  -0.4000000   0.4701424  -0.6895134), wk =   0.0063492
        k(  142) = (   0.4000000  -0.4701424  -0.6895134), wk =   0.0063492
        k(  143) = (  -0.4000000  -0.4701424   0.9193512), wk =   0.0063492
        k(  144) = (  -0.4000000   0.4701424  -0.9193512), wk =   0.0063492
        k(  145) = (   0.4000000  -0.4701424  -0.9193512), wk =   0.0063492
        k(  146) = (  -0.4000000   0.7052137   0.0000000), wk =   0.0063492
        k(  147) = (  -0.4000000  -0.7052137   0.2298378), wk =   0.0063492
        k(  148) = (  -0.4000000   0.7052137  -0.2298378), wk =   0.0063492
        k(  149) = (   0.4000000  -0.7052137  -0.2298378), wk =   0.0063492
        k(  150) = (  -0.4000000  -0.7052137   0.4596756), wk =   0.0063492
        k(  151) = (  -0.4000000   0.7052137  -0.4596756), wk =   0.0063492
        k(  152) = (   0.4000000  -0.7052137  -0.4596756), wk =   0.0063492
        k(  153) = (  -0.4000000  -0.7052137   0.6895134), wk =   0.0063492
        k(  154) = (  -0.4000000   0.7052137  -0.6895134), wk =   0.0063492
        k(  155) = (   0.4000000  -0.7052137  -0.6895134), wk =   0.0063492
        k(  156) = (  -0.4000000  -0.7052137   0.9193512), wk =   0.0063492
        k(  157) = (  -0.4000000   0.7052137  -0.9193512), wk =   0.0063492
        k(  158) = (   0.4000000  -0.7052137  -0.9193512), wk =   0.0063492

                       cryst. coord.
        k(    1) = (   0.0000000   0.0000000   0.0000000), wk =   0.0031746
        k(    2) = (   0.0000000   0.0000000   0.1111111), wk =   0.0063492
        k(    3) = (   0.0000000   0.0000000   0.2222222), wk =   0.0063492
        k(    4) = (   0.0000000   0.0000000   0.3333333), wk =   0.0063492
        k(    5) = (   0.0000000   0.0000000   0.4444444), wk =   0.0063492
        k(    6) = (   0.0000000   0.1428571   0.0000000), wk =   0.0063492
        k(    7) = (   0.0000000   0.1428571   0.1111111), wk =   0.0063492
        k(    8) = (   0.0000000   0.1428571   0.2222222), wk =   0.0063492
        k(    9) = (   0.0000000   0.1428571   0.3333333), wk =   0.0063492
        k(   10) = (   0.0000000   0.1428571   0.4444444), wk =   0.0063492
        k(   11) = (   0.0000000   0.2857143   0.0000000), wk =   0.0063492
        k(   12) = (   0.0000000   0.2857143   0.1111111), wk =   0.0063492
        k(   13) = (   0.0000000   0.2857143   0.2222222), wk =   0.0063492
        k(   14) = (   0.0000000   0.2857143   0.3333333), wk =   0.0063492
        k(   15) = (   0.0000000   0.2857143   0.4444444), wk =   0.0063492
        k(   16) = (   0.0000000   0.4285714   0.0000000), wk =   0.0063492
        k(   17) = (   0.0000000   0.4285714   0.1111111), wk =   0.0063492
        k(   18) = (   0.0000000   0.4285714   0.2222222), wk =   0.0063492
        k(   19) = (   0.0000000   0.4285714   0.3333333), wk =   0.0063492
        k(   20) = (   0.0000000   0.4285714   0.4444444), wk =   0.0063492
        k(   21) = (   0.2000000   0.0000000   0.0000000), wk =   0.0063492
        k(   22) = (   0.2000000   0.0000000   0.1111111), wk =   0.0063492
        k(   23) = (   0.2000000   0.0000000   0.2222222), wk =   0.0063492
        k(   24) = (   0.2000000   0.0000000   0.3333333), wk =   0.0063492
        k(   25) = (   0.2000000   0.0000000   0.4444444), wk =   0.0063492
        k(   26) = (   0.2000000   0.1428571   0.0000000), wk =   0.0063492
        k(   27) = (   0.2000000   0.1428571   0.1111111), wk =   0.0063492
        k(   28) = (   0.2000000   0.1428571   0.2222222), wk =   0.0063492
        k(   29) = (   0.2000000   0.1428571   0.3333333), wk =   0.0063492
        k(   30) = (   0.2000000   0.1428571   0.4444444), wk =   0.0063492
        k(   31) = (   0.2000000   0.2857143   0.0000000), wk =   0.0063492
        k(   32) = (   0.2000000   0.2857143   0.1111111), wk =   0.0063492
        k(   33) = (   0.2000000   0.2857143   0.2222222), wk =   0.0063492
        k(   34) = (   0.2000000   0.2857143   0.3333333), wk =   0.0063492
        k(   35) = (   0.2000000   0.2857143   0.4444444), wk =   0.0063492
        k(   36) = (   0.2000000   0.4285714   0.0000000), wk =   0.0063492
        k(   37) = (   0.2000000   0.4285714   0.1111111), wk =   0.0063492
        k(   38) = (   0.2000000   0.4285714   0.2222222), wk =   0.0063492
        k(   39) = (   0.2000000   0.4285714   0.3333333), wk =   0.0063492
        k(   40) = (   0.2000000   0.4285714   0.4444444), wk =   0.0063492
        k(   41) = (   0.4000000   0.0000000   0.0000000), wk =   0.0063492
        k(   42) = (   0.4000000   0.0000000   0.1111111), wk =   0.0063492
        k(   43) = (   0.4000000   0.0000000   0.2222222), wk =   0.0063492
        k(   44) = (   0.4000000   0.0000000   0.3333333), wk =   0.0063492
        k(   45) = (   0.4000000   0.0000000   0.4444444), wk =   0.0063492
        k(   46) = (   0.4000000   0.1428571   0.0000000), wk =   0.0063492
        k(   47) = (   0.4000000   0.1428571   0.1111111), wk =   0.0063492
        k(   48) = (   0.4000000   0.1428571   0.2222222), wk =   0.0063492
        k(   49) = (   0.4000000   0.1428571   0.3333333), wk =   0.0063492
        k(   50) = (   0.4000000   0.1428571   0.4444444), wk =   0.0063492
        k(   51) = (   0.4000000   0.2857143   0.0000000), wk =   0.0063492
        k(   52) = (   0.4000000   0.2857143   0.1111111), wk =   0.0063492
        k(   53) = (   0.4000000   0.2857143   0.2222222), wk =   0.0063492
        k(   54) = (   0.4000000   0.2857143   0.3333333), wk =   0.0063492
        k(   55) = (   0.4000000   0.2857143   0.4444444), wk =   0.0063492
        k(   56) = (   0.4000000   0.4285714   0.0000000), wk =   0.0063492
        k(   57) = (   0.4000000   0.4285714   0.1111111), wk =   0.0063492
        k(   58) = (   0.4000000   0.4285714   0.2222222), wk =   0.0063492
        k(   59) = (   0.4000000   0.4285714   0.3333333), wk =   0.0063492
        k(   60) = (   0.4000000   0.4285714   0.4444444), wk =   0.0063492
        k(   61) = (   0.0000000  -0.1428571   0.1111111), wk =   0.0063492
        k(   62) = (   0.0000000  -0.1428571   0.2222222), wk =   0.0063492
        k(   63) = (   0.0000000  -0.1428571   0.3333333), wk =   0.0063492
        k(   64) = (   0.0000000  -0.1428571   0.4444444), wk =   0.0063492
        k(   65) = (   0.0000000  -0.2857143   0.1111111), wk =   0.0063492
        k(   66) = (   0.0000000  -0.2857143   0.2222222), wk =   0.0063492
        k(   67) = (   0.0000000  -0.2857143   0.3333333), wk =   0.0063492
        k(   68) = (   0.0000000  -0.2857143   0.4444444), wk =   0.0063492
        k(   69) = (   0.0000000  -0.4285714   0.1111111), wk =   0.0063492
        k(   70) = (   0.0000000  -0.4285714   0.2222222), wk =   0.0063492
        k(   71) = (   0.0000000  -0.4285714   0.3333333), wk =   0.0063492
        k(   72) = (   0.0000000  -0.4285714   0.4444444), wk =   0.0063492
        k(   73) = (  -0.2000000   0.0000000   0.1111111), wk =   0.0063492
        k(   74) = (  -0.2000000   0.0000000   0.2222222), wk =   0.0063492
        k(   75) = (  -0.2000000   0.0000000   0.3333333), wk =   0.0063492
        k(   76) = (  -0.2000000   0.0000000   0.4444444), wk =   0.0063492
        k(   77) = (  -0.2000000   0.1428571   0.0000000), wk =   0.0063492
        k(   78) = (  -0.2000000  -0.1428571   0.1111111), wk =   0.0063492
        k(   79) = (  -0.2000000   0.1428571  -0.1111111), wk =   0.0063492
        k(   80) = (   0.2000000  -0.1428571  -0.1111111), wk =   0.0063492
        k(   81) = (  -0.2000000  -0.1428571   0.2222222), wk =   0.0063492
        k(   82) = (  -0.2000000   0.1428571  -0.2222222), wk =   0.0063492
        k(   83) = (   0.2000000  -0.1428571  -0.2222222), wk =   0.0063492
        k(   84) = (  -0.2000000  -0.1428571   0.3333333), wk =   0.0063492
        k(   85) = (  -0.2000000   0.1428571  -0.3333333), wk =   0.0063492
        k(   86) = (   0.2000000  -0.1428571  -0.3333333), wk =   0.0063492
        k(   87) = (  -0.2000000  -0.1428571   0.4444444), wk =   0.0063492
        k(   88) = (  -0.2000000   0.1428571  -0.4444444), wk =   0.0063492
        k(   89) = (   0.2000000  -0.1428571  -0.4444444), wk =   0.0063492
        k(   90) = (  -0.2000000   0.2857143   0.0000000), wk =   0.0063492
        k(   91) = (  -0.2000000  -0.2857143   0.1111111), wk =   0.0063492
        k(   92) = (  -0.2000000   0.2857143  -0.1111111), wk =   0.0063492
        k(   93) = (   0.2000000  -0.2857143  -0.1111111), wk =   0.0063492
        k(   94) = (  -0.2000000  -0.2857143   0.2222222), wk =   0.0063492
        k(   95) = (  -0.2000000   0.2857143  -0.2222222), wk =   0.0063492
        k(   96) = (   0.2000000  -0.2857143  -0.2222222), wk =   0.0063492
        k(   97) = (  -0.2000000  -0.2857143   0.3333333), wk =   0.0063492
        k(   98) = (  -0.2000000   0.2857143  -0.3333333), wk =   0.0063492
        k(   99) = (   0.2000000  -0.2857143  -0.3333333), wk =   0.0063492
        k(  100) = (  -0.2000000  -0.2857143   0.4444444), wk =   0.0063492
        k(  101) = (  -0.2000000   0.2857143  -0.4444444), wk =   0.0063492
        k(  102) = (   0.2000000  -0.2857143  -0.4444444), wk =   0.0063492
        k(  103) = (  -0.2000000   0.4285714   0.0000000), wk =   0.0063492
        k(  104) = (  -0.2000000  -0.4285714   0.1111111), wk =   0.0063492
        k(  105) = (  -0.2000000   0.4285714  -0.1111111), wk =   0.0063492
        k(  106) = (   0.2000000  -0.4285714  -0.1111111), wk =   0.0063492
        k(  107) = (  -0.2000000  -0.4285714   0.2222222), wk =   0.0063492
        k(  108) = (  -0.2000000   0.4285714  -0.2222222), wk =   0.0063492
        k(  109) = (   0.2000000  -0.4285714  -0.2222222), wk =   0.0063492
        k(  110) = (  -0.2000000  -0.4285714   0.3333333), wk =   0.0063492
        k(  111) = (  -0.2000000   0.4285714  -0.3333333), wk =   0.0063492
        k(  112) = (   0.2000000  -0.4285714  -0.3333333), wk =   0.0063492
        k(  113) = (  -0.2000000  -0.4285714   0.4444444), wk =   0.0063492
        k(  114) = (  -0.2000000   0.4285714  -0.4444444), wk =   0.0063492
        k(  115) = (   0.2000000  -0.4285714  -0.4444444), wk =   0.0063492
        k(  116) = (  -0.4000000   0.0000000   0.1111111), wk =   0.0063492
        k(  117) = (  -0.4000000   0.0000000   0.2222222), wk =   0.0063492
        k(  118) = (  -0.4000000   0.0000000   0.3333333), wk =   0.0063492
        k(  119) = (  -0.4000000   0.0000000   0.4444444), wk =   0.0063492
        k(  120) = (  -0.4000000   0.1428571   0.0000000), wk =   0.0063492
        k(  121) = (  -0.4000000  -0.1428571   0.1111111), wk =   0.0063492
        k(  122) = (  -0.4000000   0.1428571  -0.1111111), wk =   0.0063492
        k(  123) = (   0.4000000  -0.1428571  -0.1111111), wk =   0.0063492
        k(  124) = (  -0.4000000  -0.1428571   0.2222222), wk =   0.0063492
        k(  125) = (  -0.4000000   0.1428571  -0.2222222), wk =   0.0063492
        k(  126) = (   0.4000000  -0.1428571  -0.2222222), wk =   0.0063492
        k(  127) = (  -0.4000000  -0.1428571   0.3333333), wk =   0.0063492
        k(  128) = (  -0.4000000   0.1428571  -0.3333333), wk =   0.0063492
        k(  129) = (   0.4000000  -0.1428571  -0.3333333), wk =   0.0063492
        k(  130) = (  -0.4000000  -0.1428571   0.4444444), wk =   0.0063492
        k(  131) = (  -0.4000000   0.1428571  -0.4444444), wk =   0.0063492
        k(  132) = (   0.4000000  -0.1428571  -0.4444444), wk =   0.0063492
        k(  133) = (  -0.4000000   0.2857143   0.0000000), wk =   0.0063492
        k(  134) = (  -0.4000000  -0.2857143   0.1111111), wk =   0.0063492
        k(  135) = (  -0.4000000   0.2857143  -0.1111111), wk =   0.0063492
        k(  136) = (   0.4000000  -0.2857143  -0.1111111), wk =   0.0063492
        k(  137) = (  -0.4000000  -0.2857143   0.2222222), wk =   0.0063492
        k(  138) = (  -0.4000000   0.2857143  -0.2222222), wk =   0.0063492
        k(  139) = (   0.4000000  -0.2857143  -0.2222222), wk =   0.0063492
        k(  140) = (  -0.4000000  -0.2857143   0.3333333), wk =   0.0063492
        k(  141) = (  -0.4000000   0.2857143  -0.3333333), wk =   0.0063492
        k(  142) = (   0.4000000  -0.2857143  -0.3333333), wk =   0.0063492
        k(  143) = (  -0.4000000  -0.2857143   0.4444444), wk =   0.0063492
        k(  144) = (  -0.4000000   0.2857143  -0.4444444), wk =   0.0063492
        k(  145) = (   0.4000000  -0.2857143  -0.4444444), wk =   0.0063492
        k(  146) = (  -0.4000000   0.4285714   0.0000000), wk =   0.0063492
        k(  147) = (  -0.4000000  -0.4285714   0.1111111), wk =   0.0063492
        k(  148) = (  -0.4000000   0.4285714  -0.1111111), wk =   0.0063492
        k(  149) = (   0.4000000  -0.4285714  -0.1111111), wk =   0.0063492
        k(  150) = (  -0.4000000  -0.4285714   0.2222222), wk =   0.0063492
        k(  151) = (  -0.4000000   0.4285714  -0.2222222), wk =   0.0063492
        k(  152) = (   0.4000000  -0.4285714  -0.2222222), wk =   0.0063492
        k(  153) = (  -0.4000000  -0.4285714   0.3333333), wk =   0.0063492
        k(  154) = (  -0.4000000   0.4285714  -0.3333333), wk =   0.0063492
        k(  155) = (   0.4000000  -0.4285714  -0.3333333), wk =   0.0063492
        k(  156) = (  -0.4000000  -0.4285714   0.4444444), wk =   0.0063492
        k(  157) = (  -0.4000000   0.4285714  -0.4444444), wk =   0.0063492
        k(  158) = (   0.4000000  -0.4285714  -0.4444444), wk =   0.0063492

     Dense  grid:  1273469 G-vectors     FFT dimensions: ( 216, 125, 100)

     Smooth grid:   287059 G-vectors     FFT dimensions: ( 125,  75,  60)

     Dynamical RAM for                 wfc:       2.60 MB

     Dynamical RAM for     wfc (w. buffer):     823.82 MB

     Dynamical RAM for           str. fact:       3.24 MB

     Dynamical RAM for           local pot:       0.00 MB

     Dynamical RAM for          nlocal pot:       6.38 MB

     Dynamical RAM for                qrad:      10.54 MB

     Dynamical RAM for          rho,v,vnew:      11.04 MB

     Dynamical RAM for               rhoin:       3.68 MB

     Dynamical RAM for            rho*nmix:      25.91 MB

     Dynamical RAM for           G-vectors:       3.13 MB

     Dynamical RAM for          h,s,v(r/c):       2.38 MB

     Dynamical RAM for          <psi|beta>:       0.49 MB

     Dynamical RAM for                 psi:       5.20 MB

     Dynamical RAM for                hpsi:       5.20 MB

     Dynamical RAM for                spsi:       5.20 MB

     Dynamical RAM for      wfcinit/wfcrot:       6.68 MB

     Dynamical RAM for           addusdens:     164.36 MB

     Dynamical RAM for          addusforce:     188.78 MB

     Dynamical RAM for         addusstress:     163.96 MB

     Estimated static dynamical RAM per process >     897.97 MB

     Estimated max dynamical RAM per process >       1.06 GB

     Estimated total dynamical RAM >      25.47 GB

     Check: negative core charge=   -0.000003
     Generating pointlists ...
     new r_m :   0.0767 (alat units)  1.4829 (a.u.) for type    1
     new r_m :   0.0906 (alat units)  1.7521 (a.u.) for type    2
     new r_m :   0.0612 (alat units)  1.1839 (a.u.) for type    3
     new r_m :   0.0612 (alat units)  1.1839 (a.u.) for type    4

     Initial potential from superposition of free atoms

     starting charge  188.99132, renormalised to  189.00000
     Starting wfcs are  137 randomized atomic wfcs
     Checking if some PAW data can be deallocated... 
       PAW data deallocated on   20 nodes for type:  1
       PAW data deallocated on    8 nodes for type:  3

     total cpu time spent up to now is      246.7 secs

     Self-consistent Calculation

     iteration #  1     ecut=   100.00 Ry     beta= 0.40
     Davidson diagonalization with overlap
     ethr =  1.00E-02,  avg # of iterations =  3.0

     negative rho (up, down):  0.000E+00 8.666E-05

     total cpu time spent up to now is     1096.4 secs

     total energy              =   -2124.00021568 Ry
     estimated scf accuracy    <       6.81948916 Ry

     total magnetization       =    19.00 Bohr mag/cell
     absolute magnetization    =    19.00 Bohr mag/cell

     iteration #  2     ecut=   100.00 Ry     beta= 0.40
     Davidson diagonalization with overlap
     ethr =  3.61E-03,  avg # of iterations =  2.0

     negative rho (up, down):  0.000E+00 5.356E-05

     total cpu time spent up to now is     1849.2 secs

     total energy              =   -2121.26135878 Ry
     estimated scf accuracy    <      35.70457237 Ry

     total magnetization       =     9.06 Bohr mag/cell
     absolute magnetization    =    10.54 Bohr mag/cell

     iteration #  3     ecut=   100.00 Ry     beta= 0.40
     Davidson diagonalization with overlap
     ethr =  3.61E-03,  avg # of iterations =  3.3

     negative rho (up, down):  0.000E+00 1.695E-05

     total cpu time spent up to now is     2544.8 secs

     total energy              =   -2123.23469771 Ry
     estimated scf accuracy    <      78.15379536 Ry

     total magnetization       =     1.00 Bohr mag/cell
     absolute magnetization    =     5.08 Bohr mag/cell

     iteration #  4     ecut=   100.00 Ry     beta= 0.40
     Davidson diagonalization with overlap
     ethr =  3.61E-03,  avg # of iterations =  1.5

     negative rho (up, down):  0.000E+00 2.948E-05

     total cpu time spent up to now is     3128.2 secs

     total energy              =   -2125.30243024 Ry
     estimated scf accuracy    <       8.51976235 Ry

     total magnetization       =    15.27 Bohr mag/cell
     absolute magnetization    =    15.40 Bohr mag/cell

     iteration #  5     ecut=   100.00 Ry     beta= 0.40
     Davidson diagonalization with overlap
     ethr =  3.61E-03,  avg # of iterations =  2.0

     negative rho (up, down):  0.000E+00 8.966E-05

     total cpu time spent up to now is     3765.8 secs

     total energy              =   -2125.58254258 Ry
     estimated scf accuracy    <      13.84858347 Ry

     total magnetization       =    13.85 Bohr mag/cell
     absolute magnetization    =    14.08 Bohr mag/cell

     iteration #  6     ecut=   100.00 Ry     beta= 0.40
     Davidson diagonalization with overlap
     ethr =  3.61E-03,  avg # of iterations =  1.5

     negative rho (up, down):  0.000E+00 2.592E-04

     total cpu time spent up to now is     4330.8 secs

     total energy              =   -2126.11159857 Ry
     estimated scf accuracy    <       0.48996924 Ry

     total magnetization       =    19.00 Bohr mag/cell
     absolute magnetization    =    19.00 Bohr mag/cell

     iteration #  7     ecut=   100.00 Ry     beta= 0.40
     Davidson diagonalization with overlap
     ethr =  2.59E-04,  avg # of iterations =  5.6

     negative rho (up, down):  0.000E+00 3.003E-04

     total cpu time spent up to now is     5077.8 secs

     total energy              =   -2126.10949136 Ry
     estimated scf accuracy    <       0.30748223 Ry

     total magnetization       =    19.00 Bohr mag/cell
     absolute magnetization    =    19.00 Bohr mag/cell

     iteration #  8     ecut=   100.00 Ry     beta= 0.40
     Davidson diagonalization with overlap
     ethr =  1.63E-04,  avg # of iterations =  2.2

     negative rho (up, down):  0.000E+00 4.611E-04

     total cpu time spent up to now is     5700.3 secs

     total energy              =   -2126.10960830 Ry
     estimated scf accuracy    <       0.48611257 Ry

     total magnetization       =    19.00 Bohr mag/cell
     absolute magnetization    =    19.00 Bohr mag/cell

     iteration #  9     ecut=   100.00 Ry     beta= 0.40
     Davidson diagonalization with overlap
     ethr =  1.63E-04,  avg # of iterations =  1.5

     negative rho (up, down):  0.000E+00 6.587E-04

     total cpu time spent up to now is     6266.2 secs

     total energy              =   -2126.13832723 Ry
     estimated scf accuracy    <       0.29563828 Ry

     total magnetization       =    19.00 Bohr mag/cell
     absolute magnetization    =    19.01 Bohr mag/cell

     iteration # 10     ecut=   100.00 Ry     beta= 0.40
     Davidson diagonalization with overlap
     ethr =  1.56E-04,  avg # of iterations =  1.1

     negative rho (up, down):  0.000E+00 7.581E-04

     total cpu time spent up to now is     6843.0 secs

     total energy              =   -2126.13992220 Ry
     estimated scf accuracy    <       0.15087241 Ry

     total magnetization       =    19.00 Bohr mag/cell
     absolute magnetization    =    19.01 Bohr mag/cell

     iteration # 11     ecut=   100.00 Ry     beta= 0.40
     Davidson diagonalization with overlap
     c_bands:  1 eigenvalues not converged
     c_bands:  1 eigenvalues not converged
     c_bands:  1 eigenvalues not converged
     c_bands:  2 eigenvalues not converged
     c_bands:  1 eigenvalues not converged
     c_bands:  1 eigenvalues not converged
     c_bands:  1 eigenvalues not converged
     c_bands:  1 eigenvalues not converged
     ethr =  7.98E-05,  avg # of iterations = 10.2

     negative rho (up, down):  0.000E+00 9.604E-04

     total cpu time spent up to now is     7867.6 secs

     total energy              =   -2126.14416410 Ry
     estimated scf accuracy    <       0.00719612 Ry

     total magnetization       =    19.00 Bohr mag/cell
     absolute magnetization    =    19.02 Bohr mag/cell

     iteration # 12     ecut=   100.00 Ry     beta= 0.40
     Davidson diagonalization with overlap
     c_bands:  1 eigenvalues not converged
     c_bands:  1 eigenvalues not converged
     c_bands:  1 eigenvalues not converged
     c_bands:  1 eigenvalues not converged
     c_bands:  1 eigenvalues not converged
     c_bands:  1 eigenvalues not converged
     c_bands:  1 eigenvalues not converged
     c_bands:  1 eigenvalues not converged
     c_bands:  1 eigenvalues not converged
     c_bands:  1 eigenvalues not converged
     c_bands:  1 eigenvalues not converged
     c_bands:  1 eigenvalues not converged
     c_bands:  1 eigenvalues not converged
     c_bands:  1 eigenvalues not converged
     c_bands:  1 eigenvalues not converged
     c_bands:  2 eigenvalues not converged
     c_bands:  2 eigenvalues not converged
     c_bands:  2 eigenvalues not converged
     c_bands:  1 eigenvalues not converged
     c_bands:  1 eigenvalues not converged
     c_bands:  1 eigenvalues not converged
     c_bands:  2 eigenvalues not converged
     c_bands:  2 eigenvalues not converged
     c_bands:  1 eigenvalues not converged
     c_bands:  1 eigenvalues not converged
     c_bands:  1 eigenvalues not converged
     c_bands:  1 eigenvalues not converged
     c_bands:  1 eigenvalues not converged
     c_bands:  1 eigenvalues not converged
     c_bands:  1 eigenvalues not converged
     c_bands:  1 eigenvalues not converged
     c_bands:  1 eigenvalues not converged
     c_bands:  1 eigenvalues not converged
     c_bands:  1 eigenvalues not converged
     c_bands:  1 eigenvalues not converged
     c_bands:  1 eigenvalues not converged
     c_bands:  1 eigenvalues not converged
     c_bands:  1 eigenvalues not converged
     c_bands:  1 eigenvalues not converged
     c_bands:  1 eigenvalues not converged
     c_bands:  1 eigenvalues not converged
     c_bands:  2 eigenvalues not converged
     c_bands:  1 eigenvalues not converged
     c_bands:  1 eigenvalues not converged
     c_bands:  1 eigenvalues not converged
     c_bands:  1 eigenvalues not converged
     c_bands:  1 eigenvalues not converged
     c_bands:  1 eigenvalues not converged
     c_bands:  1 eigenvalues not converged
     c_bands:  1 eigenvalues not converged
     c_bands:  1 eigenvalues not converged
     c_bands:  1 eigenvalues not converged
     c_bands:  1 eigenvalues not converged
     c_bands:  1 eigenvalues not converged
     c_bands:  1 eigenvalues not converged
     c_bands:  1 eigenvalues not converged
     c_bands:  1 eigenvalues not converged
     ethr =  3.81E-06,  avg # of iterations = 16.4

     negative rho (up, down):  0.000E+00 9.260E-04

     total cpu time spent up to now is     9725.0 secs

     total energy              =   -2126.14656515 Ry
     estimated scf accuracy    <       0.04061643 Ry

     total magnetization       =    19.00 Bohr mag/cell
     absolute magnetization    =    19.04 Bohr mag/cell

     iteration # 13     ecut=   100.00 Ry     beta= 0.40
     Davidson diagonalization with overlap
     ethr =  3.81E-06,  avg # of iterations =  1.2

     negative rho (up, down):  0.000E+00 9.264E-04

     total cpu time spent up to now is    10367.1 secs

     total energy              =   -2126.14694975 Ry
     estimated scf accuracy    <       0.00448343 Ry

     total magnetization       =    19.00 Bohr mag/cell
     absolute magnetization    =    19.04 Bohr mag/cell

     iteration # 14     ecut=   100.00 Ry     beta= 0.40
     Davidson diagonalization with overlap
     ethr =  2.37E-06,  avg # of iterations =  1.1

     negative rho (up, down):  0.000E+00 9.214E-04

     total cpu time spent up to now is    11721.3 secs

     total energy              =   -2126.14717556 Ry
     estimated scf accuracy    <       0.00077738 Ry

     total magnetization       =    19.00 Bohr mag/cell
     absolute magnetization    =    19.04 Bohr mag/cell

     iteration # 15     ecut=   100.00 Ry     beta= 0.40
     Davidson diagonalization with overlap
     ethr =  4.11E-07,  avg # of iterations =  1.3

     negative rho (up, down):  0.000E+00 9.233E-04

     total cpu time spent up to now is    12585.8 secs

     total energy              =   -2126.14713793 Ry
     estimated scf accuracy    <       0.00223815 Ry

     total magnetization       =    19.00 Bohr mag/cell
     absolute magnetization    =    19.04 Bohr mag/cell

     iteration # 16     ecut=   100.00 Ry     beta= 0.40
     Davidson diagonalization with overlap
     ethr =  4.11E-07,  avg # of iterations =  1.0

     negative rho (up, down):  0.000E+00 9.178E-04

     total cpu time spent up to now is    13107.9 secs

     total energy              =   -2126.14720266 Ry
     estimated scf accuracy    <       0.00009257 Ry

     total magnetization       =    19.00 Bohr mag/cell
     absolute magnetization    =    19.04 Bohr mag/cell

     iteration # 17     ecut=   100.00 Ry     beta= 0.40
     Davidson diagonalization with overlap
     ethr =  4.90E-08,  avg # of iterations =  3.3

     negative rho (up, down):  0.000E+00 9.162E-04

     total cpu time spent up to now is    13857.4 secs

     total energy              =   -2126.14720885 Ry
     estimated scf accuracy    <       0.00059152 Ry

     total magnetization       =    19.00 Bohr mag/cell
     absolute magnetization    =    19.04 Bohr mag/cell

     iteration # 18     ecut=   100.00 Ry     beta= 0.40
     Davidson diagonalization with overlap
     ethr =  4.90E-08,  avg # of iterations =  1.0

     negative rho (up, down):  0.000E+00 9.158E-04

     total cpu time spent up to now is    14382.2 secs

     total energy              =   -2126.14721748 Ry
     estimated scf accuracy    <       0.00016420 Ry

     total magnetization       =    19.00 Bohr mag/cell
     absolute magnetization    =    19.04 Bohr mag/cell

     iteration # 19     ecut=   100.00 Ry     beta= 0.40
     Davidson diagonalization with overlap
     ethr =  4.90E-08,  avg # of iterations =  1.0

     negative rho (up, down):  0.000E+00 9.154E-04

     total cpu time spent up to now is    14920.7 secs

     total energy              =   -2126.14722057 Ry
     estimated scf accuracy    <       0.00004773 Ry

     total magnetization       =    19.00 Bohr mag/cell
     absolute magnetization    =    19.05 Bohr mag/cell

     iteration # 20     ecut=   100.00 Ry     beta= 0.40
     Davidson diagonalization with overlap
     ethr =  2.53E-08,  avg # of iterations =  1.0

     negative rho (up, down):  0.000E+00 9.149E-04

     total cpu time spent up to now is    15509.4 secs

     total energy              =   -2126.14722304 Ry
     estimated scf accuracy    <       0.00008940 Ry

     total magnetization       =    19.00 Bohr mag/cell
     absolute magnetization    =    19.05 Bohr mag/cell

     iteration # 21     ecut=   100.00 Ry     beta= 0.40
     Davidson diagonalization with overlap
     ethr =  2.53E-08,  avg # of iterations =  1.0

     negative rho (up, down):  0.000E+00 9.154E-04

     total cpu time spent up to now is    16032.0 secs

     total energy              =   -2126.14722425 Ry
     estimated scf accuracy    <       0.00001811 Ry

     total magnetization       =    19.00 Bohr mag/cell
     absolute magnetization    =    19.05 Bohr mag/cell

     iteration # 22     ecut=   100.00 Ry     beta= 0.40
     Davidson diagonalization with overlap
     ethr =  9.58E-09,  avg # of iterations =  1.5

     negative rho (up, down):  0.000E+00 9.156E-04

     total cpu time spent up to now is    16596.9 secs

     total energy              =   -2126.14722546 Ry
     estimated scf accuracy    <       0.00000323 Ry

     total magnetization       =    19.00 Bohr mag/cell
     absolute magnetization    =    19.05 Bohr mag/cell

     iteration # 23     ecut=   100.00 Ry     beta= 0.40
     Davidson diagonalization with overlap
     ethr =  1.71E-09,  avg # of iterations =  3.4

     negative rho (up, down):  0.000E+00 9.155E-04

     total cpu time spent up to now is    17364.3 secs

     total energy              =   -2126.14722610 Ry
     estimated scf accuracy    <       0.00000128 Ry

     total magnetization       =    19.00 Bohr mag/cell
     absolute magnetization    =    19.05 Bohr mag/cell

     iteration # 24     ecut=   100.00 Ry     beta= 0.40
     Davidson diagonalization with overlap
     ethr =  6.79E-10,  avg # of iterations =  1.5

     negative rho (up, down):  0.000E+00 9.154E-04

     total cpu time spent up to now is    17925.5 secs

     total energy              =   -2126.14722617 Ry
     estimated scf accuracy    <       0.00000058 Ry

     total magnetization       =    19.00 Bohr mag/cell
     absolute magnetization    =    19.05 Bohr mag/cell

     iteration # 25     ecut=   100.00 Ry     beta= 0.40
     Davidson diagonalization with overlap
     ethr =  3.07E-10,  avg # of iterations =  1.7

     negative rho (up, down):  0.000E+00 9.153E-04

     total cpu time spent up to now is    18501.8 secs

     total energy              =   -2126.14722620 Ry
     estimated scf accuracy    <       0.00000018 Ry

     total magnetization       =    19.00 Bohr mag/cell
     absolute magnetization    =    19.05 Bohr mag/cell

     iteration # 26     ecut=   100.00 Ry     beta= 0.40
     Davidson diagonalization with overlap
     ethr =  9.63E-11,  avg # of iterations =  2.3

     negative rho (up, down):  0.000E+00 9.153E-04

     total cpu time spent up to now is    19132.6 secs

     total energy              =   -2126.14722622 Ry
     estimated scf accuracy    <       0.00000003 Ry

     total magnetization       =    19.00 Bohr mag/cell
     absolute magnetization    =    19.05 Bohr mag/cell

     iteration # 27     ecut=   100.00 Ry     beta= 0.40
     Davidson diagonalization with overlap
     ethr =  1.60E-11,  avg # of iterations =  3.0

     negative rho (up, down):  0.000E+00 9.152E-04

     total cpu time spent up to now is    19889.6 secs

     total energy              =   -2126.14722623 Ry
     estimated scf accuracy    <          8.0E-09 Ry

     total magnetization       =    19.00 Bohr mag/cell
     absolute magnetization    =    19.05 Bohr mag/cell

     iteration # 28     ecut=   100.00 Ry     beta= 0.40
     Davidson diagonalization with overlap
     ethr =  4.23E-12,  avg # of iterations =  2.4

     negative rho (up, down):  0.000E+00 9.152E-04

     total cpu time spent up to now is    20556.0 secs

     total energy              =   -2126.14722623 Ry
     estimated scf accuracy    <          9.4E-10 Ry

     total magnetization       =    19.00 Bohr mag/cell
     absolute magnetization    =    19.05 Bohr mag/cell

     iteration # 29     ecut=   100.00 Ry     beta= 0.40
     Davidson diagonalization with overlap
     ethr =  4.96E-13,  avg # of iterations =  4.5

     negative rho (up, down):  0.000E+00 9.153E-04

     total cpu time spent up to now is    21471.7 secs

     total energy              =   -2126.14722623 Ry
     estimated scf accuracy    <          5.0E-10 Ry

     total magnetization       =    19.00 Bohr mag/cell
     absolute magnetization    =    19.05 Bohr mag/cell

     iteration # 30     ecut=   100.00 Ry     beta= 0.40
     Davidson diagonalization with overlap
     ethr =  2.67E-13,  avg # of iterations =  2.0

     negative rho (up, down):  0.000E+00 9.153E-04

     total cpu time spent up to now is    22118.3 secs

     total energy              =   -2126.14722623 Ry
     estimated scf accuracy    <          7.9E-10 Ry

     total magnetization       =    19.00 Bohr mag/cell
     absolute magnetization    =    19.05 Bohr mag/cell

     iteration # 31     ecut=   100.00 Ry     beta= 0.40
     Davidson diagonalization with overlap
     ethr =  2.67E-13,  avg # of iterations =  1.0

     negative rho (up, down):  0.000E+00 9.153E-04

     total cpu time spent up to now is    22641.7 secs

     total energy              =   -2126.14722623 Ry
     estimated scf accuracy    <          5.0E-10 Ry

     total magnetization       =    19.00 Bohr mag/cell
     absolute magnetization    =    19.05 Bohr mag/cell

     iteration # 32     ecut=   100.00 Ry     beta= 0.40
     Davidson diagonalization with overlap
     ethr =  2.67E-13,  avg # of iterations =  1.0

     negative rho (up, down):  0.000E+00 9.153E-04

     Magnetic moment per site:
     atom:    1    charge:    7.9129    magn:    0.0006    constr:    0.0000
     atom:    2    charge:   12.8143    magn:    3.6430    constr:    0.0000
     atom:    3    charge:   12.8206    magn:    3.6256    constr:    0.0000
     atom:    4    charge:   12.8326    magn:    3.5998    constr:    0.0000
     atom:    5    charge:   12.8214    magn:    3.6262    constr:    0.0000
     atom:    6    charge:    0.8166    magn:    0.0107    constr:    0.0000
     atom:    7    charge:    0.8187    magn:    0.0083    constr:    0.0000
     atom:    8    charge:    0.8179    magn:    0.0110    constr:    0.0000
     atom:    9    charge:    0.8151    magn:    0.0085    constr:    0.0000
     atom:   10    charge:    4.2006    magn:    0.1350    constr:    0.0000
     atom:   11    charge:    4.2128    magn:    0.0858    constr:    0.0000
     atom:   12    charge:    4.2029    magn:    0.1309    constr:    0.0000
     atom:   13    charge:    4.1988    magn:    0.0939    constr:    0.0000
     atom:   14    charge:    4.2069    magn:    0.0984    constr:    0.0000
     atom:   15    charge:    4.2162    magn:    0.1298    constr:    0.0000
     atom:   16    charge:    4.2142    magn:    0.0849    constr:    0.0000
     atom:   17    charge:    4.2145    magn:    0.1362    constr:    0.0000
     atom:   18    charge:    4.1749    magn:    0.1522    constr:    0.0000
     atom:   19    charge:    4.1799    magn:    0.1314    constr:    0.0000
     atom:   20    charge:    4.1766    magn:    0.1406    constr:    0.0000
     atom:   21    charge:    4.1822    magn:    0.1192    constr:    0.0000
     atom:   22    charge:    4.1788    magn:    0.1525    constr:    0.0000
     atom:   23    charge:    4.1765    magn:    0.1347    constr:    0.0000
     atom:   24    charge:    4.1735    magn:    0.1472    constr:    0.0000
     atom:   25    charge:    4.1739    magn:    0.1232    constr:    0.0000

     total cpu time spent up to now is    23160.9 secs

     End of self-consistent calculation

 ------ SPIN UP ------------


          k = 0.0000 0.0000 0.0000 ( 35837 PWs)   bands (ev):

   -84.9849 -84.9355 -84.9307 -84.8285 -51.1137 -51.0915 -51.0866 -51.0266
   -50.9453 -50.8865 -50.8680 -50.8490 -50.8232 -50.8176 -50.7907 -50.6633
   -44.6353 -16.7008 -16.6327 -16.6086 -16.1482 -15.9335 -15.8209 -15.7045
   -13.7690 -13.6511 -13.5534 -13.5368 -13.4827 -13.4282 -13.3469 -13.3154
   -13.2719 -13.2598 -13.1278 -13.0613  -4.0151  -3.5389  -3.4030  -3.0000
    -2.2027  -1.8727  -1.6806  -1.5627  -1.4069  -1.2758  -1.1966  -1.1328
    -0.9618  -0.8825  -0.6039  -0.3158  -0.1571  -0.1545   0.3797   0.4455
     0.4705   0.5796   0.7548   0.8270   0.8974   0.9681   1.0752   1.1510
     1.2412   1.4847   1.5197   1.5958   1.7338   1.7491   1.8225   1.8805
     1.9765   2.1799   2.2848   2.3727   2.4141   2.4376   2.5267   2.6585
     2.6975   2.8228   2.9084   2.9956   3.0159   3.1809   3.3088   3.3419
     3.3972   3.5255   3.5586   3.5858   3.7387   3.8640   3.8747   4.0522
     4.1027   4.2769   4.3290   4.4169   4.6283   4.7573   4.9727   5.0598
     9.3976  11.4308  11.8904  12.2750  12.4552  13.0186  13.5053  13.6453
    13.7818  13.9079

     occupation numbers 
     1.0000   1.0000   1.0000   1.0000   1.0000   1.0000   1.0000   1.0000
     1.0000   1.0000   1.0000   1.0000   1.0000   1.0000   1.0000   1.0000
     1.0000   1.0000   1.0000   1.0000   1.0000   1.0000   1.0000   1.0000
     1.0000   1.0000   1.0000   1.0000   1.0000   1.0000   1.0000   1.0000
     1.0000   1.0000   1.0000   1.0000   1.0000   1.0000   1.0000   1.0000
     1.0000   1.0000   1.0000   1.0000   1.0000   1.0000   1.0000   1.0000
     1.0000   1.0000   1.0000   1.0000   1.0000   1.0000   1.0000   1.0000
     1.0000   1.0000   1.0000   1.0000   1.0000   1.0000   1.0000   1.0000
     1.0000   1.0000   1.0000   1.0000   1.0000   1.0000   1.0000   1.0000
     1.0000   1.0000   1.0000   1.0000   1.0000   1.0000   1.0000   1.0000
     1.0000   1.0000   1.0000   1.0000   1.0000   1.0000   1.0000   1.0000
     1.0000   1.0000   1.0000   1.0000   1.0000   1.0000   1.0000   1.0000
     1.0000   1.0000   1.0000   1.0000   1.0000   1.0000   1.0000   1.0000
     0.0000   0.0000   0.0000   0.0000   0.0000   0.0000   0.0000   0.0000
     0.0000   0.0000

          k = 0.0000 0.0000 0.2298 ( 35841 PWs)   bands (ev):

   -84.9849 -84.9355 -84.9307 -84.8285 -51.1137 -51.0915 -51.0866 -51.0266
   -50.9453 -50.8865 -50.8680 -50.8490 -50.8232 -50.8176 -50.7907 -50.6633
   -44.6353 -16.7019 -16.6324 -16.6132 -16.1271 -15.9280 -15.8145 -15.7051
   -13.7711 -13.6581 -13.5701 -13.5361 -13.4833 -13.4331 -13.3559 -13.3114
   -13.2704 -13.2669 -13.1330 -13.0659  -3.9908  -3.5319  -3.4014  -3.0124
    -2.1553  -1.8472  -1.6831  -1.5491  -1.4009  -1.3047  -1.1718  -1.0923
    -0.9535  -0.8471  -0.6503  -0.2907  -0.1938  -0.1390   0.3901   0.4390
     0.4870   0.6168   0.7426   0.8404   0.8953   0.9326   1.0553   1.1870
     1.2316   1.4784   1.5028   1.5774   1.6913   1.7237   1.7789   1.8215
     2.0874   2.1875   2.2289   2.3159   2.3882   2.4503   2.4935   2.6691
     2.7153   2.8094   2.9090   3.0021   3.1200   3.1763   3.2565   3.2973
     3.3984   3.5095   3.5485   3.5830   3.7091   3.8677   3.9440   4.0559
     4.1293   4.3102   4.3255   4.4166   4.6265   4.7437   4.9472   5.0367
     9.5484  11.5011  11.9542  12.2632  12.5212  12.9781  13.4573  13.5938
    13.6698  13.8826

     occupation numbers 
     1.0000   1.0000   1.0000   1.0000   1.0000   1.0000   1.0000   1.0000
     1.0000   1.0000   1.0000   1.0000   1.0000   1.0000   1.0000   1.0000
     1.0000   1.0000   1.0000   1.0000   1.0000   1.0000   1.0000   1.0000
     1.0000   1.0000   1.0000   1.0000   1.0000   1.0000   1.0000   1.0000
     1.0000   1.0000   1.0000   1.0000   1.0000   1.0000   1.0000   1.0000
     1.0000   1.0000   1.0000   1.0000   1.0000   1.0000   1.0000   1.0000
     1.0000   1.0000   1.0000   1.0000   1.0000   1.0000   1.0000   1.0000
     1.0000   1.0000   1.0000   1.0000   1.0000   1.0000   1.0000   1.0000
     1.0000   1.0000   1.0000   1.0000   1.0000   1.0000   1.0000   1.0000
     1.0000   1.0000   1.0000   1.0000   1.0000   1.0000   1.0000   1.0000
     1.0000   1.0000   1.0000   1.0000   1.0000   1.0000   1.0000   1.0000
     1.0000   1.0000   1.0000   1.0000   1.0000   1.0000   1.0000   1.0000
     1.0000   1.0000   1.0000   1.0000   1.0000   1.0000   1.0000   1.0000
     0.0000   0.0000   0.0000   0.0000   0.0000   0.0000   0.0000   0.0000
     0.0000   0.0000

          k = 0.0000 0.0000 0.4597 ( 35884 PWs)   bands (ev):

   -84.9849 -84.9355 -84.9307 -84.8285 -51.1137 -51.0915 -51.0866 -51.0266
   -50.9453 -50.8865 -50.8680 -50.8490 -50.8232 -50.8176 -50.7907 -50.6633
   -44.6353 -16.7081 -16.6319 -16.6191 -16.0732 -15.9141 -15.7989 -15.7075
   -13.7772 -13.6780 -13.6049 -13.5437 -13.4862 -13.4413 -13.3820 -13.2993
   -13.2904 -13.2553 -13.1483 -13.0784  -3.9214  -3.5224  -3.3922  -3.0581
    -2.0250  -1.7848  -1.6811  -1.5346  -1.3787  -1.3249  -1.1658  -0.9709
    -0.9045  -0.7752  -0.7557  -0.3148  -0.2037  -0.0807   0.4143   0.4535
     0.5195   0.6830   0.7499   0.8609   0.8750   0.8902   0.9875   1.2159
     1.2477   1.4398   1.4899   1.5314   1.5890   1.6533   1.7176   1.7583
     1.9792   2.1027   2.2522   2.3137   2.3452   2.3666   2.5592   2.6295
     2.7620   2.7844   2.9509   3.0227   3.0400   3.1840   3.2307   3.2551
     3.3734   3.4518   3.5858   3.6710   3.7309   3.8763   4.0470   4.0614
     4.2016   4.2928   4.3829   4.4398   4.6160   4.7168   4.8697   4.9670
     9.9538  11.6882  12.1022  12.2963  12.6544  12.9211  13.1949  13.4682
    13.5029  13.6533

     occupation numbers 
     1.0000   1.0000   1.0000   1.0000   1.0000   1.0000   1.0000   1.0000
     1.0000   1.0000   1.0000   1.0000   1.0000   1.0000   1.0000   1.0000
     1.0000   1.0000   1.0000   1.0000   1.0000   1.0000   1.0000   1.0000
     1.0000   1.0000   1.0000   1.0000   1.0000   1.0000   1.0000   1.0000
     1.0000   1.0000   1.0000   1.0000   1.0000   1.0000   1.0000   1.0000
     1.0000   1.0000   1.0000   1.0000   1.0000   1.0000   1.0000   1.0000
     1.0000   1.0000   1.0000   1.0000   1.0000   1.0000   1.0000   1.0000
     1.0000   1.0000   1.0000   1.0000   1.0000   1.0000   1.0000   1.0000
     1.0000   1.0000   1.0000   1.0000   1.0000   1.0000   1.0000   1.0000
     1.0000   1.0000   1.0000   1.0000   1.0000   1.0000   1.0000   1.0000
     1.0000   1.0000   1.0000   1.0000   1.0000   1.0000   1.0000   1.0000
     1.0000   1.0000   1.0000   1.0000   1.0000   1.0000   1.0000   1.0000
     1.0000   1.0000   1.0000   1.0000   1.0000   1.0000   1.0000   1.0000
     0.0000   0.0000   0.0000   0.0000   0.0000   0.0000   0.0000   0.0000
     0.0000   0.0000

          k = 0.0000 0.0000 0.6895 ( 35896 PWs)   bands (ev):

   -84.9849 -84.9355 -84.9307 -84.8285 -51.1137 -51.0915 -51.0866 -51.0266
   -50.9453 -50.8865 -50.8680 -50.8490 -50.8232 -50.8176 -50.7907 -50.6633
   -44.6353 -16.7194 -16.6316 -16.6180 -16.0084 -15.8986 -15.7836 -15.7124
   -13.7860 -13.7021 -13.6439 -13.5568 -13.4932 -13.4469 -13.4082 -13.3216
   -13.2690 -13.2388 -13.1721 -13.0950  -3.8176  -3.5349  -3.3687  -3.1381
    -1.8717  -1.7305  -1.6424  -1.5396  -1.3370  -1.3109  -1.1537  -0.9637
    -0.8612  -0.7546  -0.6493  -0.4712  -0.0687   0.0413   0.4259   0.5116
     0.5674   0.6582   0.8067   0.8207   0.8400   0.8853   0.9476   1.2331
     1.2411   1.3555   1.3845   1.4724   1.5636   1.5874   1.6829   1.7037
     1.7502   1.9626   2.1618   2.2595   2.3072   2.5329   2.5474   2.6998
     2.7553   2.8128   2.8426   2.8856   3.0635   3.0797   3.1739   3.2491
     3.3572   3.4645   3.7081   3.7899   3.8551   3.9532   4.0652   4.1024
     4.2407   4.3202   4.4249   4.4885   4.6030   4.6901   4.7464   4.8529
    10.5141  11.9278  12.1415  12.4277  12.7177  12.8875  13.0684  13.2281
    13.3413  13.3740

     occupation numbers 
     1.0000   1.0000   1.0000   1.0000   1.0000   1.0000   1.0000   1.0000
     1.0000   1.0000   1.0000   1.0000   1.0000   1.0000   1.0000   1.0000
     1.0000   1.0000   1.0000   1.0000   1.0000   1.0000   1.0000   1.0000
     1.0000   1.0000   1.0000   1.0000   1.0000   1.0000   1.0000   1.0000
     1.0000   1.0000   1.0000   1.0000   1.0000   1.0000   1.0000   1.0000
     1.0000   1.0000   1.0000   1.0000   1.0000   1.0000   1.0000   1.0000
     1.0000   1.0000   1.0000   1.0000   1.0000   1.0000   1.0000   1.0000
     1.0000   1.0000   1.0000   1.0000   1.0000   1.0000   1.0000   1.0000
     1.0000   1.0000   1.0000   1.0000   1.0000   1.0000   1.0000   1.0000
     1.0000   1.0000   1.0000   1.0000   1.0000   1.0000   1.0000   1.0000
     1.0000   1.0000   1.0000   1.0000   1.0000   1.0000   1.0000   1.0000
     1.0000   1.0000   1.0000   1.0000   1.0000   1.0000   1.0000   1.0000
     1.0000   1.0000   1.0000   1.0000   1.0000   1.0000   1.0000   1.0000
     0.0000   0.0000   0.0000   0.0000   0.0000   0.0000   0.0000   0.0000
     0.0000   0.0000

          k = 0.0000 0.0000 0.9194 ( 35906 PWs)   bands (ev):

   -84.9849 -84.9355 -84.9307 -84.8285 -51.1137 -51.0915 -51.0866 -51.0266
   -50.9453 -50.8865 -50.8680 -50.8490 -50.8232 -50.8176 -50.7907 -50.6633
   -44.6353 -16.7282 -16.6313 -16.6146 -15.9600 -15.8898 -15.7781 -15.7161
   -13.7935 -13.7166 -13.6711 -13.5676 -13.5003 -13.4516 -13.4185 -13.3384
   -13.2389 -13.2259 -13.2008 -13.1084  -3.7038  -3.5868  -3.3291  -3.2231
    -1.7801  -1.7210  -1.5849  -1.5384  -1.2948  -1.2324  -1.1675  -1.1031
    -0.7830  -0.6560  -0.6280  -0.5564   0.1323   0.2456   0.3872   0.4973
     0.5921   0.6154   0.7352   0.7563   0.7856   0.8923   1.0312   1.1650
     1.2586   1.2846   1.3242   1.3824   1.4732   1.5349   1.6422   1.7032
     1.7989   1.9428   2.0088   2.1355   2.3373   2.5059   2.6746   2.7179
     2.7522   2.7866   2.8258   2.8636   2.9314   3.0123   3.1707   3.2498
     3.3533   3.4710   3.8256   3.8452   3.8926   4.0653   4.1170   4.1892
     4.2170   4.4265   4.4481   4.5073   4.5513   4.6298   4.6817   4.7298
    11.1319  11.7233  12.2327  12.5209  12.7737  12.8559  12.9935  13.0984
    13.3237  13.3571

     occupation numbers 
     1.0000   1.0000   1.0000   1.0000   1.0000   1.0000   1.0000   1.0000
     1.0000   1.0000   1.0000   1.0000   1.0000   1.0000   1.0000   1.0000
     1.0000   1.0000   1.0000   1.0000   1.0000   1.0000   1.0000   1.0000
     1.0000   1.0000   1.0000   1.0000   1.0000   1.0000   1.0000   1.0000
     1.0000   1.0000   1.0000   1.0000   1.0000   1.0000   1.0000   1.0000
     1.0000   1.0000   1.0000   1.0000   1.0000   1.0000   1.0000   1.0000
     1.0000   1.0000   1.0000   1.0000   1.0000   1.0000   1.0000   1.0000
     1.0000   1.0000   1.0000   1.0000   1.0000   1.0000   1.0000   1.0000
     1.0000   1.0000   1.0000   1.0000   1.0000   1.0000   1.0000   1.0000
     1.0000   1.0000   1.0000   1.0000   1.0000   1.0000   1.0000   1.0000
     1.0000   1.0000   1.0000   1.0000   1.0000   1.0000   1.0000   1.0000
     1.0000   1.0000   1.0000   1.0000   1.0000   1.0000   1.0000   1.0000
     1.0000   1.0000   1.0000   1.0000   1.0000   1.0000   1.0000   1.0000
     0.0000   0.0000   0.0000   0.0000   0.0000   0.0000   0.0000   0.0000
     0.0000   0.0000

          k = 0.0000 0.2351 0.0000 ( 35823 PWs)   bands (ev):

   -84.9849 -84.9355 -84.9307 -84.8285 -51.1137 -51.0915 -51.0866 -51.0266
   -50.9453 -50.8865 -50.8680 -50.8490 -50.8232 -50.8176 -50.7907 -50.6633
   -44.6353 -16.7019 -16.6329 -16.6086 -16.1288 -15.9315 -15.8180 -15.7248
   -13.7705 -13.6483 -13.5564 -13.5350 -13.5158 -13.4291 -13.3529 -13.3050
   -13.2734 -13.2318 -13.1285 -13.0665  -3.9905  -3.5602  -3.3775  -3.0086
    -2.1786  -1.8803  -1.6782  -1.5684  -1.3724  -1.2720  -1.1838  -1.1156
    -0.9406  -0.8644  -0.5743  -0.2953  -0.2324  -0.0942   0.4134   0.4377
     0.4978   0.5435   0.6433   0.7372   0.8133   1.0272   1.1206   1.1890
     1.3422   1.4938   1.5162   1.5873   1.6504   1.7050   1.7502   1.7971
     1.9980   2.2034   2.3100   2.3514   2.4256   2.4680   2.5737   2.6220
     2.7426   2.8031   2.8465   2.8795   3.0244   3.2023   3.2998   3.3616
     3.4065   3.4484   3.5088   3.6810   3.7923   3.8590   3.8855   4.0623
     4.1055   4.2705   4.3243   4.4034   4.5957   4.7217   5.0418   5.0713
     9.5515  11.5191  11.9672  12.1988  12.5307  13.0941  13.4455  13.6460
    13.7170  13.8881

     occupation numbers 
     1.0000   1.0000   1.0000   1.0000   1.0000   1.0000   1.0000   1.0000
     1.0000   1.0000   1.0000   1.0000   1.0000   1.0000   1.0000   1.0000
     1.0000   1.0000   1.0000   1.0000   1.0000   1.0000   1.0000   1.0000
     1.0000   1.0000   1.0000   1.0000   1.0000   1.0000   1.0000   1.0000
     1.0000   1.0000   1.0000   1.0000   1.0000   1.0000   1.0000   1.0000
     1.0000   1.0000   1.0000   1.0000   1.0000   1.0000   1.0000   1.0000
     1.0000   1.0000   1.0000   1.0000   1.0000   1.0000   1.0000   1.0000
     1.0000   1.0000   1.0000   1.0000   1.0000   1.0000   1.0000   1.0000
     1.0000   1.0000   1.0000   1.0000   1.0000   1.0000   1.0000   1.0000
     1.0000   1.0000   1.0000   1.0000   1.0000   1.0000   1.0000   1.0000
     1.0000   1.0000   1.0000   1.0000   1.0000   1.0000   1.0000   1.0000
     1.0000   1.0000   1.0000   1.0000   1.0000   1.0000   1.0000   1.0000
     1.0000   1.0000   1.0000   1.0000   1.0000   1.0000   1.0000   1.0000
     0.0000   0.0000   0.0000   0.0000   0.0000   0.0000   0.0000   0.0000
     0.0000   0.0000

          k = 0.0000 0.2351 0.2298 ( 35841 PWs)   bands (ev):

   -84.9849 -84.9355 -84.9307 -84.8285 -51.1137 -51.0915 -51.0866 -51.0266
   -50.9453 -50.8865 -50.8680 -50.8490 -50.8232 -50.8176 -50.7907 -50.6633
   -44.6353 -16.7009 -16.6326 -16.6134 -16.1132 -15.9259 -15.8118 -15.7212
   -13.7719 -13.6545 -13.5706 -13.5338 -13.5183 -13.4356 -13.3640 -13.3038
   -13.2785 -13.2289 -13.1344 -13.0704  -3.9665  -3.5520  -3.3753  -3.0217
    -2.1330  -1.8550  -1.6755  -1.5571  -1.3655  -1.2937  -1.1566  -1.0851
    -0.9182  -0.8423  -0.6175  -0.3209  -0.2135  -0.0883   0.4047   0.4367
     0.5308   0.5589   0.6398   0.7439   0.7954   1.0094   1.1251   1.2015
     1.2957   1.4893   1.5192   1.5566   1.6336   1.6676   1.7215   1.7773
     2.1261   2.1903   2.2481   2.3450   2.3913   2.4867   2.5258   2.6110
     2.7500   2.7987   2.8466   2.9450   3.0219   3.1949   3.2358   3.3648
     3.3724   3.4463   3.5449   3.6251   3.7647   3.8731   3.9511   4.0660
     4.1260   4.2660   4.3674   4.3848   4.5788   4.7307   5.0261   5.0561
     9.6972  11.5912  12.0272  12.2265  12.5587  13.0469  13.4407  13.5151
    13.6860  13.8535

     occupation numbers 
     1.0000   1.0000   1.0000   1.0000   1.0000   1.0000   1.0000   1.0000
     1.0000   1.0000   1.0000   1.0000   1.0000   1.0000   1.0000   1.0000
     1.0000   1.0000   1.0000   1.0000   1.0000   1.0000   1.0000   1.0000
     1.0000   1.0000   1.0000   1.0000   1.0000   1.0000   1.0000   1.0000
     1.0000   1.0000   1.0000   1.0000   1.0000   1.0000   1.0000   1.0000
     1.0000   1.0000   1.0000   1.0000   1.0000   1.0000   1.0000   1.0000
     1.0000   1.0000   1.0000   1.0000   1.0000   1.0000   1.0000   1.0000
     1.0000   1.0000   1.0000   1.0000   1.0000   1.0000   1.0000   1.0000
     1.0000   1.0000   1.0000   1.0000   1.0000   1.0000   1.0000   1.0000
     1.0000   1.0000   1.0000   1.0000   1.0000   1.0000   1.0000   1.0000
     1.0000   1.0000   1.0000   1.0000   1.0000   1.0000   1.0000   1.0000
     1.0000   1.0000   1.0000   1.0000   1.0000   1.0000   1.0000   1.0000
     1.0000   1.0000   1.0000   1.0000   1.0000   1.0000   1.0000   1.0000
     0.0000   0.0000   0.0000   0.0000   0.0000   0.0000   0.0000   0.0000
     0.0000   0.0000

          k = 0.0000 0.2351 0.4597 ( 35884 PWs)   bands (ev):

   -84.9849 -84.9355 -84.9307 -84.8285 -51.1137 -51.0915 -51.0866 -51.0266
   -50.9453 -50.8865 -50.8680 -50.8490 -50.8232 -50.8176 -50.7907 -50.6633
   -44.6353 -16.7053 -16.6320 -16.6197 -16.0645 -15.9133 -15.7953 -15.7187
   -13.7776 -13.6746 -13.6043 -13.5409 -13.5163 -13.4482 -13.3955 -13.3101
   -13.2777 -13.2212 -13.1485 -13.0803  -3.8982  -3.5376  -3.3681  -3.0665
    -2.0082  -1.7914  -1.6654  -1.5407  -1.3450  -1.3077  -1.1477  -0.9621
    -0.8745  -0.7733  -0.7273  -0.3933  -0.1569  -0.0615   0.3972   0.4593
     0.5349   0.5591   0.7335   0.7453   0.8063   0.9669   1.1109   1.2195
     1.2346   1.4644   1.4835   1.5277   1.5633   1.6181   1.6750   1.7596
     2.0180   2.1428   2.2734   2.3214   2.3505   2.3789   2.5714   2.6129
     2.6848   2.8175   2.9178   2.9560   3.0367   3.1000   3.2041   3.2783
     3.3632   3.4534   3.5866   3.6520   3.7678   3.8918   4.0332   4.0812
     4.1819   4.2724   4.3481   4.4410   4.5567   4.7365   4.9769   5.0077
    10.0905  11.7785  12.1821  12.3079  12.6562  12.9805  13.2105  13.4375
    13.4844  13.7063

     occupation numbers 
     1.0000   1.0000   1.0000   1.0000   1.0000   1.0000   1.0000   1.0000
     1.0000   1.0000   1.0000   1.0000   1.0000   1.0000   1.0000   1.0000
     1.0000   1.0000   1.0000   1.0000   1.0000   1.0000   1.0000   1.0000
     1.0000   1.0000   1.0000   1.0000   1.0000   1.0000   1.0000   1.0000
     1.0000   1.0000   1.0000   1.0000   1.0000   1.0000   1.0000   1.0000
     1.0000   1.0000   1.0000   1.0000   1.0000   1.0000   1.0000   1.0000
     1.0000   1.0000   1.0000   1.0000   1.0000   1.0000   1.0000   1.0000
     1.0000   1.0000   1.0000   1.0000   1.0000   1.0000   1.0000   1.0000
     1.0000   1.0000   1.0000   1.0000   1.0000   1.0000   1.0000   1.0000
     1.0000   1.0000   1.0000   1.0000   1.0000   1.0000   1.0000   1.0000
     1.0000   1.0000   1.0000   1.0000   1.0000   1.0000   1.0000   1.0000
     1.0000   1.0000   1.0000   1.0000   1.0000   1.0000   1.0000   1.0000
     1.0000   1.0000   1.0000   1.0000   1.0000   1.0000   1.0000   1.0000
     0.0000   0.0000   0.0000   0.0000   0.0000   0.0000   0.0000   0.0000
     0.0000   0.0000

          k = 0.0000 0.2351 0.6895 ( 35919 PWs)   bands (ev):

   -84.9849 -84.9355 -84.9307 -84.8285 -51.1137 -51.0915 -51.0866 -51.0266
   -50.9453 -50.8865 -50.8680 -50.8490 -50.8232 -50.8176 -50.7907 -50.6633
   -44.6353 -16.7162 -16.6315 -16.6186 -16.0016 -15.9016 -15.7769 -15.7202
   -13.7868 -13.7003 -13.6422 -13.5536 -13.5164 -13.4555 -13.4293 -13.3323
   -13.2565 -13.2096 -13.1689 -13.0937  -3.7971  -3.5411  -3.3499  -3.1438
    -1.8593  -1.7299  -1.6281  -1.5401  -1.3167  -1.2776  -1.1370  -0.9445
    -0.8232  -0.7541  -0.6525  -0.5109  -0.0489   0.0152   0.3697   0.4795
     0.5039   0.6116   0.7271   0.8393   0.8756   0.9487   1.0391   1.1689
     1.2657   1.3669   1.4170   1.4700   1.5479   1.5966   1.6191   1.7319
     1.7738   1.9869   2.1605   2.2704   2.3230   2.5198   2.5476   2.6604
     2.6778   2.8048   2.8605   2.9491   2.9863   3.0561   3.1403   3.2506
     3.3478   3.4350   3.7085   3.7798   3.8347   3.9305   4.0589   4.1005
     4.2294   4.2961   4.3193   4.4534   4.6034   4.7374   4.8966   4.9337
    10.6388  12.0237  12.2377  12.4556  12.7777  12.9110  13.0906  13.2154
    13.3302  13.3738

     occupation numbers 
     1.0000   1.0000   1.0000   1.0000   1.0000   1.0000   1.0000   1.0000
     1.0000   1.0000   1.0000   1.0000   1.0000   1.0000   1.0000   1.0000
     1.0000   1.0000   1.0000   1.0000   1.0000   1.0000   1.0000   1.0000
     1.0000   1.0000   1.0000   1.0000   1.0000   1.0000   1.0000   1.0000
     1.0000   1.0000   1.0000   1.0000   1.0000   1.0000   1.0000   1.0000
     1.0000   1.0000   1.0000   1.0000   1.0000   1.0000   1.0000   1.0000
     1.0000   1.0000   1.0000   1.0000   1.0000   1.0000   1.0000   1.0000
     1.0000   1.0000   1.0000   1.0000   1.0000   1.0000   1.0000   1.0000
     1.0000   1.0000   1.0000   1.0000   1.0000   1.0000   1.0000   1.0000
     1.0000   1.0000   1.0000   1.0000   1.0000   1.0000   1.0000   1.0000
     1.0000   1.0000   1.0000   1.0000   1.0000   1.0000   1.0000   1.0000
     1.0000   1.0000   1.0000   1.0000   1.0000   1.0000   1.0000   1.0000
     1.0000   1.0000   1.0000   1.0000   1.0000   1.0000   1.0000   1.0000
     0.0000   0.0000   0.0000   0.0000   0.0000   0.0000   0.0000   0.0000
     0.0000   0.0000

          k = 0.0000 0.2351 0.9194 ( 35896 PWs)   bands (ev):

   -84.9849 -84.9355 -84.9307 -84.8285 -51.1137 -51.0915 -51.0866 -51.0266
   -50.9453 -50.8865 -50.8680 -50.8490 -50.8232 -50.8176 -50.7907 -50.6633
   -44.6353 -16.7258 -16.6313 -16.6149 -15.9511 -15.8935 -15.7727 -15.7226
   -13.7943 -13.7160 -13.6696 -13.5651 -13.5196 -13.4602 -13.4431 -13.3486
   -13.2303 -13.2041 -13.1888 -13.1040  -3.6889  -3.5813  -3.3196  -3.2229
    -1.7664  -1.7108  -1.5801  -1.5357  -1.2785  -1.2027  -1.1461  -1.0706
    -0.7655  -0.6890  -0.6191  -0.5487   0.0952   0.1696   0.2837   0.3509
     0.5929   0.6832   0.7282   0.8452   0.8978   0.9428   1.0514   1.1155
     1.2485   1.2823   1.3697   1.4173   1.4663   1.5500   1.6038   1.6506
     1.8023   1.9166   2.0307   2.1493   2.3530   2.5036   2.6143   2.6563
     2.7332   2.7873   2.8175   2.8983   2.9308   3.0298   3.1241   3.2476
     3.3391   3.4269   3.7951   3.8601   3.9144   4.0298   4.0720   4.1161
     4.1983   4.2540   4.3851   4.4615   4.6613   4.7269   4.8059   4.8707
    11.2487  11.8306  12.3163  12.6154  12.8199  12.8962  13.0151  13.1200
    13.2506  13.3421

     occupation numbers 
     1.0000   1.0000   1.0000   1.0000   1.0000   1.0000   1.0000   1.0000
     1.0000   1.0000   1.0000   1.0000   1.0000   1.0000   1.0000   1.0000
     1.0000   1.0000   1.0000   1.0000   1.0000   1.0000   1.0000   1.0000
     1.0000   1.0000   1.0000   1.0000   1.0000   1.0000   1.0000   1.0000
     1.0000   1.0000   1.0000   1.0000   1.0000   1.0000   1.0000   1.0000
     1.0000   1.0000   1.0000   1.0000   1.0000   1.0000   1.0000   1.0000
     1.0000   1.0000   1.0000   1.0000   1.0000   1.0000   1.0000   1.0000
     1.0000   1.0000   1.0000   1.0000   1.0000   1.0000   1.0000   1.0000
     1.0000   1.0000   1.0000   1.0000   1.0000   1.0000   1.0000   1.0000
     1.0000   1.0000   1.0000   1.0000   1.0000   1.0000   1.0000   1.0000
     1.0000   1.0000   1.0000   1.0000   1.0000   1.0000   1.0000   1.0000
     1.0000   1.0000   1.0000   1.0000   1.0000   1.0000   1.0000   1.0000
     1.0000   1.0000   1.0000   1.0000   1.0000   1.0000   1.0000   1.0000
     0.0000   0.0000   0.0000   0.0000   0.0000   0.0000   0.0000   0.0000
     0.0000   0.0000

          k = 0.0000 0.4701 0.0000 ( 35853 PWs)   bands (ev):

   -84.9849 -84.9355 -84.9307 -84.8285 -51.1137 -51.0915 -51.0866 -51.0266
   -50.9453 -50.8865 -50.8680 -50.8490 -50.8232 -50.8176 -50.7907 -50.6633
   -44.6353 -16.7042 -16.6332 -16.6085 -16.0759 -15.9276 -15.8140 -15.7768
   -13.7711 -13.6437 -13.6009 -13.5349 -13.5276 -13.4270 -13.3735 -13.2987
   -13.2600 -13.1824 -13.1393 -13.0745  -3.9231  -3.6205  -3.3085  -3.0417
    -2.1159  -1.9026  -1.6704  -1.5797  -1.3216  -1.2542  -1.1452  -1.0327
    -0.9473  -0.7636  -0.5351  -0.3684  -0.2009  -0.0033   0.3744   0.4210
     0.4885   0.5326   0.5693   0.6426   0.6871   0.9983   1.1907   1.2962
     1.3427   1.3842   1.4432   1.5079   1.5898   1.6128   1.7572   1.8469
     2.0663   2.1813   2.3007   2.3478   2.4276   2.4534   2.5254   2.5605
     2.7393   2.8199   2.8324   2.9065   3.0096   3.1602   3.2354   3.2543
     3.3400   3.3972   3.6961   3.7383   3.8215   3.8782   3.9173   4.0870
     4.1081   4.1913   4.2904   4.3652   4.5071   4.8493   5.0713   5.1013
     9.9712  11.7388  11.8421  12.1866  12.6953  13.2160  13.3412  13.5326
    13.8127  13.9092

     occupation numbers 
     1.0000   1.0000   1.0000   1.0000   1.0000   1.0000   1.0000   1.0000
[...]
     atom   24 type  3   force =     0.00468510   -0.00140211   -0.00128375
     atom   25 type  3   force =    -0.00333907    0.00165213   -0.00109367
     The non-local contrib.  to forces
     atom    1 type  2   force =     0.03102746   -0.01734475    0.00551988
     atom    2 type  1   force =     0.08535878   -0.04666862    0.12224329
     atom    3 type  1   force =     0.06028503    0.00449420    0.10028302
     atom    4 type  1   force =    -0.13596745    0.06806903   -0.10877271
     atom    5 type  1   force =    -0.06007570   -0.01984144   -0.08978704
     atom    6 type  4   force =     0.00319949    0.00030276   -0.02649294
     atom    7 type  4   force =     0.00887965    0.00498645   -0.00378460
     atom    8 type  4   force =    -0.01436762   -0.00987215    0.02735567
     atom    9 type  4   force =     0.01875948    0.00085723    0.01975535
     atom   10 type  3   force =     0.32033427    0.02597523   -1.47697774
     atom   11 type  3   force =    -0.14638985    0.02072060   -1.42280353
     atom   12 type  3   force =    -0.38176844   -0.01621896    1.48178585
     atom   13 type  3   force =     0.25521795   -0.00197297    1.47008660
     atom   14 type  3   force =     1.21509801    0.02776229   -0.64565102
     atom   15 type  3   force =    -1.17976000   -0.02118191   -0.74641640
     atom   16 type  3   force =    -1.20427649    0.05003396    0.41154231
     atom   17 type  3   force =     1.16697939    0.00969471    0.65115266
     atom   18 type  3   force =    -0.51685931   -1.10729096    0.76667375
     atom   19 type  3   force =     0.57149001    1.12680129    0.83423965
     atom   20 type  3   force =     0.58457710   -1.14010030   -0.72508173
     atom   21 type  3   force =    -0.67032891    1.06157352   -0.62361430
     atom   22 type  3   force =     0.51323330    1.09991831   -0.69443222
     atom   23 type  3   force =    -0.53554844   -1.09730175   -0.77867745
     atom   24 type  3   force =    -0.53215568    1.12701416    0.75475536
     atom   25 type  3   force =     0.53093583   -1.17594322    0.74881536
     The ionic contribution  to forces
     atom    1 type  2   force =    -1.47645913   -0.29855545    0.35563833
     atom    2 type  1   force =    -1.06927562    0.61478554   -0.53383881
     atom    3 type  1   force =    -8.70828328   -1.20742863   -0.60243251
     atom    4 type  1   force =     2.88484921   -1.21977664    0.53094677
     atom    5 type  1   force =     8.68791063    1.61290149    0.94627355
     atom    6 type  4   force =    -3.36808212    0.05716794    0.47239647
     atom    7 type  4   force =     0.50764628   -1.23992805    0.89282557
     atom    8 type  4   force =     4.26373939   -0.01216709   -0.55236478
     atom    9 type  4   force =    -1.76381377    1.38880024   -0.99429635
     atom   10 type  3   force =   -10.60405067   -0.08899065    2.54973320
     atom   11 type  3   force =     4.79015048   -2.11442472    1.19315658
     atom   12 type  3   force =    11.72032621    0.14071682   -2.64372196
     atom   13 type  3   force =    -7.42176273    1.95717601   -1.97701273
     atom   14 type  3   force =     0.23680279    1.80497449    5.14475855
     atom   15 type  3   force =    -2.37277778    0.13924392    6.93764043
     atom   16 type  3   force =    -1.19336759   -2.61182892   -2.93651581
     atom   17 type  3   force =     3.43526153   -0.13866360   -6.31301054
     atom   18 type  3   force =    -4.13372744    2.84638914   -2.92728812
     atom   19 type  3   force =     1.05554463   -3.26919619   -3.06494411
     atom   20 type  3   force =     5.14208515    3.70359760    2.72167743
     atom   21 type  3   force =     1.48016684   -1.74757722    0.11883799
     atom   22 type  3   force =     4.80844826   -3.59425600    2.35865880
     atom   23 type  3   force =    -1.79182088    2.36875173    2.66304929
     atom   24 type  3   force =    -4.55193366   -3.03883370   -2.87760204
     atom   25 type  3   force =    -0.55757674    3.94712194   -1.46256519
     The local contribution  to forces
     atom    1 type  2   force =     1.44109340    0.33030008   -0.35610428
     atom    2 type  1   force =     0.97993926   -0.56890049    0.41227733
     atom    3 type  1   force =     8.65506278    1.20187791    0.50069050
     atom    4 type  1   force =    -2.74790276    1.15222668   -0.42209328
     atom    5 type  1   force =    -8.63506995   -1.59301086   -0.85558838
     atom    6 type  4   force =     3.39761793   -0.05774231   -0.44273608
     atom    7 type  4   force =    -0.54120972    1.23409451   -0.88321661
     atom    8 type  4   force =    -4.28365138    0.01965600    0.51947357
     atom    9 type  4   force =     1.77504224   -1.38874300    0.96824312
     atom   10 type  3   force =    10.28312131    0.06223839   -1.08710779
     atom   11 type  3   force =    -4.64292945    2.09315547    0.21731367
     atom   12 type  3   force =   -11.33772258   -0.12534154    1.17686457
     atom   13 type  3   force =     7.16507035   -1.95595550    0.51922133
     atom   14 type  3   force =    -1.47636479   -1.83488875   -4.49583249
     atom   15 type  3   force =     3.57741020   -0.11784982   -6.18840085
     atom   16 type  3   force =     2.42122666    2.56146988    2.52049723
     atom   17 type  3   force =    -4.62481884    0.12848016    5.65869395
     atom   18 type  3   force =     4.65087019   -1.74773346    2.16706011
     atom   19 type  3   force =    -1.62591617    2.14866797    2.23806323
     atom   20 type  3   force =    -5.72646491   -2.57121225   -2.00280274
     atom   21 type  3   force =    -0.80982533    0.69326961    0.49870861
     atom   22 type  3   force =    -5.32062751    2.50075472   -1.67064558
     atom   23 type  3   force =     2.32597540   -1.27972796   -1.89095160
     atom   24 type  3   force =     5.08421968    1.92014108    2.12835451
     atom   25 type  3   force =     0.02778672   -2.77975661    0.71944194
     The core correction contribution to forces
     atom    1 type  2   force =     0.00000000    0.00000000    0.00000000
     atom    2 type  1   force =    -0.00115896    0.00044278   -0.00042013
     atom    3 type  1   force =    -0.00021849   -0.00013126    0.00061992
     atom    4 type  1   force =     0.00223010   -0.00072185    0.00015239
     atom    5 type  1   force =     0.00032452    0.00029061   -0.00052635
     atom    6 type  4   force =    -0.00083532    0.00000525    0.00148472
     atom    7 type  4   force =     0.00037315   -0.00005809   -0.00040358
     atom    8 type  4   force =     0.00140435    0.00062345   -0.00144744
     atom    9 type  4   force =    -0.00195562   -0.00068712   -0.00046582
     atom   10 type  3   force =    -0.00342011   -0.00023265    0.01287613
     atom   11 type  3   force =     0.00193379   -0.00016011    0.01229207
     atom   12 type  3   force =     0.00396093    0.00016815   -0.01289406
     atom   13 type  3   force =    -0.00284904    0.00001713   -0.01276936
     atom   14 type  3   force =    -0.00972074   -0.00027347    0.00601429
     atom   15 type  3   force =     0.00948935    0.00018912    0.00683622
     atom   16 type  3   force =     0.00959564   -0.00038644   -0.00391249
     atom   17 type  3   force =    -0.00942723   -0.00007765   -0.00600438
     atom   18 type  3   force =     0.00439793    0.00952506   -0.00693667
     atom   19 type  3   force =    -0.00486749   -0.00961846   -0.00758614
     atom   20 type  3   force =    -0.00504889    0.00982323    0.00652128
     atom   21 type  3   force =     0.00575890   -0.00917408    0.00567479
     atom   22 type  3   force =    -0.00439328   -0.00945672    0.00624223
     atom   23 type  3   force =     0.00455448    0.00944456    0.00709285
     atom   24 type  3   force =     0.00455217   -0.00972260   -0.00679151
     atom   25 type  3   force =    -0.00447950    0.01022996   -0.00678474
     The Hubbard contrib.    to forces
     atom    1 type  2   force =     0.00000000    0.00000000    0.00000000
     atom    2 type  1   force =     0.00000000    0.00000000    0.00000000
     atom    3 type  1   force =     0.00000000    0.00000000    0.00000000
     atom    4 type  1   force =     0.00000000    0.00000000    0.00000000
     atom    5 type  1   force =     0.00000000    0.00000000    0.00000000
     atom    6 type  4   force =     0.00000000    0.00000000    0.00000000
     atom    7 type  4   force =     0.00000000    0.00000000    0.00000000
     atom    8 type  4   force =     0.00000000    0.00000000    0.00000000
     atom    9 type  4   force =     0.00000000    0.00000000    0.00000000
     atom   10 type  3   force =     0.00000000    0.00000000    0.00000000
     atom   11 type  3   force =     0.00000000    0.00000000    0.00000000
     atom   12 type  3   force =     0.00000000    0.00000000    0.00000000
     atom   13 type  3   force =     0.00000000    0.00000000    0.00000000
     atom   14 type  3   force =     0.00000000    0.00000000    0.00000000
     atom   15 type  3   force =     0.00000000    0.00000000    0.00000000
     atom   16 type  3   force =     0.00000000    0.00000000    0.00000000
     atom   17 type  3   force =     0.00000000    0.00000000    0.00000000
     atom   18 type  3   force =     0.00000000    0.00000000    0.00000000
     atom   19 type  3   force =     0.00000000    0.00000000    0.00000000
     atom   20 type  3   force =     0.00000000    0.00000000    0.00000000
     atom   21 type  3   force =     0.00000000    0.00000000    0.00000000
     atom   22 type  3   force =     0.00000000    0.00000000    0.00000000
     atom   23 type  3   force =     0.00000000    0.00000000    0.00000000
     atom   24 type  3   force =     0.00000000    0.00000000    0.00000000
     atom   25 type  3   force =     0.00000000    0.00000000    0.00000000
     The SCF correction term to forces
     atom    1 type  2   force =    -0.00001000    0.00000132    0.00000045
     atom    2 type  1   force =    -0.00000627   -0.00000008    0.00000055
     atom    3 type  1   force =     0.00000141    0.00000004   -0.00000000
     atom    4 type  1   force =     0.00000109   -0.00000030   -0.00000053
     atom    5 type  1   force =     0.00000621    0.00000007   -0.00000042
     atom    6 type  4   force =     0.00000404    0.00000000   -0.00000028
     atom    7 type  4   force =    -0.00000575    0.00000003   -0.00000021
     atom    8 type  4   force =     0.00000578   -0.00000001   -0.00000055
     atom    9 type  4   force =    -0.00000399   -0.00000011    0.00000023
     atom   10 type  3   force =     0.00000476    0.00000007    0.00000117
     atom   11 type  3   force =    -0.00000842    0.00000000    0.00000190
     atom   12 type  3   force =     0.00000929    0.00000004    0.00000251
     atom   13 type  3   force =    -0.00000431    0.00000001    0.00000014
     atom   14 type  3   force =    -0.00000708    0.00000002   -0.00000068
     atom   15 type  3   force =     0.00000996   -0.00000010   -0.00000103
     atom   16 type  3   force =    -0.00001037    0.00000009   -0.00000186
     atom   17 type  3   force =     0.00000662    0.00000001   -0.00000039
     atom   18 type  3   force =     0.00000283    0.00000136    0.00000013
     atom   19 type  3   force =    -0.00000498   -0.00000017   -0.00000059
     atom   20 type  3   force =     0.00000521    0.00000233   -0.00000213
     atom   21 type  3   force =    -0.00000301    0.00000394    0.00000141
     atom   22 type  3   force =     0.00000538   -0.00000239   -0.00000220
     atom   23 type  3   force =    -0.00000287   -0.00000426    0.00000180
     atom   24 type  3   force =     0.00000276   -0.00000121    0.00000008
     atom   25 type  3   force =    -0.00000521   -0.00000010   -0.00000088

     Total force =     0.095323     Total SCF correction =     0.000032


     Computing stress (Cartesian axis) and pressure


     negative rho (up, down):  0.000E+00 9.153E-04
          total   stress  (Ry/bohr**3)                   (kbar)     P=        3.64
   0.00011424   0.00001669  -0.00003184           16.81        2.46       -4.68
   0.00001669  -0.00008216  -0.00002329            2.46      -12.09       -3.43
  -0.00003184  -0.00002329   0.00004216           -4.68       -3.43        6.20

     kinetic stress (kbar)  26935.10    -14.01     -3.34
                              -14.01  27115.96     -3.24
                               -3.34     -3.24  26918.01

     local   stress (kbar)  -5136.03  -2459.94   1007.80
                            -2459.94 -13942.23    897.84
                             1007.80    897.84  -7535.69

     nonloc. stress (kbar)  -6868.74     -1.21      1.27
                               -1.21  -6804.89      1.60
                                1.27      1.60  -6812.51

     hartree stress (kbar)  12973.06    996.80   -392.83
                              996.80  17938.75   -362.06
                             -392.83   -362.06  14697.30

     exc-cor stress (kbar)  -2850.42      1.33     -0.76
                                1.33  -2858.04     -0.41
                               -0.76     -0.41  -2855.65

     corecor stress (kbar)  -3169.01     -0.49      0.59
                               -0.49  -3167.75     -0.00
                                0.59     -0.00  -3169.19

     ewald   stress (kbar) -21867.15   1479.97   -617.42
                             1479.97 -18293.88   -537.15
                             -617.42   -537.15 -21236.06

     hubbard stress (kbar)      0.00      0.00      0.00
                                0.00      0.00      0.00
                                0.00      0.00      0.00

     DFT-D   stress (kbar)      0.00      0.00      0.00
                                0.00      0.00      0.00
                                0.00      0.00      0.00

     XDM     stress (kbar)      0.00      0.00      0.00
                                0.00      0.00      0.00
                                0.00      0.00      0.00

     dft-nl  stress (kbar)      0.00      0.00      0.00
                                0.00      0.00      0.00
                                0.00      0.00      0.00

     TS-vdW  stress (kbar)      0.00      0.00      0.00
                                0.00      0.00      0.00
                                0.00      0.00      0.00



     init_run     :    238.47s CPU    246.11s WALL (       1 calls)
     electrons    :  22454.80s CPU  22914.28s WALL (       1 calls)
     forces       :    168.06s CPU    172.05s WALL (       1 calls)
     stress       :   1608.94s CPU   1627.05s WALL (       1 calls)

     Called by init_run:
     wfcinit      :    226.76s CPU    232.95s WALL (       1 calls)
     wfcinit:atom :      5.26s CPU      5.42s WALL (     316 calls)
     wfcinit:wfcr :    206.94s CPU    212.58s WALL (     316 calls)
     potinit      :      3.71s CPU      4.03s WALL (       1 calls)
     hinit0       :      3.34s CPU      3.46s WALL (       1 calls)

     Called by electrons:
     c_bands      :  19577.33s CPU  19892.51s WALL (      32 calls)
     sum_band     :   2729.91s CPU   2840.66s WALL (      32 calls)
     v_of_rho     :     40.39s CPU     43.06s WALL (      33 calls)
     v_h          :      1.95s CPU      2.07s WALL (      33 calls)
     v_xc         :     40.76s CPU     43.40s WALL (      35 calls)
     newd         :     82.35s CPU    113.04s WALL (      33 calls)
     PAW_pot      :     14.34s CPU     14.62s WALL (      33 calls)
     mix_rho      :      9.72s CPU     10.36s WALL (      32 calls)

     Called by c_bands:
     init_us_2    :    465.73s CPU    481.23s WALL (   21172 calls)
     cegterg      :  18890.38s CPU  19185.94s WALL (   10112 calls)

     Called by sum_band:
     sum_band:wei :      0.53s CPU      0.53s WALL (      32 calls)
     sum_band:loo :   2496.77s CPU   2567.22s WALL (      32 calls)
     sum_band:buf :    106.68s CPU    110.43s WALL (   10112 calls)
     sum_band:ini :    223.41s CPU    230.37s WALL (   10112 calls)
     sum_band:cal :    952.69s CPU    971.90s WALL (   10112 calls)
     sum_band:bec :     10.11s CPU     10.37s WALL (   10112 calls)
     addusdens    :    222.20s CPU    262.14s WALL (      32 calls)
     addusd:skk   :      1.64s CPU      1.72s WALL (      96 calls)
     addusd:dgemm :     97.44s CPU    131.84s WALL (     192 calls)
     addusd:qvan2 :    120.12s CPU    121.71s WALL (     192 calls)

     Called by *egterg:
     cdiaghg      :    883.03s CPU    909.49s WALL (   37423 calls)
     cegterg:over :   2103.56s CPU   2154.12s WALL (   27311 calls)
     cegterg:upda :   1128.64s CPU   1139.63s WALL (   27311 calls)
     cegterg:last :   1965.33s CPU   1983.84s WALL (   16026 calls)
     h_psi        :   9139.68s CPU   9281.99s WALL (   37739 calls)
     s_psi        :   2397.37s CPU   2419.33s WALL (   37739 calls)
     g_psi        :     36.44s CPU     37.05s WALL (   27311 calls)

     Called by h_psi:
     h_psi:calbec :   2537.00s CPU   2582.97s WALL (   37739 calls)
     vloc_psi     :   3890.93s CPU   3953.60s WALL (   37739 calls)
     add_vuspsi   :   2467.83s CPU   2491.79s WALL (   37739 calls)

     General routines
     calbec       :   3671.90s CPU   3740.11s WALL (   49431 calls)
     fft          :     38.11s CPU     41.21s WALL (     863 calls)
     ffts         :      0.57s CPU      0.71s WALL (     130 calls)
     fftw         :   4755.24s CPU   4852.54s WALL ( 6275114 calls)
     interpolate  :      3.05s CPU      3.40s WALL (      66 calls)

     Parallel routines
     fft_scatt_xy :    282.83s CPU    285.92s WALL ( 6276107 calls)
     fft_scatt_yz :   2667.67s CPU   2744.48s WALL ( 6276107 calls)

     PAW routines
     PAW_pot      :     14.34s CPU     14.62s WALL (      33 calls)

     PWSCF        :      6h47m CPU      6h56m WALL


   This run was terminated on:   8:50: 5  19Dec2022            

=------------------------------------------------------------------------------=
   JOB DONE.
=------------------------------------------------------------------------------=
Note: The following floating-point exceptions are signalling: IEEE_UNDERFLOW_FLAG IEEE_DENORMAL
Note: The following floating-point exceptions are signalling: IEEE_DENORMAL
Note: The following floating-point exceptions are signalling: IEEE_DENORMAL
Note: The following floating-point exceptions are signalling: IEEE_DENORMAL
Note: The following floating-point exceptions are signalling: IEEE_DENORMAL
Note: The following floating-point exceptions are signalling: IEEE_DENORMAL
Note: The following floating-point exceptions are signalling: IEEE_DENORMAL
Note: The following floating-point exceptions are signalling: IEEE_DENORMAL
Note: The following floating-point exceptions are signalling: IEEE_DENORMAL
Note: The following floating-point exceptions are signalling: IEEE_DENORMAL
Note: The following floating-point exceptions are signalling: IEEE_DENORMAL
Note: The following floating-point exceptions are signalling: IEEE_DENORMAL
Note: The following floating-point exceptions are signalling: IEEE_DENORMAL
Note: The following floating-point exceptions are signalling: IEEE_DENORMAL
Note: The following floating-point exceptions are signalling: IEEE_DENORMAL
Note: The following floating-point exceptions are signalling: IEEE_DENORMAL
Note: The following floating-point exceptions are signalling: IEEE_DENORMAL
Note: The following floating-point exceptions are signalling: IEEE_DENORMAL
Note: The following floating-point exceptions are signalling: IEEE_INVALID_FLAG IEEE_DENORMAL
Note: The following floating-point exceptions are signalling: IEEE_DENORMAL
Note: The following floating-point exceptions are signalling: IEEE_DENORMAL
Note: The following floating-point exceptions are signalling: IEEE_DENORMAL
Note: The following floating-point exceptions are signalling: IEEE_DENORMAL
Note: The following floating-point exceptions are signalling: IEEE_DENORMAL
