
     Program PWSCF v.6.7MaX starts on 19Dec2022 at  1:18:40 

     This program is part of the open-source Quantum ESPRESSO suite
     for quantum simulation of materials; please cite
         "P. Giannozzi et al., J. Phys.:Condens. Matter 21 395502 (2009);
         "P. Giannozzi et al., J. Phys.:Condens. Matter 29 465901 (2017);
          URL http://www.quantum-espresso.org", 
     in publications or presentations arising from this work. More details at
     http://www.quantum-espresso.org/quote

     Parallel version (MPI), running on    24 processors

     MPI processes distributed on     1 nodes
     R & G space division:  proc/nbgrp/npool/nimage =      24
     Reading input from scale_1da-01.in

     Current dimensions of program PWSCF are:
     Max number of different atomic species (ntypx) = 10
     Max number of k-points (npk) =  40000
     Max angular momentum in pseudopotentials (lmaxx) =  3
     Message from routine read_pp_mesh:
     mesh size missing, using the one in header
     file Fe.pbe-spn-kjpaw_psl.0.2.1.UPF: wavefunction(s)  3D renormalized
     file O.pbe-n-kjpaw_psl.0.1.UPF: wavefunction(s)  2P renormalized

     Subspace diagonalization in iterative solution of the eigenvalue problem:
     a serial algorithm will be used


     Parallelization info
     --------------------
     sticks:   dense  smooth     PW     G-vecs:    dense   smooth      PW
     Min         800     296     79                52154    11756    1651
     Max         801     297     80                52156    11759    1654
     Sum       19205    7123   1917              1251717   282189   39655



     bravais-lattice index     =            0
     lattice parameter (alat)  =      19.0096  a.u.
     unit-cell volume          =    2088.3459 (a.u.)^3
     number of atoms/cell      =           25
     number of atomic types    =            4
     number of electrons       =       189.00
     number of Kohn-Sham states=          114
     kinetic-energy cutoff     =     100.0000  Ry
     charge density cutoff     =    1080.0000  Ry
     scf convergence threshold =      2.0E-10
     mixing beta               =       0.4000
     number of iterations used =            8  plain     mixing
     Exchange-correlation= PBE
                           (   1   4   3   4   0   0   0)

     celldm(1)=  19.009555  celldm(2)=   0.000000  celldm(3)=   0.000000
     celldm(4)=   0.000000  celldm(5)=   0.000000  celldm(6)=   0.000000

     crystal axes: (cart. coord. in units of alat)
               a(1) = (   1.000000   0.000000   0.000000 )  
               a(2) = (   0.000000   0.618196   0.000000 )  
               a(3) = (   0.000000   0.000000   0.491768 )  

     reciprocal axes: (cart. coord. in units 2 pi/alat)
               b(1) = (  1.000000  0.000000  0.000000 )  
               b(2) = (  0.000000  1.617609  0.000000 )  
               b(3) = (  0.000000  0.000000  2.033480 )  


     PseudoPot. # 1 for Fe read from file:
     /opt/QEpot/SSSP_precision_pseudos/Fe.pbe-spn-kjpaw_psl.0.2.1.UPF
     MD5 check sum: e86618425769142926afa95317d90200
     Pseudo is Projector augmented-wave + core cor, Zval = 16.0
     Generated using "atomic" code by A. Dal Corso  v.5.0.99 svn rev. 10869
     Shape of augmentation charge: PSQ
     Using radial grid of 1191 points,  6 beta functions with: 
                l(1) =   0
                l(2) =   0
                l(3) =   1
                l(4) =   1
                l(5) =   2
                l(6) =   2
     Q(r) pseudized with 0 coefficients 


     PseudoPot. # 2 for Na read from file:
     /opt/QEpot/SSSP_precision_pseudos/Na_ONCV_PBE-1.0.oncvpsp.upf
     MD5 check sum: 24a298df0a6742ae313db96548fdb2a4
     Pseudo is Norm-conserving, Zval =  9.0
     Generated using ONCVPSP code by D. R. Hamann
     Using radial grid of 1992 points,  4 beta functions with: 
                l(1) =   0
                l(2) =   0
                l(3) =   1
                l(4) =   1

     PseudoPot. # 3 for O  read from file:
     /opt/QEpot/SSSP_precision_pseudos/O.pbe-n-kjpaw_psl.0.1.UPF
     MD5 check sum: 0234752ac141de4415c5fc33072bef88
     Pseudo is Projector augmented-wave + core cor, Zval =  6.0
     Generated using "atomic" code by A. Dal Corso  v.5.0.99 svn rev. 10869
     Shape of augmentation charge: BESSEL
     Using radial grid of 1095 points,  4 beta functions with: 
                l(1) =   0
                l(2) =   0
                l(3) =   1
                l(4) =   1
     Q(r) pseudized with 0 coefficients 


     PseudoPot. # 4 for P  read from file:
     /opt/QEpot/SSSP_precision_pseudos/P.pbe-n-rrkjus_psl.1.0.0.UPF
     MD5 check sum: 8b930f418f0a4573dca56cd030ffe088
     Pseudo is Ultrasoft + core correction, Zval =  5.0
     Generated using "atomic" code by A. Dal Corso  v.5.1
     Using radial grid of 1147 points,  6 beta functions with: 
                l(1) =   0
                l(2) =   0
                l(3) =   1
                l(4) =   1
                l(5) =   2
                l(6) =   2
     Q(r) pseudized with 0 coefficients 


     atomic species   valence    mass     pseudopotential
        Fe            16.00    55.84500     Fe( 1.00)
        Na             9.00    22.98977     Na( 1.00)
        O              6.00    15.99940     O ( 1.00)
        P              5.00    30.97376     P ( 1.00)

     Starting magnetic structure 
     atomic species   magnetization
        Fe           0.312
        Na           0.000
        O            0.000
        P            0.000

     No symmetry found


                                    s                        frac. trans.

      isym =  1     identity                                     

 cryst.   s( 1) = (     1          0          0      )
                  (     0          1          0      )
                  (     0          0          1      )

 cart.    s( 1) = (  1.0000000  0.0000000  0.0000000 )
                  (  0.0000000  1.0000000  0.0000000 )
                  (  0.0000000  0.0000000  1.0000000 )


   Cartesian axes

     site n.     atom                  positions (alat units)
         1           Na  tau(   1) = (   0.5267800   0.2587536   0.2385703  )
         2           Fe  tau(   2) = (   0.2775050   0.4626904   0.4885309  )
         3           Fe  tau(   3) = (   0.2107690   0.1517456   0.2411088  )
         4           Fe  tau(   4) = (   0.7260420   0.1478367   0.0027505  )
         5           Fe  tau(   5) = (   0.7842060   0.4654049   0.2509501  )
         6           P   tau(   6) = (   0.1068460   0.4617081   0.2185362  )
         7           P   tau(   7) = (   0.3892680   0.1491108   0.4644535  )
         8           P   tau(   8) = (   0.8912160   0.1541671   0.2737912  )
         9           P   tau(   9) = (   0.6066990   0.4627837   0.0275764  )
        10           O   tau(  10) = (   0.1320850   0.4603140   0.3695428  )
        11           O   tau(  11) = (   0.3656990   0.1535835   0.1240405  )
        12           O   tau(  12) = (   0.8700850   0.1533078   0.1222579  )
        13           O   tau(  13) = (   0.6284590   0.4584069   0.3674474  )
        14           O   tau(  14) = (   0.4610830   0.4578709   0.0608366  )
        15           O   tau(  15) = (   0.0360890   0.1549176   0.3065951  )
        16           O   tau(  16) = (   0.5370310   0.1509067   0.4379816  )
        17           O   tau(  17) = (   0.9604850   0.4617588   0.1909874  )
        18           O   tau(  18) = (   0.1757850   0.5830817   0.1485645  )
        19           O   tau(  19) = (   0.3203990   0.0288117   0.3955204  )
        20           O   tau(  20) = (   0.8166330   0.2725282   0.3424376  )
        21           O   tau(  21) = (   0.6775460   0.3426743   0.0994172  )
        22           O   tau(  22) = (   0.8196290   0.0330976   0.3427523  )
        23           O   tau(  23) = (   0.6770700   0.5835299   0.0965979  )
        24           O   tau(  24) = (   0.1771920   0.3420852   0.1470858  )
        25           O   tau(  25) = (   0.3254700   0.2702149   0.3888004  )

   Crystallographic axes

     site n.     atom                  positions (cryst. coord.)
         1           Na  tau(   1) = (  0.5267800  0.4185620  0.4851280  )
         2           Fe  tau(   2) = (  0.2775050  0.7484520  0.9934180  )
         3           Fe  tau(   3) = (  0.2107690  0.2454650  0.4902900  )
         4           Fe  tau(   4) = (  0.7260420  0.2391420  0.0055930  )
         5           Fe  tau(   5) = (  0.7842060  0.7528430  0.5103020  )
         6           P   tau(   6) = (  0.1068460  0.7468630  0.4443890  )
         7           P   tau(   7) = (  0.3892680  0.2412030  0.9444570  )
         8           P   tau(   8) = (  0.8912160  0.2493820  0.5567490  )
         9           P   tau(   9) = (  0.6066990  0.7486030  0.0560760  )
        10           O   tau(  10) = (  0.1320850  0.7446080  0.7514580  )
        11           O   tau(  11) = (  0.3656990  0.2484380  0.2522340  )
        12           O   tau(  12) = (  0.8700850  0.2479920  0.2486090  )
        13           O   tau(  13) = (  0.6284590  0.7415230  0.7471970  )
        14           O   tau(  14) = (  0.4610830  0.7406560  0.1237100  )
        15           O   tau(  15) = (  0.0360890  0.2505960  0.6234550  )
        16           O   tau(  16) = (  0.5370310  0.2441080  0.8906270  )
        17           O   tau(  17) = (  0.9604850  0.7469450  0.3883690  )
        18           O   tau(  18) = (  0.1757850  0.9431980  0.3021030  )
        19           O   tau(  19) = (  0.3203990  0.0466060  0.8042830  )
        20           O   tau(  20) = (  0.8166330  0.4408440  0.6963400  )
        21           O   tau(  21) = (  0.6775460  0.5543130  0.2021630  )
        22           O   tau(  22) = (  0.8196290  0.0535390  0.6969800  )
        23           O   tau(  23) = (  0.6770700  0.9439230  0.1964300  )
        24           O   tau(  24) = (  0.1771920  0.5533600  0.2990960  )
        25           O   tau(  25) = (  0.3254700  0.4371020  0.7906180  )

     number of k points=   158  Marzari-Vanderbilt smearing, width (Ry)=  0.0073
                       cart. coord. in units 2pi/alat
        k(    1) = (   0.0000000   0.0000000   0.0000000), wk =   0.0031746
        k(    2) = (   0.0000000   0.0000000   0.2259422), wk =   0.0063492
        k(    3) = (   0.0000000   0.0000000   0.4518845), wk =   0.0063492
        k(    4) = (   0.0000000   0.0000000   0.6778267), wk =   0.0063492
        k(    5) = (   0.0000000   0.0000000   0.9037690), wk =   0.0063492
        k(    6) = (   0.0000000   0.2310870   0.0000000), wk =   0.0063492
        k(    7) = (   0.0000000   0.2310870   0.2259422), wk =   0.0063492
        k(    8) = (   0.0000000   0.2310870   0.4518845), wk =   0.0063492
        k(    9) = (   0.0000000   0.2310870   0.6778267), wk =   0.0063492
        k(   10) = (   0.0000000   0.2310870   0.9037690), wk =   0.0063492
        k(   11) = (   0.0000000   0.4621739   0.0000000), wk =   0.0063492
        k(   12) = (   0.0000000   0.4621739   0.2259422), wk =   0.0063492
        k(   13) = (   0.0000000   0.4621739   0.4518845), wk =   0.0063492
        k(   14) = (   0.0000000   0.4621739   0.6778267), wk =   0.0063492
        k(   15) = (   0.0000000   0.4621739   0.9037690), wk =   0.0063492
        k(   16) = (   0.0000000   0.6932609   0.0000000), wk =   0.0063492
        k(   17) = (   0.0000000   0.6932609   0.2259422), wk =   0.0063492
        k(   18) = (   0.0000000   0.6932609   0.4518845), wk =   0.0063492
        k(   19) = (   0.0000000   0.6932609   0.6778267), wk =   0.0063492
        k(   20) = (   0.0000000   0.6932609   0.9037690), wk =   0.0063492
        k(   21) = (   0.2000000   0.0000000   0.0000000), wk =   0.0063492
        k(   22) = (   0.2000000   0.0000000   0.2259422), wk =   0.0063492
        k(   23) = (   0.2000000   0.0000000   0.4518845), wk =   0.0063492
        k(   24) = (   0.2000000   0.0000000   0.6778267), wk =   0.0063492
        k(   25) = (   0.2000000   0.0000000   0.9037690), wk =   0.0063492
        k(   26) = (   0.2000000   0.2310870   0.0000000), wk =   0.0063492
        k(   27) = (   0.2000000   0.2310870   0.2259422), wk =   0.0063492
        k(   28) = (   0.2000000   0.2310870   0.4518845), wk =   0.0063492
        k(   29) = (   0.2000000   0.2310870   0.6778267), wk =   0.0063492
        k(   30) = (   0.2000000   0.2310870   0.9037690), wk =   0.0063492
        k(   31) = (   0.2000000   0.4621739   0.0000000), wk =   0.0063492
        k(   32) = (   0.2000000   0.4621739   0.2259422), wk =   0.0063492
        k(   33) = (   0.2000000   0.4621739   0.4518845), wk =   0.0063492
        k(   34) = (   0.2000000   0.4621739   0.6778267), wk =   0.0063492
        k(   35) = (   0.2000000   0.4621739   0.9037690), wk =   0.0063492
        k(   36) = (   0.2000000   0.6932609   0.0000000), wk =   0.0063492
        k(   37) = (   0.2000000   0.6932609   0.2259422), wk =   0.0063492
        k(   38) = (   0.2000000   0.6932609   0.4518845), wk =   0.0063492
        k(   39) = (   0.2000000   0.6932609   0.6778267), wk =   0.0063492
        k(   40) = (   0.2000000   0.6932609   0.9037690), wk =   0.0063492
        k(   41) = (   0.4000000   0.0000000   0.0000000), wk =   0.0063492
        k(   42) = (   0.4000000   0.0000000   0.2259422), wk =   0.0063492
        k(   43) = (   0.4000000   0.0000000   0.4518845), wk =   0.0063492
        k(   44) = (   0.4000000   0.0000000   0.6778267), wk =   0.0063492
        k(   45) = (   0.4000000   0.0000000   0.9037690), wk =   0.0063492
        k(   46) = (   0.4000000   0.2310870   0.0000000), wk =   0.0063492
        k(   47) = (   0.4000000   0.2310870   0.2259422), wk =   0.0063492
        k(   48) = (   0.4000000   0.2310870   0.4518845), wk =   0.0063492
        k(   49) = (   0.4000000   0.2310870   0.6778267), wk =   0.0063492
        k(   50) = (   0.4000000   0.2310870   0.9037690), wk =   0.0063492
        k(   51) = (   0.4000000   0.4621739   0.0000000), wk =   0.0063492
        k(   52) = (   0.4000000   0.4621739   0.2259422), wk =   0.0063492
        k(   53) = (   0.4000000   0.4621739   0.4518845), wk =   0.0063492
        k(   54) = (   0.4000000   0.4621739   0.6778267), wk =   0.0063492
        k(   55) = (   0.4000000   0.4621739   0.9037690), wk =   0.0063492
        k(   56) = (   0.4000000   0.6932609   0.0000000), wk =   0.0063492
        k(   57) = (   0.4000000   0.6932609   0.2259422), wk =   0.0063492
        k(   58) = (   0.4000000   0.6932609   0.4518845), wk =   0.0063492
        k(   59) = (   0.4000000   0.6932609   0.6778267), wk =   0.0063492
        k(   60) = (   0.4000000   0.6932609   0.9037690), wk =   0.0063492
        k(   61) = (   0.0000000  -0.2310870   0.2259422), wk =   0.0063492
        k(   62) = (   0.0000000  -0.2310870   0.4518845), wk =   0.0063492
        k(   63) = (   0.0000000  -0.2310870   0.6778267), wk =   0.0063492
        k(   64) = (   0.0000000  -0.2310870   0.9037690), wk =   0.0063492
        k(   65) = (   0.0000000  -0.4621739   0.2259422), wk =   0.0063492
        k(   66) = (   0.0000000  -0.4621739   0.4518845), wk =   0.0063492
        k(   67) = (   0.0000000  -0.4621739   0.6778267), wk =   0.0063492
        k(   68) = (   0.0000000  -0.4621739   0.9037690), wk =   0.0063492
        k(   69) = (   0.0000000  -0.6932609   0.2259422), wk =   0.0063492
        k(   70) = (   0.0000000  -0.6932609   0.4518845), wk =   0.0063492
        k(   71) = (   0.0000000  -0.6932609   0.6778267), wk =   0.0063492
        k(   72) = (   0.0000000  -0.6932609   0.9037690), wk =   0.0063492
        k(   73) = (  -0.2000000   0.0000000   0.2259422), wk =   0.0063492
        k(   74) = (  -0.2000000   0.0000000   0.4518845), wk =   0.0063492
        k(   75) = (  -0.2000000   0.0000000   0.6778267), wk =   0.0063492
        k(   76) = (  -0.2000000   0.0000000   0.9037690), wk =   0.0063492
        k(   77) = (  -0.2000000   0.2310870   0.0000000), wk =   0.0063492
        k(   78) = (  -0.2000000  -0.2310870   0.2259422), wk =   0.0063492
        k(   79) = (  -0.2000000   0.2310870  -0.2259422), wk =   0.0063492
        k(   80) = (   0.2000000  -0.2310870  -0.2259422), wk =   0.0063492
        k(   81) = (  -0.2000000  -0.2310870   0.4518845), wk =   0.0063492
        k(   82) = (  -0.2000000   0.2310870  -0.4518845), wk =   0.0063492
        k(   83) = (   0.2000000  -0.2310870  -0.4518845), wk =   0.0063492
        k(   84) = (  -0.2000000  -0.2310870   0.6778267), wk =   0.0063492
        k(   85) = (  -0.2000000   0.2310870  -0.6778267), wk =   0.0063492
        k(   86) = (   0.2000000  -0.2310870  -0.6778267), wk =   0.0063492
        k(   87) = (  -0.2000000  -0.2310870   0.9037690), wk =   0.0063492
        k(   88) = (  -0.2000000   0.2310870  -0.9037690), wk =   0.0063492
        k(   89) = (   0.2000000  -0.2310870  -0.9037690), wk =   0.0063492
        k(   90) = (  -0.2000000   0.4621739   0.0000000), wk =   0.0063492
        k(   91) = (  -0.2000000  -0.4621739   0.2259422), wk =   0.0063492
        k(   92) = (  -0.2000000   0.4621739  -0.2259422), wk =   0.0063492
        k(   93) = (   0.2000000  -0.4621739  -0.2259422), wk =   0.0063492
        k(   94) = (  -0.2000000  -0.4621739   0.4518845), wk =   0.0063492
        k(   95) = (  -0.2000000   0.4621739  -0.4518845), wk =   0.0063492
        k(   96) = (   0.2000000  -0.4621739  -0.4518845), wk =   0.0063492
        k(   97) = (  -0.2000000  -0.4621739   0.6778267), wk =   0.0063492
        k(   98) = (  -0.2000000   0.4621739  -0.6778267), wk =   0.0063492
        k(   99) = (   0.2000000  -0.4621739  -0.6778267), wk =   0.0063492
        k(  100) = (  -0.2000000  -0.4621739   0.9037690), wk =   0.0063492
        k(  101) = (  -0.2000000   0.4621739  -0.9037690), wk =   0.0063492
        k(  102) = (   0.2000000  -0.4621739  -0.9037690), wk =   0.0063492
        k(  103) = (  -0.2000000   0.6932609   0.0000000), wk =   0.0063492
        k(  104) = (  -0.2000000  -0.6932609   0.2259422), wk =   0.0063492
        k(  105) = (  -0.2000000   0.6932609  -0.2259422), wk =   0.0063492
        k(  106) = (   0.2000000  -0.6932609  -0.2259422), wk =   0.0063492
        k(  107) = (  -0.2000000  -0.6932609   0.4518845), wk =   0.0063492
        k(  108) = (  -0.2000000   0.6932609  -0.4518845), wk =   0.0063492
        k(  109) = (   0.2000000  -0.6932609  -0.4518845), wk =   0.0063492
        k(  110) = (  -0.2000000  -0.6932609   0.6778267), wk =   0.0063492
        k(  111) = (  -0.2000000   0.6932609  -0.6778267), wk =   0.0063492
        k(  112) = (   0.2000000  -0.6932609  -0.6778267), wk =   0.0063492
        k(  113) = (  -0.2000000  -0.6932609   0.9037690), wk =   0.0063492
        k(  114) = (  -0.2000000   0.6932609  -0.9037690), wk =   0.0063492
        k(  115) = (   0.2000000  -0.6932609  -0.9037690), wk =   0.0063492
        k(  116) = (  -0.4000000   0.0000000   0.2259422), wk =   0.0063492
        k(  117) = (  -0.4000000   0.0000000   0.4518845), wk =   0.0063492
        k(  118) = (  -0.4000000   0.0000000   0.6778267), wk =   0.0063492
        k(  119) = (  -0.4000000   0.0000000   0.9037690), wk =   0.0063492
        k(  120) = (  -0.4000000   0.2310870   0.0000000), wk =   0.0063492
        k(  121) = (  -0.4000000  -0.2310870   0.2259422), wk =   0.0063492
        k(  122) = (  -0.4000000   0.2310870  -0.2259422), wk =   0.0063492
        k(  123) = (   0.4000000  -0.2310870  -0.2259422), wk =   0.0063492
        k(  124) = (  -0.4000000  -0.2310870   0.4518845), wk =   0.0063492
        k(  125) = (  -0.4000000   0.2310870  -0.4518845), wk =   0.0063492
        k(  126) = (   0.4000000  -0.2310870  -0.4518845), wk =   0.0063492
        k(  127) = (  -0.4000000  -0.2310870   0.6778267), wk =   0.0063492
        k(  128) = (  -0.4000000   0.2310870  -0.6778267), wk =   0.0063492
        k(  129) = (   0.4000000  -0.2310870  -0.6778267), wk =   0.0063492
        k(  130) = (  -0.4000000  -0.2310870   0.9037690), wk =   0.0063492
        k(  131) = (  -0.4000000   0.2310870  -0.9037690), wk =   0.0063492
        k(  132) = (   0.4000000  -0.2310870  -0.9037690), wk =   0.0063492
        k(  133) = (  -0.4000000   0.4621739   0.0000000), wk =   0.0063492
        k(  134) = (  -0.4000000  -0.4621739   0.2259422), wk =   0.0063492
        k(  135) = (  -0.4000000   0.4621739  -0.2259422), wk =   0.0063492
        k(  136) = (   0.4000000  -0.4621739  -0.2259422), wk =   0.0063492
        k(  137) = (  -0.4000000  -0.4621739   0.4518845), wk =   0.0063492
        k(  138) = (  -0.4000000   0.4621739  -0.4518845), wk =   0.0063492
        k(  139) = (   0.4000000  -0.4621739  -0.4518845), wk =   0.0063492
        k(  140) = (  -0.4000000  -0.4621739   0.6778267), wk =   0.0063492
        k(  141) = (  -0.4000000   0.4621739  -0.6778267), wk =   0.0063492
        k(  142) = (   0.4000000  -0.4621739  -0.6778267), wk =   0.0063492
        k(  143) = (  -0.4000000  -0.4621739   0.9037690), wk =   0.0063492
        k(  144) = (  -0.4000000   0.4621739  -0.9037690), wk =   0.0063492
        k(  145) = (   0.4000000  -0.4621739  -0.9037690), wk =   0.0063492
        k(  146) = (  -0.4000000   0.6932609   0.0000000), wk =   0.0063492
        k(  147) = (  -0.4000000  -0.6932609   0.2259422), wk =   0.0063492
        k(  148) = (  -0.4000000   0.6932609  -0.2259422), wk =   0.0063492
        k(  149) = (   0.4000000  -0.6932609  -0.2259422), wk =   0.0063492
        k(  150) = (  -0.4000000  -0.6932609   0.4518845), wk =   0.0063492
        k(  151) = (  -0.4000000   0.6932609  -0.4518845), wk =   0.0063492
        k(  152) = (   0.4000000  -0.6932609  -0.4518845), wk =   0.0063492
        k(  153) = (  -0.4000000  -0.6932609   0.6778267), wk =   0.0063492
        k(  154) = (  -0.4000000   0.6932609  -0.6778267), wk =   0.0063492
        k(  155) = (   0.4000000  -0.6932609  -0.6778267), wk =   0.0063492
        k(  156) = (  -0.4000000  -0.6932609   0.9037690), wk =   0.0063492
        k(  157) = (  -0.4000000   0.6932609  -0.9037690), wk =   0.0063492
        k(  158) = (   0.4000000  -0.6932609  -0.9037690), wk =   0.0063492

                       cryst. coord.
        k(    1) = (   0.0000000   0.0000000   0.0000000), wk =   0.0031746
        k(    2) = (   0.0000000   0.0000000   0.1111111), wk =   0.0063492
        k(    3) = (   0.0000000   0.0000000   0.2222222), wk =   0.0063492
        k(    4) = (   0.0000000   0.0000000   0.3333333), wk =   0.0063492
        k(    5) = (   0.0000000   0.0000000   0.4444444), wk =   0.0063492
        k(    6) = (   0.0000000   0.1428571   0.0000000), wk =   0.0063492
        k(    7) = (   0.0000000   0.1428571   0.1111111), wk =   0.0063492
        k(    8) = (   0.0000000   0.1428571   0.2222222), wk =   0.0063492
        k(    9) = (   0.0000000   0.1428571   0.3333333), wk =   0.0063492
        k(   10) = (   0.0000000   0.1428571   0.4444444), wk =   0.0063492
        k(   11) = (   0.0000000   0.2857143   0.0000000), wk =   0.0063492
        k(   12) = (   0.0000000   0.2857143   0.1111111), wk =   0.0063492
        k(   13) = (   0.0000000   0.2857143   0.2222222), wk =   0.0063492
        k(   14) = (   0.0000000   0.2857143   0.3333333), wk =   0.0063492
        k(   15) = (   0.0000000   0.2857143   0.4444444), wk =   0.0063492
        k(   16) = (   0.0000000   0.4285714   0.0000000), wk =   0.0063492
        k(   17) = (   0.0000000   0.4285714   0.1111111), wk =   0.0063492
        k(   18) = (   0.0000000   0.4285714   0.2222222), wk =   0.0063492
        k(   19) = (   0.0000000   0.4285714   0.3333333), wk =   0.0063492
        k(   20) = (   0.0000000   0.4285714   0.4444444), wk =   0.0063492
        k(   21) = (   0.2000000   0.0000000   0.0000000), wk =   0.0063492
        k(   22) = (   0.2000000   0.0000000   0.1111111), wk =   0.0063492
        k(   23) = (   0.2000000   0.0000000   0.2222222), wk =   0.0063492
        k(   24) = (   0.2000000   0.0000000   0.3333333), wk =   0.0063492
        k(   25) = (   0.2000000   0.0000000   0.4444444), wk =   0.0063492
        k(   26) = (   0.2000000   0.1428571   0.0000000), wk =   0.0063492
        k(   27) = (   0.2000000   0.1428571   0.1111111), wk =   0.0063492
        k(   28) = (   0.2000000   0.1428571   0.2222222), wk =   0.0063492
        k(   29) = (   0.2000000   0.1428571   0.3333333), wk =   0.0063492
        k(   30) = (   0.2000000   0.1428571   0.4444444), wk =   0.0063492
        k(   31) = (   0.2000000   0.2857143   0.0000000), wk =   0.0063492
        k(   32) = (   0.2000000   0.2857143   0.1111111), wk =   0.0063492
        k(   33) = (   0.2000000   0.2857143   0.2222222), wk =   0.0063492
        k(   34) = (   0.2000000   0.2857143   0.3333333), wk =   0.0063492
        k(   35) = (   0.2000000   0.2857143   0.4444444), wk =   0.0063492
        k(   36) = (   0.2000000   0.4285714   0.0000000), wk =   0.0063492
        k(   37) = (   0.2000000   0.4285714   0.1111111), wk =   0.0063492
        k(   38) = (   0.2000000   0.4285714   0.2222222), wk =   0.0063492
        k(   39) = (   0.2000000   0.4285714   0.3333333), wk =   0.0063492
        k(   40) = (   0.2000000   0.4285714   0.4444444), wk =   0.0063492
        k(   41) = (   0.4000000   0.0000000   0.0000000), wk =   0.0063492
        k(   42) = (   0.4000000   0.0000000   0.1111111), wk =   0.0063492
        k(   43) = (   0.4000000   0.0000000   0.2222222), wk =   0.0063492
        k(   44) = (   0.4000000   0.0000000   0.3333333), wk =   0.0063492
        k(   45) = (   0.4000000   0.0000000   0.4444444), wk =   0.0063492
        k(   46) = (   0.4000000   0.1428571   0.0000000), wk =   0.0063492
        k(   47) = (   0.4000000   0.1428571   0.1111111), wk =   0.0063492
        k(   48) = (   0.4000000   0.1428571   0.2222222), wk =   0.0063492
        k(   49) = (   0.4000000   0.1428571   0.3333333), wk =   0.0063492
        k(   50) = (   0.4000000   0.1428571   0.4444444), wk =   0.0063492
        k(   51) = (   0.4000000   0.2857143   0.0000000), wk =   0.0063492
        k(   52) = (   0.4000000   0.2857143   0.1111111), wk =   0.0063492
        k(   53) = (   0.4000000   0.2857143   0.2222222), wk =   0.0063492
        k(   54) = (   0.4000000   0.2857143   0.3333333), wk =   0.0063492
        k(   55) = (   0.4000000   0.2857143   0.4444444), wk =   0.0063492
        k(   56) = (   0.4000000   0.4285714   0.0000000), wk =   0.0063492
        k(   57) = (   0.4000000   0.4285714   0.1111111), wk =   0.0063492
        k(   58) = (   0.4000000   0.4285714   0.2222222), wk =   0.0063492
        k(   59) = (   0.4000000   0.4285714   0.3333333), wk =   0.0063492
        k(   60) = (   0.4000000   0.4285714   0.4444444), wk =   0.0063492
        k(   61) = (   0.0000000  -0.1428571   0.1111111), wk =   0.0063492
        k(   62) = (   0.0000000  -0.1428571   0.2222222), wk =   0.0063492
        k(   63) = (   0.0000000  -0.1428571   0.3333333), wk =   0.0063492
        k(   64) = (   0.0000000  -0.1428571   0.4444444), wk =   0.0063492
        k(   65) = (   0.0000000  -0.2857143   0.1111111), wk =   0.0063492
        k(   66) = (   0.0000000  -0.2857143   0.2222222), wk =   0.0063492
        k(   67) = (   0.0000000  -0.2857143   0.3333333), wk =   0.0063492
        k(   68) = (   0.0000000  -0.2857143   0.4444444), wk =   0.0063492
        k(   69) = (   0.0000000  -0.4285714   0.1111111), wk =   0.0063492
        k(   70) = (   0.0000000  -0.4285714   0.2222222), wk =   0.0063492
        k(   71) = (   0.0000000  -0.4285714   0.3333333), wk =   0.0063492
        k(   72) = (   0.0000000  -0.4285714   0.4444444), wk =   0.0063492
        k(   73) = (  -0.2000000   0.0000000   0.1111111), wk =   0.0063492
        k(   74) = (  -0.2000000   0.0000000   0.2222222), wk =   0.0063492
        k(   75) = (  -0.2000000   0.0000000   0.3333333), wk =   0.0063492
        k(   76) = (  -0.2000000   0.0000000   0.4444444), wk =   0.0063492
        k(   77) = (  -0.2000000   0.1428571   0.0000000), wk =   0.0063492
        k(   78) = (  -0.2000000  -0.1428571   0.1111111), wk =   0.0063492
        k(   79) = (  -0.2000000   0.1428571  -0.1111111), wk =   0.0063492
        k(   80) = (   0.2000000  -0.1428571  -0.1111111), wk =   0.0063492
        k(   81) = (  -0.2000000  -0.1428571   0.2222222), wk =   0.0063492
        k(   82) = (  -0.2000000   0.1428571  -0.2222222), wk =   0.0063492
        k(   83) = (   0.2000000  -0.1428571  -0.2222222), wk =   0.0063492
        k(   84) = (  -0.2000000  -0.1428571   0.3333333), wk =   0.0063492
        k(   85) = (  -0.2000000   0.1428571  -0.3333333), wk =   0.0063492
        k(   86) = (   0.2000000  -0.1428571  -0.3333333), wk =   0.0063492
        k(   87) = (  -0.2000000  -0.1428571   0.4444444), wk =   0.0063492
        k(   88) = (  -0.2000000   0.1428571  -0.4444444), wk =   0.0063492
        k(   89) = (   0.2000000  -0.1428571  -0.4444444), wk =   0.0063492
        k(   90) = (  -0.2000000   0.2857143   0.0000000), wk =   0.0063492
        k(   91) = (  -0.2000000  -0.2857143   0.1111111), wk =   0.0063492
        k(   92) = (  -0.2000000   0.2857143  -0.1111111), wk =   0.0063492
        k(   93) = (   0.2000000  -0.2857143  -0.1111111), wk =   0.0063492
        k(   94) = (  -0.2000000  -0.2857143   0.2222222), wk =   0.0063492
        k(   95) = (  -0.2000000   0.2857143  -0.2222222), wk =   0.0063492
        k(   96) = (   0.2000000  -0.2857143  -0.2222222), wk =   0.0063492
        k(   97) = (  -0.2000000  -0.2857143   0.3333333), wk =   0.0063492
        k(   98) = (  -0.2000000   0.2857143  -0.3333333), wk =   0.0063492
        k(   99) = (   0.2000000  -0.2857143  -0.3333333), wk =   0.0063492
        k(  100) = (  -0.2000000  -0.2857143   0.4444444), wk =   0.0063492
        k(  101) = (  -0.2000000   0.2857143  -0.4444444), wk =   0.0063492
        k(  102) = (   0.2000000  -0.2857143  -0.4444444), wk =   0.0063492
        k(  103) = (  -0.2000000   0.4285714   0.0000000), wk =   0.0063492
        k(  104) = (  -0.2000000  -0.4285714   0.1111111), wk =   0.0063492
        k(  105) = (  -0.2000000   0.4285714  -0.1111111), wk =   0.0063492
        k(  106) = (   0.2000000  -0.4285714  -0.1111111), wk =   0.0063492
        k(  107) = (  -0.2000000  -0.4285714   0.2222222), wk =   0.0063492
        k(  108) = (  -0.2000000   0.4285714  -0.2222222), wk =   0.0063492
        k(  109) = (   0.2000000  -0.4285714  -0.2222222), wk =   0.0063492
        k(  110) = (  -0.2000000  -0.4285714   0.3333333), wk =   0.0063492
        k(  111) = (  -0.2000000   0.4285714  -0.3333333), wk =   0.0063492
        k(  112) = (   0.2000000  -0.4285714  -0.3333333), wk =   0.0063492
        k(  113) = (  -0.2000000  -0.4285714   0.4444444), wk =   0.0063492
        k(  114) = (  -0.2000000   0.4285714  -0.4444444), wk =   0.0063492
        k(  115) = (   0.2000000  -0.4285714  -0.4444444), wk =   0.0063492
        k(  116) = (  -0.4000000   0.0000000   0.1111111), wk =   0.0063492
        k(  117) = (  -0.4000000   0.0000000   0.2222222), wk =   0.0063492
        k(  118) = (  -0.4000000   0.0000000   0.3333333), wk =   0.0063492
        k(  119) = (  -0.4000000   0.0000000   0.4444444), wk =   0.0063492
        k(  120) = (  -0.4000000   0.1428571   0.0000000), wk =   0.0063492
        k(  121) = (  -0.4000000  -0.1428571   0.1111111), wk =   0.0063492
        k(  122) = (  -0.4000000   0.1428571  -0.1111111), wk =   0.0063492
        k(  123) = (   0.4000000  -0.1428571  -0.1111111), wk =   0.0063492
        k(  124) = (  -0.4000000  -0.1428571   0.2222222), wk =   0.0063492
        k(  125) = (  -0.4000000   0.1428571  -0.2222222), wk =   0.0063492
        k(  126) = (   0.4000000  -0.1428571  -0.2222222), wk =   0.0063492
        k(  127) = (  -0.4000000  -0.1428571   0.3333333), wk =   0.0063492
        k(  128) = (  -0.4000000   0.1428571  -0.3333333), wk =   0.0063492
        k(  129) = (   0.4000000  -0.1428571  -0.3333333), wk =   0.0063492
        k(  130) = (  -0.4000000  -0.1428571   0.4444444), wk =   0.0063492
        k(  131) = (  -0.4000000   0.1428571  -0.4444444), wk =   0.0063492
        k(  132) = (   0.4000000  -0.1428571  -0.4444444), wk =   0.0063492
        k(  133) = (  -0.4000000   0.2857143   0.0000000), wk =   0.0063492
        k(  134) = (  -0.4000000  -0.2857143   0.1111111), wk =   0.0063492
        k(  135) = (  -0.4000000   0.2857143  -0.1111111), wk =   0.0063492
        k(  136) = (   0.4000000  -0.2857143  -0.1111111), wk =   0.0063492
        k(  137) = (  -0.4000000  -0.2857143   0.2222222), wk =   0.0063492
        k(  138) = (  -0.4000000   0.2857143  -0.2222222), wk =   0.0063492
        k(  139) = (   0.4000000  -0.2857143  -0.2222222), wk =   0.0063492
        k(  140) = (  -0.4000000  -0.2857143   0.3333333), wk =   0.0063492
        k(  141) = (  -0.4000000   0.2857143  -0.3333333), wk =   0.0063492
        k(  142) = (   0.4000000  -0.2857143  -0.3333333), wk =   0.0063492
        k(  143) = (  -0.4000000  -0.2857143   0.4444444), wk =   0.0063492
        k(  144) = (  -0.4000000   0.2857143  -0.4444444), wk =   0.0063492
        k(  145) = (   0.4000000  -0.2857143  -0.4444444), wk =   0.0063492
        k(  146) = (  -0.4000000   0.4285714   0.0000000), wk =   0.0063492
        k(  147) = (  -0.4000000  -0.4285714   0.1111111), wk =   0.0063492
        k(  148) = (  -0.4000000   0.4285714  -0.1111111), wk =   0.0063492
        k(  149) = (   0.4000000  -0.4285714  -0.1111111), wk =   0.0063492
        k(  150) = (  -0.4000000  -0.4285714   0.2222222), wk =   0.0063492
        k(  151) = (  -0.4000000   0.4285714  -0.2222222), wk =   0.0063492
        k(  152) = (   0.4000000  -0.4285714  -0.2222222), wk =   0.0063492
        k(  153) = (  -0.4000000  -0.4285714   0.3333333), wk =   0.0063492
        k(  154) = (  -0.4000000   0.4285714  -0.3333333), wk =   0.0063492
        k(  155) = (   0.4000000  -0.4285714  -0.3333333), wk =   0.0063492
        k(  156) = (  -0.4000000  -0.4285714   0.4444444), wk =   0.0063492
        k(  157) = (  -0.4000000   0.4285714  -0.4444444), wk =   0.0063492
        k(  158) = (   0.4000000  -0.4285714  -0.4444444), wk =   0.0063492

     Dense  grid:  1251717 G-vectors     FFT dimensions: ( 200, 125, 100)

     Smooth grid:   282189 G-vectors     FFT dimensions: ( 125,  75,  60)

     Dynamical RAM for                 wfc:       2.56 MB

     Dynamical RAM for     wfc (w. buffer):     810.04 MB

     Dynamical RAM for           str. fact:       3.18 MB

     Dynamical RAM for           local pot:       0.00 MB

     Dynamical RAM for          nlocal pot:       6.28 MB

     Dynamical RAM for                qrad:      10.54 MB

     Dynamical RAM for          rho,v,vnew:      10.50 MB

     Dynamical RAM for               rhoin:       3.50 MB

     Dynamical RAM for            rho*nmix:      25.47 MB

     Dynamical RAM for           G-vectors:       3.07 MB

     Dynamical RAM for          h,s,v(r/c):       2.38 MB

     Dynamical RAM for          <psi|beta>:       0.49 MB

     Dynamical RAM for                 psi:       5.11 MB

     Dynamical RAM for                hpsi:       5.11 MB

     Dynamical RAM for                spsi:       5.11 MB

     Dynamical RAM for      wfcinit/wfcrot:       6.57 MB

     Dynamical RAM for           addusdens:     161.55 MB

     Dynamical RAM for          addusforce:     185.56 MB

     Dynamical RAM for         addusstress:     161.16 MB

     Estimated static dynamical RAM per process >     882.28 MB

     Estimated max dynamical RAM per process >       1.04 GB

     Estimated total dynamical RAM >      25.03 GB

     Check: negative core charge=   -0.000003
     Generating pointlists ...
     new r_m :   0.0768 (alat units)  1.4603 (a.u.) for type    1
     new r_m :   0.0914 (alat units)  1.7382 (a.u.) for type    2
     new r_m :   0.0613 (alat units)  1.1648 (a.u.) for type    3
     new r_m :   0.0613 (alat units)  1.1648 (a.u.) for type    4

     Initial potential from superposition of free atoms

     starting charge  188.99132, renormalised to  189.00000
     Starting wfcs are  137 randomized atomic wfcs
     Checking if some PAW data can be deallocated... 
       PAW data deallocated on   20 nodes for type:  1
       PAW data deallocated on    8 nodes for type:  3

     total cpu time spent up to now is      179.5 secs

     Self-consistent Calculation

     iteration #  1     ecut=   100.00 Ry     beta= 0.40
     Davidson diagonalization with overlap
     ethr =  1.00E-02,  avg # of iterations =  3.1

     negative rho (up, down):  0.000E+00 7.705E-05

     total cpu time spent up to now is      763.3 secs

     total energy              =   -2124.01273181 Ry
     estimated scf accuracy    <       6.78588527 Ry

     total magnetization       =    19.00 Bohr mag/cell
     absolute magnetization    =    19.00 Bohr mag/cell

     iteration #  2     ecut=   100.00 Ry     beta= 0.40
     Davidson diagonalization with overlap
     ethr =  3.59E-03,  avg # of iterations =  2.0

     negative rho (up, down):  0.000E+00 7.481E-05

     total cpu time spent up to now is     1281.2 secs

     total energy              =   -2121.40840747 Ry
     estimated scf accuracy    <      33.50212513 Ry

     total magnetization       =     9.30 Bohr mag/cell
     absolute magnetization    =    10.80 Bohr mag/cell

     iteration #  3     ecut=   100.00 Ry     beta= 0.40
     Davidson diagonalization with overlap
     ethr =  3.59E-03,  avg # of iterations =  3.2

     negative rho (up, down):  0.000E+00 4.134E-05

     total cpu time spent up to now is     1747.0 secs

     total energy              =   -2123.27004345 Ry
     estimated scf accuracy    <      77.40477709 Ry

     total magnetization       =     1.00 Bohr mag/cell
     absolute magnetization    =     4.98 Bohr mag/cell

     iteration #  4     ecut=   100.00 Ry     beta= 0.40
     Davidson diagonalization with overlap
     ethr =  3.59E-03,  avg # of iterations =  1.5

     negative rho (up, down):  0.000E+00 5.879E-05

     total cpu time spent up to now is     2150.2 secs

     total energy              =   -2125.28235532 Ry
     estimated scf accuracy    <       8.64393595 Ry

     total magnetization       =    15.26 Bohr mag/cell
     absolute magnetization    =    15.39 Bohr mag/cell

     iteration #  5     ecut=   100.00 Ry     beta= 0.40
     Davidson diagonalization with overlap
     ethr =  3.59E-03,  avg # of iterations =  2.0

     negative rho (up, down):  0.000E+00 8.607E-05

     total cpu time spent up to now is     2583.3 secs

     total energy              =   -2125.60796068 Ry
     estimated scf accuracy    <      12.78921050 Ry

     total magnetization       =    14.10 Bohr mag/cell
     absolute magnetization    =    14.30 Bohr mag/cell

     iteration #  6     ecut=   100.00 Ry     beta= 0.40
     Davidson diagonalization with overlap
     ethr =  3.59E-03,  avg # of iterations =  1.5

     negative rho (up, down):  0.000E+00 2.141E-04

     total cpu time spent up to now is     2974.5 secs

     total energy              =   -2126.09875976 Ry
     estimated scf accuracy    <       0.48279046 Ry

     total magnetization       =    19.00 Bohr mag/cell
     absolute magnetization    =    19.00 Bohr mag/cell

     iteration #  7     ecut=   100.00 Ry     beta= 0.40
     Davidson diagonalization with overlap
     c_bands:  1 eigenvalues not converged
     ethr =  2.55E-04,  avg # of iterations =  6.1

     negative rho (up, down):  0.000E+00 2.906E-04

     total cpu time spent up to now is     3480.8 secs

     total energy              =   -2126.10227034 Ry
     estimated scf accuracy    <       0.17549169 Ry

     total magnetization       =    19.00 Bohr mag/cell
     absolute magnetization    =    19.00 Bohr mag/cell

     iteration #  8     ecut=   100.00 Ry     beta= 0.40
     Davidson diagonalization with overlap
     c_bands:  1 eigenvalues not converged
     c_bands:  1 eigenvalues not converged
     c_bands:  1 eigenvalues not converged
     c_bands:  1 eigenvalues not converged
     c_bands:  1 eigenvalues not converged
     c_bands:  1 eigenvalues not converged
     ethr =  9.29E-05,  avg # of iterations = 10.8

     negative rho (up, down):  0.000E+00 4.357E-04

     total cpu time spent up to now is     4143.0 secs

     total energy              =   -2126.09887381 Ry
     estimated scf accuracy    <       0.75718169 Ry

     total magnetization       =    19.00 Bohr mag/cell
     absolute magnetization    =    19.01 Bohr mag/cell

     iteration #  9     ecut=   100.00 Ry     beta= 0.40
     Davidson diagonalization with overlap
     ethr =  9.29E-05,  avg # of iterations =  1.2

     negative rho (up, down):  0.000E+00 6.360E-04

     total cpu time spent up to now is     4521.7 secs

     total energy              =   -2126.12397634 Ry
     estimated scf accuracy    <       0.15327609 Ry

     total magnetization       =    19.00 Bohr mag/cell
     absolute magnetization    =    19.01 Bohr mag/cell

     iteration # 10     ecut=   100.00 Ry     beta= 0.40
     Davidson diagonalization with overlap
     ethr =  8.11E-05,  avg # of iterations =  1.0

     negative rho (up, down):  0.000E+00 8.707E-04

     total cpu time spent up to now is     4888.4 secs

     total energy              =   -2126.13043507 Ry
     estimated scf accuracy    <       0.01267279 Ry

     total magnetization       =    19.00 Bohr mag/cell
     absolute magnetization    =    19.01 Bohr mag/cell

     iteration # 11     ecut=   100.00 Ry     beta= 0.40
     Davidson diagonalization with overlap
     c_bands:  1 eigenvalues not converged
     c_bands:  1 eigenvalues not converged
     c_bands:  1 eigenvalues not converged
     c_bands:  1 eigenvalues not converged
     c_bands:  1 eigenvalues not converged
     c_bands:  1 eigenvalues not converged
     c_bands:  1 eigenvalues not converged
     c_bands:  1 eigenvalues not converged
     c_bands:  1 eigenvalues not converged
     c_bands:  1 eigenvalues not converged
     c_bands:  1 eigenvalues not converged
     c_bands:  1 eigenvalues not converged
     c_bands:  1 eigenvalues not converged
     c_bands:  2 eigenvalues not converged
     c_bands:  1 eigenvalues not converged
     c_bands:  1 eigenvalues not converged
     c_bands:  1 eigenvalues not converged
     c_bands:  1 eigenvalues not converged
     c_bands:  1 eigenvalues not converged
     c_bands:  2 eigenvalues not converged
     c_bands:  2 eigenvalues not converged
     c_bands:  1 eigenvalues not converged
     c_bands:  1 eigenvalues not converged
     c_bands:  1 eigenvalues not converged
     c_bands:  1 eigenvalues not converged
     c_bands:  2 eigenvalues not converged
     c_bands:  1 eigenvalues not converged
     c_bands:  1 eigenvalues not converged
     c_bands:  1 eigenvalues not converged
     c_bands:  1 eigenvalues not converged
     c_bands:  1 eigenvalues not converged
     c_bands:  1 eigenvalues not converged
     c_bands:  1 eigenvalues not converged
     c_bands:  1 eigenvalues not converged
     c_bands:  1 eigenvalues not converged
     c_bands:  1 eigenvalues not converged
     c_bands:  1 eigenvalues not converged
     c_bands:  1 eigenvalues not converged
     c_bands:  1 eigenvalues not converged
     c_bands:  1 eigenvalues not converged
     c_bands:  1 eigenvalues not converged
     c_bands:  1 eigenvalues not converged
     c_bands:  1 eigenvalues not converged
     c_bands:  2 eigenvalues not converged
     c_bands:  1 eigenvalues not converged
     c_bands:  2 eigenvalues not converged
     c_bands:  1 eigenvalues not converged
     c_bands:  1 eigenvalues not converged
     c_bands:  1 eigenvalues not converged
     c_bands:  1 eigenvalues not converged
     c_bands:  1 eigenvalues not converged
     ethr =  6.71E-06,  avg # of iterations = 14.4

     negative rho (up, down):  0.000E+00 9.628E-04

     total cpu time spent up to now is     5817.0 secs

     total energy              =   -2126.13363063 Ry
     estimated scf accuracy    <       0.01261526 Ry

     total magnetization       =    19.00 Bohr mag/cell
     absolute magnetization    =    19.03 Bohr mag/cell

     iteration # 12     ecut=   100.00 Ry     beta= 0.40
     Davidson diagonalization with overlap
     c_bands:  1 eigenvalues not converged
     ethr =  6.67E-06,  avg # of iterations =  1.4

     negative rho (up, down):  0.000E+00 9.435E-04

     total cpu time spent up to now is     6191.3 secs

     total energy              =   -2126.13378066 Ry
     estimated scf accuracy    <       0.00513117 Ry

     total magnetization       =    19.00 Bohr mag/cell
     absolute magnetization    =    19.04 Bohr mag/cell

     iteration # 13     ecut=   100.00 Ry     beta= 0.40
     Davidson diagonalization with overlap
     c_bands:  1 eigenvalues not converged
     ethr =  2.71E-06,  avg # of iterations =  1.7

     negative rho (up, down):  0.000E+00 9.634E-04

     total cpu time spent up to now is     6583.6 secs

     total energy              =   -2126.13421563 Ry
     estimated scf accuracy    <       0.01024199 Ry

     total magnetization       =    19.00 Bohr mag/cell
     absolute magnetization    =    19.04 Bohr mag/cell

     iteration # 14     ecut=   100.00 Ry     beta= 0.40
     Davidson diagonalization with overlap
     ethr =  2.71E-06,  avg # of iterations =  1.0

     negative rho (up, down):  0.000E+00 9.537E-04

     total cpu time spent up to now is     6947.9 secs

     total energy              =   -2126.13430699 Ry
     estimated scf accuracy    <       0.00256168 Ry

     total magnetization       =    19.00 Bohr mag/cell
     absolute magnetization    =    19.04 Bohr mag/cell

     iteration # 15     ecut=   100.00 Ry     beta= 0.40
     Davidson diagonalization with overlap
     ethr =  1.36E-06,  avg # of iterations =  1.0

     negative rho (up, down):  0.000E+00 9.546E-04

     total cpu time spent up to now is     7313.6 secs

     total energy              =   -2126.13433095 Ry
     estimated scf accuracy    <       0.00088285 Ry

     total magnetization       =    19.00 Bohr mag/cell
     absolute magnetization    =    19.04 Bohr mag/cell

     iteration # 16     ecut=   100.00 Ry     beta= 0.40
     Davidson diagonalization with overlap
     ethr =  4.67E-07,  avg # of iterations =  1.9

     negative rho (up, down):  0.000E+00 9.489E-04

     total cpu time spent up to now is     7723.2 secs

     total energy              =   -2126.13439370 Ry
     estimated scf accuracy    <       0.00008347 Ry

     total magnetization       =    19.00 Bohr mag/cell
     absolute magnetization    =    19.04 Bohr mag/cell

     iteration # 17     ecut=   100.00 Ry     beta= 0.40
     Davidson diagonalization with overlap
     ethr =  4.42E-08,  avg # of iterations =  4.1

     negative rho (up, down):  0.000E+00 9.474E-04

     total cpu time spent up to now is     8413.0 secs

     total energy              =   -2126.13443378 Ry
     estimated scf accuracy    <       0.00033318 Ry

     total magnetization       =    19.00 Bohr mag/cell
     absolute magnetization    =    19.04 Bohr mag/cell

     iteration # 18     ecut=   100.00 Ry     beta= 0.40
     Davidson diagonalization with overlap
     ethr =  4.42E-08,  avg # of iterations =  1.0

     negative rho (up, down):  0.000E+00 9.469E-04

     total cpu time spent up to now is     8777.8 secs

     total energy              =   -2126.13443504 Ry
     estimated scf accuracy    <       0.00009029 Ry

     total magnetization       =    19.00 Bohr mag/cell
     absolute magnetization    =    19.04 Bohr mag/cell

     iteration # 19     ecut=   100.00 Ry     beta= 0.40
     Davidson diagonalization with overlap
     ethr =  4.42E-08,  avg # of iterations =  1.0

     negative rho (up, down):  0.000E+00 9.463E-04

     total cpu time spent up to now is     9142.8 secs

     total energy              =   -2126.13443695 Ry
     estimated scf accuracy    <       0.00004006 Ry

     total magnetization       =    19.00 Bohr mag/cell
     absolute magnetization    =    19.04 Bohr mag/cell

     iteration # 20     ecut=   100.00 Ry     beta= 0.40
     Davidson diagonalization with overlap
     ethr =  2.12E-08,  avg # of iterations =  1.0

     negative rho (up, down):  0.000E+00 9.449E-04

     total cpu time spent up to now is     9507.7 secs

     total energy              =   -2126.13443801 Ry
     estimated scf accuracy    <       0.00000408 Ry

     total magnetization       =    19.00 Bohr mag/cell
     absolute magnetization    =    19.04 Bohr mag/cell

     iteration # 21     ecut=   100.00 Ry     beta= 0.40
     Davidson diagonalization with overlap
     ethr =  2.16E-09,  avg # of iterations =  2.6

     negative rho (up, down):  0.000E+00 9.442E-04

     total cpu time spent up to now is     9951.5 secs

     total energy              =   -2126.13443858 Ry
     estimated scf accuracy    <       0.00000319 Ry

     total magnetization       =    19.00 Bohr mag/cell
     absolute magnetization    =    19.04 Bohr mag/cell

     iteration # 22     ecut=   100.00 Ry     beta= 0.40
     Davidson diagonalization with overlap
     ethr =  1.69E-09,  avg # of iterations =  1.8

     negative rho (up, down):  0.000E+00 9.443E-04

     total cpu time spent up to now is    10361.7 secs

     total energy              =   -2126.13443889 Ry
     estimated scf accuracy    <       0.00000163 Ry

     total magnetization       =    19.00 Bohr mag/cell
     absolute magnetization    =    19.04 Bohr mag/cell

     iteration # 23     ecut=   100.00 Ry     beta= 0.40
     Davidson diagonalization with overlap
     ethr =  8.64E-10,  avg # of iterations =  1.2

     negative rho (up, down):  0.000E+00 9.444E-04

     total cpu time spent up to now is    10737.3 secs

     total energy              =   -2126.13443894 Ry
     estimated scf accuracy    <       0.00000064 Ry

     total magnetization       =    19.00 Bohr mag/cell
     absolute magnetization    =    19.04 Bohr mag/cell

     iteration # 24     ecut=   100.00 Ry     beta= 0.40
     Davidson diagonalization with overlap
     ethr =  3.38E-10,  avg # of iterations =  2.4

     negative rho (up, down):  0.000E+00 9.447E-04

     total cpu time spent up to now is    11179.0 secs

     total energy              =   -2126.13443902 Ry
     estimated scf accuracy    <       0.00000013 Ry

     total magnetization       =    19.00 Bohr mag/cell
     absolute magnetization    =    19.04 Bohr mag/cell

     iteration # 25     ecut=   100.00 Ry     beta= 0.40
     Davidson diagonalization with overlap
     ethr =  6.87E-11,  avg # of iterations =  4.3

     negative rho (up, down):  0.000E+00 9.446E-04

     total cpu time spent up to now is    11778.3 secs

     total energy              =   -2126.13443906 Ry
     estimated scf accuracy    <       0.00000002 Ry

     total magnetization       =    19.00 Bohr mag/cell
     absolute magnetization    =    19.04 Bohr mag/cell

     iteration # 26     ecut=   100.00 Ry     beta= 0.40
     Davidson diagonalization with overlap
     ethr =  1.13E-11,  avg # of iterations =  2.1

     negative rho (up, down):  0.000E+00 9.447E-04

     total cpu time spent up to now is    12204.8 secs

     total energy              =   -2126.13443906 Ry
     estimated scf accuracy    <          4.5E-09 Ry

     total magnetization       =    19.00 Bohr mag/cell
     absolute magnetization    =    19.04 Bohr mag/cell

     iteration # 27     ecut=   100.00 Ry     beta= 0.40
     Davidson diagonalization with overlap
     ethr =  2.38E-12,  avg # of iterations =  3.3

     negative rho (up, down):  0.000E+00 9.446E-04

     total cpu time spent up to now is    12691.1 secs

     total energy              =   -2126.13443906 Ry
     estimated scf accuracy    <          3.7E-09 Ry

     total magnetization       =    19.00 Bohr mag/cell
     absolute magnetization    =    19.04 Bohr mag/cell

     iteration # 28     ecut=   100.00 Ry     beta= 0.40
     Davidson diagonalization with overlap
     ethr =  1.96E-12,  avg # of iterations =  1.5

     negative rho (up, down):  0.000E+00 9.446E-04

     total cpu time spent up to now is    13081.6 secs

     total energy              =   -2126.13443906 Ry
     estimated scf accuracy    <          2.0E-09 Ry

     total magnetization       =    19.00 Bohr mag/cell
     absolute magnetization    =    19.04 Bohr mag/cell

     iteration # 29     ecut=   100.00 Ry     beta= 0.40
     Davidson diagonalization with overlap
     ethr =  1.07E-12,  avg # of iterations =  1.1

     negative rho (up, down):  0.000E+00 9.446E-04

     total cpu time spent up to now is    13454.1 secs

     total energy              =   -2126.13443906 Ry
     estimated scf accuracy    <          2.3E-10 Ry

     total magnetization       =    19.00 Bohr mag/cell
     absolute magnetization    =    19.04 Bohr mag/cell

     iteration # 30     ecut=   100.00 Ry     beta= 0.40
     Davidson diagonalization with overlap
     ethr =  1.24E-13,  avg # of iterations =  3.9

     negative rho (up, down):  0.000E+00 9.446E-04

     total cpu time spent up to now is    14031.1 secs

     total energy              =   -2126.13443906 Ry
     estimated scf accuracy    <          7.8E-10 Ry

     total magnetization       =    19.00 Bohr mag/cell
     absolute magnetization    =    19.04 Bohr mag/cell

     iteration # 31     ecut=   100.00 Ry     beta= 0.40
     Davidson diagonalization with overlap
     ethr =  1.24E-13,  avg # of iterations =  2.0

     negative rho (up, down):  0.000E+00 9.446E-04

     Magnetic moment per site:
     atom:    1    charge:    7.9054    magn:    0.0006    constr:    0.0000
     atom:    2    charge:   12.7429    magn:    3.6145    constr:    0.0000
     atom:    3    charge:   12.7497    magn:    3.5975    constr:    0.0000
     atom:    4    charge:   12.7611    magn:    3.5710    constr:    0.0000
     atom:    5    charge:   12.7502    magn:    3.5983    constr:    0.0000
     atom:    6    charge:    0.7763    magn:    0.0105    constr:    0.0000
     atom:    7    charge:    0.7780    magn:    0.0081    constr:    0.0000
     atom:    8    charge:    0.7782    magn:    0.0107    constr:    0.0000
     atom:    9    charge:    0.7747    magn:    0.0083    constr:    0.0000
     atom:   10    charge:    4.1179    magn:    0.1336    constr:    0.0000
     atom:   11    charge:    4.1296    magn:    0.0860    constr:    0.0000
     atom:   12    charge:    4.1198    magn:    0.1296    constr:    0.0000
     atom:   13    charge:    4.1148    magn:    0.0940    constr:    0.0000
     atom:   14    charge:    4.1409    magn:    0.0963    constr:    0.0000
     atom:   15    charge:    4.1512    magn:    0.1259    constr:    0.0000
     atom:   16    charge:    4.1474    magn:    0.0838    constr:    0.0000
     atom:   17    charge:    4.1503    magn:    0.1320    constr:    0.0000
     atom:   18    charge:    4.0925    magn:    0.1507    constr:    0.0000
     atom:   19    charge:    4.0973    magn:    0.1301    constr:    0.0000
     atom:   20    charge:    4.0947    magn:    0.1389    constr:    0.0000
     atom:   21    charge:    4.1002    magn:    0.1186    constr:    0.0000
     atom:   22    charge:    4.0963    magn:    0.1509    constr:    0.0000
     atom:   23    charge:    4.0941    magn:    0.1336    constr:    0.0000
     atom:   24    charge:    4.0914    magn:    0.1458    constr:    0.0000
     atom:   25    charge:    4.0917    magn:    0.1223    constr:    0.0000

     total cpu time spent up to now is    14485.7 secs

     End of self-consistent calculation

 ------ SPIN UP ------------


          k = 0.0000 0.0000 0.0000 ( 35285 PWs)   bands (ev):

   -84.7226 -84.6871 -84.6810 -84.5644 -50.8717 -50.8405 -50.8300 -50.7645
   -50.6811 -50.6324 -50.6286 -50.6128 -50.5638 -50.5611 -50.5242 -50.4071
   -44.4468 -16.5387 -16.4482 -16.4280 -16.0979 -15.8758 -15.7441 -15.6386
   -13.7597 -13.5753 -13.4836 -13.4423 -13.3997 -13.3228 -13.1967 -13.1540
   -13.1094 -13.1060 -12.9572 -12.8858  -3.8935  -3.4361  -3.2204  -2.8321
    -2.1287  -1.8171  -1.5079  -1.4119  -1.2939  -1.1628  -1.0870  -0.9801
    -0.8012  -0.7779  -0.4776  -0.1669   0.0042   0.0107   0.5510   0.5803
     0.6673   0.7453   0.9390   0.9803   1.0402   1.1112   1.2106   1.2834
     1.3824   1.6779   1.7136   1.7856   1.8755   1.8993   1.9755   2.0595
     2.1285   2.3025   2.4678   2.5915   2.6073   2.6319   2.7166   2.8458
     2.8622   3.0242   3.1237   3.1677   3.2331   3.3842   3.5333   3.5670
     3.5936   3.7288   3.7658   3.8226   3.9822   4.0728   4.0938   4.2716
     4.3151   4.5095   4.5431   4.7223   4.8975   5.0612   5.2119   5.2947
     9.7425  11.7763  12.2034  12.6222  12.8197  13.2686  13.8618  13.9706
    14.1040  14.2315

     occupation numbers 
     1.0000   1.0000   1.0000   1.0000   1.0000   1.0000   1.0000   1.0000
     1.0000   1.0000   1.0000   1.0000   1.0000   1.0000   1.0000   1.0000
     1.0000   1.0000   1.0000   1.0000   1.0000   1.0000   1.0000   1.0000
     1.0000   1.0000   1.0000   1.0000   1.0000   1.0000   1.0000   1.0000
     1.0000   1.0000   1.0000   1.0000   1.0000   1.0000   1.0000   1.0000
     1.0000   1.0000   1.0000   1.0000   1.0000   1.0000   1.0000   1.0000
     1.0000   1.0000   1.0000   1.0000   1.0000   1.0000   1.0000   1.0000
     1.0000   1.0000   1.0000   1.0000   1.0000   1.0000   1.0000   1.0000
     1.0000   1.0000   1.0000   1.0000   1.0000   1.0000   1.0000   1.0000
     1.0000   1.0000   1.0000   1.0000   1.0000   1.0000   1.0000   1.0000
     1.0000   1.0000   1.0000   1.0000   1.0000   1.0000   1.0000   1.0000
     1.0000   1.0000   1.0000   1.0000   1.0000   1.0000   1.0000   1.0000
     1.0000   1.0000   1.0000   1.0000   1.0000   1.0000   1.0000   1.0000
     0.0000   0.0000   0.0000   0.0000   0.0000   0.0000   0.0000   0.0000
     0.0000   0.0000

          k = 0.0000 0.0000 0.2259 ( 35287 PWs)   bands (ev):

   -84.7226 -84.6871 -84.6810 -84.5644 -50.8717 -50.8405 -50.8300 -50.7645
   -50.6811 -50.6324 -50.6286 -50.6128 -50.5638 -50.5611 -50.5242 -50.4071
   -44.4468 -16.5409 -16.4480 -16.4347 -16.0739 -15.8703 -15.7381 -15.6401
   -13.7583 -13.5793 -13.4909 -13.4409 -13.4093 -13.3294 -13.2081 -13.1497
   -13.1205 -13.1024 -12.9626 -12.8905  -3.8684  -3.4279  -3.2203  -2.8462
    -2.0808  -1.7934  -1.5118  -1.4005  -1.2871  -1.1925  -1.0350  -0.9690
    -0.7932  -0.7403  -0.5240  -0.1409  -0.0303   0.0280   0.5499   0.5883
     0.6777   0.7803   0.9249   0.9970   1.0410   1.0705   1.1940   1.3310
     1.3691   1.6681   1.6914   1.7624   1.8364   1.8720   1.9401   1.9782
     2.2521   2.3178   2.4131   2.5397   2.5863   2.6342   2.6791   2.8504
     2.8964   2.9914   3.1112   3.2253   3.3132   3.3958   3.4676   3.5303
     3.5836   3.7394   3.7488   3.7970   3.9608   4.0742   4.1673   4.2758
     4.3416   4.5287   4.5581   4.7154   4.8976   5.0430   5.1862   5.2717
     9.8942  11.8442  12.2734  12.6074  12.8867  13.2390  13.7653  13.9540
    13.9946  14.1937

     occupation numbers 
     1.0000   1.0000   1.0000   1.0000   1.0000   1.0000   1.0000   1.0000
     1.0000   1.0000   1.0000   1.0000   1.0000   1.0000   1.0000   1.0000
     1.0000   1.0000   1.0000   1.0000   1.0000   1.0000   1.0000   1.0000
     1.0000   1.0000   1.0000   1.0000   1.0000   1.0000   1.0000   1.0000
     1.0000   1.0000   1.0000   1.0000   1.0000   1.0000   1.0000   1.0000
     1.0000   1.0000   1.0000   1.0000   1.0000   1.0000   1.0000   1.0000
     1.0000   1.0000   1.0000   1.0000   1.0000   1.0000   1.0000   1.0000
     1.0000   1.0000   1.0000   1.0000   1.0000   1.0000   1.0000   1.0000
     1.0000   1.0000   1.0000   1.0000   1.0000   1.0000   1.0000   1.0000
     1.0000   1.0000   1.0000   1.0000   1.0000   1.0000   1.0000   1.0000
     1.0000   1.0000   1.0000   1.0000   1.0000   1.0000   1.0000   1.0000
     1.0000   1.0000   1.0000   1.0000   1.0000   1.0000   1.0000   1.0000
     1.0000   1.0000   1.0000   1.0000   1.0000   1.0000   1.0000   1.0000
     0.0000   0.0000   0.0000   0.0000   0.0000   0.0000   0.0000   0.0000
     0.0000   0.0000

          k = 0.0000 0.0000 0.4519 ( 35272 PWs)   bands (ev):

   -84.7226 -84.6871 -84.6810 -84.5644 -50.8717 -50.8405 -50.8300 -50.7645
   -50.6811 -50.6324 -50.6286 -50.6128 -50.5638 -50.5611 -50.5242 -50.4071
   -44.4468 -16.5504 -16.4476 -16.4422 -16.0163 -15.8556 -15.7236 -15.6451
   -13.7537 -13.5944 -13.5100 -13.4409 -13.4300 -13.3408 -13.2422 -13.1522
   -13.1313 -13.0905 -12.9785 -12.9034  -3.7971  -3.4144  -3.2154  -2.8948
    -1.9510  -1.7334  -1.5173  -1.3902  -1.2623  -1.2092  -1.0175  -0.8488
    -0.7612  -0.6610  -0.6380  -0.1459  -0.0498   0.0886   0.5494   0.6231
     0.7015   0.8486   0.9344   1.0007   1.0276   1.0445   1.1390   1.3499
     1.4034   1.6154   1.6583   1.7178   1.7544   1.8162   1.8568   1.8964
     2.1705   2.2556   2.4437   2.5010   2.5316   2.5550   2.7401   2.8293
     2.9310   2.9637   3.1795   3.2409   3.2606   3.3998   3.4386   3.4696
     3.5960   3.6546   3.7745   3.8838   3.9863   4.0836   4.2741   4.2860
     4.4181   4.4991   4.6372   4.7168   4.8920   5.0022   5.1086   5.2021
    10.3024  12.0228  12.4471  12.6350  13.0102  13.2060  13.4839  13.7815
    13.8711  13.9973

     occupation numbers 
     1.0000   1.0000   1.0000   1.0000   1.0000   1.0000   1.0000   1.0000
     1.0000   1.0000   1.0000   1.0000   1.0000   1.0000   1.0000   1.0000
     1.0000   1.0000   1.0000   1.0000   1.0000   1.0000   1.0000   1.0000
     1.0000   1.0000   1.0000   1.0000   1.0000   1.0000   1.0000   1.0000
     1.0000   1.0000   1.0000   1.0000   1.0000   1.0000   1.0000   1.0000
     1.0000   1.0000   1.0000   1.0000   1.0000   1.0000   1.0000   1.0000
     1.0000   1.0000   1.0000   1.0000   1.0000   1.0000   1.0000   1.0000
     1.0000   1.0000   1.0000   1.0000   1.0000   1.0000   1.0000   1.0000
     1.0000   1.0000   1.0000   1.0000   1.0000   1.0000   1.0000   1.0000
     1.0000   1.0000   1.0000   1.0000   1.0000   1.0000   1.0000   1.0000
     1.0000   1.0000   1.0000   1.0000   1.0000   1.0000   1.0000   1.0000
     1.0000   1.0000   1.0000   1.0000   1.0000   1.0000   1.0000   1.0000
     1.0000   1.0000   1.0000   1.0000   1.0000   1.0000   1.0000   1.0000
     0.0000   0.0000   0.0000   0.0000   0.0000   0.0000   0.0000   0.0000
     0.0000   0.0000

          k = 0.0000 0.0000 0.6778 ( 35290 PWs)   bands (ev):

   -84.7226 -84.6871 -84.6810 -84.5644 -50.8717 -50.8405 -50.8300 -50.7645
   -50.6811 -50.6324 -50.6286 -50.6128 -50.5638 -50.5611 -50.5242 -50.4071
   -44.4468 -16.5658 -16.4475 -16.4397 -15.9525 -15.8357 -15.7114 -15.6520
   -13.7445 -13.6224 -13.5341 -13.4587 -13.4319 -13.3450 -13.2862 -13.1865
   -13.1049 -13.0742 -13.0031 -12.9205  -3.6920  -3.4206  -3.1977  -2.9759
    -1.8008  -1.6699  -1.5028  -1.3999  -1.2122  -1.1913  -1.0062  -0.8345
    -0.7091  -0.6535  -0.5526  -0.2976   0.0886   0.2175   0.5513   0.6859
     0.7457   0.8340   0.9463   0.9897   1.0078   1.0555   1.0963   1.3691
     1.4056   1.5125   1.5460   1.6331   1.7473   1.7745   1.8344   1.8601
     1.8923   2.1282   2.3465   2.4502   2.4678   2.7253   2.7433   2.8868
     2.9361   3.0089   3.0559   3.1186   3.2885   3.3081   3.4043   3.4552
     3.5925   3.6486   3.8857   4.0285   4.0682   4.1787   4.2775   4.3496
     4.4440   4.5399   4.6895   4.7491   4.8743   4.9528   4.9963   5.0884
    10.8683  12.2463  12.5286  12.7759  13.0142  13.1986  13.3780  13.5761
    13.6657  13.6920

     occupation numbers 
     1.0000   1.0000   1.0000   1.0000   1.0000   1.0000   1.0000   1.0000
     1.0000   1.0000   1.0000   1.0000   1.0000   1.0000   1.0000   1.0000
     1.0000   1.0000   1.0000   1.0000   1.0000   1.0000   1.0000   1.0000
     1.0000   1.0000   1.0000   1.0000   1.0000   1.0000   1.0000   1.0000
     1.0000   1.0000   1.0000   1.0000   1.0000   1.0000   1.0000   1.0000
     1.0000   1.0000   1.0000   1.0000   1.0000   1.0000   1.0000   1.0000
     1.0000   1.0000   1.0000   1.0000   1.0000   1.0000   1.0000   1.0000
     1.0000   1.0000   1.0000   1.0000   1.0000   1.0000   1.0000   1.0000
     1.0000   1.0000   1.0000   1.0000   1.0000   1.0000   1.0000   1.0000
     1.0000   1.0000   1.0000   1.0000   1.0000   1.0000   1.0000   1.0000
     1.0000   1.0000   1.0000   1.0000   1.0000   1.0000   1.0000   1.0000
     1.0000   1.0000   1.0000   1.0000   1.0000   1.0000   1.0000   1.0000
     1.0000   1.0000   1.0000   1.0000   1.0000   1.0000   1.0000   1.0000
     0.0000   0.0000   0.0000   0.0000   0.0000   0.0000   0.0000   0.0000
     0.0000   0.0000

          k = 0.0000 0.0000 0.9038 ( 35316 PWs)   bands (ev):

   -84.7226 -84.6871 -84.6810 -84.5644 -50.8717 -50.8405 -50.8300 -50.7645
   -50.6811 -50.6324 -50.6286 -50.6128 -50.5638 -50.5611 -50.5242 -50.4071
   -44.4468 -16.5769 -16.4471 -16.4351 -15.9112 -15.8161 -15.7129 -15.6547
   -13.7330 -13.6497 -13.5533 -13.4669 -13.4313 -13.3405 -13.3201 -13.2104
   -13.0734 -13.0614 -13.0330 -12.9338  -3.5799  -3.4653  -3.1649  -3.0581
    -1.7121  -1.6408  -1.4739  -1.4066  -1.1534  -1.1125  -1.0247  -0.9808
    -0.6237  -0.5573  -0.4795  -0.4498   0.2902   0.4289   0.5320   0.6817
     0.7593   0.7957   0.8841   0.9184   0.9439   1.0391   1.1751   1.3354
     1.4131   1.4543   1.4888   1.5353   1.6432   1.7277   1.8066   1.8483
     1.9382   2.1129   2.1894   2.3071   2.5034   2.6802   2.8718   2.9341
     2.9629   2.9813   3.0582   3.0625   3.1479   3.2462   3.4229   3.4451
     3.5907   3.6551   4.0107   4.0704   4.1054   4.2681   4.3701   4.3905
     4.4459   4.6717   4.6926   4.7642   4.7950   4.8907   4.9354   4.9821
    11.4939  12.0912  12.5502  12.8262  13.1377  13.1916  13.3245  13.4421
    13.6341  13.6562

     occupation numbers 
     1.0000   1.0000   1.0000   1.0000   1.0000   1.0000   1.0000   1.0000
     1.0000   1.0000   1.0000   1.0000   1.0000   1.0000   1.0000   1.0000
     1.0000   1.0000   1.0000   1.0000   1.0000   1.0000   1.0000   1.0000
     1.0000   1.0000   1.0000   1.0000   1.0000   1.0000   1.0000   1.0000
     1.0000   1.0000   1.0000   1.0000   1.0000   1.0000   1.0000   1.0000
     1.0000   1.0000   1.0000   1.0000   1.0000   1.0000   1.0000   1.0000
     1.0000   1.0000   1.0000   1.0000   1.0000   1.0000   1.0000   1.0000
     1.0000   1.0000   1.0000   1.0000   1.0000   1.0000   1.0000   1.0000
     1.0000   1.0000   1.0000   1.0000   1.0000   1.0000   1.0000   1.0000
     1.0000   1.0000   1.0000   1.0000   1.0000   1.0000   1.0000   1.0000
     1.0000   1.0000   1.0000   1.0000   1.0000   1.0000   1.0000   1.0000
     1.0000   1.0000   1.0000   1.0000   1.0000   1.0000   1.0000   1.0000
     1.0000   1.0000   1.0000   1.0000   1.0000   1.0000   1.0000   1.0000
     0.0000   0.0000   0.0000   0.0000   0.0000   0.0000   0.0000   0.0000
     0.0000   0.0000

          k = 0.0000 0.2311 0.0000 ( 35259 PWs)   bands (ev):

   -84.7226 -84.6871 -84.6810 -84.5644 -50.8717 -50.8405 -50.8300 -50.7645
   -50.6811 -50.6324 -50.6286 -50.6128 -50.5638 -50.5611 -50.5242 -50.4071
   -44.4468 -16.5404 -16.4484 -16.4280 -16.0778 -15.8729 -15.7425 -15.6593
   -13.7579 -13.5738 -13.4892 -13.4670 -13.3975 -13.3206 -13.2029 -13.1451
   -13.1196 -13.0755 -12.9596 -12.8919  -3.8702  -3.4566  -3.1956  -2.8395
    -2.1075  -1.8248  -1.5108  -1.4185  -1.2521  -1.1559  -1.0759  -0.9684
    -0.8126  -0.7245  -0.4406  -0.1440  -0.0792   0.0778   0.5585   0.5996
     0.6510   0.7250   0.8212   0.9077   0.9536   1.1535   1.2602   1.3313
     1.4790   1.6820   1.7255   1.7721   1.8263   1.8782   1.9069   1.9652
     2.1549   2.3148   2.4762   2.5226   2.6029   2.6647   2.7876   2.8127
     2.9404   2.9949   3.0490   3.0841   3.2383   3.3938   3.5176   3.5483
     3.6228   3.6614   3.7248   3.9094   4.0262   4.0703   4.1096   4.2832
     4.3175   4.5025   4.5743   4.6706   4.8756   4.9897   5.3040   5.3296
     9.8941  11.8631  12.2792  12.5585  12.8814  13.3493  13.8051  13.9621
    14.0272  14.2112

     occupation numbers 
     1.0000   1.0000   1.0000   1.0000   1.0000   1.0000   1.0000   1.0000
     1.0000   1.0000   1.0000   1.0000   1.0000   1.0000   1.0000   1.0000
     1.0000   1.0000   1.0000   1.0000   1.0000   1.0000   1.0000   1.0000
     1.0000   1.0000   1.0000   1.0000   1.0000   1.0000   1.0000   1.0000
     1.0000   1.0000   1.0000   1.0000   1.0000   1.0000   1.0000   1.0000
     1.0000   1.0000   1.0000   1.0000   1.0000   1.0000   1.0000   1.0000
     1.0000   1.0000   1.0000   1.0000   1.0000   1.0000   1.0000   1.0000
     1.0000   1.0000   1.0000   1.0000   1.0000   1.0000   1.0000   1.0000
     1.0000   1.0000   1.0000   1.0000   1.0000   1.0000   1.0000   1.0000
     1.0000   1.0000   1.0000   1.0000   1.0000   1.0000   1.0000   1.0000
     1.0000   1.0000   1.0000   1.0000   1.0000   1.0000   1.0000   1.0000
     1.0000   1.0000   1.0000   1.0000   1.0000   1.0000   1.0000   1.0000
     1.0000   1.0000   1.0000   1.0000   1.0000   1.0000   1.0000   1.0000
     0.0000   0.0000   0.0000   0.0000   0.0000   0.0000   0.0000   0.0000
     0.0000   0.0000

          k = 0.0000 0.2311 0.2259 ( 35237 PWs)   bands (ev):

   -84.7226 -84.6871 -84.6810 -84.5644 -50.8717 -50.8405 -50.8300 -50.7645
   -50.6811 -50.6324 -50.6286 -50.6128 -50.5638 -50.5611 -50.5242 -50.4071
   -44.4468 -16.5392 -16.4482 -16.4351 -16.0609 -15.8681 -15.7363 -15.6558
   -13.7557 -13.5771 -13.4929 -13.4678 -13.4075 -13.3295 -13.2158 -13.1474
   -13.1243 -13.0718 -12.9652 -12.8956  -3.8454  -3.4473  -3.1948  -2.8543
    -2.0617  -1.8010  -1.5090  -1.4093  -1.2449  -1.1767  -1.0280  -0.9608
    -0.7790  -0.7134  -0.4831  -0.1718  -0.0538   0.0836   0.5404   0.6093
     0.7032   0.7194   0.8124   0.9069   0.9449   1.1339   1.2797   1.3463
     1.4284   1.6920   1.7118   1.7282   1.8066   1.8477   1.8868   1.9219
     2.2901   2.3058   2.4185   2.5272   2.5746   2.6959   2.7214   2.7923
     2.9478   2.9865   3.0467   3.1567   3.2366   3.4125   3.4388   3.5537
     3.5773   3.6713   3.7538   3.8458   4.0116   4.0830   4.1758   4.2860
     4.3394   4.4978   4.6148   4.6484   4.8555   4.9993   5.2886   5.3140
    10.0410  11.9331  12.3472  12.5818  12.9096  13.3137  13.7361  13.8816
    14.0031  14.1524

     occupation numbers 
     1.0000   1.0000   1.0000   1.0000   1.0000   1.0000   1.0000   1.0000
     1.0000   1.0000   1.0000   1.0000   1.0000   1.0000   1.0000   1.0000
     1.0000   1.0000   1.0000   1.0000   1.0000   1.0000   1.0000   1.0000
     1.0000   1.0000   1.0000   1.0000   1.0000   1.0000   1.0000   1.0000
     1.0000   1.0000   1.0000   1.0000   1.0000   1.0000   1.0000   1.0000
     1.0000   1.0000   1.0000   1.0000   1.0000   1.0000   1.0000   1.0000
     1.0000   1.0000   1.0000   1.0000   1.0000   1.0000   1.0000   1.0000
     1.0000   1.0000   1.0000   1.0000   1.0000   1.0000   1.0000   1.0000
     1.0000   1.0000   1.0000   1.0000   1.0000   1.0000   1.0000   1.0000
     1.0000   1.0000   1.0000   1.0000   1.0000   1.0000   1.0000   1.0000
     1.0000   1.0000   1.0000   1.0000   1.0000   1.0000   1.0000   1.0000
     1.0000   1.0000   1.0000   1.0000   1.0000   1.0000   1.0000   1.0000
     1.0000   1.0000   1.0000   1.0000   1.0000   1.0000   1.0000   1.0000
     0.0000   0.0000   0.0000   0.0000   0.0000   0.0000   0.0000   0.0000
     0.0000   0.0000

          k = 0.0000 0.2311 0.4519 ( 35268 PWs)   bands (ev):

   -84.7226 -84.6871 -84.6810 -84.5644 -50.8717 -50.8405 -50.8300 -50.7645
   -50.6811 -50.6324 -50.6286 -50.6128 -50.5638 -50.5611 -50.5242 -50.4071
   -44.4468 -16.5459 -16.4477 -16.4432 -16.0090 -15.8560 -15.7204 -15.6551
   -13.7505 -13.5905 -13.5094 -13.4644 -13.4301 -13.3471 -13.2534 -13.1685
   -13.1157 -13.0626 -12.9792 -12.9057  -3.7752  -3.4293  -3.1918  -2.9023
    -1.9378  -1.7393  -1.5049  -1.3964  -1.2230  -1.1868  -1.0045  -0.8521
    -0.7209  -0.6682  -0.5943  -0.2372   0.0073   0.1104   0.5278   0.6283
     0.6971   0.7420   0.8786   0.9247   0.9615   1.0921   1.2846   1.3501
     1.3899   1.6341   1.6675   1.7108   1.7406   1.7767   1.8436   1.8951
     2.1895   2.2852   2.4455   2.5044   2.5557   2.5747   2.7438   2.8081
     2.8606   3.0066   3.1388   3.1759   3.2538   3.3123   3.4320   3.4778
     3.5561   3.6806   3.7963   3.8500   4.0211   4.1010   4.2704   4.2982
     4.3976   4.4867   4.6059   4.6978   4.8209   5.0052   5.2376   5.2679
    10.4380  12.1126  12.5295  12.6571  13.0002  13.2664  13.4908  13.7787
    13.8041  14.0521

     occupation numbers 
     1.0000   1.0000   1.0000   1.0000   1.0000   1.0000   1.0000   1.0000
     1.0000   1.0000   1.0000   1.0000   1.0000   1.0000   1.0000   1.0000
     1.0000   1.0000   1.0000   1.0000   1.0000   1.0000   1.0000   1.0000
     1.0000   1.0000   1.0000   1.0000   1.0000   1.0000   1.0000   1.0000
     1.0000   1.0000   1.0000   1.0000   1.0000   1.0000   1.0000   1.0000
     1.0000   1.0000   1.0000   1.0000   1.0000   1.0000   1.0000   1.0000
     1.0000   1.0000   1.0000   1.0000   1.0000   1.0000   1.0000   1.0000
     1.0000   1.0000   1.0000   1.0000   1.0000   1.0000   1.0000   1.0000
     1.0000   1.0000   1.0000   1.0000   1.0000   1.0000   1.0000   1.0000
     1.0000   1.0000   1.0000   1.0000   1.0000   1.0000   1.0000   1.0000
     1.0000   1.0000   1.0000   1.0000   1.0000   1.0000   1.0000   1.0000
     1.0000   1.0000   1.0000   1.0000   1.0000   1.0000   1.0000   1.0000
     1.0000   1.0000   1.0000   1.0000   1.0000   1.0000   1.0000   1.0000
     0.0000   0.0000   0.0000   0.0000   0.0000   0.0000   0.0000   0.0000
     0.0000   0.0000

          k = 0.0000 0.2311 0.6778 ( 35293 PWs)   bands (ev):

   -84.7226 -84.6871 -84.6810 -84.5644 -50.8717 -50.8405 -50.8300 -50.7645
   -50.6811 -50.6324 -50.6286 -50.6128 -50.5638 -50.5611 -50.5242 -50.4071
   -44.4468 -16.5610 -16.4476 -16.4406 -15.9461 -15.8424 -15.7034 -15.6592
   -13.7413 -13.6173 -13.5319 -13.4616 -13.4492 -13.3571 -13.3008 -13.2018
   -13.0918 -13.0500 -13.0000 -12.9193  -3.6727  -3.4270  -3.1798  -2.9813
    -1.7925  -1.6706  -1.4870  -1.3991  -1.1867  -1.1532  -0.9940  -0.8175
    -0.6683  -0.6505  -0.5570  -0.3454   0.1171   0.1906   0.5107   0.6362
     0.6672   0.7949   0.8782   0.9966   1.0266   1.0984   1.2296   1.2996
     1.4314   1.5222   1.5862   1.6217   1.7213   1.7827   1.8036   1.8674
     1.9448   2.1344   2.3459   2.4499   2.4988   2.7122   2.7404   2.8452
     2.8648   2.9930   3.0760   3.1777   3.2112   3.2850   3.3513   3.4752
     3.5521   3.6474   3.9121   3.9890   4.0609   4.1513   4.2895   4.3315
     4.4378   4.5131   4.5700   4.7023   4.8604   5.0061   5.1554   5.1985
    10.9925  12.3402  12.6339  12.8071  13.0800  13.2187  13.3784  13.5545
    13.6345  13.7076

     occupation numbers 
     1.0000   1.0000   1.0000   1.0000   1.0000   1.0000   1.0000   1.0000
     1.0000   1.0000   1.0000   1.0000   1.0000   1.0000   1.0000   1.0000
     1.0000   1.0000   1.0000   1.0000   1.0000   1.0000   1.0000   1.0000
     1.0000   1.0000   1.0000   1.0000   1.0000   1.0000   1.0000   1.0000
     1.0000   1.0000   1.0000   1.0000   1.0000   1.0000   1.0000   1.0000
     1.0000   1.0000   1.0000   1.0000   1.0000   1.0000   1.0000   1.0000
     1.0000   1.0000   1.0000   1.0000   1.0000   1.0000   1.0000   1.0000
     1.0000   1.0000   1.0000   1.0000   1.0000   1.0000   1.0000   1.0000
     1.0000   1.0000   1.0000   1.0000   1.0000   1.0000   1.0000   1.0000
     1.0000   1.0000   1.0000   1.0000   1.0000   1.0000   1.0000   1.0000
     1.0000   1.0000   1.0000   1.0000   1.0000   1.0000   1.0000   1.0000
     1.0000   1.0000   1.0000   1.0000   1.0000   1.0000   1.0000   1.0000
     1.0000   1.0000   1.0000   1.0000   1.0000   1.0000   1.0000   1.0000
     0.0000   0.0000   0.0000   0.0000   0.0000   0.0000   0.0000   0.0000
     0.0000   0.0000

          k = 0.0000 0.2311 0.9038 ( 35298 PWs)   bands (ev):

   -84.7226 -84.6871 -84.6810 -84.5644 -50.8717 -50.8405 -50.8300 -50.7645
   -50.6811 -50.6324 -50.6286 -50.6128 -50.5638 -50.5611 -50.5242 -50.4071
   -44.4468 -16.5734 -16.4471 -16.4355 -15.9017 -15.8251 -15.7038 -15.6624
   -13.7296 -13.6448 -13.5495 -13.4679 -13.4487 -13.3583 -13.3341 -13.2259
   -13.0638 -13.0419 -13.0229 -12.9299  -3.5659  -3.4602  -3.1565  -3.0583
    -1.7041  -1.6320  -1.4654  -1.4003  -1.1355  -1.0721  -1.0109  -0.9467
    -0.6120  -0.5748  -0.4915  -0.4364   0.2602   0.3476   0.4510   0.5163
     0.7385   0.8160   0.9092   0.9984   1.0850   1.1021   1.1926   1.2677
     1.4117   1.4356   1.5392   1.5814   1.6404   1.7449   1.7802   1.8071
     1.9447   2.0674   2.2123   2.3280   2.5208   2.6772   2.8172   2.8557
     2.9381   2.9911   3.0215   3.1198   3.1495   3.2610   3.3417   3.4795
     3.5561   3.6313   4.0157   4.0582   4.1200   4.2585   4.2937   4.3544
     4.4048   4.4999   4.6068   4.6944   4.9212   4.9924   5.0699   5.1384
    11.6107  12.1981  12.6349  12.9231  13.1976  13.2236  13.3266  13.4456
    13.5737  13.6590

     occupation numbers 
     1.0000   1.0000   1.0000   1.0000   1.0000   1.0000   1.0000   1.0000
     1.0000   1.0000   1.0000   1.0000   1.0000   1.0000   1.0000   1.0000
     1.0000   1.0000   1.0000   1.0000   1.0000   1.0000   1.0000   1.0000
     1.0000   1.0000   1.0000   1.0000   1.0000   1.0000   1.0000   1.0000
     1.0000   1.0000   1.0000   1.0000   1.0000   1.0000   1.0000   1.0000
     1.0000   1.0000   1.0000   1.0000   1.0000   1.0000   1.0000   1.0000
     1.0000   1.0000   1.0000   1.0000   1.0000   1.0000   1.0000   1.0000
     1.0000   1.0000   1.0000   1.0000   1.0000   1.0000   1.0000   1.0000
     1.0000   1.0000   1.0000   1.0000   1.0000   1.0000   1.0000   1.0000
     1.0000   1.0000   1.0000   1.0000   1.0000   1.0000   1.0000   1.0000
     1.0000   1.0000   1.0000   1.0000   1.0000   1.0000   1.0000   1.0000
     1.0000   1.0000   1.0000   1.0000   1.0000   1.0000   1.0000   1.0000
     1.0000   1.0000   1.0000   1.0000   1.0000   1.0000   1.0000   1.0000
     0.0000   0.0000   0.0000   0.0000   0.0000   0.0000   0.0000   0.0000
     0.0000   0.0000

          k = 0.0000 0.4622 0.0000 ( 35247 PWs)   bands (ev):

   -84.7226 -84.6871 -84.6810 -84.5644 -50.8717 -50.8405 -50.8300 -50.7645
   -50.6811 -50.6324 -50.6286 -50.6128 -50.5638 -50.5611 -50.5242 -50.4071
   -44.4468 -16.5441 -16.4488 -16.4279 -16.0230 -15.8671 -15.7416 -15.7121
   -13.7495 -13.5795 -13.5406 -13.4694 -13.3916 -13.3101 -13.2251 -13.1492
   -13.0975 -13.0299 -12.9729 -12.9039  -3.8063  -3.5144  -3.1286  -2.8696
    -2.0518  -1.8469  -1.5141  -1.4317  -1.1849  -1.1228  -1.0404  -0.9049
    -0.8365  -0.6012  -0.3860  -0.2285  -0.0434   0.1773   0.5163   0.5748
     0.6203   0.6883   0.7189   0.8214   0.8698   1.1532   1.2896   1.4455
     1.5228   1.5455   1.6158   1.6974   1.7715   1.8346   1.9446   2.0115
     2.2310   2.2961   2.4513   2.4966   2.6058   2.6308   2.7028   2.7736
     2.9331   3.0180   3.0397   3.1200   3.2295   3.3560   3.4362   3.4599
     3.5590   3.5976   3.9100   3.9596   4.0375   4.1085   4.1385   4.3027
     4.3306   4.4432   4.5125   4.6217   4.7854   5.1295   5.3519   5.3793
    10.3092  12.0830  12.1905  12.4913  13.0545  13.5333  13.6531  13.8313
    14.1230  14.2234

     occupation numbers 
     1.0000   1.0000   1.0000   1.0000   1.0000   1.0000   1.0000   1.0000
     1.0000   1.0000   1.0000   1.0000   1.0000   1.0000   1.0000   1.0000
     1.0000   1.0000   1.0000   1.0000   1.0000   1.0000   1.0000   1.0000
     1.0000   1.0000   1.0000   1.0000   1.0000   1.0000   1.0000   1.0000
     1.0000   1.0000   1.0000   1.0000   1.0000   1.0000   1.0000   1.0000
     1.0000   1.0000   1.0000   1.0000   1.0000   1.0000   1.0000   1.0000
     1.0000   1.0000   1.0000   1.0000   1.0000   1.0000   1.0000   1.0000
     1.0000   1.0000   1.0000   1.0000   1.0000   1.0000   1.0000   1.0000
     1.0000   1.0000   1.0000   1.0000   1.0000   1.0000   1.0000   1.0000
     1.0000   1.0000   1.0000   1.0000   1.0000   1.0000   1.0000   1.0000
     1.0000   1.0000   1.0000   1.0000   1.0000   1.0000   1.0000   1.0000
[...]
     atom   24 type  3   force =     0.00858886   -0.00408200   -0.00269615
     atom   25 type  3   force =    -0.00735061    0.00406681   -0.00236394
     The non-local contrib.  to forces
     atom    1 type  2   force =     0.03190433   -0.02029343    0.01355280
     atom    2 type  1   force =     0.07967184   -0.04518683    0.11985920
     atom    3 type  1   force =     0.06481248    0.00450957    0.09571657
     atom    4 type  1   force =    -0.12772236    0.06792586   -0.10936411
     atom    5 type  1   force =    -0.06442999   -0.02070658   -0.08661824
     atom    6 type  4   force =     0.03545152    0.00043726   -0.01208637
     atom    7 type  4   force =    -0.02213368    0.00656406    0.01011986
     atom    8 type  4   force =    -0.04548640   -0.01065180    0.01082691
     atom    9 type  4   force =     0.04911796    0.00093917    0.00388252
     atom   10 type  3   force =     0.32282655    0.02540350   -1.45999732
     atom   11 type  3   force =    -0.15396803    0.02247620   -1.40434013
     atom   12 type  3   force =    -0.38239755   -0.01616424    1.46519613
     atom   13 type  3   force =     0.26057343   -0.00132612    1.45277210
     atom   14 type  3   force =     1.19361222    0.03139205   -0.66198709
     atom   15 type  3   force =    -1.16048475   -0.02109017   -0.75735288
     atom   16 type  3   force =    -1.18500390    0.04707558    0.42777335
     atom   17 type  3   force =     1.14867273    0.00966455    0.66126850
     atom   18 type  3   force =    -0.50493675   -1.12334668    0.76773261
     atom   19 type  3   force =     0.55996110    1.14539547    0.83500800
     atom   20 type  3   force =     0.56925835   -1.15827575   -0.73108159
     atom   21 type  3   force =    -0.65630795    1.07774908   -0.62537799
     atom   22 type  3   force =     0.50197982    1.11640890   -0.69765726
     atom   23 type  3   force =    -0.52443373   -1.11457424   -0.78032301
     atom   24 type  3   force =    -0.51942858    1.14323682    0.75690936
     atom   25 type  3   force =     0.52121825   -1.19008726    0.74479141
     The ionic contribution  to forces
     atom    1 type  2   force =    -1.36757243   -0.27046689    0.39901515
     atom    2 type  1   force =    -1.44343744    0.68531480   -0.62857007
     atom    3 type  1   force =    -8.30847626   -1.31861700   -0.75302504
     atom    4 type  1   force =     3.25269010   -1.30025778    0.57675585
     atom    5 type  1   force =     8.17827408    1.74578528    1.09128804
     atom    6 type  4   force =    -2.90291510    0.06750297    0.59274175
     atom    7 type  4   force =     0.09158996   -1.24897063    1.01693415
     atom    8 type  4   force =     3.81921805   -0.03339634   -0.68864419
     atom    9 type  4   force =    -1.34555384    1.40000444   -1.13098800
     atom   10 type  3   force =   -10.61277134   -0.08374500    2.34850336
     atom   11 type  3   force =     4.81196111   -2.18109347    0.92692061
     atom   12 type  3   force =    11.73137164    0.13243165   -2.44914391
     atom   13 type  3   force =    -7.48556989    1.97101479   -1.76823192
     atom   14 type  3   force =     0.26807681    1.78470141    5.38956092
     atom   15 type  3   force =    -2.38665644    0.14478102    7.22020762
     atom   16 type  3   force =    -1.20319318   -2.59666309   -3.14690720
     atom   17 type  3   force =     3.45953439   -0.14042923   -6.57179821
     atom   18 type  3   force =    -3.96340303    2.91457160   -2.90936313
     atom   19 type  3   force =     0.93715811   -3.35638272   -3.03484090
     atom   20 type  3   force =     5.02825603    3.78497418    2.74693093
     atom   21 type  3   force =     1.63497399   -1.76365641    0.01940301
     atom   22 type  3   force =     4.62912280   -3.69213297    2.34586971
     atom   23 type  3   force =    -1.67254360    2.42608234    2.63679764
     atom   24 type  3   force =    -4.42482258   -3.09551624   -2.87220607
     atom   25 type  3   force =    -0.72531194    4.02416328   -1.35721010
     The local contribution  to forces
     atom    1 type  2   force =     1.33235131    0.30555584   -0.40520850
     atom    2 type  1   force =     1.35607635   -0.64069330    0.51101723
     atom    3 type  1   force =     8.25988055    1.31229036    0.65432584
     atom    4 type  1   force =    -3.12209248    1.23259648   -0.46930573
     atom    5 type  1   force =    -8.13129199   -1.72398994   -1.00220491
     atom    6 type  4   force =     2.94040823   -0.06803292   -0.56809547
     atom    7 type  4   force =    -0.13036487    1.24152717   -1.01308496
     atom    8 type  4   force =    -3.84760884    0.04052286    0.66066581
     atom    9 type  4   force =     1.36351471   -1.39918790    1.11053138
     atom   10 type  3   force =    10.28354986    0.05728880   -0.90575821
     atom   11 type  3   force =    -4.65435423    2.15743827    0.46297629
     atom   12 type  3   force =   -11.34179679   -0.11685566    1.00235857
     atom   13 type  3   force =     7.21906696   -1.97031721    0.32925837
     atom   14 type  3   force =    -1.52656168   -1.81908718   -4.71410170
     atom   15 type  3   force =     3.61002475   -0.12294881   -6.44667439
     atom   16 type  3   force =     2.45231247    2.54932295    2.70674405
     atom   17 type  3   force =    -4.66797853    0.12997712    5.89592262
     atom   18 type  3   force =     4.47256740   -1.79750532    2.14663254
     atom   19 type  3   force =    -1.50014233    2.21525809    2.20545385
     atom   20 type  3   force =    -5.60249371   -2.63127289   -2.02082213
     atom   21 type  3   force =    -0.97261403    0.69123725    0.60004408
     atom   22 type  3   force =    -5.13411111    2.57941849   -1.65372684
     atom   23 type  3   force =     2.19951550   -1.31763377   -1.86163976
     atom   24 type  3   force =     4.94847823    1.95800959    2.11936416
     atom   25 type  3   force =     0.20106834   -2.84031007    0.61676085
     The core correction contribution to forces
     atom    1 type  2   force =     0.00000000    0.00000000    0.00000000
     atom    2 type  1   force =    -0.00094939    0.00043693   -0.00027152
     atom    3 type  1   force =    -0.00025472   -0.00015429    0.00080960
     atom    4 type  1   force =     0.00202380   -0.00070389    0.00000017
     atom    5 type  1   force =     0.00044734    0.00028457   -0.00068222
     atom    6 type  4   force =    -0.00389417   -0.00000805    0.00011888
     atom    7 type  4   force =     0.00339142   -0.00016659   -0.00172289
     atom    8 type  4   force =     0.00432432    0.00069548    0.00012109
     atom    9 type  4   force =    -0.00485189   -0.00073788    0.00104885
     atom   10 type  3   force =    -0.00336466   -0.00022319    0.01272042
     atom   11 type  3   force =     0.00195936   -0.00016885    0.01212381
     atom   12 type  3   force =     0.00388392    0.00016378   -0.01274836
     atom   13 type  3   force =    -0.00283239    0.00001181   -0.01260385
     atom   14 type  3   force =    -0.00895552   -0.00028912    0.00596681
     atom   15 type  3   force =     0.00876025    0.00017947    0.00669710
     atom   16 type  3   force =     0.00884691   -0.00036144   -0.00391944
     atom   17 type  3   force =    -0.00870980   -0.00007319   -0.00588686
     atom   18 type  3   force =     0.00421952    0.00961241   -0.00690110
     atom   19 type  3   force =    -0.00469070   -0.00973115   -0.00754183
     atom   20 type  3   force =    -0.00482349    0.00992015    0.00653203
     atom   21 type  3   force =     0.00553610   -0.00927011    0.00566150
     atom   22 type  3   force =    -0.00421862   -0.00954212    0.00623227
     atom   23 type  3   force =     0.00438217    0.00954287    0.00705958
     atom   24 type  3   force =     0.00436429   -0.00980852   -0.00676602
     atom   25 type  3   force =    -0.00432452    0.01030420   -0.00670357
     The Hubbard contrib.    to forces
     atom    1 type  2   force =     0.00000000    0.00000000    0.00000000
     atom    2 type  1   force =     0.00000000    0.00000000    0.00000000
     atom    3 type  1   force =     0.00000000    0.00000000    0.00000000
     atom    4 type  1   force =     0.00000000    0.00000000    0.00000000
     atom    5 type  1   force =     0.00000000    0.00000000    0.00000000
     atom    6 type  4   force =     0.00000000    0.00000000    0.00000000
     atom    7 type  4   force =     0.00000000    0.00000000    0.00000000
     atom    8 type  4   force =     0.00000000    0.00000000    0.00000000
     atom    9 type  4   force =     0.00000000    0.00000000    0.00000000
     atom   10 type  3   force =     0.00000000    0.00000000    0.00000000
     atom   11 type  3   force =     0.00000000    0.00000000    0.00000000
     atom   12 type  3   force =     0.00000000    0.00000000    0.00000000
     atom   13 type  3   force =     0.00000000    0.00000000    0.00000000
     atom   14 type  3   force =     0.00000000    0.00000000    0.00000000
     atom   15 type  3   force =     0.00000000    0.00000000    0.00000000
     atom   16 type  3   force =     0.00000000    0.00000000    0.00000000
     atom   17 type  3   force =     0.00000000    0.00000000    0.00000000
     atom   18 type  3   force =     0.00000000    0.00000000    0.00000000
     atom   19 type  3   force =     0.00000000    0.00000000    0.00000000
     atom   20 type  3   force =     0.00000000    0.00000000    0.00000000
     atom   21 type  3   force =     0.00000000    0.00000000    0.00000000
     atom   22 type  3   force =     0.00000000    0.00000000    0.00000000
     atom   23 type  3   force =     0.00000000    0.00000000    0.00000000
     atom   24 type  3   force =     0.00000000    0.00000000    0.00000000
     atom   25 type  3   force =     0.00000000    0.00000000    0.00000000
     The SCF correction term to forces
     atom    1 type  2   force =     0.00000303    0.00000060    0.00000014
     atom    2 type  1   force =    -0.00000126   -0.00000010   -0.00000165
     atom    3 type  1   force =    -0.00000211   -0.00000002    0.00000081
     atom    4 type  1   force =     0.00000110   -0.00000037    0.00000058
     atom    5 type  1   force =     0.00000139   -0.00000009    0.00000014
     atom    6 type  4   force =    -0.00000326    0.00000004    0.00000076
     atom    7 type  4   force =     0.00000016    0.00000013   -0.00000015
     atom    8 type  4   force =    -0.00000091   -0.00000008   -0.00000010
     atom    9 type  4   force =     0.00000375   -0.00000003    0.00000053
     atom   10 type  3   force =    -0.00000488    0.00000000   -0.00000221
     atom   11 type  3   force =    -0.00000206    0.00000002    0.00000224
     atom   12 type  3   force =    -0.00000019   -0.00000012    0.00000010
     atom   13 type  3   force =     0.00000702    0.00000017   -0.00000360
     atom   14 type  3   force =     0.00000478   -0.00000013    0.00000165
     atom   15 type  3   force =     0.00000199   -0.00000009   -0.00000093
     atom   16 type  3   force =     0.00000145    0.00000006   -0.00000060
     atom   17 type  3   force =    -0.00000789    0.00000018    0.00000201
     atom   18 type  3   force =    -0.00000244    0.00000390    0.00000252
     atom   19 type  3   force =    -0.00000059    0.00000375   -0.00000248
     atom   20 type  3   force =    -0.00000084    0.00000552   -0.00000184
     atom   21 type  3   force =     0.00000370    0.00000340    0.00000300
     atom   22 type  3   force =    -0.00000089   -0.00000587   -0.00000208
     atom   23 type  3   force =     0.00000378   -0.00000331    0.00000308
     atom   24 type  3   force =    -0.00000241   -0.00000377    0.00000254
     atom   25 type  3   force =    -0.00000063   -0.00000346   -0.00000241

     Total force =     0.204824     Total SCF correction =     0.000022


     Computing stress (Cartesian axis) and pressure


     negative rho (up, down):  0.000E+00 9.446E-04
          total   stress  (Ry/bohr**3)                   (kbar)     P=       37.50
   0.00060316   0.00002137  -0.00003548           88.73        3.14       -5.22
   0.00002137   0.00001802  -0.00002394            3.14        2.65       -3.52
  -0.00003548  -0.00002394   0.00014359           -5.22       -3.52       21.12

     kinetic stress (kbar)  27506.51    -14.42     -3.19
                              -14.42  27645.28     -3.24
                               -3.19     -3.24  27441.33

     local   stress (kbar)  -5712.67  -2524.51   1030.62
                            -2524.51 -13450.07    908.14
                             1030.62    908.14  -7332.91

     nonloc. stress (kbar)  -7022.38     -1.07      2.72
                               -1.07  -6948.61      1.46
                                2.72      1.46  -6966.48

     hartree stress (kbar)  13398.32   1022.25   -400.03
                             1022.25  17969.32   -366.30
                             -400.03   -366.30  14819.82

     exc-cor stress (kbar)  -2905.17      1.36     -0.74
                                1.36  -2913.47     -0.40
                               -0.74     -0.40  -2910.78

     corecor stress (kbar)  -3225.02     -0.51      0.47
                               -0.51  -3223.01     -0.00
                                0.47     -0.00  -3224.12

     ewald   stress (kbar) -21950.85   1520.04   -635.07
                             1520.04 -19076.80   -543.17
                             -635.07   -543.17 -21805.76

     hubbard stress (kbar)      0.00      0.00      0.00
                                0.00      0.00      0.00
                                0.00      0.00      0.00

     DFT-D   stress (kbar)      0.00      0.00      0.00
                                0.00      0.00      0.00
                                0.00      0.00      0.00

     XDM     stress (kbar)      0.00      0.00      0.00
                                0.00      0.00      0.00
                                0.00      0.00      0.00

     dft-nl  stress (kbar)      0.00      0.00      0.00
                                0.00      0.00      0.00
                                0.00      0.00      0.00

     TS-vdW  stress (kbar)      0.00      0.00      0.00
                                0.00      0.00      0.00
                                0.00      0.00      0.00



     init_run     :    174.24s CPU    178.25s WALL (       1 calls)
     electrons    :  14122.45s CPU  14306.29s WALL (       1 calls)
     forces       :    108.29s CPU    110.26s WALL (       1 calls)
     stress       :    758.54s CPU    815.83s WALL (       1 calls)

     Called by init_run:
     wfcinit      :    165.81s CPU    168.75s WALL (       1 calls)
     wfcinit:atom :      2.87s CPU      2.93s WALL (     316 calls)
     wfcinit:wfcr :    154.55s CPU    157.30s WALL (     316 calls)
     potinit      :      2.88s CPU      3.06s WALL (       1 calls)
     hinit0       :      3.15s CPU      3.54s WALL (       1 calls)

     Called by electrons:
     c_bands      :  12579.03s CPU  12709.51s WALL (      31 calls)
     sum_band     :   1464.39s CPU   1500.47s WALL (      31 calls)
     v_of_rho     :     20.07s CPU     21.11s WALL (      32 calls)
     v_h          :      0.81s CPU      0.89s WALL (      32 calls)
     v_xc         :     20.52s CPU     21.52s WALL (      34 calls)
     newd         :     40.76s CPU     56.90s WALL (      32 calls)
     PAW_pot      :     13.44s CPU     13.68s WALL (      32 calls)
     mix_rho      :      4.86s CPU      5.10s WALL (      31 calls)

     Called by c_bands:
     init_us_2    :    219.81s CPU    224.40s WALL (   20540 calls)
     cegterg      :  12214.39s CPU  12338.40s WALL (    9796 calls)

     Called by sum_band:
     sum_band:wei :      0.49s CPU      0.49s WALL (      31 calls)
     sum_band:loo :   1352.13s CPU   1368.80s WALL (      31 calls)
     sum_band:buf :     55.08s CPU     56.18s WALL (    9796 calls)
     sum_band:ini :    105.92s CPU    107.88s WALL (    9796 calls)
     sum_band:cal :    627.68s CPU    634.94s WALL (    9796 calls)
     sum_band:bec :      5.84s CPU      5.95s WALL (    9796 calls)
     addusdens    :    107.16s CPU    126.40s WALL (      31 calls)
     addusd:skk   :      0.62s CPU      0.66s WALL (      93 calls)
     addusd:dgemm :     48.17s CPU     64.13s WALL (     186 calls)
     addusd:qvan2 :     57.15s CPU     57.69s WALL (     186 calls)

     Called by *egterg:
     cdiaghg      :    832.48s CPU    852.58s WALL (   37374 calls)
     cegterg:over :   1239.26s CPU   1259.27s WALL (   27578 calls)
     cegterg:upda :    707.63s CPU    711.61s WALL (   27578 calls)
     cegterg:last :   1344.65s CPU   1351.73s WALL (   16090 calls)
     h_psi        :   5890.63s CPU   5947.48s WALL (   37690 calls)
     s_psi        :   1517.99s CPU   1525.85s WALL (   37690 calls)
     g_psi        :     14.71s CPU     14.91s WALL (   27578 calls)

     Called by h_psi:
     h_psi:calbec :   1611.47s CPU   1629.99s WALL (   37690 calls)
     vloc_psi     :   2539.50s CPU   2566.22s WALL (   37690 calls)
     add_vuspsi   :   1617.40s CPU   1626.09s WALL (   37690 calls)

     General routines
     calbec       :   2403.52s CPU   2434.18s WALL (   49066 calls)
     fft          :     17.77s CPU     19.32s WALL (     838 calls)
     ffts         :      0.23s CPU      0.29s WALL (     126 calls)
     fftw         :   2885.04s CPU   2915.37s WALL ( 6141506 calls)
     interpolate  :      1.28s CPU      1.42s WALL (      64 calls)

     Parallel routines
     fft_scatt_xy :    258.89s CPU    261.54s WALL ( 6142470 calls)
     fft_scatt_yz :    892.84s CPU    904.80s WALL ( 6142470 calls)

     PAW routines
     PAW_pot      :     13.44s CPU     13.68s WALL (      32 calls)

     PWSCF        :      4h12m CPU      4h16m WALL


   This run was terminated on:   5:35:32  19Dec2022            

=------------------------------------------------------------------------------=
   JOB DONE.
=------------------------------------------------------------------------------=
Note: The following floating-point exceptions are signalling: IEEE_DENORMAL
Note: The following floating-point exceptions are signalling: IEEE_DENORMAL
Note: The following floating-point exceptions are signalling: IEEE_DENORMAL
Note: The following floating-point exceptions are signalling: IEEE_UNDERFLOW_FLAG IEEE_DENORMAL
Note: The following floating-point exceptions are signalling: IEEE_DENORMAL
Note: The following floating-point exceptions are signalling: IEEE_DENORMAL
Note: The following floating-point exceptions are signalling: IEEE_DENORMAL
Note: The following floating-point exceptions are signalling: IEEE_DENORMAL
Note: The following floating-point exceptions are signalling: IEEE_DENORMAL
Note: The following floating-point exceptions are signalling: IEEE_DENORMAL
Note: The following floating-point exceptions are signalling: IEEE_DENORMAL
Note: The following floating-point exceptions are signalling: IEEE_INVALID_FLAG IEEE_DENORMAL
Note: The following floating-point exceptions are signalling: IEEE_DENORMAL
Note: The following floating-point exceptions are signalling: IEEE_DENORMAL
Note: The following floating-point exceptions are signalling: IEEE_DENORMAL
Note: The following floating-point exceptions are signalling: IEEE_DENORMAL
Note: The following floating-point exceptions are signalling: IEEE_DENORMAL
Note: The following floating-point exceptions are signalling: IEEE_DENORMAL
Note: The following floating-point exceptions are signalling: IEEE_DENORMAL
Note: The following floating-point exceptions are signalling: IEEE_DENORMAL
Note: The following floating-point exceptions are signalling: IEEE_DENORMAL
Note: The following floating-point exceptions are signalling: IEEE_DENORMAL
Note: The following floating-point exceptions are signalling: IEEE_DENORMAL
Note: The following floating-point exceptions are signalling: IEEE_DENORMAL
