
     Program PWSCF v.6.7MaX starts on 19Dec2022 at  9:18:39 

     This program is part of the open-source Quantum ESPRESSO suite
     for quantum simulation of materials; please cite
         "P. Giannozzi et al., J. Phys.:Condens. Matter 21 395502 (2009);
         "P. Giannozzi et al., J. Phys.:Condens. Matter 29 465901 (2017);
          URL http://www.quantum-espresso.org", 
     in publications or presentations arising from this work. More details at
     http://www.quantum-espresso.org/quote

     Parallel version (MPI), running on    24 processors

     MPI processes distributed on     1 nodes
     R & G space division:  proc/nbgrp/npool/nimage =      24
     Reading input from scale_3d-00.in

     Current dimensions of program PWSCF are:
     Max number of different atomic species (ntypx) = 10
     Max number of k-points (npk) =  40000
     Max angular momentum in pseudopotentials (lmaxx) =  3
     Message from routine read_pp_mesh:
     mesh size missing, using the one in header
     file Fe.pbe-spn-kjpaw_psl.0.2.1.UPF: wavefunction(s)  3D renormalized
     file O.pbe-n-kjpaw_psl.0.1.UPF: wavefunction(s)  2P renormalized

     Subspace diagonalization in iterative solution of the eigenvalue problem:
     a serial algorithm will be used


     Parallelization info
     --------------------
     sticks:   dense  smooth     PW     G-vecs:    dense   smooth      PW
     Min         746     276     74                46254    10430    1473
     Max         748     277     76                46255    10433    1475
     Sum       17927    6645   1805              1110111   250361   35385



     bravais-lattice index     =            0
     lattice parameter (alat)  =      18.6818  a.u.
     unit-cell volume          =    1852.2367 (a.u.)^3
     number of atoms/cell      =           25
     number of atomic types    =            4
     number of electrons       =       189.00
     number of Kohn-Sham states=          114
     kinetic-energy cutoff     =     100.0000  Ry
     charge density cutoff     =    1080.0000  Ry
     scf convergence threshold =      2.0E-10
     mixing beta               =       0.4000
     number of iterations used =            8  plain     mixing
     Exchange-correlation= PBE
                           (   1   4   3   4   0   0   0)

     celldm(1)=  18.681804  celldm(2)=   0.000000  celldm(3)=   0.000000
     celldm(4)=   0.000000  celldm(5)=   0.000000  celldm(6)=   0.000000

     crystal axes: (cart. coord. in units of alat)
               a(1) = (   1.000000   0.000000   0.000000 )  
               a(2) = (   0.000000   0.597590   0.000000 )  
               a(3) = (   0.000000   0.000000   0.475375 )  

     reciprocal axes: (cart. coord. in units 2 pi/alat)
               b(1) = (  1.000000  0.000000  0.000000 )  
               b(2) = (  0.000000  1.673388  0.000000 )  
               b(3) = (  0.000000  0.000000  2.103600 )  


     PseudoPot. # 1 for Fe read from file:
     /opt/QEpot/SSSP_precision_pseudos/Fe.pbe-spn-kjpaw_psl.0.2.1.UPF
     MD5 check sum: e86618425769142926afa95317d90200
     Pseudo is Projector augmented-wave + core cor, Zval = 16.0
     Generated using "atomic" code by A. Dal Corso  v.5.0.99 svn rev. 10869
     Shape of augmentation charge: PSQ
     Using radial grid of 1191 points,  6 beta functions with: 
                l(1) =   0
                l(2) =   0
                l(3) =   1
                l(4) =   1
                l(5) =   2
                l(6) =   2
     Q(r) pseudized with 0 coefficients 


     PseudoPot. # 2 for Na read from file:
     /opt/QEpot/SSSP_precision_pseudos/Na_ONCV_PBE-1.0.oncvpsp.upf
     MD5 check sum: 24a298df0a6742ae313db96548fdb2a4
     Pseudo is Norm-conserving, Zval =  9.0
     Generated using ONCVPSP code by D. R. Hamann
     Using radial grid of 1992 points,  4 beta functions with: 
                l(1) =   0
                l(2) =   0
                l(3) =   1
                l(4) =   1

     PseudoPot. # 3 for O  read from file:
     /opt/QEpot/SSSP_precision_pseudos/O.pbe-n-kjpaw_psl.0.1.UPF
     MD5 check sum: 0234752ac141de4415c5fc33072bef88
     Pseudo is Projector augmented-wave + core cor, Zval =  6.0
     Generated using "atomic" code by A. Dal Corso  v.5.0.99 svn rev. 10869
     Shape of augmentation charge: BESSEL
     Using radial grid of 1095 points,  4 beta functions with: 
                l(1) =   0
                l(2) =   0
                l(3) =   1
                l(4) =   1
     Q(r) pseudized with 0 coefficients 


     PseudoPot. # 4 for P  read from file:
     /opt/QEpot/SSSP_precision_pseudos/P.pbe-n-rrkjus_psl.1.0.0.UPF
     MD5 check sum: 8b930f418f0a4573dca56cd030ffe088
     Pseudo is Ultrasoft + core correction, Zval =  5.0
     Generated using "atomic" code by A. Dal Corso  v.5.1
     Using radial grid of 1147 points,  6 beta functions with: 
                l(1) =   0
                l(2) =   0
                l(3) =   1
                l(4) =   1
                l(5) =   2
                l(6) =   2
     Q(r) pseudized with 0 coefficients 


     atomic species   valence    mass     pseudopotential
        Fe            16.00    55.84500     Fe( 1.00)
        Na             9.00    22.98977     Na( 1.00)
        O              6.00    15.99940     O ( 1.00)
        P              5.00    30.97376     P ( 1.00)

     Starting magnetic structure 
     atomic species   magnetization
        Fe           0.312
        Na           0.000
        O            0.000
        P            0.000

     No symmetry found


                                    s                        frac. trans.

      isym =  1     identity                                     

 cryst.   s( 1) = (     1          0          0      )
                  (     0          1          0      )
                  (     0          0          1      )

 cart.    s( 1) = (  1.0000000  0.0000000  0.0000000 )
                  (  0.0000000  1.0000000  0.0000000 )
                  (  0.0000000  0.0000000  1.0000000 )


   Cartesian axes

     site n.     atom                  positions (alat units)
         1           Na  tau(   1) = (   0.5267800   0.2501284   0.2306180  )
         2           Fe  tau(   2) = (   0.2775050   0.4472674   0.4722466  )
         3           Fe  tau(   3) = (   0.2107690   0.1466874   0.2330719  )
         4           Fe  tau(   4) = (   0.7260420   0.1429088   0.0026588  )
         5           Fe  tau(   5) = (   0.7842060   0.4498914   0.2425851  )
         6           P   tau(   6) = (   0.1068460   0.4463178   0.2112516  )
         7           P   tau(   7) = (   0.3892680   0.1441405   0.4489717  )
         8           P   tau(   8) = (   0.8912160   0.1490282   0.2646648  )
         9           P   tau(   9) = (   0.6066990   0.4473576   0.0266572  )
        10           O   tau(  10) = (   0.1320850   0.4449702   0.3572247  )
        11           O   tau(  11) = (   0.3656990   0.1484640   0.1199059  )
        12           O   tau(  12) = (   0.8700850   0.1481975   0.1181826  )
        13           O   tau(  13) = (   0.6284590   0.4431267   0.3551991  )
        14           O   tau(  14) = (   0.4610830   0.4426086   0.0588087  )
        15           O   tau(  15) = (   0.0360890   0.1497536   0.2963752  )
        16           O   tau(  16) = (   0.5370310   0.1458765   0.4233822  )
        17           O   tau(  17) = (   0.9604850   0.4463668   0.1846211  )
        18           O   tau(  18) = (   0.1757850   0.5636456   0.1436124  )
        19           O   tau(  19) = (   0.3203990   0.0278513   0.3823364  )
        20           O   tau(  20) = (   0.8166330   0.2634439   0.3310230  )
        21           O   tau(  21) = (   0.6775460   0.3312519   0.0961033  )
        22           O   tau(  22) = (   0.8196290   0.0319944   0.3313272  )
        23           O   tau(  23) = (   0.6770700   0.5640789   0.0933780  )
        24           O   tau(  24) = (   0.1771920   0.3306824   0.1421829  )
        25           O   tau(  25) = (   0.3254700   0.2612077   0.3758404  )

   Crystallographic axes

     site n.     atom                  positions (cryst. coord.)
         1           Na  tau(   1) = (  0.5267800  0.4185620  0.4851280  )
         2           Fe  tau(   2) = (  0.2775050  0.7484520  0.9934180  )
         3           Fe  tau(   3) = (  0.2107690  0.2454650  0.4902900  )
         4           Fe  tau(   4) = (  0.7260420  0.2391420  0.0055930  )
         5           Fe  tau(   5) = (  0.7842060  0.7528430  0.5103020  )
         6           P   tau(   6) = (  0.1068460  0.7468630  0.4443890  )
         7           P   tau(   7) = (  0.3892680  0.2412030  0.9444570  )
         8           P   tau(   8) = (  0.8912160  0.2493820  0.5567490  )
         9           P   tau(   9) = (  0.6066990  0.7486030  0.0560760  )
        10           O   tau(  10) = (  0.1320850  0.7446080  0.7514580  )
        11           O   tau(  11) = (  0.3656990  0.2484380  0.2522340  )
        12           O   tau(  12) = (  0.8700850  0.2479920  0.2486090  )
        13           O   tau(  13) = (  0.6284590  0.7415230  0.7471970  )
        14           O   tau(  14) = (  0.4610830  0.7406560  0.1237100  )
        15           O   tau(  15) = (  0.0360890  0.2505960  0.6234550  )
        16           O   tau(  16) = (  0.5370310  0.2441080  0.8906270  )
        17           O   tau(  17) = (  0.9604850  0.7469450  0.3883690  )
        18           O   tau(  18) = (  0.1757850  0.9431980  0.3021030  )
        19           O   tau(  19) = (  0.3203990  0.0466060  0.8042830  )
        20           O   tau(  20) = (  0.8166330  0.4408440  0.6963400  )
        21           O   tau(  21) = (  0.6775460  0.5543130  0.2021630  )
        22           O   tau(  22) = (  0.8196290  0.0535390  0.6969800  )
        23           O   tau(  23) = (  0.6770700  0.9439230  0.1964300  )
        24           O   tau(  24) = (  0.1771920  0.5533600  0.2990960  )
        25           O   tau(  25) = (  0.3254700  0.4371020  0.7906180  )

     number of k points=   158  Marzari-Vanderbilt smearing, width (Ry)=  0.0073
                       cart. coord. in units 2pi/alat
        k(    1) = (   0.0000000   0.0000000   0.0000000), wk =   0.0031746
        k(    2) = (   0.0000000   0.0000000   0.2337334), wk =   0.0063492
        k(    3) = (   0.0000000   0.0000000   0.4674667), wk =   0.0063492
        k(    4) = (   0.0000000   0.0000000   0.7012001), wk =   0.0063492
        k(    5) = (   0.0000000   0.0000000   0.9349334), wk =   0.0063492
        k(    6) = (   0.0000000   0.2390555   0.0000000), wk =   0.0063492
        k(    7) = (   0.0000000   0.2390555   0.2337334), wk =   0.0063492
        k(    8) = (   0.0000000   0.2390555   0.4674667), wk =   0.0063492
        k(    9) = (   0.0000000   0.2390555   0.7012001), wk =   0.0063492
        k(   10) = (   0.0000000   0.2390555   0.9349334), wk =   0.0063492
        k(   11) = (   0.0000000   0.4781110   0.0000000), wk =   0.0063492
        k(   12) = (   0.0000000   0.4781110   0.2337334), wk =   0.0063492
        k(   13) = (   0.0000000   0.4781110   0.4674667), wk =   0.0063492
        k(   14) = (   0.0000000   0.4781110   0.7012001), wk =   0.0063492
        k(   15) = (   0.0000000   0.4781110   0.9349334), wk =   0.0063492
        k(   16) = (   0.0000000   0.7171664   0.0000000), wk =   0.0063492
        k(   17) = (   0.0000000   0.7171664   0.2337334), wk =   0.0063492
        k(   18) = (   0.0000000   0.7171664   0.4674667), wk =   0.0063492
        k(   19) = (   0.0000000   0.7171664   0.7012001), wk =   0.0063492
        k(   20) = (   0.0000000   0.7171664   0.9349334), wk =   0.0063492
        k(   21) = (   0.2000000   0.0000000   0.0000000), wk =   0.0063492
        k(   22) = (   0.2000000   0.0000000   0.2337334), wk =   0.0063492
        k(   23) = (   0.2000000   0.0000000   0.4674667), wk =   0.0063492
        k(   24) = (   0.2000000   0.0000000   0.7012001), wk =   0.0063492
        k(   25) = (   0.2000000   0.0000000   0.9349334), wk =   0.0063492
        k(   26) = (   0.2000000   0.2390555   0.0000000), wk =   0.0063492
        k(   27) = (   0.2000000   0.2390555   0.2337334), wk =   0.0063492
        k(   28) = (   0.2000000   0.2390555   0.4674667), wk =   0.0063492
        k(   29) = (   0.2000000   0.2390555   0.7012001), wk =   0.0063492
        k(   30) = (   0.2000000   0.2390555   0.9349334), wk =   0.0063492
        k(   31) = (   0.2000000   0.4781110   0.0000000), wk =   0.0063492
        k(   32) = (   0.2000000   0.4781110   0.2337334), wk =   0.0063492
        k(   33) = (   0.2000000   0.4781110   0.4674667), wk =   0.0063492
        k(   34) = (   0.2000000   0.4781110   0.7012001), wk =   0.0063492
        k(   35) = (   0.2000000   0.4781110   0.9349334), wk =   0.0063492
        k(   36) = (   0.2000000   0.7171664   0.0000000), wk =   0.0063492
        k(   37) = (   0.2000000   0.7171664   0.2337334), wk =   0.0063492
        k(   38) = (   0.2000000   0.7171664   0.4674667), wk =   0.0063492
        k(   39) = (   0.2000000   0.7171664   0.7012001), wk =   0.0063492
        k(   40) = (   0.2000000   0.7171664   0.9349334), wk =   0.0063492
        k(   41) = (   0.4000000   0.0000000   0.0000000), wk =   0.0063492
        k(   42) = (   0.4000000   0.0000000   0.2337334), wk =   0.0063492
        k(   43) = (   0.4000000   0.0000000   0.4674667), wk =   0.0063492
        k(   44) = (   0.4000000   0.0000000   0.7012001), wk =   0.0063492
        k(   45) = (   0.4000000   0.0000000   0.9349334), wk =   0.0063492
        k(   46) = (   0.4000000   0.2390555   0.0000000), wk =   0.0063492
        k(   47) = (   0.4000000   0.2390555   0.2337334), wk =   0.0063492
        k(   48) = (   0.4000000   0.2390555   0.4674667), wk =   0.0063492
        k(   49) = (   0.4000000   0.2390555   0.7012001), wk =   0.0063492
        k(   50) = (   0.4000000   0.2390555   0.9349334), wk =   0.0063492
        k(   51) = (   0.4000000   0.4781110   0.0000000), wk =   0.0063492
        k(   52) = (   0.4000000   0.4781110   0.2337334), wk =   0.0063492
        k(   53) = (   0.4000000   0.4781110   0.4674667), wk =   0.0063492
        k(   54) = (   0.4000000   0.4781110   0.7012001), wk =   0.0063492
        k(   55) = (   0.4000000   0.4781110   0.9349334), wk =   0.0063492
        k(   56) = (   0.4000000   0.7171664   0.0000000), wk =   0.0063492
        k(   57) = (   0.4000000   0.7171664   0.2337334), wk =   0.0063492
        k(   58) = (   0.4000000   0.7171664   0.4674667), wk =   0.0063492
        k(   59) = (   0.4000000   0.7171664   0.7012001), wk =   0.0063492
        k(   60) = (   0.4000000   0.7171664   0.9349334), wk =   0.0063492
        k(   61) = (   0.0000000  -0.2390555   0.2337334), wk =   0.0063492
        k(   62) = (   0.0000000  -0.2390555   0.4674667), wk =   0.0063492
        k(   63) = (   0.0000000  -0.2390555   0.7012001), wk =   0.0063492
        k(   64) = (   0.0000000  -0.2390555   0.9349334), wk =   0.0063492
        k(   65) = (   0.0000000  -0.4781110   0.2337334), wk =   0.0063492
        k(   66) = (   0.0000000  -0.4781110   0.4674667), wk =   0.0063492
        k(   67) = (   0.0000000  -0.4781110   0.7012001), wk =   0.0063492
        k(   68) = (   0.0000000  -0.4781110   0.9349334), wk =   0.0063492
        k(   69) = (   0.0000000  -0.7171664   0.2337334), wk =   0.0063492
        k(   70) = (   0.0000000  -0.7171664   0.4674667), wk =   0.0063492
        k(   71) = (   0.0000000  -0.7171664   0.7012001), wk =   0.0063492
        k(   72) = (   0.0000000  -0.7171664   0.9349334), wk =   0.0063492
        k(   73) = (  -0.2000000   0.0000000   0.2337334), wk =   0.0063492
        k(   74) = (  -0.2000000   0.0000000   0.4674667), wk =   0.0063492
        k(   75) = (  -0.2000000   0.0000000   0.7012001), wk =   0.0063492
        k(   76) = (  -0.2000000   0.0000000   0.9349334), wk =   0.0063492
        k(   77) = (  -0.2000000   0.2390555   0.0000000), wk =   0.0063492
        k(   78) = (  -0.2000000  -0.2390555   0.2337334), wk =   0.0063492
        k(   79) = (  -0.2000000   0.2390555  -0.2337334), wk =   0.0063492
        k(   80) = (   0.2000000  -0.2390555  -0.2337334), wk =   0.0063492
        k(   81) = (  -0.2000000  -0.2390555   0.4674667), wk =   0.0063492
        k(   82) = (  -0.2000000   0.2390555  -0.4674667), wk =   0.0063492
        k(   83) = (   0.2000000  -0.2390555  -0.4674667), wk =   0.0063492
        k(   84) = (  -0.2000000  -0.2390555   0.7012001), wk =   0.0063492
        k(   85) = (  -0.2000000   0.2390555  -0.7012001), wk =   0.0063492
        k(   86) = (   0.2000000  -0.2390555  -0.7012001), wk =   0.0063492
        k(   87) = (  -0.2000000  -0.2390555   0.9349334), wk =   0.0063492
        k(   88) = (  -0.2000000   0.2390555  -0.9349334), wk =   0.0063492
        k(   89) = (   0.2000000  -0.2390555  -0.9349334), wk =   0.0063492
        k(   90) = (  -0.2000000   0.4781110   0.0000000), wk =   0.0063492
        k(   91) = (  -0.2000000  -0.4781110   0.2337334), wk =   0.0063492
        k(   92) = (  -0.2000000   0.4781110  -0.2337334), wk =   0.0063492
        k(   93) = (   0.2000000  -0.4781110  -0.2337334), wk =   0.0063492
        k(   94) = (  -0.2000000  -0.4781110   0.4674667), wk =   0.0063492
        k(   95) = (  -0.2000000   0.4781110  -0.4674667), wk =   0.0063492
        k(   96) = (   0.2000000  -0.4781110  -0.4674667), wk =   0.0063492
        k(   97) = (  -0.2000000  -0.4781110   0.7012001), wk =   0.0063492
        k(   98) = (  -0.2000000   0.4781110  -0.7012001), wk =   0.0063492
        k(   99) = (   0.2000000  -0.4781110  -0.7012001), wk =   0.0063492
        k(  100) = (  -0.2000000  -0.4781110   0.9349334), wk =   0.0063492
        k(  101) = (  -0.2000000   0.4781110  -0.9349334), wk =   0.0063492
        k(  102) = (   0.2000000  -0.4781110  -0.9349334), wk =   0.0063492
        k(  103) = (  -0.2000000   0.7171664   0.0000000), wk =   0.0063492
        k(  104) = (  -0.2000000  -0.7171664   0.2337334), wk =   0.0063492
        k(  105) = (  -0.2000000   0.7171664  -0.2337334), wk =   0.0063492
        k(  106) = (   0.2000000  -0.7171664  -0.2337334), wk =   0.0063492
        k(  107) = (  -0.2000000  -0.7171664   0.4674667), wk =   0.0063492
        k(  108) = (  -0.2000000   0.7171664  -0.4674667), wk =   0.0063492
        k(  109) = (   0.2000000  -0.7171664  -0.4674667), wk =   0.0063492
        k(  110) = (  -0.2000000  -0.7171664   0.7012001), wk =   0.0063492
        k(  111) = (  -0.2000000   0.7171664  -0.7012001), wk =   0.0063492
        k(  112) = (   0.2000000  -0.7171664  -0.7012001), wk =   0.0063492
        k(  113) = (  -0.2000000  -0.7171664   0.9349334), wk =   0.0063492
        k(  114) = (  -0.2000000   0.7171664  -0.9349334), wk =   0.0063492
        k(  115) = (   0.2000000  -0.7171664  -0.9349334), wk =   0.0063492
        k(  116) = (  -0.4000000   0.0000000   0.2337334), wk =   0.0063492
        k(  117) = (  -0.4000000   0.0000000   0.4674667), wk =   0.0063492
        k(  118) = (  -0.4000000   0.0000000   0.7012001), wk =   0.0063492
        k(  119) = (  -0.4000000   0.0000000   0.9349334), wk =   0.0063492
        k(  120) = (  -0.4000000   0.2390555   0.0000000), wk =   0.0063492
        k(  121) = (  -0.4000000  -0.2390555   0.2337334), wk =   0.0063492
        k(  122) = (  -0.4000000   0.2390555  -0.2337334), wk =   0.0063492
        k(  123) = (   0.4000000  -0.2390555  -0.2337334), wk =   0.0063492
        k(  124) = (  -0.4000000  -0.2390555   0.4674667), wk =   0.0063492
        k(  125) = (  -0.4000000   0.2390555  -0.4674667), wk =   0.0063492
        k(  126) = (   0.4000000  -0.2390555  -0.4674667), wk =   0.0063492
        k(  127) = (  -0.4000000  -0.2390555   0.7012001), wk =   0.0063492
        k(  128) = (  -0.4000000   0.2390555  -0.7012001), wk =   0.0063492
        k(  129) = (   0.4000000  -0.2390555  -0.7012001), wk =   0.0063492
        k(  130) = (  -0.4000000  -0.2390555   0.9349334), wk =   0.0063492
        k(  131) = (  -0.4000000   0.2390555  -0.9349334), wk =   0.0063492
        k(  132) = (   0.4000000  -0.2390555  -0.9349334), wk =   0.0063492
        k(  133) = (  -0.4000000   0.4781110   0.0000000), wk =   0.0063492
        k(  134) = (  -0.4000000  -0.4781110   0.2337334), wk =   0.0063492
        k(  135) = (  -0.4000000   0.4781110  -0.2337334), wk =   0.0063492
        k(  136) = (   0.4000000  -0.4781110  -0.2337334), wk =   0.0063492
        k(  137) = (  -0.4000000  -0.4781110   0.4674667), wk =   0.0063492
        k(  138) = (  -0.4000000   0.4781110  -0.4674667), wk =   0.0063492
        k(  139) = (   0.4000000  -0.4781110  -0.4674667), wk =   0.0063492
        k(  140) = (  -0.4000000  -0.4781110   0.7012001), wk =   0.0063492
        k(  141) = (  -0.4000000   0.4781110  -0.7012001), wk =   0.0063492
        k(  142) = (   0.4000000  -0.4781110  -0.7012001), wk =   0.0063492
        k(  143) = (  -0.4000000  -0.4781110   0.9349334), wk =   0.0063492
        k(  144) = (  -0.4000000   0.4781110  -0.9349334), wk =   0.0063492
        k(  145) = (   0.4000000  -0.4781110  -0.9349334), wk =   0.0063492
        k(  146) = (  -0.4000000   0.7171664   0.0000000), wk =   0.0063492
        k(  147) = (  -0.4000000  -0.7171664   0.2337334), wk =   0.0063492
        k(  148) = (  -0.4000000   0.7171664  -0.2337334), wk =   0.0063492
        k(  149) = (   0.4000000  -0.7171664  -0.2337334), wk =   0.0063492
        k(  150) = (  -0.4000000  -0.7171664   0.4674667), wk =   0.0063492
        k(  151) = (  -0.4000000   0.7171664  -0.4674667), wk =   0.0063492
        k(  152) = (   0.4000000  -0.7171664  -0.4674667), wk =   0.0063492
        k(  153) = (  -0.4000000  -0.7171664   0.7012001), wk =   0.0063492
        k(  154) = (  -0.4000000   0.7171664  -0.7012001), wk =   0.0063492
        k(  155) = (   0.4000000  -0.7171664  -0.7012001), wk =   0.0063492
        k(  156) = (  -0.4000000  -0.7171664   0.9349334), wk =   0.0063492
        k(  157) = (  -0.4000000   0.7171664  -0.9349334), wk =   0.0063492
        k(  158) = (   0.4000000  -0.7171664  -0.9349334), wk =   0.0063492

                       cryst. coord.
        k(    1) = (   0.0000000   0.0000000   0.0000000), wk =   0.0031746
        k(    2) = (   0.0000000   0.0000000   0.1111111), wk =   0.0063492
        k(    3) = (   0.0000000   0.0000000   0.2222222), wk =   0.0063492
        k(    4) = (   0.0000000   0.0000000   0.3333333), wk =   0.0063492
        k(    5) = (   0.0000000   0.0000000   0.4444444), wk =   0.0063492
        k(    6) = (   0.0000000   0.1428571   0.0000000), wk =   0.0063492
        k(    7) = (   0.0000000   0.1428571   0.1111111), wk =   0.0063492
        k(    8) = (   0.0000000   0.1428571   0.2222222), wk =   0.0063492
        k(    9) = (   0.0000000   0.1428571   0.3333333), wk =   0.0063492
        k(   10) = (   0.0000000   0.1428571   0.4444444), wk =   0.0063492
        k(   11) = (   0.0000000   0.2857143   0.0000000), wk =   0.0063492
        k(   12) = (   0.0000000   0.2857143   0.1111111), wk =   0.0063492
        k(   13) = (   0.0000000   0.2857143   0.2222222), wk =   0.0063492
        k(   14) = (   0.0000000   0.2857143   0.3333333), wk =   0.0063492
        k(   15) = (   0.0000000   0.2857143   0.4444444), wk =   0.0063492
        k(   16) = (   0.0000000   0.4285714   0.0000000), wk =   0.0063492
        k(   17) = (   0.0000000   0.4285714   0.1111111), wk =   0.0063492
        k(   18) = (   0.0000000   0.4285714   0.2222222), wk =   0.0063492
        k(   19) = (   0.0000000   0.4285714   0.3333333), wk =   0.0063492
        k(   20) = (   0.0000000   0.4285714   0.4444444), wk =   0.0063492
        k(   21) = (   0.2000000   0.0000000   0.0000000), wk =   0.0063492
        k(   22) = (   0.2000000   0.0000000   0.1111111), wk =   0.0063492
        k(   23) = (   0.2000000   0.0000000   0.2222222), wk =   0.0063492
        k(   24) = (   0.2000000   0.0000000   0.3333333), wk =   0.0063492
        k(   25) = (   0.2000000   0.0000000   0.4444444), wk =   0.0063492
        k(   26) = (   0.2000000   0.1428571   0.0000000), wk =   0.0063492
        k(   27) = (   0.2000000   0.1428571   0.1111111), wk =   0.0063492
        k(   28) = (   0.2000000   0.1428571   0.2222222), wk =   0.0063492
        k(   29) = (   0.2000000   0.1428571   0.3333333), wk =   0.0063492
        k(   30) = (   0.2000000   0.1428571   0.4444444), wk =   0.0063492
        k(   31) = (   0.2000000   0.2857143   0.0000000), wk =   0.0063492
        k(   32) = (   0.2000000   0.2857143   0.1111111), wk =   0.0063492
        k(   33) = (   0.2000000   0.2857143   0.2222222), wk =   0.0063492
        k(   34) = (   0.2000000   0.2857143   0.3333333), wk =   0.0063492
        k(   35) = (   0.2000000   0.2857143   0.4444444), wk =   0.0063492
        k(   36) = (   0.2000000   0.4285714   0.0000000), wk =   0.0063492
        k(   37) = (   0.2000000   0.4285714   0.1111111), wk =   0.0063492
        k(   38) = (   0.2000000   0.4285714   0.2222222), wk =   0.0063492
        k(   39) = (   0.2000000   0.4285714   0.3333333), wk =   0.0063492
        k(   40) = (   0.2000000   0.4285714   0.4444444), wk =   0.0063492
        k(   41) = (   0.4000000   0.0000000   0.0000000), wk =   0.0063492
        k(   42) = (   0.4000000   0.0000000   0.1111111), wk =   0.0063492
        k(   43) = (   0.4000000   0.0000000   0.2222222), wk =   0.0063492
        k(   44) = (   0.4000000   0.0000000   0.3333333), wk =   0.0063492
        k(   45) = (   0.4000000   0.0000000   0.4444444), wk =   0.0063492
        k(   46) = (   0.4000000   0.1428571   0.0000000), wk =   0.0063492
        k(   47) = (   0.4000000   0.1428571   0.1111111), wk =   0.0063492
        k(   48) = (   0.4000000   0.1428571   0.2222222), wk =   0.0063492
        k(   49) = (   0.4000000   0.1428571   0.3333333), wk =   0.0063492
        k(   50) = (   0.4000000   0.1428571   0.4444444), wk =   0.0063492
        k(   51) = (   0.4000000   0.2857143   0.0000000), wk =   0.0063492
        k(   52) = (   0.4000000   0.2857143   0.1111111), wk =   0.0063492
        k(   53) = (   0.4000000   0.2857143   0.2222222), wk =   0.0063492
        k(   54) = (   0.4000000   0.2857143   0.3333333), wk =   0.0063492
        k(   55) = (   0.4000000   0.2857143   0.4444444), wk =   0.0063492
        k(   56) = (   0.4000000   0.4285714   0.0000000), wk =   0.0063492
        k(   57) = (   0.4000000   0.4285714   0.1111111), wk =   0.0063492
        k(   58) = (   0.4000000   0.4285714   0.2222222), wk =   0.0063492
        k(   59) = (   0.4000000   0.4285714   0.3333333), wk =   0.0063492
        k(   60) = (   0.4000000   0.4285714   0.4444444), wk =   0.0063492
        k(   61) = (   0.0000000  -0.1428571   0.1111111), wk =   0.0063492
        k(   62) = (   0.0000000  -0.1428571   0.2222222), wk =   0.0063492
        k(   63) = (   0.0000000  -0.1428571   0.3333333), wk =   0.0063492
        k(   64) = (   0.0000000  -0.1428571   0.4444444), wk =   0.0063492
        k(   65) = (   0.0000000  -0.2857143   0.1111111), wk =   0.0063492
        k(   66) = (   0.0000000  -0.2857143   0.2222222), wk =   0.0063492
        k(   67) = (   0.0000000  -0.2857143   0.3333333), wk =   0.0063492
        k(   68) = (   0.0000000  -0.2857143   0.4444444), wk =   0.0063492
        k(   69) = (   0.0000000  -0.4285714   0.1111111), wk =   0.0063492
        k(   70) = (   0.0000000  -0.4285714   0.2222222), wk =   0.0063492
        k(   71) = (   0.0000000  -0.4285714   0.3333333), wk =   0.0063492
        k(   72) = (   0.0000000  -0.4285714   0.4444444), wk =   0.0063492
        k(   73) = (  -0.2000000   0.0000000   0.1111111), wk =   0.0063492
        k(   74) = (  -0.2000000   0.0000000   0.2222222), wk =   0.0063492
        k(   75) = (  -0.2000000   0.0000000   0.3333333), wk =   0.0063492
        k(   76) = (  -0.2000000   0.0000000   0.4444444), wk =   0.0063492
        k(   77) = (  -0.2000000   0.1428571   0.0000000), wk =   0.0063492
        k(   78) = (  -0.2000000  -0.1428571   0.1111111), wk =   0.0063492
        k(   79) = (  -0.2000000   0.1428571  -0.1111111), wk =   0.0063492
        k(   80) = (   0.2000000  -0.1428571  -0.1111111), wk =   0.0063492
        k(   81) = (  -0.2000000  -0.1428571   0.2222222), wk =   0.0063492
        k(   82) = (  -0.2000000   0.1428571  -0.2222222), wk =   0.0063492
        k(   83) = (   0.2000000  -0.1428571  -0.2222222), wk =   0.0063492
        k(   84) = (  -0.2000000  -0.1428571   0.3333333), wk =   0.0063492
        k(   85) = (  -0.2000000   0.1428571  -0.3333333), wk =   0.0063492
        k(   86) = (   0.2000000  -0.1428571  -0.3333333), wk =   0.0063492
        k(   87) = (  -0.2000000  -0.1428571   0.4444444), wk =   0.0063492
        k(   88) = (  -0.2000000   0.1428571  -0.4444444), wk =   0.0063492
        k(   89) = (   0.2000000  -0.1428571  -0.4444444), wk =   0.0063492
        k(   90) = (  -0.2000000   0.2857143   0.0000000), wk =   0.0063492
        k(   91) = (  -0.2000000  -0.2857143   0.1111111), wk =   0.0063492
        k(   92) = (  -0.2000000   0.2857143  -0.1111111), wk =   0.0063492
        k(   93) = (   0.2000000  -0.2857143  -0.1111111), wk =   0.0063492
        k(   94) = (  -0.2000000  -0.2857143   0.2222222), wk =   0.0063492
        k(   95) = (  -0.2000000   0.2857143  -0.2222222), wk =   0.0063492
        k(   96) = (   0.2000000  -0.2857143  -0.2222222), wk =   0.0063492
        k(   97) = (  -0.2000000  -0.2857143   0.3333333), wk =   0.0063492
        k(   98) = (  -0.2000000   0.2857143  -0.3333333), wk =   0.0063492
        k(   99) = (   0.2000000  -0.2857143  -0.3333333), wk =   0.0063492
        k(  100) = (  -0.2000000  -0.2857143   0.4444444), wk =   0.0063492
        k(  101) = (  -0.2000000   0.2857143  -0.4444444), wk =   0.0063492
        k(  102) = (   0.2000000  -0.2857143  -0.4444444), wk =   0.0063492
        k(  103) = (  -0.2000000   0.4285714   0.0000000), wk =   0.0063492
        k(  104) = (  -0.2000000  -0.4285714   0.1111111), wk =   0.0063492
        k(  105) = (  -0.2000000   0.4285714  -0.1111111), wk =   0.0063492
        k(  106) = (   0.2000000  -0.4285714  -0.1111111), wk =   0.0063492
        k(  107) = (  -0.2000000  -0.4285714   0.2222222), wk =   0.0063492
        k(  108) = (  -0.2000000   0.4285714  -0.2222222), wk =   0.0063492
        k(  109) = (   0.2000000  -0.4285714  -0.2222222), wk =   0.0063492
        k(  110) = (  -0.2000000  -0.4285714   0.3333333), wk =   0.0063492
        k(  111) = (  -0.2000000   0.4285714  -0.3333333), wk =   0.0063492
        k(  112) = (   0.2000000  -0.4285714  -0.3333333), wk =   0.0063492
        k(  113) = (  -0.2000000  -0.4285714   0.4444444), wk =   0.0063492
        k(  114) = (  -0.2000000   0.4285714  -0.4444444), wk =   0.0063492
        k(  115) = (   0.2000000  -0.4285714  -0.4444444), wk =   0.0063492
        k(  116) = (  -0.4000000   0.0000000   0.1111111), wk =   0.0063492
        k(  117) = (  -0.4000000   0.0000000   0.2222222), wk =   0.0063492
        k(  118) = (  -0.4000000   0.0000000   0.3333333), wk =   0.0063492
        k(  119) = (  -0.4000000   0.0000000   0.4444444), wk =   0.0063492
        k(  120) = (  -0.4000000   0.1428571   0.0000000), wk =   0.0063492
        k(  121) = (  -0.4000000  -0.1428571   0.1111111), wk =   0.0063492
        k(  122) = (  -0.4000000   0.1428571  -0.1111111), wk =   0.0063492
        k(  123) = (   0.4000000  -0.1428571  -0.1111111), wk =   0.0063492
        k(  124) = (  -0.4000000  -0.1428571   0.2222222), wk =   0.0063492
        k(  125) = (  -0.4000000   0.1428571  -0.2222222), wk =   0.0063492
        k(  126) = (   0.4000000  -0.1428571  -0.2222222), wk =   0.0063492
        k(  127) = (  -0.4000000  -0.1428571   0.3333333), wk =   0.0063492
        k(  128) = (  -0.4000000   0.1428571  -0.3333333), wk =   0.0063492
        k(  129) = (   0.4000000  -0.1428571  -0.3333333), wk =   0.0063492
        k(  130) = (  -0.4000000  -0.1428571   0.4444444), wk =   0.0063492
        k(  131) = (  -0.4000000   0.1428571  -0.4444444), wk =   0.0063492
        k(  132) = (   0.4000000  -0.1428571  -0.4444444), wk =   0.0063492
        k(  133) = (  -0.4000000   0.2857143   0.0000000), wk =   0.0063492
        k(  134) = (  -0.4000000  -0.2857143   0.1111111), wk =   0.0063492
        k(  135) = (  -0.4000000   0.2857143  -0.1111111), wk =   0.0063492
        k(  136) = (   0.4000000  -0.2857143  -0.1111111), wk =   0.0063492
        k(  137) = (  -0.4000000  -0.2857143   0.2222222), wk =   0.0063492
        k(  138) = (  -0.4000000   0.2857143  -0.2222222), wk =   0.0063492
        k(  139) = (   0.4000000  -0.2857143  -0.2222222), wk =   0.0063492
        k(  140) = (  -0.4000000  -0.2857143   0.3333333), wk =   0.0063492
        k(  141) = (  -0.4000000   0.2857143  -0.3333333), wk =   0.0063492
        k(  142) = (   0.4000000  -0.2857143  -0.3333333), wk =   0.0063492
        k(  143) = (  -0.4000000  -0.2857143   0.4444444), wk =   0.0063492
        k(  144) = (  -0.4000000   0.2857143  -0.4444444), wk =   0.0063492
        k(  145) = (   0.4000000  -0.2857143  -0.4444444), wk =   0.0063492
        k(  146) = (  -0.4000000   0.4285714   0.0000000), wk =   0.0063492
        k(  147) = (  -0.4000000  -0.4285714   0.1111111), wk =   0.0063492
        k(  148) = (  -0.4000000   0.4285714  -0.1111111), wk =   0.0063492
        k(  149) = (   0.4000000  -0.4285714  -0.1111111), wk =   0.0063492
        k(  150) = (  -0.4000000  -0.4285714   0.2222222), wk =   0.0063492
        k(  151) = (  -0.4000000   0.4285714  -0.2222222), wk =   0.0063492
        k(  152) = (   0.4000000  -0.4285714  -0.2222222), wk =   0.0063492
        k(  153) = (  -0.4000000  -0.4285714   0.3333333), wk =   0.0063492
        k(  154) = (  -0.4000000   0.4285714  -0.3333333), wk =   0.0063492
        k(  155) = (   0.4000000  -0.4285714  -0.3333333), wk =   0.0063492
        k(  156) = (  -0.4000000  -0.4285714   0.4444444), wk =   0.0063492
        k(  157) = (  -0.4000000   0.4285714  -0.4444444), wk =   0.0063492
        k(  158) = (   0.4000000  -0.4285714  -0.4444444), wk =   0.0063492

     Dense  grid:  1110111 G-vectors     FFT dimensions: ( 200, 120,  96)

     Smooth grid:   250361 G-vectors     FFT dimensions: ( 120,  72,  60)

     Dynamical RAM for                 wfc:       2.27 MB

     Dynamical RAM for     wfc (w. buffer):     718.50 MB

     Dynamical RAM for           str. fact:       2.82 MB

     Dynamical RAM for           local pot:       0.00 MB

     Dynamical RAM for          nlocal pot:       5.57 MB

     Dynamical RAM for                qrad:      10.54 MB

     Dynamical RAM for          rho,v,vnew:       8.63 MB

     Dynamical RAM for               rhoin:       2.88 MB

     Dynamical RAM for            rho*nmix:      22.58 MB

     Dynamical RAM for           G-vectors:       2.73 MB

     Dynamical RAM for          h,s,v(r/c):       2.38 MB

     Dynamical RAM for          <psi|beta>:       0.49 MB

     Dynamical RAM for                 psi:       4.53 MB

     Dynamical RAM for                hpsi:       4.53 MB

     Dynamical RAM for                spsi:       4.53 MB

     Dynamical RAM for      wfcinit/wfcrot:       5.88 MB

     Dynamical RAM for           addusdens:     143.27 MB

     Dynamical RAM for          addusforce:     164.57 MB

     Dynamical RAM for         addusstress:     142.92 MB

     Estimated static dynamical RAM per process >     782.18 MB

     Estimated max dynamical RAM per process >     946.75 MB

     Estimated total dynamical RAM >      22.19 GB

     Check: negative core charge=   -0.000003
     Generating pointlists ...
     new r_m :   0.0762 (alat units)  1.4235 (a.u.) for type    1
     new r_m :   0.0898 (alat units)  1.6779 (a.u.) for type    2
     new r_m :   0.0611 (alat units)  1.1405 (a.u.) for type    3
     new r_m :   0.0611 (alat units)  1.1405 (a.u.) for type    4

     Initial potential from superposition of free atoms

     starting charge  188.99132, renormalised to  189.00000
     Starting wfcs are  137 randomized atomic wfcs
     Checking if some PAW data can be deallocated... 
       PAW data deallocated on   20 nodes for type:  1
       PAW data deallocated on    8 nodes for type:  3

     total cpu time spent up to now is      150.8 secs

     Self-consistent Calculation

     iteration #  1     ecut=   100.00 Ry     beta= 0.40
     Davidson diagonalization with overlap
     ethr =  1.00E-02,  avg # of iterations =  4.0

     negative rho (up, down):  0.000E+00 7.112E-05

     total cpu time spent up to now is      678.3 secs

     total energy              =   -2123.89803958 Ry
     estimated scf accuracy    <       6.72635505 Ry

     total magnetization       =    19.00 Bohr mag/cell
     absolute magnetization    =    19.00 Bohr mag/cell

     iteration #  2     ecut=   100.00 Ry     beta= 0.40
     Davidson diagonalization with overlap
     ethr =  3.56E-03,  avg # of iterations =  2.0

     negative rho (up, down):  0.000E+00 3.822E-05

     total cpu time spent up to now is     1118.6 secs

     total energy              =   -2121.41882007 Ry
     estimated scf accuracy    <      32.09935911 Ry

     total magnetization       =     8.68 Bohr mag/cell
     absolute magnetization    =    10.60 Bohr mag/cell

     iteration #  3     ecut=   100.00 Ry     beta= 0.40
     Davidson diagonalization with overlap
     ethr =  3.56E-03,  avg # of iterations =  2.9

     negative rho (up, down):  0.000E+00 1.505E-05

     total cpu time spent up to now is     1506.6 secs

     total energy              =   -2123.25007449 Ry
     estimated scf accuracy    <      78.91234096 Ry

     total magnetization       =     1.00 Bohr mag/cell
     absolute magnetization    =     4.94 Bohr mag/cell

     iteration #  4     ecut=   100.00 Ry     beta= 0.40
     Davidson diagonalization with overlap
     ethr =  3.56E-03,  avg # of iterations =  1.5

     negative rho (up, down):  0.000E+00 3.368E-05

     total cpu time spent up to now is     1841.5 secs

     total energy              =   -2125.05846483 Ry
     estimated scf accuracy    <      10.06203215 Ry

     total magnetization       =    14.80 Bohr mag/cell
     absolute magnetization    =    14.96 Bohr mag/cell

     iteration #  5     ecut=   100.00 Ry     beta= 0.40
     Davidson diagonalization with overlap
     ethr =  3.56E-03,  avg # of iterations =  2.0

     negative rho (up, down):  0.000E+00 9.802E-05

     total cpu time spent up to now is     2204.1 secs

     total energy              =   -2125.48375675 Ry
     estimated scf accuracy    <       8.60822650 Ry

     total magnetization       =    14.97 Bohr mag/cell
     absolute magnetization    =    15.14 Bohr mag/cell

     iteration #  6     ecut=   100.00 Ry     beta= 0.40
     Davidson diagonalization with overlap
     ethr =  3.56E-03,  avg # of iterations =  1.5

     negative rho (up, down):  0.000E+00 2.407E-04

     total cpu time spent up to now is     2537.9 secs

     total energy              =   -2125.86080899 Ry
     estimated scf accuracy    <       0.52981640 Ry

     total magnetization       =    19.06 Bohr mag/cell
     absolute magnetization    =    19.06 Bohr mag/cell

     iteration #  7     ecut=   100.00 Ry     beta= 0.40
     Davidson diagonalization with overlap
     ethr =  2.80E-04,  avg # of iterations =  4.6

     negative rho (up, down):  0.000E+00 4.528E-04

     total cpu time spent up to now is     2938.1 secs

     total energy              =   -2125.87589015 Ry
     estimated scf accuracy    <       0.13641491 Ry

     total magnetization       =    19.00 Bohr mag/cell
     absolute magnetization    =    19.00 Bohr mag/cell

     iteration #  8     ecut=   100.00 Ry     beta= 0.40
     Davidson diagonalization with overlap
     c_bands:  1 eigenvalues not converged
     c_bands:  1 eigenvalues not converged
     ethr =  7.22E-05,  avg # of iterations = 12.3

     negative rho (up, down):  0.000E+00 4.768E-04

     total cpu time spent up to now is     3577.0 secs

     total energy              =   -2125.87806644 Ry
     estimated scf accuracy    <       0.46041577 Ry

     total magnetization       =    19.00 Bohr mag/cell
     absolute magnetization    =    19.01 Bohr mag/cell

     iteration #  9     ecut=   100.00 Ry     beta= 0.40
     Davidson diagonalization with overlap
     ethr =  7.22E-05,  avg # of iterations =  1.0

     negative rho (up, down):  0.000E+00 5.692E-04

     total cpu time spent up to now is     3886.7 secs

     total energy              =   -2125.89095090 Ry
     estimated scf accuracy    <       0.07079749 Ry

     total magnetization       =    19.00 Bohr mag/cell
     absolute magnetization    =    19.01 Bohr mag/cell

     iteration # 10     ecut=   100.00 Ry     beta= 0.40
     Davidson diagonalization with overlap
     ethr =  3.75E-05,  avg # of iterations =  1.1

     negative rho (up, down):  0.000E+00 7.217E-04

     total cpu time spent up to now is     4199.8 secs

     total energy              =   -2125.89829628 Ry
     estimated scf accuracy    <       0.03241315 Ry

     total magnetization       =    19.00 Bohr mag/cell
     absolute magnetization    =    19.01 Bohr mag/cell

     iteration # 11     ecut=   100.00 Ry     beta= 0.40
     Davidson diagonalization with overlap
     c_bands:  3 eigenvalues not converged
     c_bands:  1 eigenvalues not converged
     c_bands:  1 eigenvalues not converged
     c_bands:  1 eigenvalues not converged
     c_bands:  1 eigenvalues not converged
     ethr =  1.71E-05,  avg # of iterations =  1.8

     negative rho (up, down):  0.000E+00 9.129E-04

     total cpu time spent up to now is     4530.0 secs

     total energy              =   -2125.90108889 Ry
     estimated scf accuracy    <       0.00521388 Ry

     total magnetization       =    19.00 Bohr mag/cell
     absolute magnetization    =    19.02 Bohr mag/cell

     iteration # 12     ecut=   100.00 Ry     beta= 0.40
     Davidson diagonalization with overlap
     c_bands:  1 eigenvalues not converged
     c_bands:  1 eigenvalues not converged
     c_bands:  1 eigenvalues not converged
     c_bands:  1 eigenvalues not converged
     c_bands:  1 eigenvalues not converged
     c_bands:  1 eigenvalues not converged
     c_bands:  1 eigenvalues not converged
     c_bands:  1 eigenvalues not converged
     c_bands:  1 eigenvalues not converged
     c_bands:  1 eigenvalues not converged
     c_bands:  1 eigenvalues not converged
     c_bands:  1 eigenvalues not converged
     c_bands:  1 eigenvalues not converged
     c_bands:  1 eigenvalues not converged
     c_bands:  1 eigenvalues not converged
     c_bands:  1 eigenvalues not converged
     c_bands:  1 eigenvalues not converged
     c_bands:  1 eigenvalues not converged
     c_bands:  1 eigenvalues not converged
     c_bands:  1 eigenvalues not converged
     c_bands:  1 eigenvalues not converged
     c_bands:  1 eigenvalues not converged
     c_bands:  1 eigenvalues not converged
     c_bands:  1 eigenvalues not converged
     c_bands:  1 eigenvalues not converged
     c_bands:  1 eigenvalues not converged
     c_bands:  1 eigenvalues not converged
     c_bands:  1 eigenvalues not converged
     c_bands:  1 eigenvalues not converged
     c_bands:  1 eigenvalues not converged
     c_bands:  1 eigenvalues not converged
     c_bands:  1 eigenvalues not converged
     c_bands:  1 eigenvalues not converged
     c_bands:  1 eigenvalues not converged
     c_bands:  1 eigenvalues not converged
     ethr =  2.76E-06,  avg # of iterations = 11.3

     negative rho (up, down):  0.000E+00 9.171E-04

     total cpu time spent up to now is     5250.6 secs

     total energy              =   -2125.90323015 Ry
     estimated scf accuracy    <       0.00688964 Ry

     total magnetization       =    19.00 Bohr mag/cell
     absolute magnetization    =    19.03 Bohr mag/cell

     iteration # 13     ecut=   100.00 Ry     beta= 0.40
     Davidson diagonalization with overlap
     ethr =  2.76E-06,  avg # of iterations =  1.2

     negative rho (up, down):  0.000E+00 9.118E-04

     total cpu time spent up to now is     5567.2 secs

     total energy              =   -2125.90325276 Ry
     estimated scf accuracy    <       0.00632257 Ry

     total magnetization       =    19.00 Bohr mag/cell
     absolute magnetization    =    19.03 Bohr mag/cell

     iteration # 14     ecut=   100.00 Ry     beta= 0.40
     Davidson diagonalization with overlap
     ethr =  2.76E-06,  avg # of iterations =  1.0

     negative rho (up, down):  0.000E+00 8.968E-04

     total cpu time spent up to now is     5876.1 secs

     total energy              =   -2125.90327818 Ry
     estimated scf accuracy    <       0.00098249 Ry

     total magnetization       =    19.00 Bohr mag/cell
     absolute magnetization    =    19.03 Bohr mag/cell

     iteration # 15     ecut=   100.00 Ry     beta= 0.40
     Davidson diagonalization with overlap
     ethr =  5.20E-07,  avg # of iterations =  1.2

     negative rho (up, down):  0.000E+00 8.986E-04

     total cpu time spent up to now is     6192.4 secs

     total energy              =   -2125.90330806 Ry
     estimated scf accuracy    <       0.00067504 Ry

     total magnetization       =    19.00 Bohr mag/cell
     absolute magnetization    =    19.04 Bohr mag/cell

     iteration # 16     ecut=   100.00 Ry     beta= 0.40
     Davidson diagonalization with overlap
     ethr =  3.57E-07,  avg # of iterations =  1.0

     negative rho (up, down):  0.000E+00 8.964E-04

     total cpu time spent up to now is     6501.0 secs

     total energy              =   -2125.90332707 Ry
     estimated scf accuracy    <       0.00021359 Ry

     total magnetization       =    19.00 Bohr mag/cell
     absolute magnetization    =    19.04 Bohr mag/cell

     iteration # 17     ecut=   100.00 Ry     beta= 0.40
     Davidson diagonalization with overlap
     ethr =  1.13E-07,  avg # of iterations =  1.3

     negative rho (up, down):  0.000E+00 8.931E-04

     total cpu time spent up to now is     6821.3 secs

     total energy              =   -2125.90333787 Ry
     estimated scf accuracy    <       0.00001910 Ry

     total magnetization       =    19.00 Bohr mag/cell
     absolute magnetization    =    19.04 Bohr mag/cell

     iteration # 18     ecut=   100.00 Ry     beta= 0.40
     Davidson diagonalization with overlap
     c_bands:  1 eigenvalues not converged
     ethr =  1.01E-08,  avg # of iterations =  4.6

     negative rho (up, down):  0.000E+00 8.924E-04

     total cpu time spent up to now is     7345.6 secs

     total energy              =   -2125.90334476 Ry
     estimated scf accuracy    <       0.00001332 Ry

     total magnetization       =    19.00 Bohr mag/cell
     absolute magnetization    =    19.04 Bohr mag/cell

     iteration # 19     ecut=   100.00 Ry     beta= 0.40
     Davidson diagonalization with overlap
     ethr =  7.05E-09,  avg # of iterations =  1.1

     negative rho (up, down):  0.000E+00 8.915E-04

     total cpu time spent up to now is     7658.6 secs

     total energy              =   -2125.90334573 Ry
     estimated scf accuracy    <       0.00000509 Ry

     total magnetization       =    19.00 Bohr mag/cell
     absolute magnetization    =    19.04 Bohr mag/cell

     iteration # 20     ecut=   100.00 Ry     beta= 0.40
     Davidson diagonalization with overlap
     ethr =  2.69E-09,  avg # of iterations =  1.7

     negative rho (up, down):  0.000E+00 8.913E-04

     total cpu time spent up to now is     7998.6 secs

     total energy              =   -2125.90334639 Ry
     estimated scf accuracy    <       0.00000107 Ry

     total magnetization       =    19.00 Bohr mag/cell
     absolute magnetization    =    19.04 Bohr mag/cell

     iteration # 21     ecut=   100.00 Ry     beta= 0.40
     Davidson diagonalization with overlap
     ethr =  5.64E-10,  avg # of iterations =  3.0

     negative rho (up, down):  0.000E+00 8.910E-04

     total cpu time spent up to now is     8427.0 secs

     total energy              =   -2125.90334667 Ry
     estimated scf accuracy    <       0.00000021 Ry

     total magnetization       =    19.00 Bohr mag/cell
     absolute magnetization    =    19.04 Bohr mag/cell

     iteration # 22     ecut=   100.00 Ry     beta= 0.40
     Davidson diagonalization with overlap
     ethr =  1.13E-10,  avg # of iterations =  3.2

     negative rho (up, down):  0.000E+00 8.908E-04

     total cpu time spent up to now is     8873.8 secs

     total energy              =   -2125.90334676 Ry
     estimated scf accuracy    <       0.00000016 Ry

     total magnetization       =    19.00 Bohr mag/cell
     absolute magnetization    =    19.04 Bohr mag/cell

     iteration # 23     ecut=   100.00 Ry     beta= 0.40
     Davidson diagonalization with overlap
     ethr =  8.65E-11,  avg # of iterations =  1.5

     negative rho (up, down):  0.000E+00 8.909E-04

     total cpu time spent up to now is     9206.9 secs

     total energy              =   -2125.90334678 Ry
     estimated scf accuracy    <       0.00000003 Ry

     total magnetization       =    19.00 Bohr mag/cell
     absolute magnetization    =    19.04 Bohr mag/cell

     iteration # 24     ecut=   100.00 Ry     beta= 0.40
     Davidson diagonalization with overlap
     ethr =  1.51E-11,  avg # of iterations =  2.6

     negative rho (up, down):  0.000E+00 8.909E-04

     total cpu time spent up to now is     9598.0 secs

     total energy              =   -2125.90334679 Ry
     estimated scf accuracy    <          4.5E-09 Ry

     total magnetization       =    19.00 Bohr mag/cell
     absolute magnetization    =    19.04 Bohr mag/cell

     iteration # 25     ecut=   100.00 Ry     beta= 0.40
     Davidson diagonalization with overlap
     ethr =  2.37E-12,  avg # of iterations =  3.9

     negative rho (up, down):  0.000E+00 8.909E-04

     total cpu time spent up to now is    10100.8 secs

     total energy              =   -2125.90334679 Ry
     estimated scf accuracy    <          3.7E-09 Ry

     total magnetization       =    19.00 Bohr mag/cell
     absolute magnetization    =    19.04 Bohr mag/cell

     iteration # 26     ecut=   100.00 Ry     beta= 0.40
     Davidson diagonalization with overlap
     ethr =  1.98E-12,  avg # of iterations =  1.4

     negative rho (up, down):  0.000E+00 8.909E-04

     total cpu time spent up to now is    10430.0 secs

     total energy              =   -2125.90334679 Ry
     estimated scf accuracy    <          1.2E-09 Ry

     total magnetization       =    19.00 Bohr mag/cell
     absolute magnetization    =    19.04 Bohr mag/cell

     iteration # 27     ecut=   100.00 Ry     beta= 0.40
     Davidson diagonalization with overlap
     ethr =  6.33E-13,  avg # of iterations =  1.7

     negative rho (up, down):  0.000E+00 8.910E-04

     total cpu time spent up to now is    10774.6 secs

     total energy              =   -2125.90334679 Ry
     estimated scf accuracy    <          2.1E-09 Ry

     total magnetization       =    19.00 Bohr mag/cell
     absolute magnetization    =    19.04 Bohr mag/cell

     iteration # 28     ecut=   100.00 Ry     beta= 0.40
     Davidson diagonalization with overlap
     ethr =  6.33E-13,  avg # of iterations =  1.2

     negative rho (up, down):  0.000E+00 8.910E-04

     total cpu time spent up to now is    11092.9 secs

     total energy              =   -2125.90334679 Ry
     estimated scf accuracy    <          1.1E-09 Ry

     total magnetization       =    19.00 Bohr mag/cell
     absolute magnetization    =    19.04 Bohr mag/cell

     iteration # 29     ecut=   100.00 Ry     beta= 0.40
     Davidson diagonalization with overlap
     ethr =  5.77E-13,  avg # of iterations =  1.0

     negative rho (up, down):  0.000E+00 8.910E-04

     total cpu time spent up to now is    11401.1 secs

     total energy              =   -2125.90334679 Ry
     estimated scf accuracy    <          2.8E-10 Ry

     total magnetization       =    19.00 Bohr mag/cell
     absolute magnetization    =    19.04 Bohr mag/cell

     iteration # 30     ecut=   100.00 Ry     beta= 0.40
     Davidson diagonalization with overlap
     ethr =  1.49E-13,  avg # of iterations =  2.2

     negative rho (up, down):  0.000E+00 8.910E-04

     Magnetic moment per site:
     atom:    1    charge:    7.8781    magn:    0.0008    constr:    0.0000
     atom:    2    charge:   12.6344    magn:    3.5744    constr:    0.0000
     atom:    3    charge:   12.6402    magn:    3.5568    constr:    0.0000
     atom:    4    charge:   12.6539    magn:    3.5266    constr:    0.0000
     atom:    5    charge:   12.6417    magn:    3.5560    constr:    0.0000
     atom:    6    charge:    0.7750    magn:    0.0121    constr:    0.0000
     atom:    7    charge:    0.7776    magn:    0.0095    constr:    0.0000
     atom:    8    charge:    0.7765    magn:    0.0123    constr:    0.0000
     atom:    9    charge:    0.7731    magn:    0.0097    constr:    0.0000
     atom:   10    charge:    4.0765    magn:    0.1276    constr:    0.0000
     atom:   11    charge:    4.0876    magn:    0.0833    constr:    0.0000
     atom:   12    charge:    4.0788    magn:    0.1253    constr:    0.0000
     atom:   13    charge:    4.0728    magn:    0.0895    constr:    0.0000
     atom:   14    charge:    4.0620    magn:    0.0953    constr:    0.0000
     atom:   15    charge:    4.0722    magn:    0.1268    constr:    0.0000
     atom:   16    charge:    4.0694    magn:    0.0837    constr:    0.0000
     atom:   17    charge:    4.0700    magn:    0.1323    constr:    0.0000
     atom:   18    charge:    4.0485    magn:    0.1527    constr:    0.0000
     atom:   19    charge:    4.0527    magn:    0.1332    constr:    0.0000
     atom:   20    charge:    4.0491    magn:    0.1433    constr:    0.0000
     atom:   21    charge:    4.0537    magn:    0.1221    constr:    0.0000
     atom:   22    charge:    4.0520    magn:    0.1543    constr:    0.0000
     atom:   23    charge:    4.0490    magn:    0.1363    constr:    0.0000
     atom:   24    charge:    4.0462    magn:    0.1483    constr:    0.0000
     atom:   25    charge:    4.0457    magn:    0.1251    constr:    0.0000

     total cpu time spent up to now is    11763.7 secs

     End of self-consistent calculation

 ------ SPIN UP ------------


          k = 0.0000 0.0000 0.0000 ( 31277 PWs)   bands (ev):

   -82.9946 -82.9465 -82.9332 -82.8274 -49.1318 -49.1292 -49.1042 -49.0506
   -48.9708 -48.9019 -48.8801 -48.8702 -48.8658 -48.8459 -48.8035 -48.6774
   -42.9053 -15.5669 -15.4741 -15.2359 -15.0815 -14.9531 -14.9306 -14.6916
   -12.6644 -12.6312 -12.5271 -12.4623 -12.3521 -12.2982 -12.2858 -12.2678
   -12.2386 -12.1428 -12.0610 -11.9961  -2.7196  -2.1488  -1.9867  -1.4504
    -1.1885  -0.7429  -0.6033  -0.5295  -0.4527  -0.1303  -0.0845  -0.0382
     0.0816   0.3713   0.4759   0.7452   0.9292   1.0342   1.6172   1.6716
     1.7576   1.8373   2.0015   2.0373   2.1647   2.1950   2.5481   2.6852
     2.7758   2.8622   3.0048   3.0814   3.1128   3.1801   3.2108   3.2586
     3.3031   3.6500   3.8200   3.8579   4.0130   4.0587   4.1076   4.1731
     4.4117   4.4287   4.6618   4.7516   4.7700   4.8347   5.0980   5.1574
     5.2486   5.2690   5.3229   5.4585   5.5497   5.5670   5.6543   5.8018
     5.8508   6.0271   6.3567   6.6501   6.7987   7.0185   7.1092   7.2142
    12.0366  14.1485  14.2963  14.8260  15.0244  15.2383  16.1444  16.4723
    16.4755  16.6274

     occupation numbers 
     1.0000   1.0000   1.0000   1.0000   1.0000   1.0000   1.0000   1.0000
     1.0000   1.0000   1.0000   1.0000   1.0000   1.0000   1.0000   1.0000
     1.0000   1.0000   1.0000   1.0000   1.0000   1.0000   1.0000   1.0000
     1.0000   1.0000   1.0000   1.0000   1.0000   1.0000   1.0000   1.0000
     1.0000   1.0000   1.0000   1.0000   1.0000   1.0000   1.0000   1.0000
     1.0000   1.0000   1.0000   1.0000   1.0000   1.0000   1.0000   1.0000
     1.0000   1.0000   1.0000   1.0000   1.0000   1.0000   1.0000   1.0000
     1.0000   1.0000   1.0000   1.0000   1.0000   1.0000   1.0000   1.0000
     1.0000   1.0000   1.0000   1.0000   1.0000   1.0000   1.0000   1.0000
     1.0000   1.0000   1.0000   1.0000   1.0000   1.0000   1.0000   1.0000
     1.0000   1.0000   1.0000   1.0000   1.0000   1.0000   1.0000   1.0000
     1.0000   1.0000   1.0000   1.0000   1.0000   1.0000   1.0000   1.0000
     1.0000   1.0000   1.0000   1.0000   1.0000   1.0000   1.0000   1.0000
     0.0000   0.0000   0.0000   0.0000   0.0000   0.0000   0.0000   0.0000
     0.0000   0.0000

          k = 0.0000 0.0000 0.2337 ( 31269 PWs)   bands (ev):

   -82.9946 -82.9465 -82.9332 -82.8274 -49.1318 -49.1292 -49.1042 -49.0506
   -48.9708 -48.9019 -48.8801 -48.8702 -48.8658 -48.8459 -48.8035 -48.6774
   -42.9053 -15.5720 -15.4465 -15.2426 -15.0709 -14.9411 -14.9224 -14.7036
   -12.6767 -12.6401 -12.5444 -12.4659 -12.3509 -12.3040 -12.2852 -12.2714
   -12.2376 -12.1505 -12.0670 -12.0024  -2.6919  -2.1339  -1.9901  -1.4730
    -1.1151  -0.7043  -0.6166  -0.5101  -0.4487  -0.1771  -0.0787   0.0388
     0.0983   0.4052   0.4228   0.7754   0.9482   0.9868   1.6167   1.6684
     1.7635   1.8656   1.9568   2.0887   2.1526   2.1828   2.4924   2.7260
     2.7643   2.8109   2.9723   3.0582   3.0770   3.1415   3.2078   3.2767
     3.4184   3.6226   3.7948   3.8711   3.9638   4.0061   4.1024   4.1899
     4.4239   4.4808   4.5600   4.7710   4.8001   4.8867   5.0303   5.1078
     5.2301   5.2603   5.3322   5.3915   5.5588   5.6187   5.7425   5.8224
     5.8961   6.0111   6.3969   6.6341   6.7949   6.9985   7.0796   7.1866
    12.1869  14.1808  14.3770  14.8039  15.1137  15.2594  16.2121  16.2880
    16.3344  16.4528

     occupation numbers 
     1.0000   1.0000   1.0000   1.0000   1.0000   1.0000   1.0000   1.0000
     1.0000   1.0000   1.0000   1.0000   1.0000   1.0000   1.0000   1.0000
     1.0000   1.0000   1.0000   1.0000   1.0000   1.0000   1.0000   1.0000
     1.0000   1.0000   1.0000   1.0000   1.0000   1.0000   1.0000   1.0000
     1.0000   1.0000   1.0000   1.0000   1.0000   1.0000   1.0000   1.0000
     1.0000   1.0000   1.0000   1.0000   1.0000   1.0000   1.0000   1.0000
     1.0000   1.0000   1.0000   1.0000   1.0000   1.0000   1.0000   1.0000
     1.0000   1.0000   1.0000   1.0000   1.0000   1.0000   1.0000   1.0000
     1.0000   1.0000   1.0000   1.0000   1.0000   1.0000   1.0000   1.0000
     1.0000   1.0000   1.0000   1.0000   1.0000   1.0000   1.0000   1.0000
     1.0000   1.0000   1.0000   1.0000   1.0000   1.0000   1.0000   1.0000
     1.0000   1.0000   1.0000   1.0000   1.0000   1.0000   1.0000   1.0000
     1.0000   1.0000   1.0000   1.0000   1.0000   1.0000   1.0000   1.0000
     0.0000   0.0000   0.0000   0.0000   0.0000   0.0000   0.0000   0.0000
     0.0000   0.0000

          k = 0.0000 0.0000 0.4675 ( 31276 PWs)   bands (ev):

   -82.9946 -82.9465 -82.9332 -82.8274 -49.1318 -49.1292 -49.1042 -49.0506
   -48.9708 -48.9019 -48.8801 -48.8702 -48.8658 -48.8459 -48.8035 -48.6774
   -42.9053 -15.5785 -15.3821 -15.2473 -15.0465 -14.9345 -14.8864 -14.7344
   -12.7104 -12.6637 -12.5859 -12.4831 -12.3593 -12.3161 -12.2924 -12.2614
   -12.2265 -12.1685 -12.0846 -12.0195  -2.6112  -2.1114  -1.9879  -1.5448
    -0.9196  -0.6480  -0.6042  -0.4859  -0.4289  -0.2114  -0.0689   0.0839
     0.2540   0.2853   0.5139   0.8309   0.8796   1.0048   1.6080   1.6805
     1.7836   1.8832   1.9803   2.0639   2.1825   2.2083   2.3541   2.7331
     2.7697   2.8191   2.9056   2.9262   2.9843   3.0570   3.1993   3.2843
     3.4172   3.6030   3.7212   3.8729   3.9389   3.9718   4.0244   4.2674
     4.3797   4.4958   4.6837   4.7386   4.7905   4.8245   4.9758   5.0859
     5.1616   5.2303   5.2714   5.3807   5.6564   5.7091   5.8294   5.9044
     5.9630   6.0474   6.4851   6.6045   6.7819   6.9469   6.9924   7.1042
    12.5910  14.2678  14.6113  14.8177  15.2443  15.3606  15.7839  16.0852
    16.2053  16.2615

     occupation numbers 
     1.0000   1.0000   1.0000   1.0000   1.0000   1.0000   1.0000   1.0000
     1.0000   1.0000   1.0000   1.0000   1.0000   1.0000   1.0000   1.0000
     1.0000   1.0000   1.0000   1.0000   1.0000   1.0000   1.0000   1.0000
     1.0000   1.0000   1.0000   1.0000   1.0000   1.0000   1.0000   1.0000
     1.0000   1.0000   1.0000   1.0000   1.0000   1.0000   1.0000   1.0000
     1.0000   1.0000   1.0000   1.0000   1.0000   1.0000   1.0000   1.0000
     1.0000   1.0000   1.0000   1.0000   1.0000   1.0000   1.0000   1.0000
     1.0000   1.0000   1.0000   1.0000   1.0000   1.0000   1.0000   1.0000
     1.0000   1.0000   1.0000   1.0000   1.0000   1.0000   1.0000   1.0000
     1.0000   1.0000   1.0000   1.0000   1.0000   1.0000   1.0000   1.0000
     1.0000   1.0000   1.0000   1.0000   1.0000   1.0000   1.0000   1.0000
     1.0000   1.0000   1.0000   1.0000   1.0000   1.0000   1.0000   1.0000
     1.0000   1.0000   1.0000   1.0000   1.0000   1.0000   1.0000   1.0000
     0.0000   0.0000   0.0000   0.0000   0.0000   0.0000   0.0000   0.0000
     0.0000   0.0000

          k = 0.0000 0.0000 0.7012 ( 31286 PWs)   bands (ev):

   -82.9946 -82.9465 -82.9332 -82.8274 -49.1318 -49.1292 -49.1042 -49.0506
   -48.9708 -48.9019 -48.8802 -48.8702 -48.8658 -48.8459 -48.8035 -48.6774
   -42.9053 -15.5831 -15.3181 -15.2212 -15.0221 -14.9318 -14.8736 -14.7550
   -12.7519 -12.6917 -12.6325 -12.5181 -12.3779 -12.3252 -12.2916 -12.2350
   -12.2075 -12.1861 -12.1119 -12.0425  -2.4873  -2.1255  -1.9611  -1.6556
    -0.7500  -0.6064  -0.5231  -0.4485  -0.3775  -0.2217  -0.0450   0.0405
     0.1713   0.5205   0.6286   0.6667   1.0151   1.1244   1.5851   1.7286
     1.8241   1.8496   1.9888   2.0968   2.1496   2.1895   2.3016   2.6096
     2.7301   2.7901   2.8325   2.8816   2.9343   3.0212   3.0754   3.1947
     3.3012   3.4548   3.6894   3.7620   3.9536   3.9952   4.2006   4.2788
     4.3700   4.5557   4.6381   4.6855   4.7196   4.8432   4.9547   5.0429
     5.1166   5.1930   5.2689   5.4303   5.7420   5.7859   5.8793   5.9914
     6.0289   6.2439   6.5571   6.5957   6.7508   6.8584   6.8881   6.9724
    13.1489  14.4057  14.8887  14.9089  15.1202  15.4070  15.5608  15.8974
    15.9546  16.1048

     occupation numbers 
     1.0000   1.0000   1.0000   1.0000   1.0000   1.0000   1.0000   1.0000
     1.0000   1.0000   1.0000   1.0000   1.0000   1.0000   1.0000   1.0000
     1.0000   1.0000   1.0000   1.0000   1.0000   1.0000   1.0000   1.0000
     1.0000   1.0000   1.0000   1.0000   1.0000   1.0000   1.0000   1.0000
     1.0000   1.0000   1.0000   1.0000   1.0000   1.0000   1.0000   1.0000
     1.0000   1.0000   1.0000   1.0000   1.0000   1.0000   1.0000   1.0000
     1.0000   1.0000   1.0000   1.0000   1.0000   1.0000   1.0000   1.0000
     1.0000   1.0000   1.0000   1.0000   1.0000   1.0000   1.0000   1.0000
     1.0000   1.0000   1.0000   1.0000   1.0000   1.0000   1.0000   1.0000
     1.0000   1.0000   1.0000   1.0000   1.0000   1.0000   1.0000   1.0000
     1.0000   1.0000   1.0000   1.0000   1.0000   1.0000   1.0000   1.0000
     1.0000   1.0000   1.0000   1.0000   1.0000   1.0000   1.0000   1.0000
     1.0000   1.0000   1.0000   1.0000   1.0000   1.0000   1.0000   1.0000
     0.0000   0.0000   0.0000   0.0000   0.0000   0.0000   0.0000   0.0000
     0.0000   0.0000

          k = 0.0000 0.0000 0.9349 ( 31288 PWs)   bands (ev):

   -82.9946 -82.9465 -82.9332 -82.8274 -49.1318 -49.1292 -49.1042 -49.0506
   -48.9708 -48.9019 -48.8802 -48.8702 -48.8658 -48.8459 -48.8036 -48.6775
   -42.9053 -15.5862 -15.2920 -15.1611 -15.0146 -14.9291 -14.9069 -14.7448
   -12.7800 -12.7105 -12.6634 -12.5504 -12.3865 -12.3324 -12.2853 -12.2085
   -12.1970 -12.1857 -12.1434 -12.0611  -2.3449  -2.2001  -1.9038  -1.7727
    -0.7071  -0.6088  -0.4217  -0.3646  -0.2797  -0.2039  -0.1308  -0.0538
     0.2625   0.4319   0.6861   0.7783   1.2516   1.3432   1.5363   1.6448
     1.7984   1.8881   1.9600   2.0242   2.0793   2.1119   2.3405   2.5375
     2.6640   2.7498   2.7816   2.8272   2.8676   3.0365   3.0535   3.1916
     3.3099   3.3796   3.4802   3.5885   3.9875   4.1998   4.2066   4.3522
     4.3940   4.5676   4.5944   4.6257   4.6620   4.8064   4.8833   5.0563
     5.1112   5.1748   5.3765   5.4637   5.7316   5.8081   5.8320   6.0879
     6.2613   6.4445   6.5338   6.6181   6.6389   6.7880   6.8179   6.8564
    13.7639  14.3616  14.6524  15.0264  15.2405  15.3904  15.6280  15.7064
    15.9040  16.0097

     occupation numbers 
     1.0000   1.0000   1.0000   1.0000   1.0000   1.0000   1.0000   1.0000
     1.0000   1.0000   1.0000   1.0000   1.0000   1.0000   1.0000   1.0000
     1.0000   1.0000   1.0000   1.0000   1.0000   1.0000   1.0000   1.0000
     1.0000   1.0000   1.0000   1.0000   1.0000   1.0000   1.0000   1.0000
     1.0000   1.0000   1.0000   1.0000   1.0000   1.0000   1.0000   1.0000
     1.0000   1.0000   1.0000   1.0000   1.0000   1.0000   1.0000   1.0000
     1.0000   1.0000   1.0000   1.0000   1.0000   1.0000   1.0000   1.0000
     1.0000   1.0000   1.0000   1.0000   1.0000   1.0000   1.0000   1.0000
     1.0000   1.0000   1.0000   1.0000   1.0000   1.0000   1.0000   1.0000
     1.0000   1.0000   1.0000   1.0000   1.0000   1.0000   1.0000   1.0000
     1.0000   1.0000   1.0000   1.0000   1.0000   1.0000   1.0000   1.0000
     1.0000   1.0000   1.0000   1.0000   1.0000   1.0000   1.0000   1.0000
     1.0000   1.0000   1.0000   1.0000   1.0000   1.0000   1.0000   1.0000
     0.0000   0.0000   0.0000   0.0000   0.0000   0.0000   0.0000   0.0000
     0.0000   0.0000

          k = 0.0000 0.2391 0.0000 ( 31251 PWs)   bands (ev):

   -82.9946 -82.9465 -82.9332 -82.8274 -49.1318 -49.1292 -49.1042 -49.0506
   -48.9708 -48.9019 -48.8801 -48.8702 -48.8658 -48.8459 -48.8035 -48.6774
   -42.9053 -15.5592 -15.4590 -15.2372 -15.0875 -14.9541 -14.9306 -14.7009
   -12.6747 -12.6284 -12.5239 -12.4661 -12.4212 -12.3067 -12.2774 -12.2701
   -12.1862 -12.1330 -12.0528 -12.0021  -2.6890  -2.1723  -1.9503  -1.4516
    -1.1610  -0.7536  -0.6126  -0.5360  -0.3972  -0.1292  -0.0775  -0.0262
     0.1275   0.3681   0.5233   0.7705   0.8880   1.0563   1.6422   1.6599
     1.7097   1.8174   1.8987   1.9518   2.0398   2.3240   2.6045   2.6950
     2.8747   2.9198   2.9559   2.9818   3.0450   3.0995   3.2424   3.2769
     3.3673   3.6450   3.8065   3.8882   3.9739   4.0531   4.1029   4.2077
     4.3770   4.4826   4.6197   4.6956   4.7693   4.8318   5.0395   5.0825
     5.1765   5.2335   5.3607   5.4500   5.5551   5.6628   5.6842   5.8029
     5.8489   6.0154   6.4572   6.5558   6.7849   6.8940   7.2226   7.2781
    12.1945  14.2366  14.3966  14.8302  15.0863  15.3479  16.0768  16.3313
    16.4577  16.6045

     occupation numbers 
     1.0000   1.0000   1.0000   1.0000   1.0000   1.0000   1.0000   1.0000
     1.0000   1.0000   1.0000   1.0000   1.0000   1.0000   1.0000   1.0000
     1.0000   1.0000   1.0000   1.0000   1.0000   1.0000   1.0000   1.0000
     1.0000   1.0000   1.0000   1.0000   1.0000   1.0000   1.0000   1.0000
     1.0000   1.0000   1.0000   1.0000   1.0000   1.0000   1.0000   1.0000
     1.0000   1.0000   1.0000   1.0000   1.0000   1.0000   1.0000   1.0000
     1.0000   1.0000   1.0000   1.0000   1.0000   1.0000   1.0000   1.0000
     1.0000   1.0000   1.0000   1.0000   1.0000   1.0000   1.0000   1.0000
     1.0000   1.0000   1.0000   1.0000   1.0000   1.0000   1.0000   1.0000
     1.0000   1.0000   1.0000   1.0000   1.0000   1.0000   1.0000   1.0000
     1.0000   1.0000   1.0000   1.0000   1.0000   1.0000   1.0000   1.0000
     1.0000   1.0000   1.0000   1.0000   1.0000   1.0000   1.0000   1.0000
     1.0000   1.0000   1.0000   1.0000   1.0000   1.0000   1.0000   1.0000
     0.0000   0.0000   0.0000   0.0000   0.0000   0.0000   0.0000   0.0000
     0.0000   0.0000

          k = 0.0000 0.2391 0.2337 ( 31298 PWs)   bands (ev):

   -82.9946 -82.9465 -82.9332 -82.8274 -49.1318 -49.1292 -49.1042 -49.0506
   -48.9708 -48.9019 -48.8801 -48.8702 -48.8658 -48.8459 -48.8035 -48.6774
   -42.9053 -15.5431 -15.4555 -15.2422 -15.0828 -14.9416 -14.9208 -14.7078
   -12.6848 -12.6383 -12.5396 -12.4676 -12.4207 -12.3061 -12.2903 -12.2739
   -12.1840 -12.1373 -12.0616 -12.0073  -2.6615  -2.1567  -1.9528  -1.4724
    -1.0928  -0.7162  -0.6164  -0.5211  -0.3915  -0.1758  -0.0633   0.0491
     0.1446   0.4030   0.4680   0.7675   0.8885   1.0526   1.6169   1.6683
     1.7437   1.7984   1.8923   1.9907   2.0054   2.3082   2.6096   2.6753
     2.7927   2.8761   2.9126   3.0125   3.0794   3.1319   3.2083   3.2740
     3.4730   3.6042   3.7829   3.8996   3.9229   4.0474   4.0841   4.1960
     4.4196   4.4938   4.5315   4.7030   4.7693   4.8939   4.9858   5.0846
     5.1263   5.2393   5.3410   5.4191   5.6028   5.6435   5.7573   5.8416
     5.8765   6.0065   6.4813   6.5256   6.7645   6.9012   7.2043   7.2585
    12.3403  14.2692  14.4744  14.8364  15.1567  15.3450  16.1227  16.1752
    16.3263  16.4256

     occupation numbers 
     1.0000   1.0000   1.0000   1.0000   1.0000   1.0000   1.0000   1.0000
     1.0000   1.0000   1.0000   1.0000   1.0000   1.0000   1.0000   1.0000
     1.0000   1.0000   1.0000   1.0000   1.0000   1.0000   1.0000   1.0000
     1.0000   1.0000   1.0000   1.0000   1.0000   1.0000   1.0000   1.0000
     1.0000   1.0000   1.0000   1.0000   1.0000   1.0000   1.0000   1.0000
     1.0000   1.0000   1.0000   1.0000   1.0000   1.0000   1.0000   1.0000
     1.0000   1.0000   1.0000   1.0000   1.0000   1.0000   1.0000   1.0000
     1.0000   1.0000   1.0000   1.0000   1.0000   1.0000   1.0000   1.0000
     1.0000   1.0000   1.0000   1.0000   1.0000   1.0000   1.0000   1.0000
     1.0000   1.0000   1.0000   1.0000   1.0000   1.0000   1.0000   1.0000
     1.0000   1.0000   1.0000   1.0000   1.0000   1.0000   1.0000   1.0000
     1.0000   1.0000   1.0000   1.0000   1.0000   1.0000   1.0000   1.0000
     1.0000   1.0000   1.0000   1.0000   1.0000   1.0000   1.0000   1.0000
     0.0000   0.0000   0.0000   0.0000   0.0000   0.0000   0.0000   0.0000
     0.0000   0.0000

          k = 0.0000 0.2391 0.4675 ( 31274 PWs)   bands (ev):

   -82.9946 -82.9465 -82.9332 -82.8274 -49.1318 -49.1292 -49.1042 -49.0506
   -48.9708 -48.9020 -48.8801 -48.8702 -48.8658 -48.8459 -48.8035 -48.6774
   -42.9053 -15.5471 -15.3968 -15.2470 -15.0600 -14.9352 -14.8870 -14.7300
   -12.7167 -12.6666 -12.5836 -12.4800 -12.4098 -12.3351 -12.3098 -12.2567
   -12.1863 -12.1426 -12.0803 -12.0203  -2.5817  -2.1290  -1.9531  -1.5439
    -0.9071  -0.6414  -0.6071  -0.4939  -0.3717  -0.2077  -0.0556   0.1309
     0.2705   0.3283   0.5026   0.7183   0.9268   1.0495   1.5860   1.6794
     1.7130   1.8068   1.9616   1.9711   2.0867   2.2769   2.5158   2.6945
     2.7351   2.8119   2.8878   2.9618   3.0403   3.0985   3.1685   3.2691
     3.4206   3.6255   3.7341   3.8732   3.8952   3.9374   4.0905   4.2328
     4.3472   4.5343   4.5962   4.6887   4.7784   4.8312   4.9713   5.0142
     5.1011   5.2678   5.3320   5.3842   5.6243   5.7278   5.8462   5.9080
     5.9682   5.9987   6.4551   6.5587   6.7195   6.8987   7.1445   7.2039
    12.7327  14.3521  14.7043  14.8860  15.3112  15.3782  15.7608  16.0338
    16.1286  16.3285

     occupation numbers 
     1.0000   1.0000   1.0000   1.0000   1.0000   1.0000   1.0000   1.0000
     1.0000   1.0000   1.0000   1.0000   1.0000   1.0000   1.0000   1.0000
     1.0000   1.0000   1.0000   1.0000   1.0000   1.0000   1.0000   1.0000
     1.0000   1.0000   1.0000   1.0000   1.0000   1.0000   1.0000   1.0000
     1.0000   1.0000   1.0000   1.0000   1.0000   1.0000   1.0000   1.0000
     1.0000   1.0000   1.0000   1.0000   1.0000   1.0000   1.0000   1.0000
     1.0000   1.0000   1.0000   1.0000   1.0000   1.0000   1.0000   1.0000
     1.0000   1.0000   1.0000   1.0000   1.0000   1.0000   1.0000   1.0000
     1.0000   1.0000   1.0000   1.0000   1.0000   1.0000   1.0000   1.0000
     1.0000   1.0000   1.0000   1.0000   1.0000   1.0000   1.0000   1.0000
     1.0000   1.0000   1.0000   1.0000   1.0000   1.0000   1.0000   1.0000
     1.0000   1.0000   1.0000   1.0000   1.0000   1.0000   1.0000   1.0000
     1.0000   1.0000   1.0000   1.0000   1.0000   1.0000   1.0000   1.0000
     0.0000   0.0000   0.0000   0.0000   0.0000   0.0000   0.0000   0.0000
     0.0000   0.0000

          k = 0.0000 0.2391 0.7012 ( 31293 PWs)   bands (ev):

   -82.9946 -82.9465 -82.9332 -82.8274 -49.1318 -49.1292 -49.1042 -49.0506
   -48.9708 -48.9020 -48.8802 -48.8702 -48.8658 -48.8459 -48.8035 -48.6774
   -42.9053 -15.5587 -15.3203 -15.2312 -15.0331 -14.9326 -14.8795 -14.7411
   -12.7593 -12.6988 -12.6324 -12.5135 -12.4048 -12.3541 -12.3197 -12.2321
   -12.1949 -12.1378 -12.1049 -12.0382  -2.4601  -2.1306  -1.9338  -1.6575
    -0.7326  -0.5973  -0.5187  -0.4555  -0.3216  -0.2128  -0.0370   0.0793
     0.2210   0.5151   0.5893   0.6520   1.0387   1.0891   1.5192   1.6475
     1.7212   1.8589   1.9676   2.0738   2.1476   2.2966   2.3867   2.6154
     2.6710   2.7929   2.8516   2.9067   2.9786   3.0463   3.0904   3.1734
     3.2658   3.4550   3.6678   3.7735   3.9240   3.9954   4.1953   4.2484
     4.3223   4.5581   4.5903   4.7075   4.7493   4.8039   4.8831   5.0163
     5.0923   5.2297   5.3659   5.4358   5.7208   5.7671   5.8795   5.9410
     6.0319   6.1621   6.3941   6.5499   6.7324   6.8931   7.0510   7.1258
    13.2774  14.4835  14.9655  15.0036  15.2030  15.4517  15.5388  15.8199
    15.9202  16.1530

     occupation numbers 
     1.0000   1.0000   1.0000   1.0000   1.0000   1.0000   1.0000   1.0000
     1.0000   1.0000   1.0000   1.0000   1.0000   1.0000   1.0000   1.0000
     1.0000   1.0000   1.0000   1.0000   1.0000   1.0000   1.0000   1.0000
     1.0000   1.0000   1.0000   1.0000   1.0000   1.0000   1.0000   1.0000
     1.0000   1.0000   1.0000   1.0000   1.0000   1.0000   1.0000   1.0000
     1.0000   1.0000   1.0000   1.0000   1.0000   1.0000   1.0000   1.0000
     1.0000   1.0000   1.0000   1.0000   1.0000   1.0000   1.0000   1.0000
     1.0000   1.0000   1.0000   1.0000   1.0000   1.0000   1.0000   1.0000
     1.0000   1.0000   1.0000   1.0000   1.0000   1.0000   1.0000   1.0000
     1.0000   1.0000   1.0000   1.0000   1.0000   1.0000   1.0000   1.0000
     1.0000   1.0000   1.0000   1.0000   1.0000   1.0000   1.0000   1.0000
     1.0000   1.0000   1.0000   1.0000   1.0000   1.0000   1.0000   1.0000
     1.0000   1.0000   1.0000   1.0000   1.0000   1.0000   1.0000   1.0000
     0.0000   0.0000   0.0000   0.0000   0.0000   0.0000   0.0000   0.0000
     0.0000   0.0000

          k = 0.0000 0.2391 0.9349 ( 31292 PWs)   bands (ev):

   -82.9946 -82.9465 -82.9332 -82.8274 -49.1318 -49.1292 -49.1042 -49.0506
   -48.9708 -48.9020 -48.8802 -48.8702 -48.8658 -48.8459 -48.8036 -48.6775
   -42.9053 -15.5699 -15.2811 -15.1792 -15.0206 -14.9302 -14.9100 -14.7335
   -12.7887 -12.7178 -12.6669 -12.5478 -12.4106 -12.3551 -12.3168 -12.2220
   -12.1868 -12.1387 -12.1213 -12.0517  -2.3228  -2.1888  -1.8897  -1.7716
    -0.6799  -0.5942  -0.4247  -0.3682  -0.2327  -0.1881  -0.0908  -0.0421
     0.2902   0.4159   0.6873   0.7802   1.1979   1.2512   1.4020   1.5005
     1.8244   1.8966   2.0197   2.1045   2.1840   2.2192   2.3142   2.5061
     2.6556   2.7475   2.7975   2.8719   2.8969   3.0109   3.0494   3.1626
     3.2264   3.3652   3.4800   3.6316   3.9668   4.1461   4.1894   4.3143
     4.3601   4.4970   4.6185   4.6928   4.7132   4.7733   4.8271   5.0184
     5.1127   5.1992   5.4375   5.4901   5.7404   5.7899   5.8358   6.0497
     6.1251   6.3050   6.3417   6.4807   6.7796   6.8758   6.9724   7.0547
    13.8786  14.4433  14.7420  15.1151  15.3171  15.4465  15.5930  15.6835
    15.8928  16.1121

     occupation numbers 
     1.0000   1.0000   1.0000   1.0000   1.0000   1.0000   1.0000   1.0000
     1.0000   1.0000   1.0000   1.0000   1.0000   1.0000   1.0000   1.0000
     1.0000   1.0000   1.0000   1.0000   1.0000   1.0000   1.0000   1.0000
     1.0000   1.0000   1.0000   1.0000   1.0000   1.0000   1.0000   1.0000
     1.0000   1.0000   1.0000   1.0000   1.0000   1.0000   1.0000   1.0000
     1.0000   1.0000   1.0000   1.0000   1.0000   1.0000   1.0000   1.0000
     1.0000   1.0000   1.0000   1.0000   1.0000   1.0000   1.0000   1.0000
     1.0000   1.0000   1.0000   1.0000   1.0000   1.0000   1.0000   1.0000
     1.0000   1.0000   1.0000   1.0000   1.0000   1.0000   1.0000   1.0000
     1.0000   1.0000   1.0000   1.0000   1.0000   1.0000   1.0000   1.0000
     1.0000   1.0000   1.0000   1.0000   1.0000   1.0000   1.0000   1.0000
     1.0000   1.0000   1.0000   1.0000   1.0000   1.0000   1.0000   1.0000
     1.0000   1.0000   1.0000   1.0000   1.0000   1.0000   1.0000   1.0000
     0.0000   0.0000   0.0000   0.0000   0.0000   0.0000   0.0000   0.0000
     0.0000   0.0000

          k = 0.0000 0.4781 0.0000 ( 31226 PWs)   bands (ev):

   -82.9946 -82.9465 -82.9332 -82.8274 -49.1318 -49.1292 -49.1042 -49.0506
   -48.9708 -48.9019 -48.8801 -48.8702 -48.8658 -48.8459 -48.8035 -48.6774
   -42.9053 -15.5449 -15.4125 -15.2443 -15.1086 -14.9561 -14.9306 -14.7200
   -12.6973 -12.6185 -12.5439 -12.4974 -12.4602 -12.3286 -12.2768 -12.2470
   -12.1692 -12.0833 -12.0607 -11.9945  -2.6047  -2.2405  -1.8514  -1.4850
    -1.0766  -0.7856  -0.6255  -0.5488  -0.2834  -0.1397  -0.0306   0.0407
     0.1920   0.4007   0.5994   0.7637   0.8623   1.1311   1.5114   1.5704
     1.7166   1.7508   1.7985   1.8775   1.9975   2.3908   2.5228   2.6886
     2.7328   2.8697   2.9217   3.0031   3.1050   3.1545   3.2630   3.3534
     3.5427   3.5901   3.7641   3.8543   3.9346   3.9621   4.0580   4.2820
     4.4050   4.5011   4.5661   4.6523   4.7324   4.8214   4.8714   4.9559
     5.0908   5.1230   5.4626   5.5186   5.5968   5.6874   5.7224   5.8293
     5.9186   5.9968   6.3329   6.4804   6.7249   7.0382   7.2856   7.3381
    12.6253  14.3550  14.6654  14.7055  15.3385  15.6159  15.8793  16.0792
    16.3453  16.5352

     occupation numbers 
     1.0000   1.0000   1.0000   1.0000   1.0000   1.0000   1.0000   1.0000
     1.0000   1.0000   1.0000   1.0000   1.0000   1.0000   1.0000   1.0000
     1.0000   1.0000   1.0000   1.0000   1.0000   1.0000   1.0000   1.0000
     1.0000   1.0000   1.0000   1.0000   1.0000   1.0000   1.0000   1.0000
     1.0000   1.0000   1.0000   1.0000   1.0000   1.0000   1.0000   1.0000
     1.0000   1.0000   1.0000   1.0000   1.0000   1.0000   1.0000   1.0000
     1.0000   1.0000   1.0000   1.0000   1.0000   1.0000   1.0000   1.0000
     1.0000   1.0000   1.0000   1.0000   1.0000   1.0000   1.0000   1.0000
     1.0000   1.0000   1.0000   1.0000   1.0000   1.0000   1.0000   1.0000
     1.0000   1.0000   1.0000   1.0000   1.0000   1.0000   1.0000   1.0000
     1.0000   1.0000   1.0000   1.0000   1.0000   1.0000   1.0000   1.0000
     1.0000   1.0000   1.0000   1.0000   1.0000   1.0000   1.0000   1.0000
     1.0000   1.0000   1.0000   1.0000   1.0000   1.0000   1.0000   1.0000
     0.0000   0.0000   0.0000   0.0000   0.0000   0.0000   0.0000   0.0000
     0.0000   0.0000

          k = 0.0000 0.4781 0.2337 ( 31258 PWs)   bands (ev):

   -82.9946 -82.9465 -82.9332 -82.8274 -49.1318 -49.1292 -49.1042 -49.0506
   -48.9708 -48.9019 -48.8801 -48.8702 -48.8658 -48.8459 -48.8035 -48.6774
   -42.9053 -15.5151 -15.4284 -15.2469 -15.1033 -14.9437 -14.9191 -14.7248
   -12.7043 -12.6289 -12.5496 -12.5076 -12.4647 -12.3423 -12.2865 -12.2438
   -12.1743 -12.0796 -12.0630 -12.0027  -2.5782  -2.2222  -1.8547  -1.5018
    -1.0197  -0.7471  -0.6153  -0.5357  -0.2771  -0.1687   0.0060   0.0781
     0.2365   0.4063   0.5472   0.6963   0.9050   1.1333   1.4767   1.5496
     1.6862   1.7857   1.8076   1.8942   2.0112   2.4093   2.5193   2.6550
     2.6924   2.7866   2.9243   3.0271   3.1048   3.2064   3.2864   3.3498
     3.5395   3.6083   3.7461   3.8435   3.9213   3.9876   4.0828   4.1955
     4.3784   4.4495   4.5979   4.6398   4.6687   4.8580   4.9138   4.9651
     5.0148   5.1057   5.4564   5.5204   5.6552   5.7052   5.7607   5.8499
[...]
     atom    9 type  4   force =    -0.00066063    0.00273525    0.00714368
     atom   10 type  3   force =    -0.02230611   -0.00322167    0.12423160
     atom   11 type  3   force =     0.00791558   -0.00189920    0.12652740
     atom   12 type  3   force =     0.02805831   -0.00017114   -0.12532498
     atom   13 type  3   force =    -0.01950644   -0.00265912   -0.13147899
     atom   14 type  3   force =    -0.11761772   -0.00528667    0.05226551
     atom   15 type  3   force =     0.11100815    0.00164617    0.05813157
     atom   16 type  3   force =     0.11619788   -0.00641067   -0.03246268
     atom   17 type  3   force =    -0.10617682   -0.00143082   -0.05156721
     atom   18 type  3   force =     0.04746675    0.10003238   -0.05779239
     atom   19 type  3   force =    -0.04993438   -0.10425081   -0.06456378
     atom   20 type  3   force =    -0.05192879    0.10447867    0.05299935
     atom   21 type  3   force =     0.05823596   -0.09799239    0.04508263
     atom   22 type  3   force =    -0.04361837   -0.10140249    0.05023428
     atom   23 type  3   force =     0.04571641    0.09817248    0.05973928
     atom   24 type  3   force =     0.04873789   -0.10320731   -0.05798545
     atom   25 type  3   force =    -0.04541128    0.10806150   -0.05883814
     The non-local contrib.  to forces
     atom    1 type  2   force =     0.02950228   -0.01398442   -0.00174850
     atom    2 type  1   force =     0.07784762   -0.04394687    0.13935009
     atom    3 type  1   force =     0.06970709    0.00404434    0.11895694
     atom    4 type  1   force =    -0.12776271    0.06545967   -0.12635793
     atom    5 type  1   force =    -0.07082389   -0.01834803   -0.10583284
     atom    6 type  4   force =    -0.01774625    0.00035522   -0.04992909
     atom    7 type  4   force =     0.03447553    0.00487068   -0.02373498
     atom    8 type  4   force =     0.00428771   -0.01021350    0.05264796
     atom    9 type  4   force =    -0.00302501    0.00307347    0.04059964
     atom   10 type  3   force =     0.26522551    0.02487694   -1.43289563
     atom   11 type  3   force =    -0.10516743    0.01098131   -1.38773247
     atom   12 type  3   force =    -0.32597087   -0.01566076    1.43792308
     atom   13 type  3   force =     0.19629819   -0.00079167    1.42401380
     atom   14 type  3   force =     1.17876065    0.01848909   -0.56539272
     atom   15 type  3   force =    -1.14441386   -0.01906448   -0.66726383
     atom   16 type  3   force =    -1.16486670    0.04548491    0.35876806
     atom   17 type  3   force =     1.13043789    0.00795613    0.57740202
     atom   18 type  3   force =    -0.50878794   -1.04407258    0.73068555
     atom   19 type  3   force =     0.56530775    1.06750689    0.79185139
     atom   20 type  3   force =     0.57682163   -1.07307788   -0.69243931
     atom   21 type  3   force =    -0.65051683    1.00641697   -0.60969979
     atom   22 type  3   force =     0.50683855    1.03748527   -0.66215461
     atom   23 type  3   force =    -0.53207182   -1.03717166   -0.73928516
     atom   24 type  3   force =    -0.52562536    1.05906759    0.72133614
     atom   25 type  3   force =     0.52684090   -1.11218484    0.72439617
     The ionic contribution  to forces
     atom    1 type  2   force =    -1.75245938   -0.35887300    0.34531484
     atom    2 type  1   force =    -0.79889210    0.60559506   -0.49177719
     atom    3 type  1   force =   -10.06505807   -1.22240163   -0.50747602
     atom    4 type  1   force =     2.81736503   -1.26506880    0.54097485
     atom    5 type  1   force =    10.15613486    1.64693297    0.89449950
     atom    6 type  4   force =    -4.22444751    0.05283092    0.39467665
     atom    7 type  4   force =     1.00243106   -1.36393175    0.85649151
     atom    8 type  4   force =     5.19534191    0.00838274   -0.46605597
     atom    9 type  4   force =    -2.39593485    1.52701490   -0.95575579
     atom   10 type  3   force =   -11.73749520   -0.10372427    3.03958084
     atom   11 type  3   force =     5.28385259   -2.27089666    1.60490228
     atom   12 type  3   force =    12.97229592    0.16408659   -3.13717598
     atom   13 type  3   force =    -8.15258561    2.15267673   -2.41216328
     atom   14 type  3   force =     0.23242762    2.02055268    5.44312509
     atom   15 type  3   force =    -2.61837910    0.14797109    7.38973083
     atom   16 type  3   force =    -1.31683726   -2.90980803   -3.03239319
     atom   17 type  3   force =     3.78513258   -0.15133775   -6.72285006
     atom   18 type  3   force =    -4.76439171    3.07989026   -3.26360173
     atom   19 type  3   force =     1.29814749   -3.52818411   -3.42869392
     atom   20 type  3   force =     5.82305870    4.01578098    2.99069724
     atom   21 type  3   force =     1.47083017   -1.91936218    0.23913040
     atom   22 type  3   force =     5.52213198   -3.87723255    2.62816303
     atom   23 type  3   force =    -2.11450059    2.56311573    2.97927972
     atom   24 type  3   force =    -5.18252266   -3.30470357   -3.19573519
     atom   25 type  3   force =    -0.43564587    4.29069365   -1.73288847
     The local contribution  to forces
     atom    1 type  2   force =     1.71916311    0.39200425   -0.33977286
     atom    2 type  1   force =     0.73680757   -0.57078736    0.36394446
     atom    3 type  1   force =    10.00177947    1.21853179    0.39536427
     atom    4 type  1   force =    -2.71424905    1.21024223   -0.42181582
     atom    5 type  1   force =   -10.09192252   -1.63187402   -0.79521041
     atom    6 type  4   force =     4.23718843   -0.05443884   -0.35972303
     atom    7 type  4   force =    -1.02614068    1.35730893   -0.83781983
     atom    8 type  4   force =    -5.19830686   -0.00052639    0.42827968
     atom    9 type  4   force =     2.39759140   -1.52632072    0.92406665
     atom   10 type  3   force =    11.45259826    0.07581565   -1.49294283
     atom   11 type  3   force =    -5.17224955    2.25806359   -0.10067046
     atom   12 type  3   force =   -12.62136125   -0.14875156    1.58442254
     atom   13 type  3   force =     7.93885010   -2.15456619    0.86700979
     atom   14 type  3   force =    -1.52066662   -2.04418566   -4.83006296
     atom   15 type  3   force =     3.86582265   -0.12740912   -6.66969120
     atom   16 type  3   force =     2.58990574    2.85818868    2.64418658
     atom   17 type  3   force =    -5.01381441    0.14199963    6.09854169
     atom   18 type  3   force =     5.31700280   -1.94329892    2.48079538
     atom   19 type  3   force =    -1.90931096    2.36404473    2.57846515
     atom   20 type  3   force =    -6.44757855   -2.84597546   -2.25061874
     atom   21 type  3   force =    -0.76681681    0.82224558    0.41084583
     atom   22 type  3   force =    -6.06891392    2.74581403   -1.92087074
     atom   23 type  3   force =     2.68844787   -1.43525048   -2.18603706
     atom   24 type  3   force =     5.75308702    2.15006884    2.42198055
     atom   25 type  3   force =    -0.13283111   -3.07857353    0.95530260
     The core correction contribution to forces
     atom    1 type  2   force =     0.00000000    0.00000000    0.00000000
     atom    2 type  1   force =    -0.00181618    0.00064013   -0.00066546
     atom    3 type  1   force =    -0.00043569   -0.00013611    0.00040312
     atom    4 type  1   force =     0.00313758   -0.00100846    0.00037663
     atom    5 type  1   force =     0.00043195    0.00041191   -0.00038377
     atom    6 type  4   force =     0.00191206    0.00001677    0.00304950
     atom    7 type  4   force =    -0.00239029    0.00014824    0.00080484
     atom    8 type  4   force =    -0.00123699    0.00057010   -0.00316994
     atom    9 type  4   force =     0.00070595   -0.00103247   -0.00176698
     atom   10 type  3   force =    -0.00263054   -0.00018993    0.01049157
     atom   11 type  3   force =     0.00147825   -0.00004752    0.01002758
     atom   12 type  3   force =     0.00309865    0.00015469   -0.01049291
     atom   13 type  3   force =    -0.00207076    0.00002198   -0.01033926
     atom   14 type  3   force =    -0.00814627   -0.00014272    0.00459487
     atom   15 type  3   force =     0.00798058    0.00014879    0.00535587
     atom   16 type  3   force =     0.00799127   -0.00027616   -0.00302480
     atom   17 type  3   force =    -0.00792922   -0.00004889   -0.00466079
     atom   18 type  3   force =     0.00364553    0.00751063   -0.00567358
     atom   19 type  3   force =    -0.00408056   -0.00762225   -0.00618475
     atom   20 type  3   force =    -0.00422789    0.00775243    0.00535868
     atom   21 type  3   force =     0.00473856   -0.00729112    0.00480698
     atom   22 type  3   force =    -0.00367214   -0.00747054    0.00509501
     atom   23 type  3   force =     0.00383996    0.00747696    0.00578282
     atom   24 type  3   force =     0.00380086   -0.00763709   -0.00556913
     atom   25 type  3   force =    -0.00377700    0.00812957   -0.00564688
     The Hubbard contrib.    to forces
     atom    1 type  2   force =     0.00000000    0.00000000    0.00000000
     atom    2 type  1   force =     0.00000000    0.00000000    0.00000000
     atom    3 type  1   force =     0.00000000    0.00000000    0.00000000
     atom    4 type  1   force =     0.00000000    0.00000000    0.00000000
     atom    5 type  1   force =     0.00000000    0.00000000    0.00000000
     atom    6 type  4   force =     0.00000000    0.00000000    0.00000000
     atom    7 type  4   force =     0.00000000    0.00000000    0.00000000
     atom    8 type  4   force =     0.00000000    0.00000000    0.00000000
     atom    9 type  4   force =     0.00000000    0.00000000    0.00000000
     atom   10 type  3   force =     0.00000000    0.00000000    0.00000000
     atom   11 type  3   force =     0.00000000    0.00000000    0.00000000
     atom   12 type  3   force =     0.00000000    0.00000000    0.00000000
     atom   13 type  3   force =     0.00000000    0.00000000    0.00000000
     atom   14 type  3   force =     0.00000000    0.00000000    0.00000000
     atom   15 type  3   force =     0.00000000    0.00000000    0.00000000
     atom   16 type  3   force =     0.00000000    0.00000000    0.00000000
     atom   17 type  3   force =     0.00000000    0.00000000    0.00000000
     atom   18 type  3   force =     0.00000000    0.00000000    0.00000000
     atom   19 type  3   force =     0.00000000    0.00000000    0.00000000
     atom   20 type  3   force =     0.00000000    0.00000000    0.00000000
     atom   21 type  3   force =     0.00000000    0.00000000    0.00000000
     atom   22 type  3   force =     0.00000000    0.00000000    0.00000000
     atom   23 type  3   force =     0.00000000    0.00000000    0.00000000
     atom   24 type  3   force =     0.00000000    0.00000000    0.00000000
     atom   25 type  3   force =     0.00000000    0.00000000    0.00000000
     The SCF correction term to forces
     atom    1 type  2   force =     0.00000399   -0.00000115   -0.00000045
     atom    2 type  1   force =     0.00000239   -0.00000000   -0.00000071
     atom    3 type  1   force =     0.00000100    0.00000020   -0.00000076
     atom    4 type  1   force =    -0.00000275   -0.00000023   -0.00000028
     atom    5 type  1   force =    -0.00000377    0.00000022   -0.00000095
     atom    6 type  4   force =    -0.00000199    0.00000002    0.00000054
     atom    7 type  4   force =     0.00000224    0.00000010   -0.00000007
     atom    8 type  4   force =    -0.00000247   -0.00000003    0.00000045
     atom    9 type  4   force =     0.00000189    0.00000008    0.00000024
     atom   10 type  3   force =    -0.00000413   -0.00000004   -0.00000227
     atom   11 type  3   force =     0.00000174    0.00000009    0.00000055
     atom   12 type  3   force =    -0.00000414   -0.00000009   -0.00000164
     atom   13 type  3   force =     0.00000165    0.00000004    0.00000003
     atom   14 type  3   force =     0.00000691   -0.00000004    0.00000131
     atom   15 type  3   force =    -0.00000211   -0.00000010   -0.00000001
     atom   16 type  3   force =     0.00000483   -0.00000005    0.00000076
     atom   17 type  3   force =    -0.00000365    0.00000008    0.00000001
     atom   18 type  3   force =    -0.00000192    0.00000300    0.00000206
     atom   19 type  3   force =     0.00000191    0.00000394   -0.00000157
     atom   20 type  3   force =    -0.00000267   -0.00000139    0.00000157
     atom   21 type  3   force =     0.00000090   -0.00000162   -0.00000070
     atom   22 type  3   force =    -0.00000284    0.00000131    0.00000167
     atom   23 type  3   force =     0.00000100    0.00000193   -0.00000096
     atom   24 type  3   force =    -0.00000195   -0.00000307    0.00000226
     atom   25 type  3   force =     0.00000181   -0.00000333   -0.00000148

     Total force =     0.507145     Total SCF correction =     0.000018


     Computing stress (Cartesian axis) and pressure


     negative rho (up, down):  0.000E+00 8.910E-04
          total   stress  (Ry/bohr**3)                   (kbar)     P=      296.97
   0.00214057   0.00007340  -0.00005374          314.89       10.80       -7.91
   0.00007340   0.00174215  -0.00004063           10.80      256.28       -5.98
  -0.00005374  -0.00004063   0.00217350           -7.91       -5.98      319.73

     kinetic stress (kbar)  31472.20    -11.17     -7.61
                              -11.17  31666.27     -6.12
                               -7.61     -6.12  31451.16

     local   stress (kbar)  -3182.88  -2901.29   1192.02
                            -2901.29 -15307.93   1073.25
                             1192.02   1073.25  -7181.87

     nonloc. stress (kbar)  -8102.81     -2.83      1.41
                               -2.83  -8013.58      3.10
                                1.41      3.10  -8001.29

     hartree stress (kbar)  13830.21   1155.26   -456.35
                             1155.26  20422.14   -423.29
                             -456.35   -423.29  16413.07

     exc-cor stress (kbar)  -3319.61      1.72     -1.02
                                1.72  -3328.33     -0.59
                               -1.02     -0.59  -3326.17

     corecor stress (kbar)  -3641.53     -0.65      0.89
                               -0.65  -3639.19     -0.01
                                0.89     -0.01  -3642.32

     ewald   stress (kbar) -26740.69   1769.75   -737.25
                             1769.75 -21543.10   -652.32
                             -737.25   -652.32 -25392.84

     hubbard stress (kbar)      0.00      0.00      0.00
                                0.00      0.00      0.00
                                0.00      0.00      0.00

     DFT-D   stress (kbar)      0.00      0.00      0.00
                                0.00      0.00      0.00
                                0.00      0.00      0.00

     XDM     stress (kbar)      0.00      0.00      0.00
                                0.00      0.00      0.00
                                0.00      0.00      0.00

     dft-nl  stress (kbar)      0.00      0.00      0.00
                                0.00      0.00      0.00
                                0.00      0.00      0.00

     TS-vdW  stress (kbar)      0.00      0.00      0.00
                                0.00      0.00      0.00
                                0.00      0.00      0.00



     init_run     :    147.04s CPU    150.20s WALL (       1 calls)
     electrons    :  11466.31s CPU  11612.90s WALL (       1 calls)
     forces       :     92.25s CPU     93.78s WALL (       1 calls)
     stress       :    642.50s CPU    646.09s WALL (       1 calls)

     Called by init_run:
     wfcinit      :    139.88s CPU    142.32s WALL (       1 calls)
     wfcinit:atom :      2.06s CPU      2.09s WALL (     316 calls)
     wfcinit:wfcr :    130.65s CPU    132.94s WALL (     316 calls)
     potinit      :      2.43s CPU      2.56s WALL (       1 calls)
     hinit0       :      2.85s CPU      3.02s WALL (       1 calls)

     Called by electrons:
     c_bands      :  10214.90s CPU  10321.14s WALL (      30 calls)
     sum_band     :   1186.07s CPU   1213.58s WALL (      30 calls)
     v_of_rho     :     15.51s CPU     16.83s WALL (      31 calls)
     v_h          :      0.62s CPU      0.69s WALL (      31 calls)
     v_xc         :     15.75s CPU     17.08s WALL (      33 calls)
     newd         :     33.88s CPU     45.35s WALL (      31 calls)
     PAW_pot      :     12.80s CPU     12.85s WALL (      31 calls)
     mix_rho      :      3.26s CPU      3.55s WALL (      30 calls)

     Called by c_bands:
     init_us_2    :    171.91s CPU    174.75s WALL (   19908 calls)
     cegterg      :   9919.21s CPU  10020.73s WALL (    9480 calls)

     Called by sum_band:
     sum_band:wei :      0.45s CPU      0.46s WALL (      30 calls)
     sum_band:loo :   1099.80s CPU   1112.75s WALL (      30 calls)
     sum_band:buf :     45.84s CPU     46.60s WALL (    9480 calls)
     sum_band:ini :     82.29s CPU     83.50s WALL (    9480 calls)
     sum_band:cal :    528.12s CPU    534.15s WALL (    9480 calls)
     sum_band:bec :      7.09s CPU      7.20s WALL (    9480 calls)
     addusdens    :     83.19s CPU     97.61s WALL (      30 calls)
     addusd:skk   :      0.54s CPU      0.56s WALL (      90 calls)
     addusd:dgemm :     41.47s CPU     54.05s WALL (     180 calls)
     addusd:qvan2 :     40.10s CPU     40.30s WALL (     180 calls)

     Called by *egterg:
     cdiaghg      :    767.73s CPU    788.01s WALL (   35053 calls)
     cegterg:over :   1010.21s CPU   1027.75s WALL (   25573 calls)
     cegterg:upda :    573.60s CPU    576.16s WALL (   25573 calls)
     cegterg:last :   1109.30s CPU   1113.82s WALL (   15544 calls)
     h_psi        :   4700.19s CPU   4745.40s WALL (   35369 calls)
     s_psi        :   1252.47s CPU   1257.47s WALL (   35369 calls)
     g_psi        :     11.45s CPU     11.60s WALL (   25573 calls)

     Called by h_psi:
     h_psi:calbec :   1332.22s CPU   1348.56s WALL (   35369 calls)
     vloc_psi     :   1962.68s CPU   1984.06s WALL (   35369 calls)
     add_vuspsi   :   1314.41s CPU   1319.71s WALL (   35369 calls)

     General routines
     calbec       :   1950.65s CPU   1974.10s WALL (   46429 calls)
     fft          :     11.25s CPU     13.03s WALL (     813 calls)
     ffts         :      0.21s CPU      0.25s WALL (     122 calls)
     fftw         :   2218.16s CPU   2242.03s WALL ( 5928274 calls)
     interpolate  :      0.99s CPU      1.15s WALL (      62 calls)

     Parallel routines
     fft_scatt_xy :    220.62s CPU    222.97s WALL ( 5929209 calls)
     fft_scatt_yz :    735.21s CPU    745.84s WALL ( 5929209 calls)

     PAW routines
     PAW_pot      :     12.80s CPU     12.85s WALL (      31 calls)

     PWSCF        :      3h25m CPU      3h28m WALL


   This run was terminated on:  12:47: 3  19Dec2022            

=------------------------------------------------------------------------------=
   JOB DONE.
=------------------------------------------------------------------------------=
Note: The following floating-point exceptions are signalling: IEEE_INVALID_FLAG IEEE_DENORMAL
Note: The following floating-point exceptions are signalling: IEEE_DENORMAL
Note: The following floating-point exceptions are signalling: IEEE_UNDERFLOW_FLAG IEEE_DENORMAL
Note: The following floating-point exceptions are signalling: IEEE_DENORMAL
Note: The following floating-point exceptions are signalling: IEEE_INVALID_FLAG IEEE_DENORMAL
Note: The following floating-point exceptions are signalling: IEEE_DENORMAL
Note: The following floating-point exceptions are signalling: IEEE_DENORMAL
Note: The following floating-point exceptions are signalling: IEEE_DENORMAL
Note: The following floating-point exceptions are signalling: IEEE_DENORMAL
