
     Program PWSCF v.6.7MaX starts on 19Dec2022 at 14:20:11 

     This program is part of the open-source Quantum ESPRESSO suite
     for quantum simulation of materials; please cite
         "P. Giannozzi et al., J. Phys.:Condens. Matter 21 395502 (2009);
         "P. Giannozzi et al., J. Phys.:Condens. Matter 29 465901 (2017);
          URL http://www.quantum-espresso.org", 
     in publications or presentations arising from this work. More details at
     http://www.quantum-espresso.org/quote

     Parallel version (MPI), running on    24 processors

     MPI processes distributed on     1 nodes
     R & G space division:  proc/nbgrp/npool/nimage =      24
     Reading input from scale_3d-05.in

     Current dimensions of program PWSCF are:
     Max number of different atomic species (ntypx) = 10
     Max number of k-points (npk) =  40000
     Max angular momentum in pseudopotentials (lmaxx) =  3
     Message from routine read_pp_mesh:
     mesh size missing, using the one in header
     file Fe.pbe-spn-kjpaw_psl.0.2.1.UPF: wavefunction(s)  3D renormalized
     file O.pbe-n-kjpaw_psl.0.1.UPF: wavefunction(s)  2P renormalized

     Subspace diagonalization in iterative solution of the eigenvalue problem:
     a serial algorithm will be used


     Parallelization info
     --------------------
     sticks:   dense  smooth     PW     G-vecs:    dense   smooth      PW
     Min         912     338     91                62459    14078    1965
     Max         914     339     92                62462    14080    1966
     Sum       21895    8121   2193              1499053   337887   47169



     bravais-lattice index     =            0
     lattice parameter (alat)  =      20.6483  a.u.
     unit-cell volume          =    2500.8842 (a.u.)^3
     number of atoms/cell      =           25
     number of atomic types    =            4
     number of electrons       =       189.00
     number of Kohn-Sham states=          114
     kinetic-energy cutoff     =     100.0000  Ry
     charge density cutoff     =    1080.0000  Ry
     scf convergence threshold =      2.0E-10
     mixing beta               =       0.4000
     number of iterations used =            8  plain     mixing
     Exchange-correlation= PBE
                           (   1   4   3   4   0   0   0)

     celldm(1)=  20.648310  celldm(2)=   0.000000  celldm(3)=   0.000000
     celldm(4)=   0.000000  celldm(5)=   0.000000  celldm(6)=   0.000000

     crystal axes: (cart. coord. in units of alat)
               a(1) = (   1.000000   0.000000   0.000000 )  
               a(2) = (   0.000000   0.597590   0.000000 )  
               a(3) = (   0.000000   0.000000   0.475375 )  

     reciprocal axes: (cart. coord. in units 2 pi/alat)
               b(1) = (  1.000000  0.000000  0.000000 )  
               b(2) = (  0.000000  1.673388  0.000000 )  
               b(3) = (  0.000000  0.000000  2.103600 )  


     PseudoPot. # 1 for Fe read from file:
     /opt/QEpot/SSSP_precision_pseudos/Fe.pbe-spn-kjpaw_psl.0.2.1.UPF
     MD5 check sum: e86618425769142926afa95317d90200
     Pseudo is Projector augmented-wave + core cor, Zval = 16.0
     Generated using "atomic" code by A. Dal Corso  v.5.0.99 svn rev. 10869
     Shape of augmentation charge: PSQ
     Using radial grid of 1191 points,  6 beta functions with: 
                l(1) =   0
                l(2) =   0
                l(3) =   1
                l(4) =   1
                l(5) =   2
                l(6) =   2
     Q(r) pseudized with 0 coefficients 


     PseudoPot. # 2 for Na read from file:
     /opt/QEpot/SSSP_precision_pseudos/Na_ONCV_PBE-1.0.oncvpsp.upf
     MD5 check sum: 24a298df0a6742ae313db96548fdb2a4
     Pseudo is Norm-conserving, Zval =  9.0
     Generated using ONCVPSP code by D. R. Hamann
     Using radial grid of 1992 points,  4 beta functions with: 
                l(1) =   0
                l(2) =   0
                l(3) =   1
                l(4) =   1

     PseudoPot. # 3 for O  read from file:
     /opt/QEpot/SSSP_precision_pseudos/O.pbe-n-kjpaw_psl.0.1.UPF
     MD5 check sum: 0234752ac141de4415c5fc33072bef88
     Pseudo is Projector augmented-wave + core cor, Zval =  6.0
     Generated using "atomic" code by A. Dal Corso  v.5.0.99 svn rev. 10869
     Shape of augmentation charge: BESSEL
     Using radial grid of 1095 points,  4 beta functions with: 
                l(1) =   0
                l(2) =   0
                l(3) =   1
                l(4) =   1
     Q(r) pseudized with 0 coefficients 


     PseudoPot. # 4 for P  read from file:
     /opt/QEpot/SSSP_precision_pseudos/P.pbe-n-rrkjus_psl.1.0.0.UPF
     MD5 check sum: 8b930f418f0a4573dca56cd030ffe088
     Pseudo is Ultrasoft + core correction, Zval =  5.0
     Generated using "atomic" code by A. Dal Corso  v.5.1
     Using radial grid of 1147 points,  6 beta functions with: 
                l(1) =   0
                l(2) =   0
                l(3) =   1
                l(4) =   1
                l(5) =   2
                l(6) =   2
     Q(r) pseudized with 0 coefficients 


     atomic species   valence    mass     pseudopotential
        Fe            16.00    55.84500     Fe( 1.00)
        Na             9.00    22.98977     Na( 1.00)
        O              6.00    15.99940     O ( 1.00)
        P              5.00    30.97376     P ( 1.00)

     Starting magnetic structure 
     atomic species   magnetization
        Fe           0.312
        Na           0.000
        O            0.000
        P            0.000

     No symmetry found


                                    s                        frac. trans.

      isym =  1     identity                                     

 cryst.   s( 1) = (     1          0          0      )
                  (     0          1          0      )
                  (     0          0          1      )

 cart.    s( 1) = (  1.0000000  0.0000000  0.0000000 )
                  (  0.0000000  1.0000000  0.0000000 )
                  (  0.0000000  0.0000000  1.0000000 )


   Cartesian axes

     site n.     atom                  positions (alat units)
         1           Na  tau(   1) = (   0.5267800   0.2501284   0.2306180  )
         2           Fe  tau(   2) = (   0.2775050   0.4472674   0.4722466  )
         3           Fe  tau(   3) = (   0.2107690   0.1466874   0.2330719  )
         4           Fe  tau(   4) = (   0.7260420   0.1429088   0.0026588  )
         5           Fe  tau(   5) = (   0.7842060   0.4498914   0.2425851  )
         6           P   tau(   6) = (   0.1068460   0.4463178   0.2112516  )
         7           P   tau(   7) = (   0.3892680   0.1441405   0.4489717  )
         8           P   tau(   8) = (   0.8912160   0.1490282   0.2646648  )
         9           P   tau(   9) = (   0.6066990   0.4473576   0.0266572  )
        10           O   tau(  10) = (   0.1320850   0.4449702   0.3572247  )
        11           O   tau(  11) = (   0.3656990   0.1484640   0.1199059  )
        12           O   tau(  12) = (   0.8700850   0.1481975   0.1181826  )
        13           O   tau(  13) = (   0.6284590   0.4431267   0.3551991  )
        14           O   tau(  14) = (   0.4610830   0.4426086   0.0588087  )
        15           O   tau(  15) = (   0.0360890   0.1497536   0.2963752  )
        16           O   tau(  16) = (   0.5370310   0.1458765   0.4233822  )
        17           O   tau(  17) = (   0.9604850   0.4463668   0.1846211  )
        18           O   tau(  18) = (   0.1757850   0.5636456   0.1436124  )
        19           O   tau(  19) = (   0.3203990   0.0278513   0.3823364  )
        20           O   tau(  20) = (   0.8166330   0.2634439   0.3310230  )
        21           O   tau(  21) = (   0.6775460   0.3312519   0.0961033  )
        22           O   tau(  22) = (   0.8196290   0.0319944   0.3313272  )
        23           O   tau(  23) = (   0.6770700   0.5640789   0.0933780  )
        24           O   tau(  24) = (   0.1771920   0.3306824   0.1421829  )
        25           O   tau(  25) = (   0.3254700   0.2612077   0.3758404  )

   Crystallographic axes

     site n.     atom                  positions (cryst. coord.)
         1           Na  tau(   1) = (  0.5267800  0.4185620  0.4851280  )
         2           Fe  tau(   2) = (  0.2775050  0.7484520  0.9934180  )
         3           Fe  tau(   3) = (  0.2107690  0.2454650  0.4902900  )
         4           Fe  tau(   4) = (  0.7260420  0.2391420  0.0055930  )
         5           Fe  tau(   5) = (  0.7842060  0.7528430  0.5103020  )
         6           P   tau(   6) = (  0.1068460  0.7468630  0.4443890  )
         7           P   tau(   7) = (  0.3892680  0.2412030  0.9444570  )
         8           P   tau(   8) = (  0.8912160  0.2493820  0.5567490  )
         9           P   tau(   9) = (  0.6066990  0.7486030  0.0560760  )
        10           O   tau(  10) = (  0.1320850  0.7446080  0.7514580  )
        11           O   tau(  11) = (  0.3656990  0.2484380  0.2522340  )
        12           O   tau(  12) = (  0.8700850  0.2479920  0.2486090  )
        13           O   tau(  13) = (  0.6284590  0.7415230  0.7471970  )
        14           O   tau(  14) = (  0.4610830  0.7406560  0.1237100  )
        15           O   tau(  15) = (  0.0360890  0.2505960  0.6234550  )
        16           O   tau(  16) = (  0.5370310  0.2441080  0.8906270  )
        17           O   tau(  17) = (  0.9604850  0.7469450  0.3883690  )
        18           O   tau(  18) = (  0.1757850  0.9431980  0.3021030  )
        19           O   tau(  19) = (  0.3203990  0.0466060  0.8042830  )
        20           O   tau(  20) = (  0.8166330  0.4408440  0.6963400  )
        21           O   tau(  21) = (  0.6775460  0.5543130  0.2021630  )
        22           O   tau(  22) = (  0.8196290  0.0535390  0.6969800  )
        23           O   tau(  23) = (  0.6770700  0.9439230  0.1964300  )
        24           O   tau(  24) = (  0.1771920  0.5533600  0.2990960  )
        25           O   tau(  25) = (  0.3254700  0.4371020  0.7906180  )

     number of k points=   158  Marzari-Vanderbilt smearing, width (Ry)=  0.0073
                       cart. coord. in units 2pi/alat
        k(    1) = (   0.0000000   0.0000000   0.0000000), wk =   0.0031746
        k(    2) = (   0.0000000   0.0000000   0.2337334), wk =   0.0063492
        k(    3) = (   0.0000000   0.0000000   0.4674667), wk =   0.0063492
        k(    4) = (   0.0000000   0.0000000   0.7012001), wk =   0.0063492
        k(    5) = (   0.0000000   0.0000000   0.9349334), wk =   0.0063492
        k(    6) = (   0.0000000   0.2390555   0.0000000), wk =   0.0063492
        k(    7) = (   0.0000000   0.2390555   0.2337334), wk =   0.0063492
        k(    8) = (   0.0000000   0.2390555   0.4674667), wk =   0.0063492
        k(    9) = (   0.0000000   0.2390555   0.7012001), wk =   0.0063492
        k(   10) = (   0.0000000   0.2390555   0.9349334), wk =   0.0063492
        k(   11) = (   0.0000000   0.4781110   0.0000000), wk =   0.0063492
        k(   12) = (   0.0000000   0.4781110   0.2337334), wk =   0.0063492
        k(   13) = (   0.0000000   0.4781110   0.4674667), wk =   0.0063492
        k(   14) = (   0.0000000   0.4781110   0.7012001), wk =   0.0063492
        k(   15) = (   0.0000000   0.4781110   0.9349334), wk =   0.0063492
        k(   16) = (   0.0000000   0.7171664   0.0000000), wk =   0.0063492
        k(   17) = (   0.0000000   0.7171664   0.2337334), wk =   0.0063492
        k(   18) = (   0.0000000   0.7171664   0.4674667), wk =   0.0063492
        k(   19) = (   0.0000000   0.7171664   0.7012001), wk =   0.0063492
        k(   20) = (   0.0000000   0.7171664   0.9349334), wk =   0.0063492
        k(   21) = (   0.2000000   0.0000000   0.0000000), wk =   0.0063492
        k(   22) = (   0.2000000   0.0000000   0.2337334), wk =   0.0063492
        k(   23) = (   0.2000000   0.0000000   0.4674667), wk =   0.0063492
        k(   24) = (   0.2000000   0.0000000   0.7012001), wk =   0.0063492
        k(   25) = (   0.2000000   0.0000000   0.9349334), wk =   0.0063492
        k(   26) = (   0.2000000   0.2390555   0.0000000), wk =   0.0063492
        k(   27) = (   0.2000000   0.2390555   0.2337334), wk =   0.0063492
        k(   28) = (   0.2000000   0.2390555   0.4674667), wk =   0.0063492
        k(   29) = (   0.2000000   0.2390555   0.7012001), wk =   0.0063492
        k(   30) = (   0.2000000   0.2390555   0.9349334), wk =   0.0063492
        k(   31) = (   0.2000000   0.4781110   0.0000000), wk =   0.0063492
        k(   32) = (   0.2000000   0.4781110   0.2337334), wk =   0.0063492
        k(   33) = (   0.2000000   0.4781110   0.4674667), wk =   0.0063492
        k(   34) = (   0.2000000   0.4781110   0.7012001), wk =   0.0063492
        k(   35) = (   0.2000000   0.4781110   0.9349334), wk =   0.0063492
        k(   36) = (   0.2000000   0.7171664   0.0000000), wk =   0.0063492
        k(   37) = (   0.2000000   0.7171664   0.2337334), wk =   0.0063492
        k(   38) = (   0.2000000   0.7171664   0.4674667), wk =   0.0063492
        k(   39) = (   0.2000000   0.7171664   0.7012001), wk =   0.0063492
        k(   40) = (   0.2000000   0.7171664   0.9349334), wk =   0.0063492
        k(   41) = (   0.4000000   0.0000000   0.0000000), wk =   0.0063492
        k(   42) = (   0.4000000   0.0000000   0.2337334), wk =   0.0063492
        k(   43) = (   0.4000000   0.0000000   0.4674667), wk =   0.0063492
        k(   44) = (   0.4000000   0.0000000   0.7012001), wk =   0.0063492
        k(   45) = (   0.4000000   0.0000000   0.9349334), wk =   0.0063492
        k(   46) = (   0.4000000   0.2390555   0.0000000), wk =   0.0063492
        k(   47) = (   0.4000000   0.2390555   0.2337334), wk =   0.0063492
        k(   48) = (   0.4000000   0.2390555   0.4674667), wk =   0.0063492
        k(   49) = (   0.4000000   0.2390555   0.7012001), wk =   0.0063492
        k(   50) = (   0.4000000   0.2390555   0.9349334), wk =   0.0063492
        k(   51) = (   0.4000000   0.4781110   0.0000000), wk =   0.0063492
        k(   52) = (   0.4000000   0.4781110   0.2337334), wk =   0.0063492
        k(   53) = (   0.4000000   0.4781110   0.4674667), wk =   0.0063492
        k(   54) = (   0.4000000   0.4781110   0.7012001), wk =   0.0063492
        k(   55) = (   0.4000000   0.4781110   0.9349334), wk =   0.0063492
        k(   56) = (   0.4000000   0.7171664   0.0000000), wk =   0.0063492
        k(   57) = (   0.4000000   0.7171664   0.2337334), wk =   0.0063492
        k(   58) = (   0.4000000   0.7171664   0.4674667), wk =   0.0063492
        k(   59) = (   0.4000000   0.7171664   0.7012001), wk =   0.0063492
        k(   60) = (   0.4000000   0.7171664   0.9349334), wk =   0.0063492
        k(   61) = (   0.0000000  -0.2390555   0.2337334), wk =   0.0063492
        k(   62) = (   0.0000000  -0.2390555   0.4674667), wk =   0.0063492
        k(   63) = (   0.0000000  -0.2390555   0.7012001), wk =   0.0063492
        k(   64) = (   0.0000000  -0.2390555   0.9349334), wk =   0.0063492
        k(   65) = (   0.0000000  -0.4781110   0.2337334), wk =   0.0063492
        k(   66) = (   0.0000000  -0.4781110   0.4674667), wk =   0.0063492
        k(   67) = (   0.0000000  -0.4781110   0.7012001), wk =   0.0063492
        k(   68) = (   0.0000000  -0.4781110   0.9349334), wk =   0.0063492
        k(   69) = (   0.0000000  -0.7171664   0.2337334), wk =   0.0063492
        k(   70) = (   0.0000000  -0.7171664   0.4674667), wk =   0.0063492
        k(   71) = (   0.0000000  -0.7171664   0.7012001), wk =   0.0063492
        k(   72) = (   0.0000000  -0.7171664   0.9349334), wk =   0.0063492
        k(   73) = (  -0.2000000   0.0000000   0.2337334), wk =   0.0063492
        k(   74) = (  -0.2000000   0.0000000   0.4674667), wk =   0.0063492
        k(   75) = (  -0.2000000   0.0000000   0.7012001), wk =   0.0063492
        k(   76) = (  -0.2000000   0.0000000   0.9349334), wk =   0.0063492
        k(   77) = (  -0.2000000   0.2390555   0.0000000), wk =   0.0063492
        k(   78) = (  -0.2000000  -0.2390555   0.2337334), wk =   0.0063492
        k(   79) = (  -0.2000000   0.2390555  -0.2337334), wk =   0.0063492
        k(   80) = (   0.2000000  -0.2390555  -0.2337334), wk =   0.0063492
        k(   81) = (  -0.2000000  -0.2390555   0.4674667), wk =   0.0063492
        k(   82) = (  -0.2000000   0.2390555  -0.4674667), wk =   0.0063492
        k(   83) = (   0.2000000  -0.2390555  -0.4674667), wk =   0.0063492
        k(   84) = (  -0.2000000  -0.2390555   0.7012001), wk =   0.0063492
        k(   85) = (  -0.2000000   0.2390555  -0.7012001), wk =   0.0063492
        k(   86) = (   0.2000000  -0.2390555  -0.7012001), wk =   0.0063492
        k(   87) = (  -0.2000000  -0.2390555   0.9349334), wk =   0.0063492
        k(   88) = (  -0.2000000   0.2390555  -0.9349334), wk =   0.0063492
        k(   89) = (   0.2000000  -0.2390555  -0.9349334), wk =   0.0063492
        k(   90) = (  -0.2000000   0.4781110   0.0000000), wk =   0.0063492
        k(   91) = (  -0.2000000  -0.4781110   0.2337334), wk =   0.0063492
        k(   92) = (  -0.2000000   0.4781110  -0.2337334), wk =   0.0063492
        k(   93) = (   0.2000000  -0.4781110  -0.2337334), wk =   0.0063492
        k(   94) = (  -0.2000000  -0.4781110   0.4674667), wk =   0.0063492
        k(   95) = (  -0.2000000   0.4781110  -0.4674667), wk =   0.0063492
        k(   96) = (   0.2000000  -0.4781110  -0.4674667), wk =   0.0063492
        k(   97) = (  -0.2000000  -0.4781110   0.7012001), wk =   0.0063492
        k(   98) = (  -0.2000000   0.4781110  -0.7012001), wk =   0.0063492
        k(   99) = (   0.2000000  -0.4781110  -0.7012001), wk =   0.0063492
        k(  100) = (  -0.2000000  -0.4781110   0.9349334), wk =   0.0063492
        k(  101) = (  -0.2000000   0.4781110  -0.9349334), wk =   0.0063492
        k(  102) = (   0.2000000  -0.4781110  -0.9349334), wk =   0.0063492
        k(  103) = (  -0.2000000   0.7171664   0.0000000), wk =   0.0063492
        k(  104) = (  -0.2000000  -0.7171664   0.2337334), wk =   0.0063492
        k(  105) = (  -0.2000000   0.7171664  -0.2337334), wk =   0.0063492
        k(  106) = (   0.2000000  -0.7171664  -0.2337334), wk =   0.0063492
        k(  107) = (  -0.2000000  -0.7171664   0.4674667), wk =   0.0063492
        k(  108) = (  -0.2000000   0.7171664  -0.4674667), wk =   0.0063492
        k(  109) = (   0.2000000  -0.7171664  -0.4674667), wk =   0.0063492
        k(  110) = (  -0.2000000  -0.7171664   0.7012001), wk =   0.0063492
        k(  111) = (  -0.2000000   0.7171664  -0.7012001), wk =   0.0063492
        k(  112) = (   0.2000000  -0.7171664  -0.7012001), wk =   0.0063492
        k(  113) = (  -0.2000000  -0.7171664   0.9349334), wk =   0.0063492
        k(  114) = (  -0.2000000   0.7171664  -0.9349334), wk =   0.0063492
        k(  115) = (   0.2000000  -0.7171664  -0.9349334), wk =   0.0063492
        k(  116) = (  -0.4000000   0.0000000   0.2337334), wk =   0.0063492
        k(  117) = (  -0.4000000   0.0000000   0.4674667), wk =   0.0063492
        k(  118) = (  -0.4000000   0.0000000   0.7012001), wk =   0.0063492
        k(  119) = (  -0.4000000   0.0000000   0.9349334), wk =   0.0063492
        k(  120) = (  -0.4000000   0.2390555   0.0000000), wk =   0.0063492
        k(  121) = (  -0.4000000  -0.2390555   0.2337334), wk =   0.0063492
        k(  122) = (  -0.4000000   0.2390555  -0.2337334), wk =   0.0063492
        k(  123) = (   0.4000000  -0.2390555  -0.2337334), wk =   0.0063492
        k(  124) = (  -0.4000000  -0.2390555   0.4674667), wk =   0.0063492
        k(  125) = (  -0.4000000   0.2390555  -0.4674667), wk =   0.0063492
        k(  126) = (   0.4000000  -0.2390555  -0.4674667), wk =   0.0063492
        k(  127) = (  -0.4000000  -0.2390555   0.7012001), wk =   0.0063492
        k(  128) = (  -0.4000000   0.2390555  -0.7012001), wk =   0.0063492
        k(  129) = (   0.4000000  -0.2390555  -0.7012001), wk =   0.0063492
        k(  130) = (  -0.4000000  -0.2390555   0.9349334), wk =   0.0063492
        k(  131) = (  -0.4000000   0.2390555  -0.9349334), wk =   0.0063492
        k(  132) = (   0.4000000  -0.2390555  -0.9349334), wk =   0.0063492
        k(  133) = (  -0.4000000   0.4781110   0.0000000), wk =   0.0063492
        k(  134) = (  -0.4000000  -0.4781110   0.2337334), wk =   0.0063492
        k(  135) = (  -0.4000000   0.4781110  -0.2337334), wk =   0.0063492
        k(  136) = (   0.4000000  -0.4781110  -0.2337334), wk =   0.0063492
        k(  137) = (  -0.4000000  -0.4781110   0.4674667), wk =   0.0063492
        k(  138) = (  -0.4000000   0.4781110  -0.4674667), wk =   0.0063492
        k(  139) = (   0.4000000  -0.4781110  -0.4674667), wk =   0.0063492
        k(  140) = (  -0.4000000  -0.4781110   0.7012001), wk =   0.0063492
        k(  141) = (  -0.4000000   0.4781110  -0.7012001), wk =   0.0063492
        k(  142) = (   0.4000000  -0.4781110  -0.7012001), wk =   0.0063492
        k(  143) = (  -0.4000000  -0.4781110   0.9349334), wk =   0.0063492
        k(  144) = (  -0.4000000   0.4781110  -0.9349334), wk =   0.0063492
        k(  145) = (   0.4000000  -0.4781110  -0.9349334), wk =   0.0063492
        k(  146) = (  -0.4000000   0.7171664   0.0000000), wk =   0.0063492
        k(  147) = (  -0.4000000  -0.7171664   0.2337334), wk =   0.0063492
        k(  148) = (  -0.4000000   0.7171664  -0.2337334), wk =   0.0063492
        k(  149) = (   0.4000000  -0.7171664  -0.2337334), wk =   0.0063492
        k(  150) = (  -0.4000000  -0.7171664   0.4674667), wk =   0.0063492
        k(  151) = (  -0.4000000   0.7171664  -0.4674667), wk =   0.0063492
        k(  152) = (   0.4000000  -0.7171664  -0.4674667), wk =   0.0063492
        k(  153) = (  -0.4000000  -0.7171664   0.7012001), wk =   0.0063492
        k(  154) = (  -0.4000000   0.7171664  -0.7012001), wk =   0.0063492
        k(  155) = (   0.4000000  -0.7171664  -0.7012001), wk =   0.0063492
        k(  156) = (  -0.4000000  -0.7171664   0.9349334), wk =   0.0063492
        k(  157) = (  -0.4000000   0.7171664  -0.9349334), wk =   0.0063492
        k(  158) = (   0.4000000  -0.7171664  -0.9349334), wk =   0.0063492

                       cryst. coord.
        k(    1) = (   0.0000000   0.0000000   0.0000000), wk =   0.0031746
        k(    2) = (   0.0000000   0.0000000   0.1111111), wk =   0.0063492
        k(    3) = (   0.0000000   0.0000000   0.2222222), wk =   0.0063492
        k(    4) = (   0.0000000   0.0000000   0.3333333), wk =   0.0063492
        k(    5) = (   0.0000000   0.0000000   0.4444444), wk =   0.0063492
        k(    6) = (   0.0000000   0.1428571   0.0000000), wk =   0.0063492
        k(    7) = (   0.0000000   0.1428571   0.1111111), wk =   0.0063492
        k(    8) = (   0.0000000   0.1428571   0.2222222), wk =   0.0063492
        k(    9) = (   0.0000000   0.1428571   0.3333333), wk =   0.0063492
        k(   10) = (   0.0000000   0.1428571   0.4444444), wk =   0.0063492
        k(   11) = (   0.0000000   0.2857143   0.0000000), wk =   0.0063492
        k(   12) = (   0.0000000   0.2857143   0.1111111), wk =   0.0063492
        k(   13) = (   0.0000000   0.2857143   0.2222222), wk =   0.0063492
        k(   14) = (   0.0000000   0.2857143   0.3333333), wk =   0.0063492
        k(   15) = (   0.0000000   0.2857143   0.4444444), wk =   0.0063492
        k(   16) = (   0.0000000   0.4285714   0.0000000), wk =   0.0063492
        k(   17) = (   0.0000000   0.4285714   0.1111111), wk =   0.0063492
        k(   18) = (   0.0000000   0.4285714   0.2222222), wk =   0.0063492
        k(   19) = (   0.0000000   0.4285714   0.3333333), wk =   0.0063492
        k(   20) = (   0.0000000   0.4285714   0.4444444), wk =   0.0063492
        k(   21) = (   0.2000000   0.0000000   0.0000000), wk =   0.0063492
        k(   22) = (   0.2000000   0.0000000   0.1111111), wk =   0.0063492
        k(   23) = (   0.2000000   0.0000000   0.2222222), wk =   0.0063492
        k(   24) = (   0.2000000   0.0000000   0.3333333), wk =   0.0063492
        k(   25) = (   0.2000000   0.0000000   0.4444444), wk =   0.0063492
        k(   26) = (   0.2000000   0.1428571   0.0000000), wk =   0.0063492
        k(   27) = (   0.2000000   0.1428571   0.1111111), wk =   0.0063492
        k(   28) = (   0.2000000   0.1428571   0.2222222), wk =   0.0063492
        k(   29) = (   0.2000000   0.1428571   0.3333333), wk =   0.0063492
        k(   30) = (   0.2000000   0.1428571   0.4444444), wk =   0.0063492
        k(   31) = (   0.2000000   0.2857143   0.0000000), wk =   0.0063492
        k(   32) = (   0.2000000   0.2857143   0.1111111), wk =   0.0063492
        k(   33) = (   0.2000000   0.2857143   0.2222222), wk =   0.0063492
        k(   34) = (   0.2000000   0.2857143   0.3333333), wk =   0.0063492
        k(   35) = (   0.2000000   0.2857143   0.4444444), wk =   0.0063492
        k(   36) = (   0.2000000   0.4285714   0.0000000), wk =   0.0063492
        k(   37) = (   0.2000000   0.4285714   0.1111111), wk =   0.0063492
        k(   38) = (   0.2000000   0.4285714   0.2222222), wk =   0.0063492
        k(   39) = (   0.2000000   0.4285714   0.3333333), wk =   0.0063492
        k(   40) = (   0.2000000   0.4285714   0.4444444), wk =   0.0063492
        k(   41) = (   0.4000000   0.0000000   0.0000000), wk =   0.0063492
        k(   42) = (   0.4000000   0.0000000   0.1111111), wk =   0.0063492
        k(   43) = (   0.4000000   0.0000000   0.2222222), wk =   0.0063492
        k(   44) = (   0.4000000   0.0000000   0.3333333), wk =   0.0063492
        k(   45) = (   0.4000000   0.0000000   0.4444444), wk =   0.0063492
        k(   46) = (   0.4000000   0.1428571   0.0000000), wk =   0.0063492
        k(   47) = (   0.4000000   0.1428571   0.1111111), wk =   0.0063492
        k(   48) = (   0.4000000   0.1428571   0.2222222), wk =   0.0063492
        k(   49) = (   0.4000000   0.1428571   0.3333333), wk =   0.0063492
        k(   50) = (   0.4000000   0.1428571   0.4444444), wk =   0.0063492
        k(   51) = (   0.4000000   0.2857143   0.0000000), wk =   0.0063492
        k(   52) = (   0.4000000   0.2857143   0.1111111), wk =   0.0063492
        k(   53) = (   0.4000000   0.2857143   0.2222222), wk =   0.0063492
        k(   54) = (   0.4000000   0.2857143   0.3333333), wk =   0.0063492
        k(   55) = (   0.4000000   0.2857143   0.4444444), wk =   0.0063492
        k(   56) = (   0.4000000   0.4285714   0.0000000), wk =   0.0063492
        k(   57) = (   0.4000000   0.4285714   0.1111111), wk =   0.0063492
        k(   58) = (   0.4000000   0.4285714   0.2222222), wk =   0.0063492
        k(   59) = (   0.4000000   0.4285714   0.3333333), wk =   0.0063492
        k(   60) = (   0.4000000   0.4285714   0.4444444), wk =   0.0063492
        k(   61) = (   0.0000000  -0.1428571   0.1111111), wk =   0.0063492
        k(   62) = (   0.0000000  -0.1428571   0.2222222), wk =   0.0063492
        k(   63) = (   0.0000000  -0.1428571   0.3333333), wk =   0.0063492
        k(   64) = (   0.0000000  -0.1428571   0.4444444), wk =   0.0063492
        k(   65) = (   0.0000000  -0.2857143   0.1111111), wk =   0.0063492
        k(   66) = (   0.0000000  -0.2857143   0.2222222), wk =   0.0063492
        k(   67) = (   0.0000000  -0.2857143   0.3333333), wk =   0.0063492
        k(   68) = (   0.0000000  -0.2857143   0.4444444), wk =   0.0063492
        k(   69) = (   0.0000000  -0.4285714   0.1111111), wk =   0.0063492
        k(   70) = (   0.0000000  -0.4285714   0.2222222), wk =   0.0063492
        k(   71) = (   0.0000000  -0.4285714   0.3333333), wk =   0.0063492
        k(   72) = (   0.0000000  -0.4285714   0.4444444), wk =   0.0063492
        k(   73) = (  -0.2000000   0.0000000   0.1111111), wk =   0.0063492
        k(   74) = (  -0.2000000   0.0000000   0.2222222), wk =   0.0063492
        k(   75) = (  -0.2000000   0.0000000   0.3333333), wk =   0.0063492
        k(   76) = (  -0.2000000   0.0000000   0.4444444), wk =   0.0063492
        k(   77) = (  -0.2000000   0.1428571   0.0000000), wk =   0.0063492
        k(   78) = (  -0.2000000  -0.1428571   0.1111111), wk =   0.0063492
        k(   79) = (  -0.2000000   0.1428571  -0.1111111), wk =   0.0063492
        k(   80) = (   0.2000000  -0.1428571  -0.1111111), wk =   0.0063492
        k(   81) = (  -0.2000000  -0.1428571   0.2222222), wk =   0.0063492
        k(   82) = (  -0.2000000   0.1428571  -0.2222222), wk =   0.0063492
        k(   83) = (   0.2000000  -0.1428571  -0.2222222), wk =   0.0063492
        k(   84) = (  -0.2000000  -0.1428571   0.3333333), wk =   0.0063492
        k(   85) = (  -0.2000000   0.1428571  -0.3333333), wk =   0.0063492
        k(   86) = (   0.2000000  -0.1428571  -0.3333333), wk =   0.0063492
        k(   87) = (  -0.2000000  -0.1428571   0.4444444), wk =   0.0063492
        k(   88) = (  -0.2000000   0.1428571  -0.4444444), wk =   0.0063492
        k(   89) = (   0.2000000  -0.1428571  -0.4444444), wk =   0.0063492
        k(   90) = (  -0.2000000   0.2857143   0.0000000), wk =   0.0063492
        k(   91) = (  -0.2000000  -0.2857143   0.1111111), wk =   0.0063492
        k(   92) = (  -0.2000000   0.2857143  -0.1111111), wk =   0.0063492
        k(   93) = (   0.2000000  -0.2857143  -0.1111111), wk =   0.0063492
        k(   94) = (  -0.2000000  -0.2857143   0.2222222), wk =   0.0063492
        k(   95) = (  -0.2000000   0.2857143  -0.2222222), wk =   0.0063492
        k(   96) = (   0.2000000  -0.2857143  -0.2222222), wk =   0.0063492
        k(   97) = (  -0.2000000  -0.2857143   0.3333333), wk =   0.0063492
        k(   98) = (  -0.2000000   0.2857143  -0.3333333), wk =   0.0063492
        k(   99) = (   0.2000000  -0.2857143  -0.3333333), wk =   0.0063492
        k(  100) = (  -0.2000000  -0.2857143   0.4444444), wk =   0.0063492
        k(  101) = (  -0.2000000   0.2857143  -0.4444444), wk =   0.0063492
        k(  102) = (   0.2000000  -0.2857143  -0.4444444), wk =   0.0063492
        k(  103) = (  -0.2000000   0.4285714   0.0000000), wk =   0.0063492
        k(  104) = (  -0.2000000  -0.4285714   0.1111111), wk =   0.0063492
        k(  105) = (  -0.2000000   0.4285714  -0.1111111), wk =   0.0063492
        k(  106) = (   0.2000000  -0.4285714  -0.1111111), wk =   0.0063492
        k(  107) = (  -0.2000000  -0.4285714   0.2222222), wk =   0.0063492
        k(  108) = (  -0.2000000   0.4285714  -0.2222222), wk =   0.0063492
        k(  109) = (   0.2000000  -0.4285714  -0.2222222), wk =   0.0063492
        k(  110) = (  -0.2000000  -0.4285714   0.3333333), wk =   0.0063492
        k(  111) = (  -0.2000000   0.4285714  -0.3333333), wk =   0.0063492
        k(  112) = (   0.2000000  -0.4285714  -0.3333333), wk =   0.0063492
        k(  113) = (  -0.2000000  -0.4285714   0.4444444), wk =   0.0063492
        k(  114) = (  -0.2000000   0.4285714  -0.4444444), wk =   0.0063492
        k(  115) = (   0.2000000  -0.4285714  -0.4444444), wk =   0.0063492
        k(  116) = (  -0.4000000   0.0000000   0.1111111), wk =   0.0063492
        k(  117) = (  -0.4000000   0.0000000   0.2222222), wk =   0.0063492
        k(  118) = (  -0.4000000   0.0000000   0.3333333), wk =   0.0063492
        k(  119) = (  -0.4000000   0.0000000   0.4444444), wk =   0.0063492
        k(  120) = (  -0.4000000   0.1428571   0.0000000), wk =   0.0063492
        k(  121) = (  -0.4000000  -0.1428571   0.1111111), wk =   0.0063492
        k(  122) = (  -0.4000000   0.1428571  -0.1111111), wk =   0.0063492
        k(  123) = (   0.4000000  -0.1428571  -0.1111111), wk =   0.0063492
        k(  124) = (  -0.4000000  -0.1428571   0.2222222), wk =   0.0063492
        k(  125) = (  -0.4000000   0.1428571  -0.2222222), wk =   0.0063492
        k(  126) = (   0.4000000  -0.1428571  -0.2222222), wk =   0.0063492
        k(  127) = (  -0.4000000  -0.1428571   0.3333333), wk =   0.0063492
        k(  128) = (  -0.4000000   0.1428571  -0.3333333), wk =   0.0063492
        k(  129) = (   0.4000000  -0.1428571  -0.3333333), wk =   0.0063492
        k(  130) = (  -0.4000000  -0.1428571   0.4444444), wk =   0.0063492
        k(  131) = (  -0.4000000   0.1428571  -0.4444444), wk =   0.0063492
        k(  132) = (   0.4000000  -0.1428571  -0.4444444), wk =   0.0063492
        k(  133) = (  -0.4000000   0.2857143   0.0000000), wk =   0.0063492
        k(  134) = (  -0.4000000  -0.2857143   0.1111111), wk =   0.0063492
        k(  135) = (  -0.4000000   0.2857143  -0.1111111), wk =   0.0063492
        k(  136) = (   0.4000000  -0.2857143  -0.1111111), wk =   0.0063492
        k(  137) = (  -0.4000000  -0.2857143   0.2222222), wk =   0.0063492
        k(  138) = (  -0.4000000   0.2857143  -0.2222222), wk =   0.0063492
        k(  139) = (   0.4000000  -0.2857143  -0.2222222), wk =   0.0063492
        k(  140) = (  -0.4000000  -0.2857143   0.3333333), wk =   0.0063492
        k(  141) = (  -0.4000000   0.2857143  -0.3333333), wk =   0.0063492
        k(  142) = (   0.4000000  -0.2857143  -0.3333333), wk =   0.0063492
        k(  143) = (  -0.4000000  -0.2857143   0.4444444), wk =   0.0063492
        k(  144) = (  -0.4000000   0.2857143  -0.4444444), wk =   0.0063492
        k(  145) = (   0.4000000  -0.2857143  -0.4444444), wk =   0.0063492
        k(  146) = (  -0.4000000   0.4285714   0.0000000), wk =   0.0063492
        k(  147) = (  -0.4000000  -0.4285714   0.1111111), wk =   0.0063492
        k(  148) = (  -0.4000000   0.4285714  -0.1111111), wk =   0.0063492
        k(  149) = (   0.4000000  -0.4285714  -0.1111111), wk =   0.0063492
        k(  150) = (  -0.4000000  -0.4285714   0.2222222), wk =   0.0063492
        k(  151) = (  -0.4000000   0.4285714  -0.2222222), wk =   0.0063492
        k(  152) = (   0.4000000  -0.4285714  -0.2222222), wk =   0.0063492
        k(  153) = (  -0.4000000  -0.4285714   0.3333333), wk =   0.0063492
        k(  154) = (  -0.4000000   0.4285714  -0.3333333), wk =   0.0063492
        k(  155) = (   0.4000000  -0.4285714  -0.3333333), wk =   0.0063492
        k(  156) = (  -0.4000000  -0.4285714   0.4444444), wk =   0.0063492
        k(  157) = (  -0.4000000   0.4285714  -0.4444444), wk =   0.0063492
        k(  158) = (   0.4000000  -0.4285714  -0.4444444), wk =   0.0063492

     Dense  grid:  1499053 G-vectors     FFT dimensions: ( 216, 135, 108)

     Smooth grid:   337887 G-vectors     FFT dimensions: ( 135,  80,  64)

     Dynamical RAM for                 wfc:       3.06 MB

     Dynamical RAM for     wfc (w. buffer):     969.95 MB

     Dynamical RAM for           str. fact:       3.81 MB

     Dynamical RAM for           local pot:       0.00 MB

     Dynamical RAM for          nlocal pot:       7.52 MB

     Dynamical RAM for                qrad:      10.54 MB

     Dynamical RAM for          rho,v,vnew:      12.39 MB

     Dynamical RAM for               rhoin:       4.13 MB

     Dynamical RAM for            rho*nmix:      30.50 MB

     Dynamical RAM for           G-vectors:       3.68 MB

     Dynamical RAM for          h,s,v(r/c):       2.38 MB

     Dynamical RAM for          <psi|beta>:       0.49 MB

     Dynamical RAM for                 psi:       6.12 MB

     Dynamical RAM for                hpsi:       6.12 MB

     Dynamical RAM for                spsi:       6.12 MB

     Dynamical RAM for      wfcinit/wfcrot:       7.78 MB

     Dynamical RAM for           addusdens:     193.47 MB

     Dynamical RAM for          addusforce:     222.19 MB

     Dynamical RAM for         addusstress:     193.00 MB

     Estimated static dynamical RAM per process >       1.03 GB

     Estimated max dynamical RAM per process >       1.25 GB

     Estimated total dynamical RAM >      29.91 GB

     Check: negative core charge=   -0.000003
     Generating pointlists ...
     new r_m :   0.0762 (alat units)  1.5734 (a.u.) for type    1
     new r_m :   0.0898 (alat units)  1.8545 (a.u.) for type    2
     new r_m :   0.0611 (alat units)  1.2606 (a.u.) for type    3
     new r_m :   0.0611 (alat units)  1.2606 (a.u.) for type    4

     Initial potential from superposition of free atoms

     starting charge  188.99132, renormalised to  189.00000
     Starting wfcs are  137 randomized atomic wfcs
     Checking if some PAW data can be deallocated... 
       PAW data deallocated on   20 nodes for type:  1
       PAW data deallocated on    8 nodes for type:  3

     total cpu time spent up to now is      201.9 secs

     Self-consistent Calculation

     iteration #  1     ecut=   100.00 Ry     beta= 0.40
     Davidson diagonalization with overlap
     ethr =  1.00E-02,  avg # of iterations =  2.5

     negative rho (up, down):  0.000E+00 9.990E-05

     total cpu time spent up to now is      782.5 secs

     total energy              =   -2123.49357549 Ry
     estimated scf accuracy    <       7.23349505 Ry

     total magnetization       =    19.00 Bohr mag/cell
     absolute magnetization    =    19.00 Bohr mag/cell

     iteration #  2     ecut=   100.00 Ry     beta= 0.40
     Davidson diagonalization with overlap
     ethr =  3.83E-03,  avg # of iterations =  2.0

     negative rho (up, down):  0.000E+00 3.389E-05

     total cpu time spent up to now is     1357.2 secs

     total energy              =   -2120.29200971 Ry
     estimated scf accuracy    <      45.54154892 Ry

     total magnetization       =     6.65 Bohr mag/cell
     absolute magnetization    =     7.83 Bohr mag/cell

     iteration #  3     ecut=   100.00 Ry     beta= 0.40
     Davidson diagonalization with overlap
     ethr =  3.83E-03,  avg # of iterations =  2.8

     negative rho (up, down):  0.000E+00 2.313E-05

     total cpu time spent up to now is     1857.5 secs

     total energy              =   -2122.90573434 Ry
     estimated scf accuracy    <      63.60468731 Ry

     total magnetization       =     2.93 Bohr mag/cell
     absolute magnetization    =     6.90 Bohr mag/cell

     iteration #  4     ecut=   100.00 Ry     beta= 0.40
     Davidson diagonalization with overlap
     ethr =  3.83E-03,  avg # of iterations =  1.3

     negative rho (up, down):  0.000E+00 2.087E-05

     total cpu time spent up to now is     2280.4 secs

     total energy              =   -2124.47067651 Ry
     estimated scf accuracy    <      33.84924414 Ry

     total magnetization       =     9.53 Bohr mag/cell
     absolute magnetization    =     9.83 Bohr mag/cell

     iteration #  5     ecut=   100.00 Ry     beta= 0.40
     Davidson diagonalization with overlap
     ethr =  3.83E-03,  avg # of iterations =  1.5

     negative rho (up, down):  0.000E+00 5.882E-05

     total cpu time spent up to now is     2728.1 secs

     total energy              =   -2125.30794027 Ry
     estimated scf accuracy    <       9.69906732 Ry

     total magnetization       =    15.18 Bohr mag/cell
     absolute magnetization    =    15.37 Bohr mag/cell

     iteration #  6     ecut=   100.00 Ry     beta= 0.40
     Davidson diagonalization with overlap
     ethr =  3.83E-03,  avg # of iterations =  1.5

     negative rho (up, down):  0.000E+00 1.906E-04

     total cpu time spent up to now is     3169.5 secs

     total energy              =   -2125.87962814 Ry
     estimated scf accuracy    <       1.40395216 Ry

     total magnetization       =    19.00 Bohr mag/cell
     absolute magnetization    =    19.00 Bohr mag/cell

     iteration #  7     ecut=   100.00 Ry     beta= 0.40
     Davidson diagonalization with overlap
     ethr =  7.43E-04,  avg # of iterations =  1.0

     negative rho (up, down):  0.000E+00 3.493E-04

     total cpu time spent up to now is     3574.5 secs

     total energy              =   -2125.86408004 Ry
     estimated scf accuracy    <       0.79306779 Ry

     total magnetization       =    19.00 Bohr mag/cell
     absolute magnetization    =    19.00 Bohr mag/cell

     iteration #  8     ecut=   100.00 Ry     beta= 0.40
     Davidson diagonalization with overlap
     ethr =  4.20E-04,  avg # of iterations =  1.1

     negative rho (up, down):  0.000E+00 4.783E-04

     total cpu time spent up to now is     3983.4 secs

     total energy              =   -2125.83714037 Ry
     estimated scf accuracy    <       0.78354640 Ry

     total magnetization       =    19.00 Bohr mag/cell
     absolute magnetization    =    19.00 Bohr mag/cell

     iteration #  9     ecut=   100.00 Ry     beta= 0.40
     Davidson diagonalization with overlap
     ethr =  4.15E-04,  avg # of iterations =  1.0

     negative rho (up, down):  0.000E+00 5.061E-04

     total cpu time spent up to now is     4390.1 secs

     total energy              =   -2125.86185453 Ry
     estimated scf accuracy    <       0.74978668 Ry

     total magnetization       =    19.00 Bohr mag/cell
     absolute magnetization    =    19.01 Bohr mag/cell

     iteration # 10     ecut=   100.00 Ry     beta= 0.40
     Davidson diagonalization with overlap
     ethr =  3.97E-04,  avg # of iterations =  1.0

     negative rho (up, down):  0.000E+00 8.305E-04

     total cpu time spent up to now is     4798.7 secs

     total energy              =   -2125.86002347 Ry
     estimated scf accuracy    <       0.13105412 Ry

     total magnetization       =    19.00 Bohr mag/cell
     absolute magnetization    =    19.01 Bohr mag/cell

     iteration # 11     ecut=   100.00 Ry     beta= 0.40
     Davidson diagonalization with overlap
     c_bands:  1 eigenvalues not converged
     c_bands:  1 eigenvalues not converged
     c_bands:  1 eigenvalues not converged
     c_bands:  1 eigenvalues not converged
     c_bands:  1 eigenvalues not converged
     c_bands:  1 eigenvalues not converged
     c_bands:  2 eigenvalues not converged
     c_bands:  1 eigenvalues not converged
     c_bands:  1 eigenvalues not converged
     c_bands:  1 eigenvalues not converged
     c_bands:  1 eigenvalues not converged
     c_bands:  1 eigenvalues not converged
     c_bands:  1 eigenvalues not converged
     c_bands:  1 eigenvalues not converged
     c_bands:  1 eigenvalues not converged
     c_bands:  1 eigenvalues not converged
     c_bands:  1 eigenvalues not converged
     c_bands:  2 eigenvalues not converged
     c_bands:  1 eigenvalues not converged
     c_bands:  1 eigenvalues not converged
     c_bands:  1 eigenvalues not converged
     c_bands:  1 eigenvalues not converged
     c_bands:  1 eigenvalues not converged
     c_bands:  1 eigenvalues not converged
     c_bands:  1 eigenvalues not converged
     c_bands:  1 eigenvalues not converged
     c_bands:  1 eigenvalues not converged
     c_bands:  1 eigenvalues not converged
     c_bands:  2 eigenvalues not converged
     c_bands:  1 eigenvalues not converged
     ethr =  6.93E-05,  avg # of iterations = 14.2

     negative rho (up, down):  0.000E+00 9.196E-04

     total cpu time spent up to now is     5571.0 secs

     total energy              =   -2125.87159254 Ry
     estimated scf accuracy    <       0.27860715 Ry

     total magnetization       =    19.00 Bohr mag/cell
     absolute magnetization    =    19.02 Bohr mag/cell

     iteration # 12     ecut=   100.00 Ry     beta= 0.40
     Davidson diagonalization with overlap
     ethr =  6.93E-05,  avg # of iterations =  1.2

     negative rho (up, down):  0.000E+00 9.156E-04

     total cpu time spent up to now is     6007.3 secs

     total energy              =   -2125.87357577 Ry
     estimated scf accuracy    <       0.15947859 Ry

     total magnetization       =    19.00 Bohr mag/cell
     absolute magnetization    =    19.03 Bohr mag/cell

     iteration # 13     ecut=   100.00 Ry     beta= 0.40
     Davidson diagonalization with overlap
     ethr =  6.93E-05,  avg # of iterations =  1.0

     negative rho (up, down):  0.000E+00 9.294E-04

     total cpu time spent up to now is     6412.6 secs

     total energy              =   -2125.87390697 Ry
     estimated scf accuracy    <       0.04611284 Ry

     total magnetization       =    19.00 Bohr mag/cell
     absolute magnetization    =    19.04 Bohr mag/cell

     iteration # 14     ecut=   100.00 Ry     beta= 0.40
     Davidson diagonalization with overlap
     c_bands:  1 eigenvalues not converged
     ethr =  2.44E-05,  avg # of iterations =  2.6

     negative rho (up, down):  0.000E+00 9.540E-04

     total cpu time spent up to now is     6862.5 secs

     total energy              =   -2125.87588458 Ry
     estimated scf accuracy    <       0.00632173 Ry

     total magnetization       =    19.00 Bohr mag/cell
     absolute magnetization    =    19.04 Bohr mag/cell

     iteration # 15     ecut=   100.00 Ry     beta= 0.40
     Davidson diagonalization with overlap
     c_bands:  1 eigenvalues not converged
     c_bands:  1 eigenvalues not converged
     c_bands:  1 eigenvalues not converged
     c_bands:  1 eigenvalues not converged
     c_bands:  1 eigenvalues not converged
     c_bands:  1 eigenvalues not converged
     c_bands:  1 eigenvalues not converged
     c_bands:  1 eigenvalues not converged
     c_bands:  1 eigenvalues not converged
     c_bands:  1 eigenvalues not converged
     c_bands:  1 eigenvalues not converged
     c_bands:  1 eigenvalues not converged
     c_bands:  1 eigenvalues not converged
     c_bands:  1 eigenvalues not converged
     c_bands:  1 eigenvalues not converged
     c_bands:  1 eigenvalues not converged
     c_bands:  1 eigenvalues not converged
     c_bands:  1 eigenvalues not converged
     c_bands:  1 eigenvalues not converged
     c_bands:  1 eigenvalues not converged
     c_bands:  1 eigenvalues not converged
     c_bands:  1 eigenvalues not converged
     c_bands:  1 eigenvalues not converged
     c_bands:  1 eigenvalues not converged
     c_bands:  1 eigenvalues not converged
     c_bands:  1 eigenvalues not converged
     c_bands:  1 eigenvalues not converged
     c_bands:  1 eigenvalues not converged
     c_bands:  1 eigenvalues not converged
     c_bands:  1 eigenvalues not converged
     c_bands:  1 eigenvalues not converged
     c_bands:  1 eigenvalues not converged
     c_bands:  1 eigenvalues not converged
     c_bands:  1 eigenvalues not converged
     c_bands:  1 eigenvalues not converged
     c_bands:  1 eigenvalues not converged
     c_bands:  1 eigenvalues not converged
     c_bands:  1 eigenvalues not converged
     c_bands:  1 eigenvalues not converged
     c_bands:  1 eigenvalues not converged
     c_bands:  1 eigenvalues not converged
     c_bands:  1 eigenvalues not converged
     c_bands:  1 eigenvalues not converged
     c_bands:  1 eigenvalues not converged
     c_bands:  1 eigenvalues not converged
     c_bands:  1 eigenvalues not converged
     c_bands:  1 eigenvalues not converged
     c_bands:  1 eigenvalues not converged
     c_bands:  1 eigenvalues not converged
     ethr =  3.34E-06,  avg # of iterations = 15.5

     negative rho (up, down):  0.000E+00 9.633E-04

     total cpu time spent up to now is     7742.9 secs

     total energy              =   -2125.87611863 Ry
     estimated scf accuracy    <       0.01923039 Ry

     total magnetization       =    19.00 Bohr mag/cell
     absolute magnetization    =    19.05 Bohr mag/cell

     iteration # 16     ecut=   100.00 Ry     beta= 0.40
     Davidson diagonalization with overlap
     c_bands:  1 eigenvalues not converged
     ethr =  3.34E-06,  avg # of iterations =  1.2

     negative rho (up, down):  0.000E+00 9.676E-04

     total cpu time spent up to now is     8157.2 secs

     total energy              =   -2125.87628133 Ry
     estimated scf accuracy    <       0.00842373 Ry

     total magnetization       =    19.00 Bohr mag/cell
     absolute magnetization    =    19.05 Bohr mag/cell

     iteration # 17     ecut=   100.00 Ry     beta= 0.40
     Davidson diagonalization with overlap
     ethr =  3.34E-06,  avg # of iterations =  1.0

     negative rho (up, down):  0.000E+00 9.681E-04

     total cpu time spent up to now is     8563.0 secs

     total energy              =   -2125.87650824 Ry
     estimated scf accuracy    <       0.00189336 Ry

     total magnetization       =    19.00 Bohr mag/cell
     absolute magnetization    =    19.06 Bohr mag/cell

     iteration # 18     ecut=   100.00 Ry     beta= 0.40
     Davidson diagonalization with overlap
     ethr =  1.00E-06,  avg # of iterations =  1.1

     negative rho (up, down):  0.000E+00 9.647E-04

     total cpu time spent up to now is     8976.9 secs

     total energy              =   -2125.87657521 Ry
     estimated scf accuracy    <       0.00058106 Ry

     total magnetization       =    19.00 Bohr mag/cell
     absolute magnetization    =    19.06 Bohr mag/cell

     iteration # 19     ecut=   100.00 Ry     beta= 0.40
     Davidson diagonalization with overlap
     ethr =  3.07E-07,  avg # of iterations =  3.4

     negative rho (up, down):  0.000E+00 9.595E-04

     total cpu time spent up to now is     9515.3 secs

     total energy              =   -2125.87667658 Ry
     estimated scf accuracy    <       0.00020967 Ry

     total magnetization       =    19.00 Bohr mag/cell
     absolute magnetization    =    19.06 Bohr mag/cell

     iteration # 20     ecut=   100.00 Ry     beta= 0.40
     Davidson diagonalization with overlap
     ethr =  1.11E-07,  avg # of iterations =  3.2

     negative rho (up, down):  0.000E+00 9.573E-04

     total cpu time spent up to now is    10034.4 secs

     total energy              =   -2125.87670485 Ry
     estimated scf accuracy    <       0.00040413 Ry

     total magnetization       =    19.00 Bohr mag/cell
     absolute magnetization    =    19.06 Bohr mag/cell

     iteration # 21     ecut=   100.00 Ry     beta= 0.40
     Davidson diagonalization with overlap
     ethr =  1.11E-07,  avg # of iterations =  1.0

     negative rho (up, down):  0.000E+00 9.552E-04

     total cpu time spent up to now is    10439.4 secs

     total energy              =   -2125.87671867 Ry
     estimated scf accuracy    <       0.00005047 Ry

     total magnetization       =    19.00 Bohr mag/cell
     absolute magnetization    =    19.06 Bohr mag/cell

     iteration # 22     ecut=   100.00 Ry     beta= 0.40
     Davidson diagonalization with overlap
     ethr =  2.67E-08,  avg # of iterations =  3.4

     negative rho (up, down):  0.000E+00 9.550E-04

     total cpu time spent up to now is    10999.1 secs

     total energy              =   -2125.87673092 Ry
     estimated scf accuracy    <       0.00001865 Ry

     total magnetization       =    19.00 Bohr mag/cell
     absolute magnetization    =    19.06 Bohr mag/cell

     iteration # 23     ecut=   100.00 Ry     beta= 0.40
     Davidson diagonalization with overlap
     ethr =  9.87E-09,  avg # of iterations =  2.3

     negative rho (up, down):  0.000E+00 9.564E-04

     total cpu time spent up to now is    11498.6 secs

     total energy              =   -2125.87673597 Ry
     estimated scf accuracy    <       0.00000345 Ry

     total magnetization       =    19.00 Bohr mag/cell
     absolute magnetization    =    19.06 Bohr mag/cell

     iteration # 24     ecut=   100.00 Ry     beta= 0.40
     Davidson diagonalization with overlap
     ethr =  1.82E-09,  avg # of iterations =  2.6

     negative rho (up, down):  0.000E+00 9.566E-04

     total cpu time spent up to now is    12045.0 secs

     total energy              =   -2125.87673707 Ry
     estimated scf accuracy    <       0.00000317 Ry

     total magnetization       =    19.00 Bohr mag/cell
     absolute magnetization    =    19.06 Bohr mag/cell

     iteration # 25     ecut=   100.00 Ry     beta= 0.40
     Davidson diagonalization with overlap
     ethr =  1.68E-09,  avg # of iterations =  1.1

     negative rho (up, down):  0.000E+00 9.569E-04

     total cpu time spent up to now is    12472.8 secs

     total energy              =   -2125.87673746 Ry
     estimated scf accuracy    <       0.00000061 Ry

     total magnetization       =    19.00 Bohr mag/cell
     absolute magnetization    =    19.06 Bohr mag/cell

     iteration # 26     ecut=   100.00 Ry     beta= 0.40
     Davidson diagonalization with overlap
     ethr =  3.20E-10,  avg # of iterations =  3.2

     negative rho (up, down):  0.000E+00 9.571E-04

     total cpu time spent up to now is    13020.3 secs

     total energy              =   -2125.87673764 Ry
     estimated scf accuracy    <       0.00000029 Ry

     total magnetization       =    19.00 Bohr mag/cell
     absolute magnetization    =    19.06 Bohr mag/cell

     iteration # 27     ecut=   100.00 Ry     beta= 0.40
     Davidson diagonalization with overlap
     ethr =  1.55E-10,  avg # of iterations =  2.0

     negative rho (up, down):  0.000E+00 9.571E-04

     total cpu time spent up to now is    13508.1 secs

     total energy              =   -2125.87673770 Ry
     estimated scf accuracy    <       0.00000026 Ry

     total magnetization       =    19.00 Bohr mag/cell
     absolute magnetization    =    19.06 Bohr mag/cell

     iteration # 28     ecut=   100.00 Ry     beta= 0.40
     Davidson diagonalization with overlap
     ethr =  1.36E-10,  avg # of iterations =  1.9

     negative rho (up, down):  0.000E+00 9.571E-04

     total cpu time spent up to now is    13999.4 secs

     total energy              =   -2125.87673774 Ry
     estimated scf accuracy    <       0.00000028 Ry

     total magnetization       =    19.00 Bohr mag/cell
     absolute magnetization    =    19.06 Bohr mag/cell

     iteration # 29     ecut=   100.00 Ry     beta= 0.40
     Davidson diagonalization with overlap
     ethr =  1.36E-10,  avg # of iterations =  1.0

     negative rho (up, down):  0.000E+00 9.571E-04

     total cpu time spent up to now is    14406.0 secs

     total energy              =   -2125.87673777 Ry
     estimated scf accuracy    <       0.00000002 Ry

     total magnetization       =    19.00 Bohr mag/cell
     absolute magnetization    =    19.06 Bohr mag/cell

     iteration # 30     ecut=   100.00 Ry     beta= 0.40
     Davidson diagonalization with overlap
     ethr =  8.67E-12,  avg # of iterations =  4.7

     negative rho (up, down):  0.000E+00 9.570E-04

     total cpu time spent up to now is    15206.9 secs

     total energy              =   -2125.87673778 Ry
     estimated scf accuracy    <       0.00000002 Ry

     total magnetization       =    19.00 Bohr mag/cell
     absolute magnetization    =    19.06 Bohr mag/cell

     iteration # 31     ecut=   100.00 Ry     beta= 0.40
     Davidson diagonalization with overlap
     ethr =  8.67E-12,  avg # of iterations =  2.0

     negative rho (up, down):  0.000E+00 9.570E-04

     total cpu time spent up to now is    15682.2 secs

     total energy              =   -2125.87673778 Ry
     estimated scf accuracy    <       0.00000004 Ry

     total magnetization       =    19.00 Bohr mag/cell
     absolute magnetization    =    19.06 Bohr mag/cell

     iteration # 32     ecut=   100.00 Ry     beta= 0.40
     Davidson diagonalization with overlap
     ethr =  8.67E-12,  avg # of iterations =  2.0

     negative rho (up, down):  0.000E+00 9.570E-04

     total cpu time spent up to now is    16158.9 secs

     total energy              =   -2125.87673779 Ry
     estimated scf accuracy    <       0.00000001 Ry

     total magnetization       =    19.00 Bohr mag/cell
     absolute magnetization    =    19.06 Bohr mag/cell

     iteration # 33     ecut=   100.00 Ry     beta= 0.40
     Davidson diagonalization with overlap
     ethr =  6.97E-12,  avg # of iterations =  1.1

     negative rho (up, down):  0.000E+00 9.570E-04

     total cpu time spent up to now is    16569.2 secs

     total energy              =   -2125.87673779 Ry
     estimated scf accuracy    <          9.0E-09 Ry

     total magnetization       =    19.00 Bohr mag/cell
     absolute magnetization    =    19.06 Bohr mag/cell

     iteration # 34     ecut=   100.00 Ry     beta= 0.40
     Davidson diagonalization with overlap
     ethr =  4.75E-12,  avg # of iterations =  1.0

     negative rho (up, down):  0.000E+00 9.570E-04

     total cpu time spent up to now is    16975.2 secs

     total energy              =   -2125.87673779 Ry
     estimated scf accuracy    <          1.4E-09 Ry

     total magnetization       =    19.00 Bohr mag/cell
     absolute magnetization    =    19.06 Bohr mag/cell

     iteration # 35     ecut=   100.00 Ry     beta= 0.40
     Davidson diagonalization with overlap
     ethr =  7.19E-13,  avg # of iterations =  2.1

     negative rho (up, down):  0.000E+00 9.570E-04

     total cpu time spent up to now is    17456.9 secs

     total energy              =   -2125.87673779 Ry
     estimated scf accuracy    <          2.7E-09 Ry

     total magnetization       =    19.00 Bohr mag/cell
     absolute magnetization    =    19.06 Bohr mag/cell

     iteration # 36     ecut=   100.00 Ry     beta= 0.40
     Davidson diagonalization with overlap
     ethr =  7.19E-13,  avg # of iterations =  1.0

     negative rho (up, down):  0.000E+00 9.570E-04

     total cpu time spent up to now is    17863.2 secs

     total energy              =   -2125.87673779 Ry
     estimated scf accuracy    <          1.8E-09 Ry

     total magnetization       =    19.00 Bohr mag/cell
     absolute magnetization    =    19.06 Bohr mag/cell

     iteration # 37     ecut=   100.00 Ry     beta= 0.40
     Davidson diagonalization with overlap
     ethr =  7.19E-13,  avg # of iterations =  1.0

     negative rho (up, down):  0.000E+00 9.570E-04

     total cpu time spent up to now is    18269.4 secs

     total energy              =   -2125.87673779 Ry
     estimated scf accuracy    <          1.3E-09 Ry

     total magnetization       =    19.00 Bohr mag/cell
     absolute magnetization    =    19.06 Bohr mag/cell

     iteration # 38     ecut=   100.00 Ry     beta= 0.40
     Davidson diagonalization with overlap
     ethr =  6.84E-13,  avg # of iterations =  1.0

     negative rho (up, down):  0.000E+00 9.570E-04

     total cpu time spent up to now is    18675.5 secs

     total energy              =   -2125.87673779 Ry
     estimated scf accuracy    <       0.00000002 Ry

     total magnetization       =    19.00 Bohr mag/cell
     absolute magnetization    =    19.06 Bohr mag/cell

     iteration # 39     ecut=   100.00 Ry     beta= 0.40
     Davidson diagonalization with overlap
     ethr =  6.84E-13,  avg # of iterations =  1.2

     negative rho (up, down):  0.000E+00 9.570E-04

     total cpu time spent up to now is    19094.5 secs

     total energy              =   -2125.87673779 Ry
     estimated scf accuracy    <          6.1E-10 Ry

     total magnetization       =    19.00 Bohr mag/cell
     absolute magnetization    =    19.06 Bohr mag/cell

     iteration # 40     ecut=   100.00 Ry     beta= 0.40
     Davidson diagonalization with overlap
     ethr =  3.24E-13,  avg # of iterations =  1.0

     negative rho (up, down):  0.000E+00 9.570E-04

     total cpu time spent up to now is    19514.8 secs

     total energy              =   -2125.87673779 Ry
     estimated scf accuracy    <          3.1E-10 Ry

     total magnetization       =    19.00 Bohr mag/cell
     absolute magnetization    =    19.06 Bohr mag/cell

     iteration # 41     ecut=   100.00 Ry     beta= 0.40
     Davidson diagonalization with overlap
     ethr =  1.63E-13,  avg # of iterations =  1.1

     negative rho (up, down):  0.000E+00 9.570E-04

     Magnetic moment per site:
     atom:    1    charge:    7.9516    magn:    0.0004    constr:    0.0000
     atom:    2    charge:   13.0586    magn:    3.7161    constr:    0.0000
     atom:    3    charge:   13.0661    magn:    3.6974    constr:    0.0000
     atom:    4    charge:   13.0763    magn:    3.6786    constr:    0.0000
     atom:    5    charge:   13.0662    magn:    3.6990    constr:    0.0000
     atom:    6    charge:    0.9446    magn:    0.0089    constr:    0.0000
     atom:    7    charge:    0.9480    magn:    0.0071    constr:    0.0000
     atom:    8    charge:    0.9458    magn:    0.0093    constr:    0.0000
     atom:    9    charge:    0.9441    magn:    0.0071    constr:    0.0000
     atom:   10    charge:    4.4528    magn:    0.1494    constr:    0.0000
     atom:   11    charge:    4.4667    magn:    0.0902    constr:    0.0000
     atom:   12    charge:    4.4552    magn:    0.1427    constr:    0.0000
     atom:   13    charge:    4.4534    magn:    0.1010    constr:    0.0000
     atom:   14    charge:    4.4448    magn:    0.1105    constr:    0.0000
     atom:   15    charge:    4.4511    magn:    0.1454    constr:    0.0000
     atom:   16    charge:    4.4539    magn:    0.0914    constr:    0.0000
     atom:   17    charge:    4.4490    magn:    0.1541    constr:    0.0000
     atom:   18    charge:    4.4277    magn:    0.1581    constr:    0.0000
     atom:   19    charge:    4.4330    magn:    0.1358    constr:    0.0000
     atom:   20    charge:    4.4293    magn:    0.1443    constr:    0.0000
     atom:   21    charge:    4.4357    magn:    0.1202    constr:    0.0000
     atom:   22    charge:    4.4315    magn:    0.1568    constr:    0.0000
     atom:   23    charge:    4.4300    magn:    0.1387    constr:    0.0000
     atom:   24    charge:    4.4267    magn:    0.1524    constr:    0.0000
     atom:   25    charge:    4.4282    magn:    0.1261    constr:    0.0000

     total cpu time spent up to now is    19927.0 secs

     End of self-consistent calculation

 ------ SPIN UP ------------


          k = 0.0000 0.0000 0.0000 ( 42261 PWs)   bands (ev):

   -87.0573 -86.9805 -86.9716 -86.9149 -53.1452 -53.1443 -53.1279 -53.0968
   -53.0137 -52.9571 -52.8949 -52.8757 -52.8730 -52.8720 -52.8525 -52.7375
   -46.4868 -18.4592 -18.4289 -18.4111 -16.6923 -16.5558 -16.4668 -16.3832
   -14.6904 -14.6476 -14.5989 -14.5363 -14.4794 -14.4641 -14.4235 -14.4164
   -14.3817 -14.3774 -14.2856 -14.2345  -5.3689  -4.9922  -4.9610  -4.6790
    -3.1366  -2.8921  -2.8184  -2.6681  -2.4332  -2.3833  -2.3035  -2.2491
    -2.1126  -2.0606  -1.7449  -1.4938  -1.4249  -1.3798  -1.0610  -1.0244
    -0.8965  -0.8537  -0.7231  -0.5959  -0.5838  -0.5415  -0.4495  -0.4022
    -0.3834  -0.2837  -0.2352  -0.1161   0.2346   0.2873   0.3862   0.4692
     0.4921   0.6297   0.6559   0.6885   0.7503   0.8938   0.9576   1.0388
     1.0813   1.1267   1.2548   1.2883   1.3241   1.4935   1.5703   1.6038
     1.6712   1.8065   1.8504   1.8961   1.9085   2.1344   2.2371   2.2748
     2.3767   2.4090   2.4468   2.4775   2.5985   2.6304   2.8838   2.9774
     6.4369   8.3132   8.9186   9.1549   9.5966  10.0300  10.3194  10.6938
    10.8560  11.0903

     occupation numbers 
     1.0000   1.0000   1.0000   1.0000   1.0000   1.0000   1.0000   1.0000
     1.0000   1.0000   1.0000   1.0000   1.0000   1.0000   1.0000   1.0000
     1.0000   1.0000   1.0000   1.0000   1.0000   1.0000   1.0000   1.0000
     1.0000   1.0000   1.0000   1.0000   1.0000   1.0000   1.0000   1.0000
     1.0000   1.0000   1.0000   1.0000   1.0000   1.0000   1.0000   1.0000
     1.0000   1.0000   1.0000   1.0000   1.0000   1.0000   1.0000   1.0000
     1.0000   1.0000   1.0000   1.0000   1.0000   1.0000   1.0000   1.0000
     1.0000   1.0000   1.0000   1.0000   1.0000   1.0000   1.0000   1.0000
     1.0000   1.0000   1.0000   1.0000   1.0000   1.0000   1.0000   1.0000
     1.0000   1.0000   1.0000   1.0000   1.0000   1.0000   1.0000   1.0000
     1.0000   1.0000   1.0000   1.0000   1.0000   1.0000   1.0000   1.0000
     1.0000   1.0000   1.0000   1.0000   1.0000   1.0000   1.0000   1.0000
     1.0000   1.0000   1.0000   1.0000   1.0000   1.0000   1.0000   1.0000
     0.0000   0.0000   0.0000   0.0000   0.0000   0.0000   0.0000   0.0000
     0.0000   0.0000

          k = 0.0000 0.0000 0.2337 ( 42279 PWs)   bands (ev):

   -87.0573 -86.9805 -86.9716 -86.9149 -53.1452 -53.1443 -53.1279 -53.0968
   -53.0137 -52.9571 -52.8949 -52.8757 -52.8730 -52.8720 -52.8525 -52.7375
   -46.4868 -18.4592 -18.4290 -18.4116 -16.6808 -16.5502 -16.4623 -16.3814
   -14.6973 -14.6545 -14.6087 -14.5403 -14.4835 -14.4667 -14.4253 -14.4138
   -14.3839 -14.3735 -14.2895 -14.2378  -5.3507  -4.9910  -4.9567  -4.6871
    -3.1018  -2.8710  -2.8125  -2.6581  -2.4352  -2.3871  -2.3027  -2.2076
    -2.1029  -2.0319  -1.7820  -1.4816  -1.4547  -1.3611  -1.0498  -0.9992
    -0.8971  -0.8197  -0.7206  -0.5936  -0.5894  -0.5505  -0.4540  -0.4210
    -0.3674  -0.2784  -0.2383  -0.1174   0.1565   0.2493   0.3707   0.4013
     0.4790   0.6050   0.6636   0.6747   0.7742   0.8219   1.0218   1.0633
     1.0911   1.1337   1.2494   1.3095   1.3404   1.4300   1.5578   1.6018
     1.6572   1.7735   1.8262   1.9101   1.9141   2.1519   2.2383   2.2914
     2.3799   2.4122   2.4623   2.4898   2.6003   2.6406   2.8643   2.9598
     6.5782   8.3963   8.9310   9.1719   9.6239   9.9911  10.2905  10.6933
    10.7930  11.0649

     occupation numbers 
     1.0000   1.0000   1.0000   1.0000   1.0000   1.0000   1.0000   1.0000
     1.0000   1.0000   1.0000   1.0000   1.0000   1.0000   1.0000   1.0000
     1.0000   1.0000   1.0000   1.0000   1.0000   1.0000   1.0000   1.0000
     1.0000   1.0000   1.0000   1.0000   1.0000   1.0000   1.0000   1.0000
     1.0000   1.0000   1.0000   1.0000   1.0000   1.0000   1.0000   1.0000
     1.0000   1.0000   1.0000   1.0000   1.0000   1.0000   1.0000   1.0000
     1.0000   1.0000   1.0000   1.0000   1.0000   1.0000   1.0000   1.0000
     1.0000   1.0000   1.0000   1.0000   1.0000   1.0000   1.0000   1.0000
     1.0000   1.0000   1.0000   1.0000   1.0000   1.0000   1.0000   1.0000
     1.0000   1.0000   1.0000   1.0000   1.0000   1.0000   1.0000   1.0000
     1.0000   1.0000   1.0000   1.0000   1.0000   1.0000   1.0000   1.0000
     1.0000   1.0000   1.0000   1.0000   1.0000   1.0000   1.0000   1.0000
     1.0000   1.0000   1.0000   1.0000   1.0000   1.0000   1.0000   1.0000
     0.0000   0.0000   0.0000   0.0000   0.0000   0.0000   0.0000   0.0000
     0.0000   0.0000

          k = 0.0000 0.0000 0.4675 ( 42247 PWs)   bands (ev):

   -87.0573 -86.9805 -86.9716 -86.9149 -53.1452 -53.1443 -53.1279 -53.0968
   -53.0137 -52.9571 -52.8949 -52.8757 -52.8730 -52.8720 -52.8525 -52.7375
   -46.4868 -18.4593 -18.4297 -18.4124 -16.6495 -16.5374 -16.4501 -16.3781
   -14.7166 -14.6720 -14.6324 -14.5551 -14.4943 -14.4723 -14.4250 -14.4086
   -14.3866 -14.3634 -14.3006 -14.2471  -5.2987  -4.9904  -4.9455  -4.7154
    -3.0075  -2.8213  -2.7903  -2.6460  -2.4369  -2.3726  -2.3024  -2.1156
    -2.0565  -1.9609  -1.8774  -1.5731  -1.3957  -1.3016  -1.0074  -0.9506
    -0.8730  -0.7445  -0.7152  -0.6196  -0.5902  -0.5744  -0.4728  -0.4282
    -0.3570  -0.2659  -0.2423  -0.1285   0.0039   0.1794   0.2317   0.3222
     0.4404   0.4825   0.6217   0.6729   0.7194   0.8965   0.9983   1.0628
     1.0996   1.2151   1.2543   1.2736   1.3226   1.3819   1.4506   1.5742
     1.6753   1.7562   1.8375   1.9425   1.9767   2.1348   2.2454   2.3480
     2.3870   2.4372   2.4976   2.5254   2.5963   2.6627   2.8046   2.9077
     6.9530   8.6237   8.9323   9.2179   9.7216   9.9045  10.1998  10.6178
    10.6763  10.9615

     occupation numbers 
     1.0000   1.0000   1.0000   1.0000   1.0000   1.0000   1.0000   1.0000
     1.0000   1.0000   1.0000   1.0000   1.0000   1.0000   1.0000   1.0000
     1.0000   1.0000   1.0000   1.0000   1.0000   1.0000   1.0000   1.0000
     1.0000   1.0000   1.0000   1.0000   1.0000   1.0000   1.0000   1.0000
     1.0000   1.0000   1.0000   1.0000   1.0000   1.0000   1.0000   1.0000
     1.0000   1.0000   1.0000   1.0000   1.0000   1.0000   1.0000   1.0000
     1.0000   1.0000   1.0000   1.0000   1.0000   1.0000   1.0000   1.0000
     1.0000   1.0000   1.0000   1.0000   1.0000   1.0000   1.0000   1.0000
     1.0000   1.0000   1.0000   1.0000   1.0000   1.0000   1.0000   1.0000
     1.0000   1.0000   1.0000   1.0000   1.0000   1.0000   1.0000   1.0000
     1.0000   1.0000   1.0000   1.0000   1.0000   1.0000   1.0000   1.0000
     1.0000   1.0000   1.0000   1.0000   1.0000   1.0000   1.0000   1.0000
     1.0000   1.0000   1.0000   1.0000   1.0000   1.0000   1.0000   1.0000
     0.0000   0.0000   0.0000   0.0000   0.0000   0.0000   0.0000   0.0000
     0.0000   0.0000

          k = 0.0000 0.0000 0.7012 ( 42239 PWs)   bands (ev):

   -87.0573 -86.9805 -86.9716 -86.9149 -53.1452 -53.1443 -53.1279 -53.0968
   -53.0137 -52.9571 -52.8949 -52.8757 -52.8730 -52.8720 -52.8525 -52.7375
   -46.4868 -18.4594 -18.4309 -18.4127 -16.6072 -16.5286 -16.4324 -16.3778
   -14.7407 -14.6927 -14.6578 -14.5791 -14.5054 -14.4764 -14.4242 -14.4032
   -14.3813 -14.3501 -14.3175 -14.2599  -5.2211  -5.0035  -4.9262  -4.7655
    -2.8926  -2.7819  -2.7397  -2.6494  -2.4270  -2.3302  -2.2956  -2.0667
    -1.9897  -1.9431  -1.8650  -1.7039  -1.2760  -1.1862  -0.9401  -0.8967
    -0.8249  -0.7290  -0.6741  -0.6543  -0.6337  -0.5996  -0.4805  -0.4088
    -0.3824  -0.2646  -0.2215  -0.1632  -0.1306   0.0480   0.0947   0.1244
     0.3207   0.5084   0.6007   0.6297   0.7004   0.9357   0.9885   1.0209
     1.0681   1.1186   1.2020   1.2765   1.3039   1.3511   1.3792   1.5183
     1.7427   1.8107   1.8633   2.0607   2.0826   2.1224   2.2621   2.3813
     2.3973   2.4890   2.5365   2.5582   2.5957   2.6728   2.7065   2.8261
     7.4600   8.8067   8.9555   9.3023   9.7642   9.8804  10.0759  10.4823
    10.5962  10.7883

     occupation numbers 
     1.0000   1.0000   1.0000   1.0000   1.0000   1.0000   1.0000   1.0000
     1.0000   1.0000   1.0000   1.0000   1.0000   1.0000   1.0000   1.0000
     1.0000   1.0000   1.0000   1.0000   1.0000   1.0000   1.0000   1.0000
     1.0000   1.0000   1.0000   1.0000   1.0000   1.0000   1.0000   1.0000
     1.0000   1.0000   1.0000   1.0000   1.0000   1.0000   1.0000   1.0000
     1.0000   1.0000   1.0000   1.0000   1.0000   1.0000   1.0000   1.0000
     1.0000   1.0000   1.0000   1.0000   1.0000   1.0000   1.0000   1.0000
     1.0000   1.0000   1.0000   1.0000   1.0000   1.0000   1.0000   1.0000
     1.0000   1.0000   1.0000   1.0000   1.0000   1.0000   1.0000   1.0000
     1.0000   1.0000   1.0000   1.0000   1.0000   1.0000   1.0000   1.0000
     1.0000   1.0000   1.0000   1.0000   1.0000   1.0000   1.0000   1.0000
     1.0000   1.0000   1.0000   1.0000   1.0000   1.0000   1.0000   1.0000
     1.0000   1.0000   1.0000   1.0000   1.0000   1.0000   1.0000   1.0000
     0.0000   0.0000   0.0000   0.0000   0.0000   0.0000   0.0000   0.0000
     0.0000   0.0000

          k = 0.0000 0.0000 0.9349 ( 42234 PWs)   bands (ev):

   -87.0573 -86.9805 -86.9716 -86.9149 -53.1452 -53.1443 -53.1279 -53.0968
   -53.0137 -52.9571 -52.8949 -52.8757 -52.8730 -52.8720 -52.8525 -52.7375
   -46.4868 -18.4595 -18.4319 -18.4127 -16.5670 -16.5353 -16.4146 -16.3829
   -14.7571 -14.7068 -14.6738 -14.5980 -14.5114 -14.4780 -14.4245 -14.4011
   -14.3662 -14.3396 -14.3359 -14.2708  -5.1362  -5.0443  -4.8966  -4.8206
    -2.8118  -2.7725  -2.6929  -2.6542  -2.4020  -2.3087  -2.2521  -2.1483
    -1.9523  -1.8675  -1.8328  -1.7873  -1.1095  -1.0081  -0.8867  -0.8613
    -0.8179  -0.8006  -0.7427  -0.7067  -0.6507  -0.5225  -0.4983  -0.4263
    -0.3727  -0.2683  -0.2473  -0.2215  -0.1674  -0.0986  -0.0474   0.0148
     0.3340   0.5457   0.5719   0.6345   0.6967   0.8362   0.9344   0.9756
     1.0424   1.1223   1.1767   1.2207   1.2926   1.3420   1.3638   1.5044
     1.7674   1.8707   1.8793   2.0127   2.2430   2.2808   2.3062   2.3867
     2.4081   2.4935   2.5193   2.5501   2.5943   2.6499   2.6796   2.7389
     7.9988   8.4937   9.3065   9.4293   9.6287   9.6769  10.2563  10.4091
    10.5795  10.6011

     occupation numbers 
     1.0000   1.0000   1.0000   1.0000   1.0000   1.0000   1.0000   1.0000
     1.0000   1.0000   1.0000   1.0000   1.0000   1.0000   1.0000   1.0000
     1.0000   1.0000   1.0000   1.0000   1.0000   1.0000   1.0000   1.0000
     1.0000   1.0000   1.0000   1.0000   1.0000   1.0000   1.0000   1.0000
     1.0000   1.0000   1.0000   1.0000   1.0000   1.0000   1.0000   1.0000
     1.0000   1.0000   1.0000   1.0000   1.0000   1.0000   1.0000   1.0000
     1.0000   1.0000   1.0000   1.0000   1.0000   1.0000   1.0000   1.0000
     1.0000   1.0000   1.0000   1.0000   1.0000   1.0000   1.0000   1.0000
     1.0000   1.0000   1.0000   1.0000   1.0000   1.0000   1.0000   1.0000
     1.0000   1.0000   1.0000   1.0000   1.0000   1.0000   1.0000   1.0000
     1.0000   1.0000   1.0000   1.0000   1.0000   1.0000   1.0000   1.0000
     1.0000   1.0000   1.0000   1.0000   1.0000   1.0000   1.0000   1.0000
     1.0000   1.0000   1.0000   1.0000   1.0000   1.0000   1.0000   1.0000
     0.0000   0.0000   0.0000   0.0000   0.0000   0.0000   0.0000   0.0000
     0.0000   0.0000

          k = 0.0000 0.2391 0.0000 ( 42299 PWs)   bands (ev):

   -87.0573 -86.9805 -86.9716 -86.9149 -53.1452 -53.1443 -53.1279 -53.0968
   -53.0137 -52.9571 -52.8949 -52.8757 -52.8730 -52.8720 -52.8525 -52.7375
   -46.4868 -18.4592 -18.4289 -18.4111 -16.6791 -16.5541 -16.4654 -16.3971
   -14.6901 -14.6453 -14.5964 -14.5424 -14.5004 -14.4708 -14.4405 -14.4070
   -14.3819 -14.3459 -14.2846 -14.2368  -5.3487  -5.0028  -4.9496  -4.6870
    -3.1166  -2.8967  -2.8076  -2.6722  -2.4328  -2.3810  -2.2722  -2.2295
    -2.0905  -2.0497  -1.7367  -1.4845  -1.4559  -1.3541  -1.0199  -0.9838
    -0.8872  -0.8638  -0.7968  -0.6811  -0.5823  -0.5444  -0.4672  -0.3571
    -0.3054  -0.2924  -0.2250  -0.1214   0.1186   0.1512   0.3022   0.4629
     0.4982   0.5969   0.6265   0.7024   0.7715   0.8802   0.9273   1.0446
     1.1038   1.2324   1.2545   1.3032   1.4281   1.4946   1.5108   1.6101
     1.7180   1.7626   1.8040   1.8958   1.9581   2.1311   2.2176   2.2265
     2.3625   2.3850   2.4387   2.4853   2.6126   2.6740   2.8855   2.9581
     6.5864   8.3963   8.9741   9.0430   9.6369  10.0021  10.4212  10.7511
    10.7999  11.0919

     occupation numbers 
     1.0000   1.0000   1.0000   1.0000   1.0000   1.0000   1.0000   1.0000
     1.0000   1.0000   1.0000   1.0000   1.0000   1.0000   1.0000   1.0000
     1.0000   1.0000   1.0000   1.0000   1.0000   1.0000   1.0000   1.0000
     1.0000   1.0000   1.0000   1.0000   1.0000   1.0000   1.0000   1.0000
     1.0000   1.0000   1.0000   1.0000   1.0000   1.0000   1.0000   1.0000
     1.0000   1.0000   1.0000   1.0000   1.0000   1.0000   1.0000   1.0000
     1.0000   1.0000   1.0000   1.0000   1.0000   1.0000   1.0000   1.0000
     1.0000   1.0000   1.0000   1.0000   1.0000   1.0000   1.0000   1.0000
     1.0000   1.0000   1.0000   1.0000   1.0000   1.0000   1.0000   1.0000
     1.0000   1.0000   1.0000   1.0000   1.0000   1.0000   1.0000   1.0000
     1.0000   1.0000   1.0000   1.0000   1.0000   1.0000   1.0000   1.0000
     1.0000   1.0000   1.0000   1.0000   1.0000   1.0000   1.0000   1.0000
     1.0000   1.0000   1.0000   1.0000   1.0000   1.0000   1.0000   1.0000
     0.0000   0.0000   0.0000   0.0000   0.0000   0.0000   0.0000   0.0000
     0.0000   0.0000

          k = 0.0000 0.2391 0.2337 ( 42264 PWs)   bands (ev):

   -87.0573 -86.9805 -86.9716 -86.9149 -53.1452 -53.1443 -53.1279 -53.0968
   -53.0137 -52.9571 -52.8949 -52.8757 -52.8730 -52.8720 -52.8525 -52.7375
   -46.4868 -18.4592 -18.4290 -18.4116 -16.6688 -16.5485 -16.4610 -16.3940
   -14.6974 -14.6517 -14.6069 -14.5453 -14.5029 -14.4746 -14.4428 -14.4057
   -14.3831 -14.3415 -14.2894 -14.2401  -5.3307  -5.0008  -4.9447  -4.6956
    -3.0826  -2.8758  -2.7992  -2.6636  -2.4330  -2.3809  -2.2678  -2.1984
    -2.0702  -2.0288  -1.7710  -1.5252  -1.4293  -1.3401  -1.0075  -0.9762
    -0.8884  -0.8193  -0.8039  -0.6856  -0.5925  -0.5381  -0.4723  -0.3556
    -0.3291  -0.2848  -0.2224  -0.1189   0.0551   0.1113   0.2609   0.4246
     0.5241   0.5970   0.6560   0.6888   0.7970   0.8739   0.9119   1.0388
     1.1165   1.2016   1.2451   1.3083   1.4147   1.4458   1.5490   1.5779
     1.6792   1.7425   1.8049   1.8926   1.9442   2.1481   2.2323   2.2447
     2.3617   2.3891   2.4634   2.4999   2.6120   2.6837   2.8721   2.9484
     6.7213   8.4816   8.9647   9.0970   9.6563   9.9718  10.3872  10.7346
    10.7723  11.0661

     occupation numbers 
     1.0000   1.0000   1.0000   1.0000   1.0000   1.0000   1.0000   1.0000
     1.0000   1.0000   1.0000   1.0000   1.0000   1.0000   1.0000   1.0000
     1.0000   1.0000   1.0000   1.0000   1.0000   1.0000   1.0000   1.0000
     1.0000   1.0000   1.0000   1.0000   1.0000   1.0000   1.0000   1.0000
     1.0000   1.0000   1.0000   1.0000   1.0000   1.0000   1.0000   1.0000
     1.0000   1.0000   1.0000   1.0000   1.0000   1.0000   1.0000   1.0000
     1.0000   1.0000   1.0000   1.0000   1.0000   1.0000   1.0000   1.0000
     1.0000   1.0000   1.0000   1.0000   1.0000   1.0000   1.0000   1.0000
     1.0000   1.0000   1.0000   1.0000   1.0000   1.0000   1.0000   1.0000
     1.0000   1.0000   1.0000   1.0000   1.0000   1.0000   1.0000   1.0000
     1.0000   1.0000   1.0000   1.0000   1.0000   1.0000   1.0000   1.0000
     1.0000   1.0000   1.0000   1.0000   1.0000   1.0000   1.0000   1.0000
     1.0000   1.0000   1.0000   1.0000   1.0000   1.0000   1.0000   1.0000
     0.0000   0.0000   0.0000   0.0000   0.0000   0.0000   0.0000   0.0000
     0.0000   0.0000

          k = 0.0000 0.2391 0.4675 ( 42241 PWs)   bands (ev):

   -87.0573 -86.9805 -86.9716 -86.9149 -53.1452 -53.1443 -53.1279 -53.0968
   -53.0137 -52.9571 -52.8949 -52.8757 -52.8730 -52.8720 -52.8525 -52.7375
   -46.4868 -18.4593 -18.4296 -18.4124 -16.6392 -16.5359 -16.4485 -16.3883
   -14.7172 -14.6695 -14.6329 -14.5576 -14.5094 -14.4820 -14.4457 -14.4019
   -14.3827 -14.3345 -14.2999 -14.2480  -5.2799  -4.9986  -4.9326  -4.7230
    -2.9915  -2.8243  -2.7753  -2.6506  -2.4296  -2.3707  -2.2611  -2.1030
    -2.0344  -1.9633  -1.8599  -1.6100  -1.3708  -1.2953  -0.9689  -0.9510
    -0.8680  -0.8220  -0.7336  -0.6991  -0.5861  -0.5340  -0.4828  -0.3815
    -0.3514  -0.2686  -0.2243  -0.1241  -0.0678   0.0414   0.2045   0.3868
     0.4033   0.5302   0.6345   0.7006   0.7672   0.8939   0.9457   1.0121
     1.1544   1.1740   1.2045   1.2584   1.3233   1.4133   1.4958   1.5679
     1.6393   1.7373   1.8171   1.9228   1.9953   2.1260   2.2542   2.3084
     2.3838   2.4002   2.5075   2.5431   2.6054   2.6966   2.8370   2.9110
     7.0824   8.7113   8.9825   9.1694   9.7457   9.8969  10.2885  10.6499
    10.6800  10.9429

     occupation numbers 
     1.0000   1.0000   1.0000   1.0000   1.0000   1.0000   1.0000   1.0000
     1.0000   1.0000   1.0000   1.0000   1.0000   1.0000   1.0000   1.0000
     1.0000   1.0000   1.0000   1.0000   1.0000   1.0000   1.0000   1.0000
     1.0000   1.0000   1.0000   1.0000   1.0000   1.0000   1.0000   1.0000
     1.0000   1.0000   1.0000   1.0000   1.0000   1.0000   1.0000   1.0000
     1.0000   1.0000   1.0000   1.0000   1.0000   1.0000   1.0000   1.0000
     1.0000   1.0000   1.0000   1.0000   1.0000   1.0000   1.0000   1.0000
     1.0000   1.0000   1.0000   1.0000   1.0000   1.0000   1.0000   1.0000
     1.0000   1.0000   1.0000   1.0000   1.0000   1.0000   1.0000   1.0000
     1.0000   1.0000   1.0000   1.0000   1.0000   1.0000   1.0000   1.0000
     1.0000   1.0000   1.0000   1.0000   1.0000   1.0000   1.0000   1.0000
     1.0000   1.0000   1.0000   1.0000   1.0000   1.0000   1.0000   1.0000
     1.0000   1.0000   1.0000   1.0000   1.0000   1.0000   1.0000   1.0000
     0.0000   0.0000   0.0000   0.0000   0.0000   0.0000   0.0000   0.0000
     0.0000   0.0000

          k = 0.0000 0.2391 0.7012 ( 42219 PWs)   bands (ev):

   -87.0573 -86.9805 -86.9716 -86.9149 -53.1452 -53.1443 -53.1279 -53.0968
   -53.0137 -52.9571 -52.8949 -52.8757 -52.8730 -52.8720 -52.8525 -52.7375
   -46.4868 -18.4594 -18.4308 -18.4127 -16.5986 -16.5267 -16.4312 -16.3852
   -14.7420 -14.6910 -14.6606 -14.5802 -14.5178 -14.4860 -14.4442 -14.4026
   -14.3726 -14.3281 -14.3124 -14.2586  -5.2050  -5.0080  -4.9139  -4.7702
    -2.8804  -2.7772  -2.7313  -2.6499  -2.4159  -2.3397  -2.2438  -2.0509
    -1.9719  -1.9369  -1.8632  -1.7225  -1.2703  -1.2078  -0.9351  -0.9035
    -0.8527  -0.8391  -0.7181  -0.6174  -0.5706  -0.5640  -0.4826  -0.4161
    -0.3694  -0.2488  -0.2269  -0.1821  -0.1445  -0.0337   0.1306   0.1701
[...]
     atom   15 type  3   force =    -0.06679572   -0.00098116   -0.03470164
     atom   16 type  3   force =    -0.07500059    0.00275351    0.01520784
     atom   17 type  3   force =     0.06629657    0.00026988    0.02909805
     atom   18 type  3   force =    -0.02811240   -0.06410414    0.03604323
     atom   19 type  3   force =     0.03099248    0.06177682    0.04082727
     atom   20 type  3   force =     0.03211919   -0.06586984   -0.03342016
     atom   21 type  3   force =    -0.03540476    0.06056516   -0.02814545
     atom   22 type  3   force =     0.02791525    0.06187759   -0.03176870
     atom   23 type  3   force =    -0.02918559   -0.06176969   -0.03687914
     atom   24 type  3   force =    -0.02905910    0.06547367    0.03506162
     atom   25 type  3   force =     0.02899762   -0.06731846    0.03557230
     The non-local contrib.  to forces
     atom    1 type  2   force =     0.02990324   -0.01374867   -0.00259507
     atom    2 type  1   force =     0.09704512   -0.05008690    0.11041656
     atom    3 type  1   force =     0.04047769    0.00473592    0.09341643
     atom    4 type  1   force =    -0.15090672    0.06838119   -0.09112100
     atom    5 type  1   force =    -0.03883295   -0.01907849   -0.08275049
     atom    6 type  4   force =    -0.02909521    0.00004803   -0.03107746
     atom    7 type  4   force =     0.03484220    0.00208180   -0.01100466
     atom    8 type  4   force =     0.01822404   -0.00820786    0.03391819
     atom    9 type  4   force =    -0.01006777   -0.00066484    0.02906186
     atom   10 type  3   force =     0.35883448    0.02739394   -1.50970338
     atom   11 type  3   force =    -0.16785666    0.02579131   -1.45191152
     atom   12 type  3   force =    -0.42388577   -0.01663100    1.51299169
     atom   13 type  3   force =     0.29139354   -0.00523441    1.50295203
     atom   14 type  3   force =     1.24602194    0.02762866   -0.67112905
     atom   15 type  3   force =    -1.20848924   -0.02312948   -0.78153158
     atom   16 type  3   force =    -1.23518617    0.05920384    0.42000368
     atom   17 type  3   force =     1.19637827    0.01115302    0.68556693
     atom   18 type  3   force =    -0.52818563   -1.10042341    0.77698993
     atom   19 type  3   force =     0.57865347    1.10905745    0.84884552
     atom   20 type  3   force =     0.59844486   -1.13091252   -0.72496255
     atom   21 type  3   force =    -0.69205948    1.04811621   -0.61568570
     atom   22 type  3   force =     0.52162190    1.09162952   -0.69971127
     atom   23 type  3   force =    -0.54079289   -1.08409405   -0.79013745
     atom   24 type  3   force =    -0.54269271    1.12321261    0.76076304
     atom   25 type  3   force =     0.53472066   -1.16852749    0.75595253
     The ionic contribution  to forces
     atom    1 type  2   force =    -1.43455291   -0.29377132    0.28267269
     atom    2 type  1   force =    -0.65396837    0.49573655   -0.40256591
     atom    3 type  1   force =    -8.23919720   -1.00065076   -0.41541688
     atom    4 type  1   force =     2.30627840   -1.03557786    0.44283882
     atom    5 type  1   force =     8.31375212    1.34816962    0.73223202
     atom    6 type  4   force =    -3.45810782    0.04324708    0.32307998
     atom    7 type  4   force =     0.82058416   -1.11650649    0.70111890
     atom    8 type  4   force =     4.25287626    0.00686206   -0.38151067
     atom    9 type  4   force =    -1.96129814    1.25000540   -0.78237605
     atom   10 type  3   force =    -9.60824437   -0.08490808    2.48818295
     atom   11 type  3   force =     4.32533058   -1.85894262    1.31376354
     atom   12 type  3   force =    10.61904496    0.13432032   -2.56807376
     atom   13 type  3   force =    -6.67365851    1.76216848   -1.97458264
     atom   14 type  3   force =     0.19026388    1.65401251    4.45571011
     atom   15 type  3   force =    -2.14338969    0.12112826    6.04919009
     atom   16 type  3   force =    -1.07795522   -2.38195170   -2.48229919
     atom   17 type  3   force =     3.09848721   -0.12388419   -5.50328542
     atom   18 type  3   force =    -3.90010297    2.52118001   -2.67156513
     atom   19 type  3   force =     1.06265588   -2.88815071   -2.80670862
     atom   20 type  3   force =     4.76672152    3.28729464    2.44816713
     atom   21 type  3   force =     1.20401290   -1.57117857    0.19575073
     atom   22 type  3   force =     4.52038468   -3.17387970    2.15139876
     atom   23 type  3   force =    -1.73091772    2.09815143    2.43882082
     atom   24 type  3   force =    -4.24238249   -2.70521086   -2.61600998
     atom   25 type  3   force =    -0.35661714    3.51233652   -1.41853228
     The local contribution  to forces
     atom    1 type  2   force =     1.39866614    0.31794444   -0.27781446
     atom    2 type  1   force =     0.54582735   -0.44126411    0.28383776
     atom    3 type  1   force =     8.19430246    0.99516523    0.31725585
     atom    4 type  1   force =    -2.14045009    0.96159460   -0.34451387
     atom    5 type  1   force =    -8.26935116   -1.32828141   -0.64597653
     atom    6 type  4   force =     3.49115974   -0.04311646   -0.29029054
     atom    7 type  4   force =    -0.85509268    1.11420984   -0.68739489
     atom    8 type  4   force =    -4.27569374    0.00064906    0.34511336
     atom    9 type  4   force =     1.97274618   -1.25130790    0.75068691
     atom   10 type  3   force =     9.26591912    0.05845576   -1.06715324
     atom   11 type  3   force =    -4.16206671    1.83411163    0.04886371
     atom   12 type  3   force =   -10.21543116   -0.11902285    1.14446801
     atom   13 type  3   force =     6.39439763   -1.75671983    0.56395560
     atom   14 type  3   force =    -1.35042023   -1.68111179   -3.81953960
     atom   15 type  3   force =     3.27353654   -0.09921969   -5.31051126
     atom   16 type  3   force =     2.22639688    2.32602886    2.08203602
     atom   17 type  3   force =    -4.21711351    0.11311159    4.85401424
     atom   18 type  3   force =     4.39505625   -1.49549356    1.93842499
     atom   19 type  3   force =    -1.60472301    1.85149246    2.00726498
     atom   20 type  3   force =    -5.32718028   -2.23318683   -1.76386560
     atom   21 type  3   force =    -0.55409496    0.59378404    0.38559477
     atom   22 type  3   force =    -5.00901908    2.15466811   -1.49045129
     atom   23 type  3   force =     2.23730678   -1.08629628   -1.69355304
     atom   24 type  3   force =     4.75073684    1.65835698    1.89791648
     atom   25 type  3   force =    -0.14399388   -2.42249846    0.70575441
     The core correction contribution to forces
     atom    1 type  2   force =     0.00000000    0.00000000    0.00000000
     atom    2 type  1   force =    -0.00098741    0.00032504   -0.00037531
     atom    3 type  1   force =     0.00002234   -0.00012194    0.00036374
     atom    4 type  1   force =     0.00182007   -0.00055614    0.00014456
     atom    5 type  1   force =     0.00003651    0.00024256   -0.00034031
     atom    6 type  4   force =     0.00192811    0.00001758    0.00238345
     atom    7 type  4   force =    -0.00221680    0.00001116    0.00076141
     atom    8 type  4   force =    -0.00125052    0.00052485   -0.00255438
     atom    9 type  4   force =     0.00062075   -0.00036897   -0.00184276
     atom   10 type  3   force =    -0.00415109   -0.00027710    0.01467986
     atom   11 type  3   force =     0.00227932   -0.00023983    0.01403849
     atom   12 type  3   force =     0.00478826    0.00018683   -0.01468385
     atom   13 type  3   force =    -0.00349189    0.00003808   -0.01460445
     atom   14 type  3   force =    -0.01186535   -0.00033465    0.00709575
     atom   15 type  3   force =     0.01154048    0.00023979    0.00815210
     atom   16 type  3   force =     0.01174890   -0.00052751   -0.00453242
     atom   17 type  3   force =    -0.01146397   -0.00011039   -0.00719683
     atom   18 type  3   force =     0.00511805    0.01063178   -0.00780718
     atom   19 type  3   force =    -0.00559068   -0.01062276   -0.00857403
     atom   20 type  3   force =    -0.00587099    0.01093660    0.00724066
     atom   21 type  3   force =     0.00673904   -0.01015583    0.00619548
     atom   22 type  3   force =    -0.00507651   -0.01054232    0.00699481
     atom   23 type  3   force =     0.00522062    0.01046893    0.00799120
     atom   24 type  3   force =     0.00527747   -0.01088397   -0.00760851
     atom   25 type  3   force =    -0.00510867    0.01137150   -0.00760167
     The Hubbard contrib.    to forces
     atom    1 type  2   force =     0.00000000    0.00000000    0.00000000
     atom    2 type  1   force =     0.00000000    0.00000000    0.00000000
     atom    3 type  1   force =     0.00000000    0.00000000    0.00000000
     atom    4 type  1   force =     0.00000000    0.00000000    0.00000000
     atom    5 type  1   force =     0.00000000    0.00000000    0.00000000
     atom    6 type  4   force =     0.00000000    0.00000000    0.00000000
     atom    7 type  4   force =     0.00000000    0.00000000    0.00000000
     atom    8 type  4   force =     0.00000000    0.00000000    0.00000000
     atom    9 type  4   force =     0.00000000    0.00000000    0.00000000
     atom   10 type  3   force =     0.00000000    0.00000000    0.00000000
     atom   11 type  3   force =     0.00000000    0.00000000    0.00000000
     atom   12 type  3   force =     0.00000000    0.00000000    0.00000000
     atom   13 type  3   force =     0.00000000    0.00000000    0.00000000
     atom   14 type  3   force =     0.00000000    0.00000000    0.00000000
     atom   15 type  3   force =     0.00000000    0.00000000    0.00000000
     atom   16 type  3   force =     0.00000000    0.00000000    0.00000000
     atom   17 type  3   force =     0.00000000    0.00000000    0.00000000
     atom   18 type  3   force =     0.00000000    0.00000000    0.00000000
     atom   19 type  3   force =     0.00000000    0.00000000    0.00000000
     atom   20 type  3   force =     0.00000000    0.00000000    0.00000000
     atom   21 type  3   force =     0.00000000    0.00000000    0.00000000
     atom   22 type  3   force =     0.00000000    0.00000000    0.00000000
     atom   23 type  3   force =     0.00000000    0.00000000    0.00000000
     atom   24 type  3   force =     0.00000000    0.00000000    0.00000000
     atom   25 type  3   force =     0.00000000    0.00000000    0.00000000
     The SCF correction term to forces
     atom    1 type  2   force =    -0.00000693   -0.00000034    0.00000008
     atom    2 type  1   force =    -0.00000464    0.00000004    0.00000010
     atom    3 type  1   force =    -0.00000027    0.00000003    0.00000022
     atom    4 type  1   force =     0.00000062    0.00000056    0.00000039
     atom    5 type  1   force =     0.00000505   -0.00000039   -0.00000010
     atom    6 type  4   force =     0.00000274   -0.00000002   -0.00000019
     atom    7 type  4   force =    -0.00000378   -0.00000002   -0.00000030
     atom    8 type  4   force =     0.00000427    0.00000012   -0.00000036
     atom    9 type  4   force =    -0.00000333   -0.00000012   -0.00000023
     atom   10 type  3   force =     0.00000313   -0.00000003    0.00000012
     atom   11 type  3   force =    -0.00000505    0.00000003    0.00000101
     atom   12 type  3   force =     0.00000536    0.00000018    0.00000083
     atom   13 type  3   force =    -0.00000527   -0.00000018    0.00000147
     atom   14 type  3   force =    -0.00000544    0.00000001   -0.00000043
     atom   15 type  3   force =     0.00000582   -0.00000002   -0.00000104
     atom   16 type  3   force =    -0.00000535    0.00000004   -0.00000031
     atom   17 type  3   force =     0.00000819   -0.00000012   -0.00000092
     atom   18 type  3   force =     0.00000151    0.00000108    0.00000058
     atom   19 type  3   force =    -0.00000356    0.00000042   -0.00000062
     atom   20 type  3   force =     0.00000371   -0.00000171    0.00000016
     atom   21 type  3   force =    -0.00000264   -0.00000066   -0.00000078
     atom   22 type  3   force =     0.00000388    0.00000202    0.00000024
     atom   23 type  3   force =    -0.00000275    0.00000031   -0.00000072
     atom   24 type  3   force =     0.00000142   -0.00000106    0.00000055
     atom   25 type  3   force =    -0.00000373   -0.00000051   -0.00000073

     Total force =     0.311043     Total SCF correction =     0.000022


     Computing stress (Cartesian axis) and pressure


     negative rho (up, down):  0.000E+00 9.570E-04
          total   stress  (Ry/bohr**3)                   (kbar)     P=     -181.72
  -0.00148742  -0.00001794  -0.00001419         -218.81       -2.64       -2.09
  -0.00001794  -0.00109040  -0.00001223           -2.64     -160.40       -1.80
  -0.00001419  -0.00001223  -0.00112803           -2.09       -1.80     -165.94

     kinetic stress (kbar)  22396.59    -14.25     -0.98
                              -14.25  22617.27     -1.68
                               -0.98     -1.68  22444.48

     local   stress (kbar)  -5409.42  -1997.26    821.73
                            -1997.26 -13462.15    740.64
                              821.73    740.64  -7934.47

     nonloc. stress (kbar)  -5648.14     -0.74     -0.64
                               -0.74  -5612.06      0.92
                               -0.64      0.92  -5616.13

     hartree stress (kbar)  11429.45    823.05   -328.12
                              823.05  15806.97   -304.27
                             -328.12   -304.27  13029.24

     exc-cor stress (kbar)  -2381.81      0.97     -0.59
                                0.97  -2387.42     -0.29
                               -0.59     -0.29  -2385.44

     corecor stress (kbar)  -2686.65     -0.32      0.55
                               -0.32  -2687.07      0.00
                                0.55      0.00  -2687.97

     ewald   stress (kbar) -17918.84   1185.90   -494.03
                             1185.90 -14435.95   -437.12
                             -494.03   -437.12 -17015.65

     hubbard stress (kbar)      0.00      0.00      0.00
                                0.00      0.00      0.00
                                0.00      0.00      0.00

     DFT-D   stress (kbar)      0.00      0.00      0.00
                                0.00      0.00      0.00
                                0.00      0.00      0.00

     XDM     stress (kbar)      0.00      0.00      0.00
                                0.00      0.00      0.00
                                0.00      0.00      0.00

     dft-nl  stress (kbar)      0.00      0.00      0.00
                                0.00      0.00      0.00
                                0.00      0.00      0.00

     TS-vdW  stress (kbar)      0.00      0.00      0.00
                                0.00      0.00      0.00
                                0.00      0.00      0.00



     init_run     :    197.83s CPU    201.38s WALL (       1 calls)
     electrons    :  19481.90s CPU  19725.06s WALL (       1 calls)
     forces       :    120.32s CPU    122.34s WALL (       1 calls)
     stress       :    772.86s CPU    778.97s WALL (       1 calls)

     Called by init_run:
     wfcinit      :    188.02s CPU    190.84s WALL (       1 calls)
     wfcinit:atom :      2.78s CPU      2.82s WALL (     316 calls)
     wfcinit:wfcr :    175.99s CPU    178.62s WALL (     316 calls)
     potinit      :      3.44s CPU      3.57s WALL (       1 calls)
     hinit0       :      3.68s CPU      3.78s WALL (       1 calls)

     Called by electrons:
     c_bands      :  17199.58s CPU  17362.40s WALL (      41 calls)
     sum_band     :   2173.45s CPU   2226.46s WALL (      41 calls)
     v_of_rho     :     31.78s CPU     33.08s WALL (      42 calls)
     v_h          :      1.33s CPU      1.42s WALL (      42 calls)
     v_xc         :     31.89s CPU     33.16s WALL (      44 calls)
     newd         :     51.67s CPU     77.43s WALL (      42 calls)
     PAW_pot      :     17.43s CPU     17.50s WALL (      42 calls)
     mix_rho      :      7.04s CPU      7.43s WALL (      41 calls)

     Called by c_bands:
     init_us_2    :    309.85s CPU    315.15s WALL (   26860 calls)
     cegterg      :  16667.45s CPU  16822.40s WALL (   12956 calls)

     Called by sum_band:
     sum_band:wei :      0.68s CPU      0.68s WALL (      41 calls)
     sum_band:loo :   2016.05s CPU   2037.78s WALL (      41 calls)
     sum_band:buf :     77.21s CPU     78.50s WALL (   12956 calls)
     sum_band:ini :    149.15s CPU    151.37s WALL (   12956 calls)
     sum_band:cal :    941.24s CPU    949.82s WALL (   12956 calls)
     sum_band:bec :      5.73s CPU      5.82s WALL (   12956 calls)
     addusdens    :    149.18s CPU    180.21s WALL (      41 calls)
     addusd:skk   :      0.70s CPU      0.73s WALL (     123 calls)
     addusd:dgemm :     60.52s CPU     84.93s WALL (     246 calls)
     addusd:qvan2 :     86.12s CPU     86.69s WALL (     246 calls)

     Called by *egterg:
     cdiaghg      :    935.26s CPU    958.19s WALL (   43948 calls)
     cegterg:over :   1699.55s CPU   1722.36s WALL (   30992 calls)
     cegterg:upda :    948.84s CPU    953.64s WALL (   30992 calls)
     cegterg:last :   1703.44s CPU   1711.72s WALL (   19409 calls)
     h_psi        :   8214.12s CPU   8290.18s WALL (   44264 calls)
     s_psi        :   2120.88s CPU   2130.60s WALL (   44264 calls)
     g_psi        :     21.12s CPU     21.38s WALL (   30992 calls)

     Called by h_psi:
     h_psi:calbec :   2239.45s CPU   2260.44s WALL (   44264 calls)
     vloc_psi     :   3625.36s CPU   3667.28s WALL (   44264 calls)
     add_vuspsi   :   2180.58s CPU   2190.21s WALL (   44264 calls)

     General routines
     calbec       :   3300.37s CPU   3331.14s WALL (   58800 calls)
     fft          :     28.60s CPU     30.40s WALL (    1088 calls)
     ffts         :      0.43s CPU      0.51s WALL (     166 calls)
     fftw         :   4163.99s CPU   4212.19s WALL ( 7831612 calls)
     interpolate  :      2.38s CPU      2.56s WALL (      84 calls)

     Parallel routines
     fft_scatt_xy :    372.65s CPU    376.33s WALL ( 7832866 calls)
     fft_scatt_yz :   1241.42s CPU   1262.68s WALL ( 7832866 calls)

     PAW routines
     PAW_pot      :     17.43s CPU     17.50s WALL (      42 calls)

     PWSCF        :      5h42m CPU      5h47m WALL


   This run was terminated on:  20: 7:19  19Dec2022            

=------------------------------------------------------------------------------=
   JOB DONE.
=------------------------------------------------------------------------------=
Note: The following floating-point exceptions are signalling: IEEE_DENORMAL
Note: The following floating-point exceptions are signalling: IEEE_UNDERFLOW_FLAG IEEE_DENORMAL
Note: The following floating-point exceptions are signalling: IEEE_DENORMAL
Note: The following floating-point exceptions are signalling: IEEE_DENORMAL
Note: The following floating-point exceptions are signalling: IEEE_DENORMAL
Note: The following floating-point exceptions are signalling: IEEE_DENORMAL
Note: The following floating-point exceptions are signalling: IEEE_DENORMAL
Note: The following floating-point exceptions are signalling: IEEE_DENORMAL
Note: The following floating-point exceptions are signalling: IEEE_DENORMAL
Note: The following floating-point exceptions are signalling: IEEE_DENORMAL
Note: The following floating-point exceptions are signalling: IEEE_DENORMAL
Note: The following floating-point exceptions are signalling: IEEE_DENORMAL
Note: The following floating-point exceptions are signalling: IEEE_DENORMAL
Note: The following floating-point exceptions are signalling: IEEE_INVALID_FLAG IEEE_DENORMAL
Note: The following floating-point exceptions are signalling: IEEE_DENORMAL
