
     Program PWSCF v.6.7MaX starts on 28Sep2022 at 21:22:42 

     This program is part of the open-source Quantum ESPRESSO suite
     for quantum simulation of materials; please cite
         "P. Giannozzi et al., J. Phys.:Condens. Matter 21 395502 (2009);
         "P. Giannozzi et al., J. Phys.:Condens. Matter 29 465901 (2017);
          URL http://www.quantum-espresso.org", 
     in publications or presentations arising from this work. More details at
     http://www.quantum-espresso.org/quote

     Parallel version (MPI), running on    16 processors

     MPI processes distributed on     1 nodes
     R & G space division:  proc/nbgrp/npool/nimage =      16
     Reading input from scale_1da-04.in

     Current dimensions of program PWSCF are:
     Max number of different atomic species (ntypx) = 10
     Max number of k-points (npk) =  40000
     Max angular momentum in pseudopotentials (lmaxx) =  3
     Message from routine read_pp_mesh:
     mesh size missing, using the one in header

     Subspace diagonalization in iterative solution of the eigenvalue problem:
     a serial algorithm will be used


     Parallelization info
     --------------------
     sticks:   dense  smooth     PW     G-vecs:    dense   smooth      PW
     Min          44      31     10                 3068     1893     353
     Max          45      32     11                 3072     1906     363
     Sum         709     509    165                49109    30429    5703



     bravais-lattice index     =            0
     lattice parameter (alat)  =       4.9044  a.u.
     unit-cell volume          =     314.9623 (a.u.)^3
     number of atoms/cell      =            4
     number of atomic types    =            2
     number of electrons       =        16.00
     number of Kohn-Sham states=           12
     kinetic-energy cutoff     =      80.0000  Ry
     charge density cutoff     =     440.0000  Ry
     scf convergence threshold =      2.0E-10
     mixing beta               =       0.4000
     number of iterations used =            8  plain     mixing
     Exchange-correlation= PBE
                           (   1   4   3   4   0   0   0)

     celldm(1)=   4.904444  celldm(2)=   0.000000  celldm(3)=   0.000000
     celldm(4)=   0.000000  celldm(5)=   0.000000  celldm(6)=   0.000000

     crystal axes: (cart. coord. in units of alat)
               a(1) = (   1.000000   0.000000   0.000000 )  
               a(2) = (  -0.483871   0.838089   0.000000 )  
               a(3) = (   0.000000   0.000000   3.185657 )  

     reciprocal axes: (cart. coord. in units 2 pi/alat)
               b(1) = (  1.000000  0.577350 -0.000000 )  
               b(2) = (  0.000000  1.193191  0.000000 )  
               b(3) = (  0.000000 -0.000000  0.313907 )  


     PseudoPot. # 1 for B  read from file:
     /opt/QEpot/SSSP_precision_pseudos/B_pbe_v1.01.uspp.F.UPF
     MD5 check sum: d081ebb89d0c768e112975f650467a00
     Pseudo is Ultrasoft + core correction, Zval =  3.0
     Generated by new atomic code, or converted to UPF format
     Using radial grid of  781 points,  4 beta functions with: 
                l(1) =   0
                l(2) =   0
                l(3) =   1
                l(4) =   1
     Q(r) pseudized with  8 coefficients,  rinner =    1.100   1.100   1.100


     PseudoPot. # 2 for N  read from file:
     /opt/QEpot/SSSP_precision_pseudos/N.oncvpsp.upf
     MD5 check sum: 563d65bfb082928f0c9eb97172f6c357
     Pseudo is Norm-conserving + core correction, Zval =  5.0
     Generated using ONCVPSP code by D. R. Hamann
     Using radial grid of 1058 points,  4 beta functions with: 
                l(1) =   0
                l(2) =   0
                l(3) =   1
                l(4) =   1

     atomic species   valence    mass     pseudopotential
        B              3.00    10.81000     B ( 1.00)
        N              5.00    14.00700     N ( 1.00)

     No symmetry found


                                    s                        frac. trans.

      isym =  1     identity                                     

 cryst.   s( 1) = (     1          0          0      )
                  (     0          1          0      )
                  (     0          0          1      )

 cart.    s( 1) = (  1.0000000 -0.0000000  0.0000000 )
                  (  0.0000000  1.0000000  0.0000000 )
                  (  0.0000000  0.0000000  1.0000000 )


   Cartesian axes

     site n.     atom                  positions (alat units)
         1           B   tau(   1) = (   0.0116395   0.5587669   0.7939675  )
         2           B   tau(   2) = (   0.5062642   0.2794034   2.3867962  )
         3           N   tau(   3) = (   0.0008873   0.0000406   0.7939675  )
         4           N   tau(   4) = (   0.0008873   0.0000406   2.3867962  )

   Crystallographic axes

     site n.     atom                  positions (cryst. coord.)
         1           B   tau(   1) = (  0.3342438  0.6667154  0.2492319  )
         2           B   tau(   2) = (  0.6675778  0.3333814  0.7492319  )
         3           N   tau(   3) = (  0.0009108  0.0000484  0.2492319  )
         4           N   tau(   4) = (  0.0009108  0.0000484  0.7492319  )

     number of k points=   152  Marzari-Vanderbilt smearing, width (Ry)=  0.0220
                       cart. coord. in units 2pi/alat
        k(    1) = (   0.0000000   0.0000000   0.0000000), wk =   0.0066667
        k(    2) = (   0.0000000   0.0000000   0.1046357), wk =   0.0133333
        k(    3) = (   0.0000000   0.1193191   0.0000000), wk =   0.0133333
        k(    4) = (   0.0000000   0.1193191   0.1046357), wk =   0.0133333
        k(    5) = (   0.0000000   0.2386381   0.0000000), wk =   0.0133333
        k(    6) = (   0.0000000   0.2386381   0.1046357), wk =   0.0133333
        k(    7) = (   0.0000000   0.3579572   0.0000000), wk =   0.0133333
        k(    8) = (   0.0000000   0.3579572   0.1046357), wk =   0.0133333
        k(    9) = (   0.0000000   0.4772762   0.0000000), wk =   0.0133333
        k(   10) = (   0.0000000   0.4772762   0.1046357), wk =   0.0133333
        k(   11) = (   0.0000000  -0.5965953   0.0000000), wk =   0.0066667
        k(   12) = (   0.0000000  -0.5965953   0.1046357), wk =   0.0133333
        k(   13) = (   0.1000000   0.0577350   0.0000000), wk =   0.0133333
        k(   14) = (   0.1000000   0.0577350   0.1046357), wk =   0.0133333
        k(   15) = (   0.1000000   0.1770541   0.0000000), wk =   0.0133333
        k(   16) = (   0.1000000   0.1770541   0.1046357), wk =   0.0133333
        k(   17) = (   0.1000000   0.2963731   0.0000000), wk =   0.0133333
        k(   18) = (   0.1000000   0.2963731   0.1046357), wk =   0.0133333
        k(   19) = (   0.1000000   0.4156922   0.0000000), wk =   0.0133333
        k(   20) = (   0.1000000   0.4156922   0.1046357), wk =   0.0133333
        k(   21) = (   0.1000000   0.5350112   0.0000000), wk =   0.0133333
        k(   22) = (   0.1000000   0.5350112   0.1046357), wk =   0.0133333
        k(   23) = (   0.1000000  -0.5388603   0.0000000), wk =   0.0133333
        k(   24) = (   0.1000000  -0.5388603   0.1046357), wk =   0.0133333
        k(   25) = (   0.1000000  -0.4195412   0.0000000), wk =   0.0133333
        k(   26) = (   0.1000000  -0.4195412   0.1046357), wk =   0.0133333
        k(   27) = (   0.1000000  -0.3002221   0.0000000), wk =   0.0133333
        k(   28) = (   0.1000000  -0.3002221   0.1046357), wk =   0.0133333
        k(   29) = (   0.1000000  -0.1809031   0.0000000), wk =   0.0133333
        k(   30) = (   0.1000000  -0.1809031   0.1046357), wk =   0.0133333
        k(   31) = (   0.1000000  -0.0615840   0.0000000), wk =   0.0133333
        k(   32) = (   0.1000000  -0.0615840   0.1046357), wk =   0.0133333
        k(   33) = (   0.2000000   0.1154701   0.0000000), wk =   0.0133333
        k(   34) = (   0.2000000   0.1154701   0.1046357), wk =   0.0133333
        k(   35) = (   0.2000000   0.2347891   0.0000000), wk =   0.0133333
        k(   36) = (   0.2000000   0.2347891   0.1046357), wk =   0.0133333
        k(   37) = (   0.2000000   0.3541082   0.0000000), wk =   0.0133333
        k(   38) = (   0.2000000   0.3541082   0.1046357), wk =   0.0133333
        k(   39) = (   0.2000000   0.4734272   0.0000000), wk =   0.0133333
        k(   40) = (   0.2000000   0.4734272   0.1046357), wk =   0.0133333
        k(   41) = (   0.2000000   0.5927463   0.0000000), wk =   0.0133333
        k(   42) = (   0.2000000   0.5927463   0.1046357), wk =   0.0133333
        k(   43) = (   0.2000000  -0.4811252   0.0000000), wk =   0.0133333
        k(   44) = (   0.2000000  -0.4811252   0.1046357), wk =   0.0133333
        k(   45) = (   0.2000000  -0.3618062   0.0000000), wk =   0.0133333
        k(   46) = (   0.2000000  -0.3618062   0.1046357), wk =   0.0133333
        k(   47) = (   0.2000000  -0.2424871   0.0000000), wk =   0.0133333
        k(   48) = (   0.2000000  -0.2424871   0.1046357), wk =   0.0133333
        k(   49) = (   0.2000000  -0.1231681   0.0000000), wk =   0.0133333
        k(   50) = (   0.2000000  -0.1231681   0.1046357), wk =   0.0133333
        k(   51) = (   0.2000000  -0.0038490   0.0000000), wk =   0.0133333
        k(   52) = (   0.2000000  -0.0038490   0.1046357), wk =   0.0133333
        k(   53) = (   0.3000000   0.1732051   0.0000000), wk =   0.0133333
        k(   54) = (   0.3000000   0.1732051   0.1046357), wk =   0.0133333
        k(   55) = (   0.3000000   0.2925241   0.0000000), wk =   0.0133333
        k(   56) = (   0.3000000   0.2925241   0.1046357), wk =   0.0133333
        k(   57) = (   0.3000000   0.4118432   0.0000000), wk =   0.0133333
        k(   58) = (   0.3000000   0.4118432   0.1046357), wk =   0.0133333
        k(   59) = (   0.3000000   0.5311622   0.0000000), wk =   0.0133333
        k(   60) = (   0.3000000   0.5311622   0.1046357), wk =   0.0133333
        k(   61) = (   0.3000000   0.6504813   0.0000000), wk =   0.0133333
        k(   62) = (   0.3000000   0.6504813   0.1046357), wk =   0.0133333
        k(   63) = (   0.3000000  -0.4233902   0.0000000), wk =   0.0133333
        k(   64) = (   0.3000000  -0.4233902   0.1046357), wk =   0.0133333
        k(   65) = (   0.3000000  -0.3040711   0.0000000), wk =   0.0133333
        k(   66) = (   0.3000000  -0.3040711   0.1046357), wk =   0.0133333
        k(   67) = (   0.3000000  -0.1847521   0.0000000), wk =   0.0133333
        k(   68) = (   0.3000000  -0.1847521   0.1046357), wk =   0.0133333
        k(   69) = (   0.3000000  -0.0654330   0.0000000), wk =   0.0133333
        k(   70) = (   0.3000000  -0.0654330   0.1046357), wk =   0.0133333
        k(   71) = (   0.3000000   0.0538860   0.0000000), wk =   0.0133333
        k(   72) = (   0.3000000   0.0538860   0.1046357), wk =   0.0133333
        k(   73) = (   0.4000000   0.2309401   0.0000000), wk =   0.0133333
        k(   74) = (   0.4000000   0.2309401   0.1046357), wk =   0.0133333
        k(   75) = (   0.4000000   0.3502592   0.0000000), wk =   0.0133333
        k(   76) = (   0.4000000   0.3502592   0.1046357), wk =   0.0133333
        k(   77) = (   0.4000000   0.4695782   0.0000000), wk =   0.0133333
        k(   78) = (   0.4000000   0.4695782   0.1046357), wk =   0.0133333
        k(   79) = (   0.4000000   0.5888973   0.0000000), wk =   0.0133333
        k(   80) = (   0.4000000   0.5888973   0.1046357), wk =   0.0133333
        k(   81) = (   0.4000000   0.7082163   0.0000000), wk =   0.0133333
        k(   82) = (   0.4000000   0.7082163   0.1046357), wk =   0.0133333
        k(   83) = (   0.4000000  -0.3656552   0.0000000), wk =   0.0133333
        k(   84) = (   0.4000000  -0.3656552   0.1046357), wk =   0.0133333
        k(   85) = (   0.4000000  -0.2463361   0.0000000), wk =   0.0133333
        k(   86) = (   0.4000000  -0.2463361   0.1046357), wk =   0.0133333
        k(   87) = (   0.4000000  -0.1270171   0.0000000), wk =   0.0133333
        k(   88) = (   0.4000000  -0.1270171   0.1046357), wk =   0.0133333
        k(   89) = (   0.4000000  -0.0076980   0.0000000), wk =   0.0133333
        k(   90) = (   0.4000000  -0.0076980   0.1046357), wk =   0.0133333
        k(   91) = (   0.4000000   0.1116211   0.0000000), wk =   0.0133333
        k(   92) = (   0.4000000   0.1116211   0.1046357), wk =   0.0133333
        k(   93) = (  -0.5000000  -0.2886751   0.0000000), wk =   0.0066667
        k(   94) = (  -0.5000000  -0.2886751   0.1046357), wk =   0.0133333
        k(   95) = (  -0.5000000  -0.1693561   0.0000000), wk =   0.0133333
        k(   96) = (  -0.5000000  -0.1693561   0.1046357), wk =   0.0133333
        k(   97) = (  -0.5000000  -0.0500370   0.0000000), wk =   0.0133333
        k(   98) = (  -0.5000000  -0.0500370   0.1046357), wk =   0.0133333
        k(   99) = (  -0.5000000   0.0692820   0.0000000), wk =   0.0133333
        k(  100) = (  -0.5000000   0.0692820   0.1046357), wk =   0.0133333
        k(  101) = (  -0.5000000   0.1886011   0.0000000), wk =   0.0133333
        k(  102) = (  -0.5000000   0.1886011   0.1046357), wk =   0.0133333
        k(  103) = (  -0.5000000  -0.8852704   0.0000000), wk =   0.0066667
        k(  104) = (  -0.5000000  -0.8852704   0.1046357), wk =   0.0133333
        k(  105) = (   0.0000000  -0.1193191   0.1046357), wk =   0.0133333
        k(  106) = (   0.0000000  -0.2386381   0.1046357), wk =   0.0133333
        k(  107) = (   0.0000000  -0.3579572   0.1046357), wk =   0.0133333
        k(  108) = (   0.0000000  -0.4772762   0.1046357), wk =   0.0133333
        k(  109) = (  -0.1000000  -0.0577350   0.1046357), wk =   0.0133333
        k(  110) = (  -0.1000000  -0.1770541   0.1046357), wk =   0.0133333
        k(  111) = (  -0.1000000  -0.2963731   0.1046357), wk =   0.0133333
        k(  112) = (  -0.1000000  -0.4156922   0.1046357), wk =   0.0133333
        k(  113) = (  -0.1000000  -0.5350112   0.1046357), wk =   0.0133333
        k(  114) = (  -0.1000000   0.5388603   0.1046357), wk =   0.0133333
        k(  115) = (  -0.1000000   0.4195412   0.1046357), wk =   0.0133333
        k(  116) = (  -0.1000000   0.3002221   0.1046357), wk =   0.0133333
        k(  117) = (  -0.1000000   0.1809031   0.1046357), wk =   0.0133333
        k(  118) = (  -0.1000000   0.0615840   0.1046357), wk =   0.0133333
        k(  119) = (  -0.2000000  -0.1154701   0.1046357), wk =   0.0133333
        k(  120) = (  -0.2000000  -0.2347891   0.1046357), wk =   0.0133333
        k(  121) = (  -0.2000000  -0.3541082   0.1046357), wk =   0.0133333
        k(  122) = (  -0.2000000  -0.4734272   0.1046357), wk =   0.0133333
        k(  123) = (  -0.2000000  -0.5927463   0.1046357), wk =   0.0133333
        k(  124) = (  -0.2000000   0.4811252   0.1046357), wk =   0.0133333
        k(  125) = (  -0.2000000   0.3618062   0.1046357), wk =   0.0133333
        k(  126) = (  -0.2000000   0.2424871   0.1046357), wk =   0.0133333
        k(  127) = (  -0.2000000   0.1231681   0.1046357), wk =   0.0133333
        k(  128) = (  -0.2000000   0.0038490   0.1046357), wk =   0.0133333
        k(  129) = (  -0.3000000  -0.1732051   0.1046357), wk =   0.0133333
        k(  130) = (  -0.3000000  -0.2925241   0.1046357), wk =   0.0133333
        k(  131) = (  -0.3000000  -0.4118432   0.1046357), wk =   0.0133333
        k(  132) = (  -0.3000000  -0.5311622   0.1046357), wk =   0.0133333
        k(  133) = (  -0.3000000  -0.6504813   0.1046357), wk =   0.0133333
        k(  134) = (  -0.3000000   0.4233902   0.1046357), wk =   0.0133333
        k(  135) = (  -0.3000000   0.3040711   0.1046357), wk =   0.0133333
        k(  136) = (  -0.3000000   0.1847521   0.1046357), wk =   0.0133333
        k(  137) = (  -0.3000000   0.0654330   0.1046357), wk =   0.0133333
        k(  138) = (  -0.3000000  -0.0538860   0.1046357), wk =   0.0133333
        k(  139) = (  -0.4000000  -0.2309401   0.1046357), wk =   0.0133333
        k(  140) = (  -0.4000000  -0.3502592   0.1046357), wk =   0.0133333
        k(  141) = (  -0.4000000  -0.4695782   0.1046357), wk =   0.0133333
        k(  142) = (  -0.4000000  -0.5888973   0.1046357), wk =   0.0133333
        k(  143) = (  -0.4000000  -0.7082163   0.1046357), wk =   0.0133333
        k(  144) = (  -0.4000000   0.3656552   0.1046357), wk =   0.0133333
        k(  145) = (  -0.4000000   0.2463361   0.1046357), wk =   0.0133333
        k(  146) = (  -0.4000000   0.1270171   0.1046357), wk =   0.0133333
        k(  147) = (  -0.4000000   0.0076980   0.1046357), wk =   0.0133333
        k(  148) = (  -0.4000000  -0.1116211   0.1046357), wk =   0.0133333
        k(  149) = (   0.5000000   0.1693561   0.1046357), wk =   0.0133333
        k(  150) = (   0.5000000   0.0500370   0.1046357), wk =   0.0133333
        k(  151) = (   0.5000000  -0.0692820   0.1046357), wk =   0.0133333
        k(  152) = (   0.5000000  -0.1886011   0.1046357), wk =   0.0133333

                       cryst. coord.
        k(    1) = (   0.0000000   0.0000000   0.0000000), wk =   0.0066667
        k(    2) = (   0.0000000   0.0000000   0.3333333), wk =   0.0133333
        k(    3) = (   0.0000000   0.1000000   0.0000000), wk =   0.0133333
        k(    4) = (   0.0000000   0.1000000   0.3333333), wk =   0.0133333
        k(    5) = (   0.0000000   0.2000000   0.0000000), wk =   0.0133333
        k(    6) = (   0.0000000   0.2000000   0.3333333), wk =   0.0133333
        k(    7) = (   0.0000000   0.3000000   0.0000000), wk =   0.0133333
        k(    8) = (   0.0000000   0.3000000   0.3333333), wk =   0.0133333
        k(    9) = (   0.0000000   0.4000000   0.0000000), wk =   0.0133333
        k(   10) = (   0.0000000   0.4000000   0.3333333), wk =   0.0133333
        k(   11) = (   0.0000000  -0.5000000   0.0000000), wk =   0.0066667
        k(   12) = (   0.0000000  -0.5000000   0.3333333), wk =   0.0133333
        k(   13) = (   0.1000000  -0.0000000   0.0000000), wk =   0.0133333
        k(   14) = (   0.1000000  -0.0000000   0.3333333), wk =   0.0133333
        k(   15) = (   0.1000000   0.1000000   0.0000000), wk =   0.0133333
        k(   16) = (   0.1000000   0.1000000   0.3333333), wk =   0.0133333
        k(   17) = (   0.1000000   0.2000000   0.0000000), wk =   0.0133333
        k(   18) = (   0.1000000   0.2000000   0.3333333), wk =   0.0133333
        k(   19) = (   0.1000000   0.3000000   0.0000000), wk =   0.0133333
        k(   20) = (   0.1000000   0.3000000   0.3333333), wk =   0.0133333
        k(   21) = (   0.1000000   0.4000000   0.0000000), wk =   0.0133333
        k(   22) = (   0.1000000   0.4000000   0.3333333), wk =   0.0133333
        k(   23) = (   0.1000000  -0.5000000   0.0000000), wk =   0.0133333
        k(   24) = (   0.1000000  -0.5000000   0.3333333), wk =   0.0133333
        k(   25) = (   0.1000000  -0.4000000   0.0000000), wk =   0.0133333
        k(   26) = (   0.1000000  -0.4000000   0.3333333), wk =   0.0133333
        k(   27) = (   0.1000000  -0.3000000   0.0000000), wk =   0.0133333
        k(   28) = (   0.1000000  -0.3000000   0.3333333), wk =   0.0133333
        k(   29) = (   0.1000000  -0.2000000   0.0000000), wk =   0.0133333
        k(   30) = (   0.1000000  -0.2000000   0.3333333), wk =   0.0133333
        k(   31) = (   0.1000000  -0.1000000   0.0000000), wk =   0.0133333
        k(   32) = (   0.1000000  -0.1000000   0.3333333), wk =   0.0133333
        k(   33) = (   0.2000000  -0.0000000   0.0000000), wk =   0.0133333
        k(   34) = (   0.2000000  -0.0000000   0.3333333), wk =   0.0133333
        k(   35) = (   0.2000000   0.1000000   0.0000000), wk =   0.0133333
        k(   36) = (   0.2000000   0.1000000   0.3333333), wk =   0.0133333
        k(   37) = (   0.2000000   0.2000000   0.0000000), wk =   0.0133333
        k(   38) = (   0.2000000   0.2000000   0.3333333), wk =   0.0133333
        k(   39) = (   0.2000000   0.3000000   0.0000000), wk =   0.0133333
        k(   40) = (   0.2000000   0.3000000   0.3333333), wk =   0.0133333
        k(   41) = (   0.2000000   0.4000000   0.0000000), wk =   0.0133333
        k(   42) = (   0.2000000   0.4000000   0.3333333), wk =   0.0133333
        k(   43) = (   0.2000000  -0.5000000   0.0000000), wk =   0.0133333
        k(   44) = (   0.2000000  -0.5000000   0.3333333), wk =   0.0133333
        k(   45) = (   0.2000000  -0.4000000   0.0000000), wk =   0.0133333
        k(   46) = (   0.2000000  -0.4000000   0.3333333), wk =   0.0133333
        k(   47) = (   0.2000000  -0.3000000   0.0000000), wk =   0.0133333
        k(   48) = (   0.2000000  -0.3000000   0.3333333), wk =   0.0133333
        k(   49) = (   0.2000000  -0.2000000   0.0000000), wk =   0.0133333
        k(   50) = (   0.2000000  -0.2000000   0.3333333), wk =   0.0133333
        k(   51) = (   0.2000000  -0.1000000   0.0000000), wk =   0.0133333
        k(   52) = (   0.2000000  -0.1000000   0.3333333), wk =   0.0133333
        k(   53) = (   0.3000000  -0.0000000   0.0000000), wk =   0.0133333
        k(   54) = (   0.3000000  -0.0000000   0.3333333), wk =   0.0133333
        k(   55) = (   0.3000000   0.1000000   0.0000000), wk =   0.0133333
        k(   56) = (   0.3000000   0.1000000   0.3333333), wk =   0.0133333
        k(   57) = (   0.3000000   0.2000000   0.0000000), wk =   0.0133333
        k(   58) = (   0.3000000   0.2000000   0.3333333), wk =   0.0133333
        k(   59) = (   0.3000000   0.3000000   0.0000000), wk =   0.0133333
        k(   60) = (   0.3000000   0.3000000   0.3333333), wk =   0.0133333
        k(   61) = (   0.3000000   0.4000000   0.0000000), wk =   0.0133333
        k(   62) = (   0.3000000   0.4000000   0.3333333), wk =   0.0133333
        k(   63) = (   0.3000000  -0.5000000   0.0000000), wk =   0.0133333
        k(   64) = (   0.3000000  -0.5000000   0.3333333), wk =   0.0133333
        k(   65) = (   0.3000000  -0.4000000   0.0000000), wk =   0.0133333
        k(   66) = (   0.3000000  -0.4000000   0.3333333), wk =   0.0133333
        k(   67) = (   0.3000000  -0.3000000   0.0000000), wk =   0.0133333
        k(   68) = (   0.3000000  -0.3000000   0.3333333), wk =   0.0133333
        k(   69) = (   0.3000000  -0.2000000   0.0000000), wk =   0.0133333
        k(   70) = (   0.3000000  -0.2000000   0.3333333), wk =   0.0133333
        k(   71) = (   0.3000000  -0.1000000   0.0000000), wk =   0.0133333
        k(   72) = (   0.3000000  -0.1000000   0.3333333), wk =   0.0133333
        k(   73) = (   0.4000000  -0.0000000   0.0000000), wk =   0.0133333
        k(   74) = (   0.4000000  -0.0000000   0.3333333), wk =   0.0133333
        k(   75) = (   0.4000000   0.1000000   0.0000000), wk =   0.0133333
        k(   76) = (   0.4000000   0.1000000   0.3333333), wk =   0.0133333
        k(   77) = (   0.4000000   0.2000000   0.0000000), wk =   0.0133333
        k(   78) = (   0.4000000   0.2000000   0.3333333), wk =   0.0133333
        k(   79) = (   0.4000000   0.3000000   0.0000000), wk =   0.0133333
        k(   80) = (   0.4000000   0.3000000   0.3333333), wk =   0.0133333
        k(   81) = (   0.4000000   0.4000000   0.0000000), wk =   0.0133333
        k(   82) = (   0.4000000   0.4000000   0.3333333), wk =   0.0133333
        k(   83) = (   0.4000000  -0.5000000   0.0000000), wk =   0.0133333
        k(   84) = (   0.4000000  -0.5000000   0.3333333), wk =   0.0133333
        k(   85) = (   0.4000000  -0.4000000   0.0000000), wk =   0.0133333
        k(   86) = (   0.4000000  -0.4000000   0.3333333), wk =   0.0133333
        k(   87) = (   0.4000000  -0.3000000   0.0000000), wk =   0.0133333
        k(   88) = (   0.4000000  -0.3000000   0.3333333), wk =   0.0133333
        k(   89) = (   0.4000000  -0.2000000   0.0000000), wk =   0.0133333
        k(   90) = (   0.4000000  -0.2000000   0.3333333), wk =   0.0133333
        k(   91) = (   0.4000000  -0.1000000   0.0000000), wk =   0.0133333
        k(   92) = (   0.4000000  -0.1000000   0.3333333), wk =   0.0133333
        k(   93) = (  -0.5000000   0.0000000   0.0000000), wk =   0.0066667
        k(   94) = (  -0.5000000   0.0000000   0.3333333), wk =   0.0133333
        k(   95) = (  -0.5000000   0.1000000   0.0000000), wk =   0.0133333
        k(   96) = (  -0.5000000   0.1000000   0.3333333), wk =   0.0133333
        k(   97) = (  -0.5000000   0.2000000   0.0000000), wk =   0.0133333
        k(   98) = (  -0.5000000   0.2000000   0.3333333), wk =   0.0133333
        k(   99) = (  -0.5000000   0.3000000   0.0000000), wk =   0.0133333
        k(  100) = (  -0.5000000   0.3000000   0.3333333), wk =   0.0133333
        k(  101) = (  -0.5000000   0.4000000   0.0000000), wk =   0.0133333
        k(  102) = (  -0.5000000   0.4000000   0.3333333), wk =   0.0133333
        k(  103) = (  -0.5000000  -0.5000000   0.0000000), wk =   0.0066667
        k(  104) = (  -0.5000000  -0.5000000   0.3333333), wk =   0.0133333
        k(  105) = (   0.0000000  -0.1000000   0.3333333), wk =   0.0133333
        k(  106) = (   0.0000000  -0.2000000   0.3333333), wk =   0.0133333
        k(  107) = (   0.0000000  -0.3000000   0.3333333), wk =   0.0133333
        k(  108) = (   0.0000000  -0.4000000   0.3333333), wk =   0.0133333
        k(  109) = (  -0.1000000   0.0000000   0.3333333), wk =   0.0133333
        k(  110) = (  -0.1000000  -0.1000000   0.3333333), wk =   0.0133333
        k(  111) = (  -0.1000000  -0.2000000   0.3333333), wk =   0.0133333
        k(  112) = (  -0.1000000  -0.3000000   0.3333333), wk =   0.0133333
        k(  113) = (  -0.1000000  -0.4000000   0.3333333), wk =   0.0133333
        k(  114) = (  -0.1000000   0.5000000   0.3333333), wk =   0.0133333
        k(  115) = (  -0.1000000   0.4000000   0.3333333), wk =   0.0133333
        k(  116) = (  -0.1000000   0.3000000   0.3333333), wk =   0.0133333
        k(  117) = (  -0.1000000   0.2000000   0.3333333), wk =   0.0133333
        k(  118) = (  -0.1000000   0.1000000   0.3333333), wk =   0.0133333
        k(  119) = (  -0.2000000   0.0000000   0.3333333), wk =   0.0133333
        k(  120) = (  -0.2000000  -0.1000000   0.3333333), wk =   0.0133333
        k(  121) = (  -0.2000000  -0.2000000   0.3333333), wk =   0.0133333
        k(  122) = (  -0.2000000  -0.3000000   0.3333333), wk =   0.0133333
        k(  123) = (  -0.2000000  -0.4000000   0.3333333), wk =   0.0133333
        k(  124) = (  -0.2000000   0.5000000   0.3333333), wk =   0.0133333
        k(  125) = (  -0.2000000   0.4000000   0.3333333), wk =   0.0133333
        k(  126) = (  -0.2000000   0.3000000   0.3333333), wk =   0.0133333
        k(  127) = (  -0.2000000   0.2000000   0.3333333), wk =   0.0133333
        k(  128) = (  -0.2000000   0.1000000   0.3333333), wk =   0.0133333
        k(  129) = (  -0.3000000   0.0000000   0.3333333), wk =   0.0133333
        k(  130) = (  -0.3000000  -0.1000000   0.3333333), wk =   0.0133333
        k(  131) = (  -0.3000000  -0.2000000   0.3333333), wk =   0.0133333
        k(  132) = (  -0.3000000  -0.3000000   0.3333333), wk =   0.0133333
        k(  133) = (  -0.3000000  -0.4000000   0.3333333), wk =   0.0133333
        k(  134) = (  -0.3000000   0.5000000   0.3333333), wk =   0.0133333
        k(  135) = (  -0.3000000   0.4000000   0.3333333), wk =   0.0133333
        k(  136) = (  -0.3000000   0.3000000   0.3333333), wk =   0.0133333
        k(  137) = (  -0.3000000   0.2000000   0.3333333), wk =   0.0133333
        k(  138) = (  -0.3000000   0.1000000   0.3333333), wk =   0.0133333
        k(  139) = (  -0.4000000   0.0000000   0.3333333), wk =   0.0133333
        k(  140) = (  -0.4000000  -0.1000000   0.3333333), wk =   0.0133333
        k(  141) = (  -0.4000000  -0.2000000   0.3333333), wk =   0.0133333
        k(  142) = (  -0.4000000  -0.3000000   0.3333333), wk =   0.0133333
        k(  143) = (  -0.4000000  -0.4000000   0.3333333), wk =   0.0133333
        k(  144) = (  -0.4000000   0.5000000   0.3333333), wk =   0.0133333
        k(  145) = (  -0.4000000   0.4000000   0.3333333), wk =   0.0133333
        k(  146) = (  -0.4000000   0.3000000   0.3333333), wk =   0.0133333
        k(  147) = (  -0.4000000   0.2000000   0.3333333), wk =   0.0133333
        k(  148) = (  -0.4000000   0.1000000   0.3333333), wk =   0.0133333
        k(  149) = (   0.5000000  -0.1000000   0.3333333), wk =   0.0133333
        k(  150) = (   0.5000000  -0.2000000   0.3333333), wk =   0.0133333
        k(  151) = (   0.5000000  -0.3000000   0.3333333), wk =   0.0133333
        k(  152) = (   0.5000000  -0.4000000   0.3333333), wk =   0.0133333

     Dense  grid:    49109 G-vectors     FFT dimensions: (  36,  32, 108)

     Smooth grid:    30429 G-vectors     FFT dimensions: (  27,  27,  90)

     Dynamical RAM for                 wfc:       0.04 MB

     Dynamical RAM for     wfc (w. buffer):       6.64 MB

     Dynamical RAM for           str. fact:       0.09 MB

     Dynamical RAM for           local pot:       0.00 MB

     Dynamical RAM for          nlocal pot:       0.12 MB

     Dynamical RAM for                qrad:       0.96 MB

     Dynamical RAM for          rho,v,vnew:       0.33 MB

     Dynamical RAM for               rhoin:       0.11 MB

     Dynamical RAM for            rho*nmix:       0.75 MB

     Dynamical RAM for           G-vectors:       0.19 MB

     Dynamical RAM for          h,s,v(r/c):       0.03 MB

     Dynamical RAM for          <psi|beta>:       0.01 MB

     Dynamical RAM for                 psi:       0.09 MB

     Dynamical RAM for                hpsi:       0.09 MB

     Dynamical RAM for                spsi:       0.09 MB

     Dynamical RAM for      wfcinit/wfcrot:       0.12 MB

     Dynamical RAM for           addusdens:       2.11 MB

     Dynamical RAM for          addusforce:       2.23 MB

     Dynamical RAM for         addusstress:       2.34 MB

     Estimated static dynamical RAM per process >       9.63 MB

     Estimated max dynamical RAM per process >      11.97 MB

     Estimated total dynamical RAM >     191.59 MB

     Check: negative core charge=   -0.000009

     Initial potential from superposition of free atoms

     starting charge   15.99942, renormalised to   16.00000
     Starting wfcs are   16 randomized atomic wfcs

     total cpu time spent up to now is        0.9 secs

     Self-consistent Calculation

     iteration #  1     ecut=    80.00 Ry     beta= 0.40
     Davidson diagonalization with overlap
     ethr =  1.00E-02,  avg # of iterations =  3.0

     total cpu time spent up to now is        2.2 secs

     total energy              =     -54.75923625 Ry
     estimated scf accuracy    <       0.73326781 Ry

     iteration #  2     ecut=    80.00 Ry     beta= 0.40
     Davidson diagonalization with overlap
     ethr =  4.58E-03,  avg # of iterations =  2.0

     total cpu time spent up to now is        3.4 secs

     total energy              =     -54.86437706 Ry
     estimated scf accuracy    <       0.04937199 Ry

     iteration #  3     ecut=    80.00 Ry     beta= 0.40
     Davidson diagonalization with overlap
     ethr =  3.09E-04,  avg # of iterations =  4.6

     total cpu time spent up to now is        4.7 secs

     total energy              =     -54.86601134 Ry
     estimated scf accuracy    <       0.01508304 Ry

     iteration #  4     ecut=    80.00 Ry     beta= 0.40
     Davidson diagonalization with overlap
     ethr =  9.43E-05,  avg # of iterations =  3.3

     total cpu time spent up to now is        5.9 secs

     total energy              =     -54.86853867 Ry
     estimated scf accuracy    <       0.00087586 Ry

     iteration #  5     ecut=    80.00 Ry     beta= 0.40
     Davidson diagonalization with overlap
     c_bands:  1 eigenvalues not converged
     c_bands:  1 eigenvalues not converged
     c_bands:  1 eigenvalues not converged
     c_bands:  1 eigenvalues not converged
     c_bands:  1 eigenvalues not converged
     ethr =  5.47E-06,  avg # of iterations =  6.6

     total cpu time spent up to now is        7.5 secs

     total energy              =     -54.86877673 Ry
     estimated scf accuracy    <       0.00035911 Ry

     iteration #  6     ecut=    80.00 Ry     beta= 0.40
     Davidson diagonalization with overlap
     c_bands:  1 eigenvalues not converged
     c_bands:  1 eigenvalues not converged
     ethr =  2.24E-06,  avg # of iterations =  2.7

     total cpu time spent up to now is        8.5 secs

     total energy              =     -54.86882110 Ry
     estimated scf accuracy    <       0.00001767 Ry

     iteration #  7     ecut=    80.00 Ry     beta= 0.40
     Davidson diagonalization with overlap
     ethr =  1.10E-07,  avg # of iterations =  3.9

     total cpu time spent up to now is        9.9 secs

     total energy              =     -54.86883078 Ry
     estimated scf accuracy    <       0.00000050 Ry

     iteration #  8     ecut=    80.00 Ry     beta= 0.40
     Davidson diagonalization with overlap
     ethr =  3.14E-09,  avg # of iterations =  4.4

     total cpu time spent up to now is       11.3 secs

     total energy              =     -54.86883121 Ry
     estimated scf accuracy    <       0.00000005 Ry

     iteration #  9     ecut=    80.00 Ry     beta= 0.40
     Davidson diagonalization with overlap
     ethr =  3.35E-10,  avg # of iterations =  2.8

     total cpu time spent up to now is       12.5 secs

     total energy              =     -54.86883122 Ry
     estimated scf accuracy    <       0.00000002 Ry

     iteration # 10     ecut=    80.00 Ry     beta= 0.40
     Davidson diagonalization with overlap
     ethr =  1.30E-10,  avg # of iterations =  1.9

     total cpu time spent up to now is       13.4 secs

     total energy              =     -54.86883123 Ry
     estimated scf accuracy    <          1.0E-09 Ry

     iteration # 11     ecut=    80.00 Ry     beta= 0.40
     Davidson diagonalization with overlap
     ethr =  6.53E-12,  avg # of iterations =  4.2

     total cpu time spent up to now is       14.8 secs

     End of self-consistent calculation

          k = 0.0000 0.0000 0.0000 (  3767 PWs)   bands (ev):

   -14.9418 -14.8962  -2.8748  -2.2210   0.8895   0.8924   1.0523   1.0549
     6.8272  10.2258  11.9221  13.0599

     occupation numbers 
     1.0000   1.0000   1.0000   1.0000   1.0000   1.0000   1.0000   1.0000
     0.0000   0.0000   0.0000   0.0000

          k = 0.0000 0.0000 0.1046 (  3784 PWs)   bands (ev):

   -14.9305 -14.9077  -2.7252  -2.3999   0.8903   0.8917   1.0529   1.0542
     7.4406   8.9577  12.6859  13.0234

     occupation numbers 
     1.0000   1.0000   1.0000   1.0000   1.0000   1.0000   1.0000   1.0000
     0.0000   0.0000   0.0000   0.0000

          k = 0.0000 0.1193 0.0000 (  3774 PWs)   bands (ev):

   -14.7507 -14.7063  -2.6145  -1.9725   0.2864   0.2994   0.5382   0.5425
     7.1637  10.3423  12.0584  13.1982

     occupation numbers 
     1.0000   1.0000   1.0000   1.0000   1.0000   1.0000   1.0000   1.0000
     0.0000   0.0000   0.0000   0.0000

          k = 0.0000 0.1193 0.1046 (  3775 PWs)   bands (ev):

   -14.7397 -14.7175  -2.4675  -2.1480   0.2904   0.2968   0.5392   0.5414
     7.7582   9.2077  12.6363  13.0758

     occupation numbers 
     1.0000   1.0000   1.0000   1.0000   1.0000   1.0000   1.0000   1.0000
     0.0000   0.0000   0.0000   0.0000

          k = 0.0000 0.2386 0.0000 (  3784 PWs)   bands (ev):

   -14.1937 -14.1530  -1.8503  -1.4828  -1.4596  -1.2460  -0.3138  -0.3080
     8.0660  10.4315  11.9471  12.4273

     occupation numbers 
     1.0000   1.0000   1.0000   1.0000   1.0000   1.0000   1.0000   1.0000
     0.0000   0.0000   0.0000   0.0000

          k = 0.0000 0.2386 0.1046 (  3785 PWs)   bands (ev):

   -14.1836 -14.1633  -1.7166  -1.4958  -1.4593  -1.3904  -0.3124  -0.3095
     8.5897   9.7534  12.0816  12.2915

     occupation numbers 
     1.0000   1.0000   1.0000   1.0000   1.0000   1.0000   1.0000   1.0000
     0.0000   0.0000   0.0000   0.0000

          k = 0.0000 0.3580 0.0000 (  3797 PWs)   bands (ev):

   -13.3367 -13.3022  -3.5832  -3.5537  -1.1670  -1.1601  -0.6499  -0.1184
     9.3682   9.5664  10.4805  11.5964

     occupation numbers 
     1.0000   1.0000   1.0000   1.0000   1.0000   1.0000   1.0000   1.0000
     0.0000   0.0000   0.0000   0.0000

          k = 0.0000 0.3580 0.1046 (  3785 PWs)   bands (ev):

   -13.3281 -13.3109  -3.5761  -3.5613  -1.1652  -1.1618  -0.5253  -0.2603
     9.5167   9.5852  10.7184  11.3444

     occupation numbers 
     1.0000   1.0000   1.0000   1.0000   1.0000   1.0000   1.0000   1.0000
     0.0000   0.0000   0.0000   0.0000

          k = 0.0000 0.4773 0.0000 (  3814 PWs)   bands (ev):

   -12.3799 -12.3537  -5.4094  -5.3724  -1.7560  -1.7485   0.7658   1.1721
     7.7991   8.5407  10.5632  11.3142

     occupation numbers 
     1.0000   1.0000   1.0000   1.0000   1.0000   1.0000   1.0000   1.0000
     0.0000   0.0000   0.0000   0.0000

          k = 0.0000 0.4773 0.1046 (  3795 PWs)   bands (ev):

   -12.3734 -12.3603  -5.4003  -5.3817  -1.7541  -1.7504   0.8628   1.0656
     7.9478   8.3058  10.8296  11.1866

     occupation numbers 
     1.0000   1.0000   1.0000   1.0000   1.0000   1.0000   1.0000   1.0000
     0.0000   0.0000   0.0000   0.0000

          k = 0.0000-0.5966 0.0000 (  3806 PWs)   bands (ev):

   -11.8816 -11.8609  -6.2154  -6.1732  -1.9631  -1.9554   1.5845   1.8727
     6.7777   7.5870  10.8922  11.2008

     occupation numbers 
     1.0000   1.0000   1.0000   1.0000   1.0000   1.0000   1.0000   1.0000
     0.0000   0.0000   0.0000   0.0000

          k = 0.0000-0.5966 0.1046 (  3810 PWs)   bands (ev):

   -11.8765 -11.8661  -6.2049  -6.1838  -1.9612  -1.9574   1.6543   1.7982
     6.9547   7.3553  10.9755  11.1302

     occupation numbers 
     1.0000   1.0000   1.0000   1.0000   1.0000   1.0000   1.0000   1.0000
     0.0000   0.0000   0.0000   0.0000

          k = 0.1000 0.0577 0.0000 (  3782 PWs)   bands (ev):

   -14.7648 -14.7204  -2.6329  -1.9905   0.0863   0.1017   0.7453   0.7488
     7.1667  10.3236  12.4952  13.3814

     occupation numbers 
     1.0000   1.0000   1.0000   1.0000   1.0000   1.0000   1.0000   1.0000
     0.0000   0.0000   0.0000   0.0000

          k = 0.1000 0.0577 0.1046 (  3785 PWs)   bands (ev):

   -14.7538 -14.7316  -2.4859  -2.1662   0.0910   0.0985   0.7462   0.7479
     7.7634   9.2162  13.0526  13.2906

     occupation numbers 
     1.0000   1.0000   1.0000   1.0000   1.0000   1.0000   1.0000   1.0000
     0.0000   0.0000   0.0000   0.0000

          k = 0.1000 0.1771 0.0000 (  3796 PWs)   bands (ev):

   -14.3977 -14.3557  -2.1296  -1.5118  -1.0170  -0.9942  -0.0037   0.0019
     7.7885  10.4254  12.7434  12.8465

     occupation numbers 
     1.0000   1.0000   1.0000   1.0000   1.0000   1.0000   1.0000   1.0000
     0.0000   0.0000   0.0000   0.0000

          k = 0.1000 0.1771 0.1046 (  3788 PWs)   bands (ev):

   -14.3873 -14.3663  -1.9887  -1.6820  -1.0085  -0.9981  -0.0022   0.0006
     8.3435   9.6234  12.7774  12.8259

     occupation numbers 
     1.0000   1.0000   1.0000   1.0000   1.0000   1.0000   1.0000   1.0000
     0.0000   0.0000   0.0000   0.0000

          k = 0.1000 0.2964 0.0000 (  3797 PWs)   bands (ev):

   -13.6929 -13.6558  -2.6552  -2.6277  -1.1511  -1.1493  -1.1402  -0.5877
     8.9368  10.0608  11.2277  12.5694

     occupation numbers 
     1.0000   1.0000   1.0000   1.0000   1.0000   1.0000   1.0000   1.0000
     0.0000   0.0000   0.0000   0.0000

          k = 0.1000 0.2964 0.1046 (  3791 PWs)   bands (ev):

   -13.6837 -13.6651  -2.6490  -2.6353  -1.1474  -1.1427  -1.0187  -0.7382
     9.3231   9.9009  11.3737  12.0483

     occupation numbers 
     1.0000   1.0000   1.0000   1.0000   1.0000   1.0000   1.0000   1.0000
     0.0000   0.0000   0.0000   0.0000

          k = 0.1000 0.4157 0.0000 (  3797 PWs)   bands (ev):

   -12.7645 -12.7347  -4.5065  -4.4738  -2.0011  -1.9894   0.1827   0.6497
     8.6593   9.3349  10.4289  12.2489

     occupation numbers 
     1.0000   1.0000   1.0000   1.0000   1.0000   1.0000   1.0000   1.0000
     0.0000   0.0000   0.0000   0.0000

          k = 0.1000 0.4157 0.1046 (  3808 PWs)   bands (ev):

   -12.7571 -12.7422  -4.4985  -4.4821  -1.9982  -1.9924   0.2932   0.5263
     8.7702   9.0681  11.0402  11.9439

     occupation numbers 
     1.0000   1.0000   1.0000   1.0000   1.0000   1.0000   1.0000   1.0000
     0.0000   0.0000   0.0000   0.0000

          k = 0.1000 0.5350 0.0000 (  3799 PWs)   bands (ev):

   -11.9512 -11.9293  -5.8775  -5.8378  -2.4236  -2.4110   1.4548   1.7779
     7.1072   7.8109  11.5092  12.0223

     occupation numbers 
     1.0000   1.0000   1.0000   1.0000   1.0000   1.0000   1.0000   1.0000
     0.0000   0.0000   0.0000   0.0000

          k = 0.1000 0.5350 0.1046 (  3819 PWs)   bands (ev):

   -11.9457 -11.9348  -5.8676  -5.8478  -2.4205  -2.4142   1.5328   1.6942
     7.2617   7.6098  11.6617  11.9131

     occupation numbers 
     1.0000   1.0000   1.0000   1.0000   1.0000   1.0000   1.0000   1.0000
     0.0000   0.0000   0.0000   0.0000

          k = 0.1000-0.5389 0.0000 (  3805 PWs)   bands (ev):

   -11.9301 -11.9084  -5.9160  -5.8763  -2.3990  -2.3867   1.4869   1.8057
     7.0743   7.7837  11.5074  12.0026

     occupation numbers 
     1.0000   1.0000   1.0000   1.0000   1.0000   1.0000   1.0000   1.0000
     0.0000   0.0000   0.0000   0.0000

          k = 0.1000-0.5389 0.1046 (  3816 PWs)   bands (ev):

   -11.9247 -11.9138  -5.9062  -5.8863  -2.3959  -2.3898   1.5639   1.7232
     7.2301   7.5812  11.6529  11.8958

     occupation numbers 
     1.0000   1.0000   1.0000   1.0000   1.0000   1.0000   1.0000   1.0000
     0.0000   0.0000   0.0000   0.0000

          k = 0.1000-0.4195 0.0000 (  3800 PWs)   bands (ev):

   -12.7260 -12.6963  -4.5915  -4.5589  -1.9347  -1.9239   0.2348   0.6986
     8.6176   9.2971  10.4522  12.1898

     occupation numbers 
     1.0000   1.0000   1.0000   1.0000   1.0000   1.0000   1.0000   1.0000
     0.0000   0.0000   0.0000   0.0000

          k = 0.1000-0.4195 0.1046 (  3797 PWs)   bands (ev):

   -12.7186 -12.7038  -4.5834  -4.5672  -1.9321  -1.9267   0.3446   0.5761
     8.7310   9.0335  11.0432  11.9028

     occupation numbers 
     1.0000   1.0000   1.0000   1.0000   1.0000   1.0000   1.0000   1.0000
     0.0000   0.0000   0.0000   0.0000

          k = 0.1000-0.3002 0.0000 (  3798 PWs)   bands (ev):

   -13.6592 -13.6223  -2.7280  -2.7014  -1.1074  -1.0841  -1.0760  -0.5453
     8.9546  10.0655  11.2193  12.4638

     occupation numbers 
     1.0000   1.0000   1.0000   1.0000   1.0000   1.0000   1.0000   1.0000
     0.0000   0.0000   0.0000   0.0000

          k = 0.1000-0.3002 0.1046 (  3795 PWs)   bands (ev):

   -13.6500 -13.6316  -2.7219  -2.7086  -1.0828  -1.0783  -0.9751  -0.6955
     9.3367   9.9076  11.3590  11.9923

     occupation numbers 
     1.0000   1.0000   1.0000   1.0000   1.0000   1.0000   1.0000   1.0000
     0.0000   0.0000   0.0000   0.0000

          k = 0.1000-0.1809 0.0000 (  3781 PWs)   bands (ev):

   -14.3761 -14.3342  -2.1018  -1.4846  -0.9755  -0.9543  -0.0479  -0.0430
     7.7907  10.4516  12.4673  12.8693

     occupation numbers 
     1.0000   1.0000   1.0000   1.0000   1.0000   1.0000   1.0000   1.0000
     0.0000   0.0000   0.0000   0.0000

          k = 0.1000-0.1809 0.1046 (  3796 PWs)   bands (ev):

   -14.3657 -14.3448  -1.9610  -1.6545  -0.9675  -0.9579  -0.0466  -0.0442
     8.3439   9.6255  12.6335  12.8088

     occupation numbers 
     1.0000   1.0000   1.0000   1.0000   1.0000   1.0000   1.0000   1.0000
     0.0000   0.0000   0.0000   0.0000

          k = 0.1000-0.0616 0.0000 (  3779 PWs)   bands (ev):

   -14.7575 -14.7130  -2.6234  -1.9812   0.2054   0.2196   0.6229   0.6268
     7.1642  10.3345  12.2239  13.2322

     occupation numbers 
     1.0000   1.0000   1.0000   1.0000   1.0000   1.0000   1.0000   1.0000
     0.0000   0.0000   0.0000   0.0000

          k = 0.1000-0.0616 0.1046 (  3793 PWs)   bands (ev):

   -14.7464 -14.7242  -2.4764  -2.1568   0.2097   0.2166   0.6239   0.6258
     7.7599   9.2114  12.7794  13.1552

     occupation numbers 
     1.0000   1.0000   1.0000   1.0000   1.0000   1.0000   1.0000   1.0000
     0.0000   0.0000   0.0000   0.0000

          k = 0.2000 0.1155 0.0000 (  3796 PWs)   bands (ev):

   -14.2501 -14.2092  -1.9236  -1.7653  -1.7386  -1.3181   0.0486   0.0535
     8.0571  10.3414  12.3420  12.9118

     occupation numbers 
     1.0000   1.0000   1.0000   1.0000   1.0000   1.0000   1.0000   1.0000
     0.0000   0.0000   0.0000   0.0000

          k = 0.2000 0.1155 0.1046 (  3805 PWs)   bands (ev):

   -14.2400 -14.2195  -1.8080  -1.7644  -1.7208  -1.4760   0.0498   0.0523
     8.5863   9.7375  12.3663  12.5805

     occupation numbers 
     1.0000   1.0000   1.0000   1.0000   1.0000   1.0000   1.0000   1.0000
     0.0000   0.0000   0.0000   0.0000

          k = 0.2000 0.2348 0.0000 (  3811 PWs)   bands (ev):

   -13.7365 -13.6993  -2.9061  -2.8765  -1.2074  -0.8075  -0.7996  -0.6434
     8.9318   9.9564  11.1526  13.5492

     occupation numbers 
     1.0000   1.0000   1.0000   1.0000   1.0000   1.0000   1.0000   1.0000
     0.0000   0.0000   0.0000   0.0000

          k = 0.2000 0.2348 0.1046 (  3810 PWs)   bands (ev):

   -13.7272 -13.7086  -2.8992  -2.8845  -1.0758  -0.8111  -0.8032  -0.7868
     9.3091   9.8301  11.3303  12.2628

     occupation numbers 
     1.0000   1.0000   1.0000   1.0000   1.0000   1.0000   1.0000   1.0000
     0.0000   0.0000   0.0000   0.0000

          k = 0.2000 0.3541 0.0000 (  3805 PWs)   bands (ev):

   -12.9477 -12.9165  -4.0380  -4.0063  -2.2262  -2.2118  -0.0811   0.4058
     8.9807   9.6358  10.3588  14.2587

     occupation numbers 
     1.0000   1.0000   1.0000   1.0000   1.0000   1.0000   1.0000   1.0000
     0.0000   0.0000   0.0000   0.0000

          k = 0.2000 0.3541 0.1046 (  3802 PWs)   bands (ev):

   -12.9400 -12.9244  -4.0303  -4.0145  -2.2227  -2.2154   0.0339   0.2768
     9.0694   9.3298  11.1720  12.7615

     occupation numbers 
     1.0000   1.0000   1.0000   1.0000   1.0000   1.0000   1.0000   1.0000
     0.0000   0.0000   0.0000   0.0000

          k = 0.2000 0.4734 0.0000 (  3810 PWs)   bands (ev):

   -12.0825 -12.0589  -5.1508  -5.1161  -3.2857  -3.2655   1.2324   1.5985
     7.6723   8.1303  12.1338  13.9859

     occupation numbers 
     1.0000   1.0000   1.0000   1.0000   1.0000   1.0000   1.0000   1.0000
     0.0000   0.0000   0.0000   0.0000

          k = 0.2000 0.4734 0.1046 (  3815 PWs)   bands (ev):

   -12.0767 -12.0649  -5.1422  -5.1248  -3.2807  -3.2706   1.3204   1.5032
     7.7734   7.9997  12.5620  13.4677

     occupation numbers 
     1.0000   1.0000   1.0000   1.0000   1.0000   1.0000   1.0000   1.0000
     0.0000   0.0000   0.0000   0.0000

          k = 0.2000 0.5927 0.0000 (  3811 PWs)   bands (ev):

   -11.6225 -11.6038  -5.7693  -5.7314  -3.5959  -3.5739   2.0076   2.2712
     6.8721   7.3588  13.3064  13.7594

     occupation numbers 
     1.0000   1.0000   1.0000   1.0000   1.0000   1.0000   1.0000   1.0000
     0.0000   0.0000   0.0000   0.0000

          k = 0.2000 0.5927 0.1046 (  3826 PWs)   bands (ev):

   -11.6179 -11.6085  -5.7599  -5.7410  -3.5904  -3.5794   2.0716   2.2033
     6.9882   7.2314  13.3634  13.5558

     occupation numbers 
     1.0000   1.0000   1.0000   1.0000   1.0000   1.0000   1.0000   1.0000
     0.0000   0.0000   0.0000   0.0000

          k = 0.2000-0.4811 0.0000 (  3806 PWs)   bands (ev):

   -12.0167 -11.9936  -5.2656  -5.2311  -3.2292  -3.2092   1.3266   1.6849
     7.6062   8.0709  12.2238  13.9452

     occupation numbers 
     1.0000   1.0000   1.0000   1.0000   1.0000   1.0000   1.0000   1.0000
     0.0000   0.0000   0.0000   0.0000

          k = 0.2000-0.4811 0.1046 (  3815 PWs)   bands (ev):

   -12.0110 -11.9994  -5.2571  -5.2398  -3.2242  -3.2143   1.4128   1.5918
     7.7094   7.9393  12.6325  13.4796

     occupation numbers 
     1.0000   1.0000   1.0000   1.0000   1.0000   1.0000   1.0000   1.0000
     0.0000   0.0000   0.0000   0.0000

          k = 0.2000-0.3618 0.0000 (  3813 PWs)   bands (ev):

   -12.8729 -12.8420  -4.1068  -4.0765  -2.2220  -2.2078   0.0175   0.5006
     8.9750   9.6076  10.4220  14.1158

     occupation numbers 
     1.0000   1.0000   1.0000   1.0000   1.0000   1.0000   1.0000   1.0000
     0.0000   0.0000   0.0000   0.0000

          k = 0.2000-0.3618 0.1046 (  3802 PWs)   bands (ev):

   -12.8652 -12.8498  -4.0994  -4.0842  -2.2185  -2.2114   0.1317   0.3727
     9.0626   9.3193  11.2088  12.7554

     occupation numbers 
     1.0000   1.0000   1.0000   1.0000   1.0000   1.0000   1.0000   1.0000
     0.0000   0.0000   0.0000   0.0000

          k = 0.2000-0.2425 0.0000 (  3796 PWs)   bands (ev):

   -13.6799 -13.6429  -2.8414  -2.8138  -1.1347  -0.9270  -0.9196  -0.5723
     8.9560  10.0197  11.1881  12.9064

     occupation numbers 
     1.0000   1.0000   1.0000   1.0000   1.0000   1.0000   1.0000   1.0000
     0.0000   0.0000   0.0000   0.0000

          k = 0.2000-0.2425 0.1046 (  3799 PWs)   bands (ev):

   -13.6707 -13.6522  -2.8350  -2.8213  -1.0045  -0.9243  -0.9215  -0.7223
     9.3349   9.8790  11.3478  12.1408

     occupation numbers 
     1.0000   1.0000   1.0000   1.0000   1.0000   1.0000   1.0000   1.0000
     0.0000   0.0000   0.0000   0.0000

          k = 0.2000-0.1232 0.0000 (  3799 PWs)   bands (ev):

   -14.2206 -14.1798  -1.8859  -1.6097  -1.5849  -1.2808  -0.1484  -0.1430
     8.0620  10.3945  12.3619  12.3969

     occupation numbers 
     1.0000   1.0000   1.0000   1.0000   1.0000   1.0000   1.0000   1.0000
     0.0000   0.0000   0.0000   0.0000

          k = 0.2000-0.1232 0.1046 (  3794 PWs)   bands (ev):

   -14.2104 -14.1900  -1.7552  -1.6131  -1.5818  -1.4348  -0.1471  -0.1444
     8.5894   9.7516  12.3378  12.3715

     occupation numbers 
     1.0000   1.0000   1.0000   1.0000   1.0000   1.0000   1.0000   1.0000
     0.0000   0.0000   0.0000   0.0000

          k = 0.2000-0.0038 0.0000 (  3797 PWs)   bands (ev):

   -14.4173 -14.3753  -2.1558  -1.5372  -0.9868  -0.9628  -0.0296  -0.0233
     7.7818  10.4103  12.8450  13.1023

     occupation numbers 
     1.0000   1.0000   1.0000   1.0000   1.0000   1.0000   1.0000   1.0000
     0.0000   0.0000   0.0000   0.0000

          k = 0.2000-0.0038 0.1046 (  3794 PWs)   bands (ev):

   -14.4069 -14.3859  -2.0147  -1.7076  -0.9780  -0.9670  -0.0280  -0.0249
     8.3390   9.6209  12.8532  12.9382

     occupation numbers 
     1.0000   1.0000   1.0000   1.0000   1.0000   1.0000   1.0000   1.0000
     0.0000   0.0000   0.0000   0.0000

          k = 0.3000 0.1732 0.0000 (  3809 PWs)   bands (ev):

   -13.4633 -13.4284  -3.8567  -3.8229  -0.8143  -0.6740  -0.6681  -0.2806
     9.3559   9.3860  10.3532  12.7218

     occupation numbers 
     1.0000   1.0000   1.0000   1.0000   1.0000   1.0000   1.0000   1.0000
     0.0000   0.0000   0.0000   0.0000

          k = 0.3000 0.1732 0.1046 (  3828 PWs)   bands (ev):

   -13.4546 -13.4372  -3.8485  -3.8317  -0.6894  -0.6725  -0.6695  -0.4230
     9.4063   9.4537  10.7686  11.9967

     occupation numbers 
     1.0000   1.0000   1.0000   1.0000   1.0000   1.0000   1.0000   1.0000
     0.0000   0.0000   0.0000   0.0000

          k = 0.3000 0.2925 0.0000 (  3816 PWs)   bands (ev):

   -12.8836 -12.8534  -4.7871  -4.7506  -1.4921  -1.4823   0.0288   0.4956
     8.4373   9.2209  10.4990  13.4145

     occupation numbers 
     1.0000   1.0000   1.0000   1.0000   1.0000   1.0000   1.0000   1.0000
     0.0000   0.0000   0.0000   0.0000

          k = 0.3000 0.2925 0.1046 (  3823 PWs)   bands (ev):

   -12.8761 -12.8610  -4.7782  -4.7599  -1.4897  -1.4848   0.1393   0.3723
     8.5690   8.9182  11.2302  12.6368

     occupation numbers 
     1.0000   1.0000   1.0000   1.0000   1.0000   1.0000   1.0000   1.0000
     0.0000   0.0000   0.0000   0.0000

          k = 0.3000 0.4118 0.0000 (  3814 PWs)   bands (ev):

   -12.1631 -12.1392  -5.3350  -5.2977  -2.9677  -2.9493   1.1258   1.4906
     7.5534   8.1138  12.1961  14.9152

     occupation numbers 
     1.0000   1.0000   1.0000   1.0000   1.0000   1.0000   1.0000   1.0000
     0.0000   0.0000   0.0000   0.0000

          k = 0.3000 0.4118 0.1046 (  3810 PWs)   bands (ev):

   -12.1571 -12.1452  -5.3258  -5.3071  -2.9631  -2.9539   1.2135   1.3957
     7.6752   7.9515  12.6926  13.8351

     occupation numbers 
     1.0000   1.0000   1.0000   1.0000   1.0000   1.0000   1.0000   1.0000
     0.0000   0.0000   0.0000   0.0000

          k = 0.3000 0.5312 0.0000 (  3806 PWs)   bands (ev):

   -11.5878 -11.5695  -5.3578  -5.3259  -4.3219  -4.2975   2.0791   2.3393
     6.9834   7.2255  14.0945  15.1000

     occupation numbers 
     1.0000   1.0000   1.0000   1.0000   1.0000   1.0000   1.0000   1.0000
     0.0000   0.0000   0.0000   0.0000

          k = 0.3000 0.5312 0.1046 (  3810 PWs)   bands (ev):

   -11.5832 -11.5741  -5.3498  -5.3339  -4.3159  -4.3037   2.1424   2.2724
     7.0465   7.1679  13.9344  14.2037

     occupation numbers 
     1.0000   1.0000   1.0000   1.0000   1.0000   1.0000   1.0000   1.0000
     0.0000   0.0000   0.0000   0.0000

          k = 0.3000 0.6505 0.0000 (  3811 PWs)   bands (ev):

   -11.5356 -11.5176  -5.3961  -5.3643  -4.3427  -4.3168   2.1591   2.4128
     6.9630   7.1723  14.2603  14.9643

     occupation numbers 
     1.0000   1.0000   1.0000   1.0000   1.0000   1.0000   1.0000   1.0000
     0.0000   0.0000   0.0000   0.0000

          k = 0.3000 0.6505 0.1046 (  3819 PWs)   bands (ev):

   -11.5311 -11.5221  -5.3882  -5.3723  -4.3363  -4.3234   2.2208   2.3476
     7.0188   7.1238  14.0021  14.1981

     occupation numbers 
     1.0000   1.0000   1.0000   1.0000   1.0000   1.0000   1.0000   1.0000
     0.0000   0.0000   0.0000   0.0000

          k = 0.3000-0.4234 0.0000 (  3799 PWs)   bands (ev):

   -12.0550 -12.0317  -5.3513  -5.3155  -3.0791  -3.0600   1.2744   1.6322
     7.5522   8.0675  12.2854  14.4656

     occupation numbers 
     1.0000   1.0000   1.0000   1.0000   1.0000   1.0000   1.0000   1.0000
     0.0000   0.0000   0.0000   0.0000

          k = 0.3000-0.4234 0.1046 (  3802 PWs)   bands (ev):

   -12.0492 -12.0375  -5.3424  -5.3245  -3.0744  -3.0648   1.3605   1.5393
     7.6657   7.9204  12.7380  13.7454

     occupation numbers 
     1.0000   1.0000   1.0000   1.0000   1.0000   1.0000   1.0000   1.0000
     0.0000   0.0000   0.0000   0.0000

          k = 0.3000-0.3041 0.0000 (  3805 PWs)   bands (ev):

   -12.7824 -12.7526  -4.7255  -4.6911  -1.6909  -1.6810   0.1601   0.6240
     8.5164   9.2495  10.5165  12.7607

     occupation numbers 
     1.0000   1.0000   1.0000   1.0000   1.0000   1.0000   1.0000   1.0000
     0.0000   0.0000   0.0000   0.0000

          k = 0.3000-0.3041 0.1046 (  3798 PWs)   bands (ev):

   -12.7750 -12.7601  -4.7170  -4.6998  -1.6884  -1.6835   0.2699   0.5015
     8.6402   8.9682  11.1825  12.3130

     occupation numbers 
     1.0000   1.0000   1.0000   1.0000   1.0000   1.0000   1.0000   1.0000
     0.0000   0.0000   0.0000   0.0000

          k = 0.3000-0.1848 0.0000 (  3808 PWs)   bands (ev):

   -13.3967 -13.3620  -3.7147  -3.6831  -0.9301  -0.9236  -0.7296  -0.1967
     9.3893   9.4756  10.4311  12.1338

     occupation numbers 
     1.0000   1.0000   1.0000   1.0000   1.0000   1.0000   1.0000   1.0000
     0.0000   0.0000   0.0000   0.0000

          k = 0.3000-0.1848 0.1046 (  3801 PWs)   bands (ev):

   -13.3881 -13.3707  -3.7071  -3.6913  -0.9285  -0.9253  -0.6046  -0.3389
     9.4994   9.5133  10.7652  11.7073

     occupation numbers 
     1.0000   1.0000   1.0000   1.0000   1.0000   1.0000   1.0000   1.0000
     0.0000   0.0000   0.0000   0.0000

          k = 0.3000-0.0654 0.0000 (  3813 PWs)   bands (ev):

   -13.7438 -13.7065  -2.6818  -2.6527  -1.2195  -1.0708  -1.0612  -0.6540
     8.9126  10.0303  11.2238  13.0930

     occupation numbers 
     1.0000   1.0000   1.0000   1.0000   1.0000   1.0000   1.0000   1.0000
     0.0000   0.0000   0.0000   0.0000

          k = 0.3000-0.0654 0.1046 (  3805 PWs)   bands (ev):

   -13.7346 -13.7159  -2.6752  -2.6607  -1.0899  -1.0676  -1.0617  -0.8049
     9.3037   9.8776  11.3872  12.2184

     occupation numbers 
     1.0000   1.0000   1.0000   1.0000   1.0000   1.0000   1.0000   1.0000
     0.0000   0.0000   0.0000   0.0000

          k = 0.3000 0.0539 0.0000 (  3809 PWs)   bands (ev):

   -13.7667 -13.7293  -2.8234  -2.7932  -1.2484  -0.8818  -0.8728  -0.6828
     8.9069   9.9714  11.1798  13.6242

     occupation numbers 
     1.0000   1.0000   1.0000   1.0000   1.0000   1.0000   1.0000   1.0000
     0.0000   0.0000   0.0000   0.0000

          k = 0.3000 0.0539 0.1046 (  3814 PWs)   bands (ev):

   -13.7574 -13.7387  -2.8165  -2.8015  -1.1164  -0.8813  -0.8753  -0.8316
     9.2924   9.8359  11.3556  12.2894

     occupation numbers 
     1.0000   1.0000   1.0000   1.0000   1.0000   1.0000   1.0000   1.0000
     0.0000   0.0000   0.0000   0.0000

          k = 0.4000 0.2309 0.0000 (  3835 PWs)   bands (ev):

   -12.5981 -12.5712  -5.6100  -5.5685  -1.1818  -1.1754   0.4777   0.8864
     7.5878   8.4362  10.9828  12.5200

     occupation numbers 
     1.0000   1.0000   1.0000   1.0000   1.0000   1.0000   1.0000   1.0000
     0.0000   0.0000   0.0000   0.0000

          k = 0.4000 0.2309 0.1046 (  3828 PWs)   bands (ev):

   -12.5914 -12.5779  -5.5997  -5.5790  -1.1802  -1.1770   0.5753   0.7794
     7.7544   8.1621  11.4877  12.2617

     occupation numbers 
     1.0000   1.0000   1.0000   1.0000   1.0000   1.0000   1.0000   1.0000
     0.0000   0.0000   0.0000   0.0000

          k = 0.4000 0.3503 0.0000 (  3830 PWs)   bands (ev):

   -12.1696 -12.1469  -6.0621  -6.0183  -1.8777  -1.8669   1.1604   1.4833
     6.9356   7.7518  12.1919  13.1808

     occupation numbers 
     1.0000   1.0000   1.0000   1.0000   1.0000   1.0000   1.0000   1.0000
     0.0000   0.0000   0.0000   0.0000

          k = 0.4000 0.3503 0.1046 (  3816 PWs)   bands (ev):

   -12.1640 -12.1526  -6.0513  -6.0294  -1.8750  -1.8696   1.2384   1.3998
     7.1099   7.5121  12.5183  13.0152

     occupation numbers 
     1.0000   1.0000   1.0000   1.0000   1.0000   1.0000   1.0000   1.0000
     0.0000   0.0000   0.0000   0.0000

          k = 0.4000 0.4696 0.0000 (  3814 PWs)   bands (ev):

   -11.8042 -11.7845  -5.8770  -5.8359  -3.2367  -3.2168   1.7447   2.0156
     6.8213   7.4277  13.9580  14.0943

     occupation numbers 
     1.0000   1.0000   1.0000   1.0000   1.0000   1.0000   1.0000   1.0000
     0.0000   0.0000   0.0000   0.0000

          k = 0.4000 0.4696 0.1046 (  3799 PWs)   bands (ev):

   -11.7993 -11.7894  -5.8668  -5.8463  -3.2318  -3.2218   1.8105   1.9459
     6.9612   7.2633  13.9717  14.0306

     occupation numbers 
     1.0000   1.0000   1.0000   1.0000   1.0000   1.0000   1.0000   1.0000
     0.0000   0.0000   0.0000   0.0000

          k = 0.4000 0.5889 0.0000 (  3811 PWs)   bands (ev):

   -11.6336 -11.6149  -5.3143  -5.2827  -4.3120  -4.2890   2.0044   2.2721
     7.0200   7.2750  13.9478  15.3509

     occupation numbers 
     1.0000   1.0000   1.0000   1.0000   1.0000   1.0000   1.0000   1.0000
     0.0000   0.0000   0.0000   0.0000

          k = 0.4000 0.5889 0.1046 (  3808 PWs)   bands (ev):

   -11.6289 -11.6196  -5.3064  -5.2906  -4.3064  -4.2949   2.0695   2.2032
     7.0859   7.2137  13.8681  14.2088

     occupation numbers 
     1.0000   1.0000   1.0000   1.0000   1.0000   1.0000   1.0000   1.0000
     0.0000   0.0000   0.0000   0.0000

          k = 0.4000 0.7082 0.0000 (  3818 PWs)   bands (ev):

   -11.7083 -11.6891  -5.8256  -5.7862  -3.4191  -3.3981   1.8787   2.1468
     6.8545   7.4010  13.6992  14.0520

     occupation numbers 
     1.0000   1.0000   1.0000   1.0000   1.0000   1.0000   1.0000   1.0000
     0.0000   0.0000   0.0000   0.0000

          k = 0.4000 0.7082 0.1046 (  3813 PWs)   bands (ev):

   -11.7035 -11.6939  -5.8158  -5.7961  -3.4139  -3.4034   1.9438   2.0778
     6.9827   7.2554  13.7378  13.8735

     occupation numbers 
     1.0000   1.0000   1.0000   1.0000   1.0000   1.0000   1.0000   1.0000
     0.0000   0.0000   0.0000   0.0000

          k = 0.4000-0.3657 0.0000 (  3814 PWs)   bands (ev):

   -12.0334 -12.0113  -6.0101  -5.9684  -2.1313  -2.1199   1.3433   1.6624
     6.9972   7.7637  11.9273  12.5936

     occupation numbers 
     1.0000   1.0000   1.0000   1.0000   1.0000   1.0000   1.0000   1.0000
     0.0000   0.0000   0.0000   0.0000

          k = 0.4000-0.3657 0.1046 (  3804 PWs)   bands (ev):

   -12.0279 -12.0168  -5.9997  -5.9789  -2.1285  -2.1228   1.4204   1.5799
     7.1633   7.5419  12.1375  12.4645

     occupation numbers 
     1.0000   1.0000   1.0000   1.0000   1.0000   1.0000   1.0000   1.0000
     0.0000   0.0000   0.0000   0.0000

          k = 0.4000-0.2463 0.0000 (  3814 PWs)   bands (ev):

   -12.4830 -12.4563  -5.5115  -5.4723  -1.4745  -1.4675   0.6261   1.0340
     7.7039   8.4999  10.8330  11.9059

     occupation numbers 
     1.0000   1.0000   1.0000   1.0000   1.0000   1.0000   1.0000   1.0000
     0.0000   0.0000   0.0000   0.0000

          k = 0.4000-0.2463 0.1046 (  3811 PWs)   bands (ev):

   -12.4763 -12.4630  -5.5018  -5.4822  -1.4728  -1.4693   0.7235   0.9272
     7.8619   8.2453  11.2124  11.7319

     occupation numbers 
     1.0000   1.0000   1.0000   1.0000   1.0000   1.0000   1.0000   1.0000
     0.0000   0.0000   0.0000   0.0000

          k = 0.4000-0.1270 0.0000 (  3800 PWs)   bands (ev):

   -12.8548 -12.8246  -4.5658  -4.5311  -1.8152  -1.8035   0.0597   0.5304
     8.6105   9.3347  10.4456  12.8546

     occupation numbers 
     1.0000   1.0000   1.0000   1.0000   1.0000   1.0000   1.0000   1.0000
     0.0000   0.0000   0.0000   0.0000

          k = 0.4000-0.1270 0.1046 (  3812 PWs)   bands (ev):

   -12.8473 -12.8322  -4.5573  -4.5400  -1.8123  -1.8065   0.1711   0.4060
     8.7289   9.0468  11.1411  12.3481

     occupation numbers 
     1.0000   1.0000   1.0000   1.0000   1.0000   1.0000   1.0000   1.0000
     0.0000   0.0000   0.0000   0.0000

          k = 0.4000-0.0077 0.0000 (  3818 PWs)   bands (ev):

   -13.0142 -12.9826  -3.9371  -3.9046  -2.2673  -2.2524  -0.1732   0.3183
     9.0201   9.6851  10.2924  14.4223

     occupation numbers 
     1.0000   1.0000   1.0000   1.0000   1.0000   1.0000   1.0000   1.0000
     0.0000   0.0000   0.0000   0.0000

          k = 0.4000-0.0077 0.1046 (  3812 PWs)   bands (ev):

   -13.0063 -12.9906  -3.9292  -3.9129  -2.2636  -2.2562  -0.0571   0.1881
     9.1068   9.3630  11.1328  12.7654

     occupation numbers 
     1.0000   1.0000   1.0000   1.0000   1.0000   1.0000   1.0000   1.0000
     0.0000   0.0000   0.0000   0.0000

          k = 0.4000 0.1116 0.0000 (  3828 PWs)   bands (ev):

   -12.9174 -12.8871  -4.7121  -4.6755  -1.5503  -1.5396  -0.0195   0.4509
     8.4888   9.2681  10.4561  13.4458

     occupation numbers 
     1.0000   1.0000   1.0000   1.0000   1.0000   1.0000   1.0000   1.0000
     0.0000   0.0000   0.0000   0.0000

          k = 0.4000 0.1116 0.1046 (  3829 PWs)   bands (ev):

   -12.9099 -12.8947  -4.7031  -4.6848  -1.5476  -1.5423   0.0919   0.3266
     8.6178   8.9617  11.1982  12.6276

     occupation numbers 
     1.0000   1.0000   1.0000   1.0000   1.0000   1.0000   1.0000   1.0000
     0.0000   0.0000   0.0000   0.0000

          k =-0.5000-0.2887 0.0000 (  3816 PWs)   bands (ev):

   -12.1581 -12.1362  -6.3608  -6.3143  -1.3618  -1.3551   1.2063   1.4982
     6.6290   7.5324  11.9358  12.3470

     occupation numbers 
     1.0000   1.0000   1.0000   1.0000   1.0000   1.0000   1.0000   1.0000
     0.0000   0.0000   0.0000   0.0000

          k =-0.5000-0.2887 0.1046 (  3812 PWs)   bands (ev):

   -12.1526 -12.1417  -6.3493  -6.3260  -1.3601  -1.3568   1.2771   1.4230
     6.8211   7.2664  12.0728  12.2912

     occupation numbers 
     1.0000   1.0000   1.0000   1.0000   1.0000   1.0000   1.0000   1.0000
     0.0000   0.0000   0.0000   0.0000

          k =-0.5000-0.1694 0.0000 (  3828 PWs)   bands (ev):

   -12.1876 -12.1647  -6.0295  -5.9858  -1.8986  -1.8874   1.1315   1.4589
     6.9685   7.7800  12.1524  13.1970

     occupation numbers 
     1.0000   1.0000   1.0000   1.0000   1.0000   1.0000   1.0000   1.0000
     0.0000   0.0000   0.0000   0.0000

          k =-0.5000-0.1694 0.1046 (  3822 PWs)   bands (ev):

   -12.1819 -12.1704  -6.0186  -5.9968  -1.8958  -1.8902   1.2106   1.3742
     7.1417   7.5414  12.4941  13.0198

     occupation numbers 
     1.0000   1.0000   1.0000   1.0000   1.0000   1.0000   1.0000   1.0000
     0.0000   0.0000   0.0000   0.0000

          k =-0.5000-0.0500 0.0000 (  3824 PWs)   bands (ev):

   -12.2202 -12.1959  -5.2300  -5.1928  -3.0209  -3.0021   1.0394   1.4126
     7.6321   8.1802  12.0845  14.9908

     occupation numbers 
     1.0000   1.0000   1.0000   1.0000   1.0000   1.0000   1.0000   1.0000
     0.0000   0.0000   0.0000   0.0000

          k =-0.5000-0.0500 0.1046 (  3819 PWs)   bands (ev):

   -12.2141 -12.2020  -5.2208  -5.2022  -3.0163  -3.0069   1.1290   1.3154
     7.7507   8.0206  12.5923  13.7709

     occupation numbers 
     1.0000   1.0000   1.0000   1.0000   1.0000   1.0000   1.0000   1.0000
     0.0000   0.0000   0.0000   0.0000

          k =-0.5000 0.0693 0.0000 (  3791 PWs)   bands (ev):

   -12.1779 -12.1537  -5.1308  -5.0949  -3.1895  -3.1698   1.0938   1.4679
     7.6979   8.1928  12.0763  14.5453

     occupation numbers 
     1.0000   1.0000   1.0000   1.0000   1.0000   1.0000   1.0000   1.0000
     0.0000   0.0000   0.0000   0.0000

          k =-0.5000 0.0693 0.1046 (  3814 PWs)   bands (ev):

   -12.1719 -12.1598  -5.1219  -5.1040  -3.1846  -3.1748   1.1836   1.3704
     7.8059   8.0499  12.5575  13.6551

     occupation numbers 
     1.0000   1.0000   1.0000   1.0000   1.0000   1.0000   1.0000   1.0000
     0.0000   0.0000   0.0000   0.0000

          k =-0.5000 0.1886 0.0000 (  3804 PWs)   bands (ev):

   -12.0724 -12.0500  -5.9392  -5.8977  -2.1766  -2.1645   1.2824   1.6103
     7.0632   7.8192  11.8944  12.6269

     occupation numbers 
     1.0000   1.0000   1.0000   1.0000   1.0000   1.0000   1.0000   1.0000
     0.0000   0.0000   0.0000   0.0000

          k =-0.5000 0.1886 0.1046 (  3808 PWs)   bands (ev):

   -12.0668 -12.0556  -5.9289  -5.9081  -2.1736  -2.1676   1.3616   1.5254
     7.2268   7.6000  12.1286  12.4879

     occupation numbers 
     1.0000   1.0000   1.0000   1.0000   1.0000   1.0000   1.0000   1.0000
     0.0000   0.0000   0.0000   0.0000

          k =-0.5000-0.8853 0.0000 (  3804 PWs)   bands (ev):

   -12.0120 -11.9907  -6.2930  -6.2487  -1.6667  -1.6596   1.4007   1.6910
     6.7114   7.5692  11.4298  11.7860

     occupation numbers 
     1.0000   1.0000   1.0000   1.0000   1.0000   1.0000   1.0000   1.0000
     0.0000   0.0000   0.0000   0.0000

          k =-0.5000-0.8853 0.1046 (  3816 PWs)   bands (ev):

   -12.0067 -11.9961  -6.2820  -6.2599  -1.6650  -1.6614   1.4710   1.6161
     6.8963   7.3200  11.5331  11.7140

     occupation numbers 
     1.0000   1.0000   1.0000   1.0000   1.0000   1.0000   1.0000   1.0000
     0.0000   0.0000   0.0000   0.0000

          k = 0.0000-0.1193 0.1046 (  3775 PWs)   bands (ev):

   -14.7397 -14.7175  -2.4675  -2.1480   0.2904   0.2968   0.5392   0.5414
     7.7582   9.2077  12.6363  13.0760

     occupation numbers 
     1.0000   1.0000   1.0000   1.0000   1.0000   1.0000   1.0000   1.0000
     0.0000   0.0000   0.0000   0.0000

          k = 0.0000-0.2386 0.1046 (  3785 PWs)   bands (ev):

   -14.1836 -14.1633  -1.7166  -1.4958  -1.4593  -1.3904  -0.3124  -0.3095
     8.5897   9.7534  12.0815  12.2915

     occupation numbers 
     1.0000   1.0000   1.0000   1.0000   1.0000   1.0000   1.0000   1.0000
     0.0000   0.0000   0.0000   0.0000

          k = 0.0000-0.3580 0.1046 (  3785 PWs)   bands (ev):

   -13.3281 -13.3109  -3.5761  -3.5613  -1.1652  -1.1618  -0.5253  -0.2603
     9.5167   9.5852  10.7184  11.3444

     occupation numbers 
     1.0000   1.0000   1.0000   1.0000   1.0000   1.0000   1.0000   1.0000
     0.0000   0.0000   0.0000   0.0000

          k = 0.0000-0.4773 0.1046 (  3795 PWs)   bands (ev):

   -12.3734 -12.3603  -5.4003  -5.3817  -1.7541  -1.7504   0.8628   1.0656
     7.9478   8.3058  10.8296  11.1866

     occupation numbers 
     1.0000   1.0000   1.0000   1.0000   1.0000   1.0000   1.0000   1.0000
     0.0000   0.0000   0.0000   0.0000

          k =-0.1000-0.0577 0.1046 (  3785 PWs)   bands (ev):

   -14.7538 -14.7316  -2.4859  -2.1662   0.0910   0.0985   0.7462   0.7479
     7.7634   9.2162  13.0531  13.2903

     occupation numbers 
     1.0000   1.0000   1.0000   1.0000   1.0000   1.0000   1.0000   1.0000
     0.0000   0.0000   0.0000   0.0000

          k =-0.1000-0.1771 0.1046 (  3788 PWs)   bands (ev):

   -14.3873 -14.3663  -1.9887  -1.6820  -1.0085  -0.9981  -0.0022   0.0006
     8.3435   9.6234  12.7774  12.8261

     occupation numbers 
     1.0000   1.0000   1.0000   1.0000   1.0000   1.0000   1.0000   1.0000
     0.0000   0.0000   0.0000   0.0000

          k =-0.1000-0.2964 0.1046 (  3791 PWs)   bands (ev):

   -13.6837 -13.6651  -2.6490  -2.6353  -1.1474  -1.1427  -1.0187  -0.7382
     9.3231   9.9009  11.3737  12.0483

     occupation numbers 
     1.0000   1.0000   1.0000   1.0000   1.0000   1.0000   1.0000   1.0000
     0.0000   0.0000   0.0000   0.0000

          k =-0.1000-0.4157 0.1046 (  3808 PWs)   bands (ev):

   -12.7571 -12.7422  -4.4985  -4.4821  -1.9982  -1.9924   0.2932   0.5263
     8.7702   9.0681  11.0402  11.9439

     occupation numbers 
     1.0000   1.0000   1.0000   1.0000   1.0000   1.0000   1.0000   1.0000
     0.0000   0.0000   0.0000   0.0000

          k =-0.1000-0.5350 0.1046 (  3819 PWs)   bands (ev):

   -11.9457 -11.9348  -5.8676  -5.8478  -2.4205  -2.4142   1.5328   1.6942
     7.2617   7.6098  11.6617  11.9131

     occupation numbers 
     1.0000   1.0000   1.0000   1.0000   1.0000   1.0000   1.0000   1.0000
     0.0000   0.0000   0.0000   0.0000

          k =-0.1000 0.5389 0.1046 (  3816 PWs)   bands (ev):

   -11.9247 -11.9138  -5.9062  -5.8863  -2.3959  -2.3898   1.5639   1.7232
     7.2301   7.5812  11.6529  11.8958

     occupation numbers 
     1.0000   1.0000   1.0000   1.0000   1.0000   1.0000   1.0000   1.0000
     0.0000   0.0000   0.0000   0.0000

          k =-0.1000 0.4195 0.1046 (  3797 PWs)   bands (ev):

   -12.7186 -12.7038  -4.5834  -4.5672  -1.9321  -1.9267   0.3446   0.5761
     8.7310   9.0335  11.0432  11.9028

     occupation numbers 
     1.0000   1.0000   1.0000   1.0000   1.0000   1.0000   1.0000   1.0000
     0.0000   0.0000   0.0000   0.0000

          k =-0.1000 0.3002 0.1046 (  3795 PWs)   bands (ev):

   -13.6500 -13.6316  -2.7219  -2.7086  -1.0828  -1.0783  -0.9751  -0.6955
     9.3367   9.9076  11.3590  11.9923

     occupation numbers 
     1.0000   1.0000   1.0000   1.0000   1.0000   1.0000   1.0000   1.0000
     0.0000   0.0000   0.0000   0.0000

          k =-0.1000 0.1809 0.1046 (  3796 PWs)   bands (ev):

   -14.3657 -14.3448  -1.9610  -1.6545  -0.9675  -0.9579  -0.0466  -0.0442
     8.3439   9.6255  12.6335  12.8088

     occupation numbers 
     1.0000   1.0000   1.0000   1.0000   1.0000   1.0000   1.0000   1.0000
     0.0000   0.0000   0.0000   0.0000

          k =-0.1000 0.0616 0.1046 (  3793 PWs)   bands (ev):

   -14.7464 -14.7242  -2.4764  -2.1568   0.2097   0.2166   0.6239   0.6258
     7.7599   9.2114  12.7794  13.1553

     occupation numbers 
     1.0000   1.0000   1.0000   1.0000   1.0000   1.0000   1.0000   1.0000
     0.0000   0.0000   0.0000   0.0000

          k =-0.2000-0.1155 0.1046 (  3805 PWs)   bands (ev):

   -14.2400 -14.2195  -1.8080  -1.7644  -1.7208  -1.4760   0.0498   0.0523
     8.5863   9.7375  12.3662  12.5803

     occupation numbers 
     1.0000   1.0000   1.0000   1.0000   1.0000   1.0000   1.0000   1.0000
     0.0000   0.0000   0.0000   0.0000

          k =-0.2000-0.2348 0.1046 (  3810 PWs)   bands (ev):

   -13.7272 -13.7086  -2.8992  -2.8845  -1.0758  -0.8111  -0.8032  -0.7868
     9.3091   9.8301  11.3303  12.2628

     occupation numbers 
     1.0000   1.0000   1.0000   1.0000   1.0000   1.0000   1.0000   1.0000
     0.0000   0.0000   0.0000   0.0000

          k =-0.2000-0.3541 0.1046 (  3802 PWs)   bands (ev):

   -12.9400 -12.9244  -4.0303  -4.0145  -2.2227  -2.2154   0.0339   0.2768
     9.0694   9.3298  11.1720  12.7615

     occupation numbers 
     1.0000   1.0000   1.0000   1.0000   1.0000   1.0000   1.0000   1.0000
     0.0000   0.0000   0.0000   0.0000

          k =-0.2000-0.4734 0.1046 (  3815 PWs)   bands (ev):

   -12.0767 -12.0649  -5.1422  -5.1248  -3.2807  -3.2706   1.3204   1.5032
     7.7734   7.9997  12.5621  13.4677

     occupation numbers 
     1.0000   1.0000   1.0000   1.0000   1.0000   1.0000   1.0000   1.0000
     0.0000   0.0000   0.0000   0.0000

          k =-0.2000-0.5927 0.1046 (  3826 PWs)   bands (ev):

   -11.6179 -11.6085  -5.7599  -5.7410  -3.5904  -3.5794   2.0716   2.2033
     6.9882   7.2314  13.3634  13.5558

     occupation numbers 
     1.0000   1.0000   1.0000   1.0000   1.0000   1.0000   1.0000   1.0000
     0.0000   0.0000   0.0000   0.0000

          k =-0.2000 0.4811 0.1046 (  3815 PWs)   bands (ev):

   -12.0110 -11.9994  -5.2571  -5.2398  -3.2242  -3.2143   1.4128   1.5918
     7.7094   7.9393  12.6325  13.4796

     occupation numbers 
     1.0000   1.0000   1.0000   1.0000   1.0000   1.0000   1.0000   1.0000
     0.0000   0.0000   0.0000   0.0000

          k =-0.2000 0.3618 0.1046 (  3802 PWs)   bands (ev):

   -12.8652 -12.8498  -4.0994  -4.0842  -2.2185  -2.2114   0.1317   0.3727
     9.0626   9.3193  11.2088  12.7554

     occupation numbers 
     1.0000   1.0000   1.0000   1.0000   1.0000   1.0000   1.0000   1.0000
     0.0000   0.0000   0.0000   0.0000

          k =-0.2000 0.2425 0.1046 (  3799 PWs)   bands (ev):

   -13.6707 -13.6522  -2.8350  -2.8213  -1.0045  -0.9243  -0.9215  -0.7223
     9.3349   9.8790  11.3478  12.1407

     occupation numbers 
     1.0000   1.0000   1.0000   1.0000   1.0000   1.0000   1.0000   1.0000
     0.0000   0.0000   0.0000   0.0000

          k =-0.2000 0.1232 0.1046 (  3794 PWs)   bands (ev):

   -14.2104 -14.1900  -1.7552  -1.6131  -1.5818  -1.4348  -0.1471  -0.1444
     8.5894   9.7516  12.3379  12.3715

     occupation numbers 
     1.0000   1.0000   1.0000   1.0000   1.0000   1.0000   1.0000   1.0000
     0.0000   0.0000   0.0000   0.0000

          k =-0.2000 0.0038 0.1046 (  3794 PWs)   bands (ev):

   -14.4069 -14.3859  -2.0147  -1.7076  -0.9780  -0.9670  -0.0280  -0.0249
     8.3390   9.6209  12.8533  12.9385

     occupation numbers 
     1.0000   1.0000   1.0000   1.0000   1.0000   1.0000   1.0000   1.0000
     0.0000   0.0000   0.0000   0.0000

          k =-0.3000-0.1732 0.1046 (  3828 PWs)   bands (ev):

   -13.4546 -13.4372  -3.8485  -3.8317  -0.6894  -0.6725  -0.6695  -0.4230
     9.4063   9.4537  10.7686  11.9967

     occupation numbers 
     1.0000   1.0000   1.0000   1.0000   1.0000   1.0000   1.0000   1.0000
     0.0000   0.0000   0.0000   0.0000

          k =-0.3000-0.2925 0.1046 (  3823 PWs)   bands (ev):

   -12.8761 -12.8610  -4.7782  -4.7599  -1.4897  -1.4848   0.1393   0.3723
     8.5690   8.9182  11.2302  12.6368

     occupation numbers 
     1.0000   1.0000   1.0000   1.0000   1.0000   1.0000   1.0000   1.0000
     0.0000   0.0000   0.0000   0.0000

          k =-0.3000-0.4118 0.1046 (  3810 PWs)   bands (ev):

   -12.1571 -12.1452  -5.3258  -5.3071  -2.9631  -2.9539   1.2135   1.3957
     7.6752   7.9515  12.6926  13.8351

     occupation numbers 
     1.0000   1.0000   1.0000   1.0000   1.0000   1.0000   1.0000   1.0000
     0.0000   0.0000   0.0000   0.0000

          k =-0.3000-0.5312 0.1046 (  3810 PWs)   bands (ev):

   -11.5832 -11.5741  -5.3498  -5.3339  -4.3159  -4.3037   2.1424   2.2724
     7.0465   7.1679  13.9344  14.2037

     occupation numbers 
     1.0000   1.0000   1.0000   1.0000   1.0000   1.0000   1.0000   1.0000
     0.0000   0.0000   0.0000   0.0000

          k =-0.3000-0.6505 0.1046 (  3819 PWs)   bands (ev):

   -11.5311 -11.5221  -5.3882  -5.3723  -4.3363  -4.3234   2.2208   2.3476
     7.0188   7.1238  14.0021  14.1981

     occupation numbers 
     1.0000   1.0000   1.0000   1.0000   1.0000   1.0000   1.0000   1.0000
     0.0000   0.0000   0.0000   0.0000

          k =-0.3000 0.4234 0.1046 (  3802 PWs)   bands (ev):

   -12.0492 -12.0375  -5.3424  -5.3245  -3.0744  -3.0648   1.3605   1.5393
     7.6657   7.9204  12.7380  13.7454

     occupation numbers 
     1.0000   1.0000   1.0000   1.0000   1.0000   1.0000   1.0000   1.0000
     0.0000   0.0000   0.0000   0.0000

          k =-0.3000 0.3041 0.1046 (  3798 PWs)   bands (ev):

   -12.7750 -12.7601  -4.7170  -4.6998  -1.6884  -1.6835   0.2699   0.5015
     8.6402   8.9682  11.1825  12.3130

     occupation numbers 
     1.0000   1.0000   1.0000   1.0000   1.0000   1.0000   1.0000   1.0000
     0.0000   0.0000   0.0000   0.0000

          k =-0.3000 0.1848 0.1046 (  3801 PWs)   bands (ev):

   -13.3881 -13.3707  -3.7071  -3.6913  -0.9285  -0.9253  -0.6046  -0.3389
     9.4994   9.5133  10.7652  11.7074

     occupation numbers 
     1.0000   1.0000   1.0000   1.0000   1.0000   1.0000   1.0000   1.0000
     0.0000   0.0000   0.0000   0.0000

          k =-0.3000 0.0654 0.1046 (  3805 PWs)   bands (ev):

   -13.7346 -13.7159  -2.6752  -2.6607  -1.0899  -1.0676  -1.0617  -0.8049
     9.3037   9.8776  11.3872  12.2184

     occupation numbers 
     1.0000   1.0000   1.0000   1.0000   1.0000   1.0000   1.0000   1.0000
     0.0000   0.0000   0.0000   0.0000

          k =-0.3000-0.0539 0.1046 (  3814 PWs)   bands (ev):

   -13.7574 -13.7387  -2.8165  -2.8015  -1.1164  -0.8813  -0.8753  -0.8316
     9.2924   9.8359  11.3556  12.2894

     occupation numbers 
     1.0000   1.0000   1.0000   1.0000   1.0000   1.0000   1.0000   1.0000
     0.0000   0.0000   0.0000   0.0000

          k =-0.4000-0.2309 0.1046 (  3828 PWs)   bands (ev):

   -12.5914 -12.5779  -5.5997  -5.5790  -1.1802  -1.1770   0.5753   0.7794
     7.7544   8.1621  11.4877  12.2617

     occupation numbers 
     1.0000   1.0000   1.0000   1.0000   1.0000   1.0000   1.0000   1.0000
     0.0000   0.0000   0.0000   0.0000

          k =-0.4000-0.3503 0.1046 (  3816 PWs)   bands (ev):

   -12.1640 -12.1526  -6.0513  -6.0294  -1.8750  -1.8696   1.2384   1.3998
     7.1099   7.5121  12.5183  13.0152

     occupation numbers 
     1.0000   1.0000   1.0000   1.0000   1.0000   1.0000   1.0000   1.0000
     0.0000   0.0000   0.0000   0.0000

          k =-0.4000-0.4696 0.1046 (  3799 PWs)   bands (ev):

   -11.7993 -11.7894  -5.8668  -5.8463  -3.2318  -3.2218   1.8105   1.9459
     6.9612   7.2633  13.9717  14.0306

     occupation numbers 
     1.0000   1.0000   1.0000   1.0000   1.0000   1.0000   1.0000   1.0000
     0.0000   0.0000   0.0000   0.0000

          k =-0.4000-0.5889 0.1046 (  3808 PWs)   bands (ev):

   -11.6289 -11.6196  -5.3064  -5.2906  -4.3064  -4.2949   2.0695   2.2032
     7.0859   7.2137  13.8681  14.2088

     occupation numbers 
     1.0000   1.0000   1.0000   1.0000   1.0000   1.0000   1.0000   1.0000
     0.0000   0.0000   0.0000   0.0000

          k =-0.4000-0.7082 0.1046 (  3813 PWs)   bands (ev):

   -11.7035 -11.6939  -5.8158  -5.7961  -3.4139  -3.4034   1.9438   2.0778
     6.9827   7.2554  13.7378  13.8735

     occupation numbers 
     1.0000   1.0000   1.0000   1.0000   1.0000   1.0000   1.0000   1.0000
     0.0000   0.0000   0.0000   0.0000

          k =-0.4000 0.3657 0.1046 (  3804 PWs)   bands (ev):

   -12.0279 -12.0168  -5.9997  -5.9789  -2.1285  -2.1228   1.4204   1.5799
     7.1633   7.5419  12.1375  12.4645

     occupation numbers 
     1.0000   1.0000   1.0000   1.0000   1.0000   1.0000   1.0000   1.0000
     0.0000   0.0000   0.0000   0.0000

          k =-0.4000 0.2463 0.1046 (  3811 PWs)   bands (ev):

   -12.4763 -12.4630  -5.5018  -5.4822  -1.4728  -1.4693   0.7235   0.9272
     7.8619   8.2453  11.2124  11.7319

     occupation numbers 
     1.0000   1.0000   1.0000   1.0000   1.0000   1.0000   1.0000   1.0000
     0.0000   0.0000   0.0000   0.0000

          k =-0.4000 0.1270 0.1046 (  3812 PWs)   bands (ev):

   -12.8473 -12.8322  -4.5573  -4.5400  -1.8123  -1.8065   0.1711   0.4060
     8.7289   9.0468  11.1411  12.3481

     occupation numbers 
     1.0000   1.0000   1.0000   1.0000   1.0000   1.0000   1.0000   1.0000
     0.0000   0.0000   0.0000   0.0000

          k =-0.4000 0.0077 0.1046 (  3812 PWs)   bands (ev):

   -13.0063 -12.9906  -3.9292  -3.9129  -2.2636  -2.2562  -0.0571   0.1881
     9.1068   9.3630  11.1328  12.7654

     occupation numbers 
     1.0000   1.0000   1.0000   1.0000   1.0000   1.0000   1.0000   1.0000
     0.0000   0.0000   0.0000   0.0000

          k =-0.4000-0.1116 0.1046 (  3829 PWs)   bands (ev):

   -12.9099 -12.8947  -4.7031  -4.6848  -1.5476  -1.5423   0.0919   0.3266
     8.6178   8.9617  11.1982  12.6276

     occupation numbers 
     1.0000   1.0000   1.0000   1.0000   1.0000   1.0000   1.0000   1.0000
     0.0000   0.0000   0.0000   0.0000

          k = 0.5000 0.1694 0.1046 (  3822 PWs)   bands (ev):

   -12.1819 -12.1704  -6.0186  -5.9968  -1.8958  -1.8902   1.2106   1.3742
     7.1417   7.5414  12.4941  13.0198

     occupation numbers 
     1.0000   1.0000   1.0000   1.0000   1.0000   1.0000   1.0000   1.0000
     0.0000   0.0000   0.0000   0.0000

          k = 0.5000 0.0500 0.1046 (  3819 PWs)   bands (ev):

   -12.2141 -12.2020  -5.2208  -5.2022  -3.0163  -3.0069   1.1290   1.3154
     7.7507   8.0206  12.5923  13.7709

     occupation numbers 
     1.0000   1.0000   1.0000   1.0000   1.0000   1.0000   1.0000   1.0000
     0.0000   0.0000   0.0000   0.0000

          k = 0.5000-0.0693 0.1046 (  3814 PWs)   bands (ev):

   -12.1719 -12.1598  -5.1219  -5.1040  -3.1846  -3.1748   1.1836   1.3704
     7.8059   8.0499  12.5575  13.6550

     occupation numbers 
     1.0000   1.0000   1.0000   1.0000   1.0000   1.0000   1.0000   1.0000
     0.0000   0.0000   0.0000   0.0000

          k = 0.5000-0.1886 0.1046 (  3808 PWs)   bands (ev):

   -12.0668 -12.0556  -5.9289  -5.9081  -2.1736  -2.1676   1.3616   1.5254
     7.2268   7.6000  12.1287  12.4879

     occupation numbers 
     1.0000   1.0000   1.0000   1.0000   1.0000   1.0000   1.0000   1.0000
     0.0000   0.0000   0.0000   0.0000

     the Fermi energy is     4.1411 ev

!    total energy              =     -54.86883123 Ry
     estimated scf accuracy    <          9.1E-11 Ry
     smearing contrib. (-TS)   =       0.00000000 Ry
     internal energy E=F+TS    =     -54.86883123 Ry

     The total energy is F=E-TS. E is the sum of the following terms:
     one-electron contribution =     -33.63779132 Ry
     hartree contribution      =      23.85107437 Ry
     xc contribution           =     -18.46868507 Ry
     ewald contribution        =     -26.61342920 Ry

     convergence has been achieved in  11 iterations

     Forces acting on atoms (cartesian axes, Ry/au):

     atom    1 type  1   force =     0.00462437    0.01063648   -0.00001589
     atom    2 type  1   force =    -0.00462861   -0.01063632   -0.00001564
     atom    3 type  2   force =    -0.00461170   -0.01063819    0.00001584
     atom    4 type  2   force =     0.00461594    0.01063803    0.00001570
     The non-local contrib.  to forces
     atom    1 type  1   force =     0.02819406    0.04914834    0.00000074
     atom    2 type  1   force =    -0.02819448   -0.04914852    0.00000073
     atom    3 type  2   force =     0.01600605    0.02425902    0.00000053
     atom    4 type  2   force =    -0.01600742   -0.02425878    0.00000028
     The ionic contribution  to forces
     atom    1 type  1   force =     0.14470536    0.24259184    0.00000000
     atom    2 type  1   force =    -0.14470536   -0.24259184   -0.00000000
     atom    3 type  2   force =    -0.14463283   -0.24248322    0.00000000
     atom    4 type  2   force =     0.14463283    0.24248322   -0.00000000
     The local contribution  to forces
     atom    1 type  1   force =    -0.16649747   -0.27801761    0.00000210
     atom    2 type  1   force =     0.16649955    0.27801761    0.00000188
     atom    3 type  2   force =     0.12337234    0.20638353   -0.00000007
     atom    4 type  2   force =    -0.12337250   -0.20638372   -0.00000038
     The core correction contribution to forces
     atom    1 type  1   force =    -0.00178063   -0.00308631   -0.00003417
     atom    2 type  1   force =     0.00176913    0.00308692   -0.00003390
     atom    3 type  2   force =     0.00064159    0.00120564    0.00000001
     atom    4 type  2   force =    -0.00064154   -0.00120566    0.00000001
     The Hubbard contrib.    to forces
     atom    1 type  1   force =     0.00000000    0.00000000    0.00000000
     atom    2 type  1   force =     0.00000000    0.00000000    0.00000000
     atom    3 type  2   force =     0.00000000    0.00000000    0.00000000
     atom    4 type  2   force =     0.00000000    0.00000000    0.00000000
     The SCF correction term to forces
     atom    1 type  1   force =     0.00000025    0.00000034   -0.00000010
     atom    2 type  1   force =    -0.00000025   -0.00000035    0.00000011
     atom    3 type  2   force =    -0.00000167   -0.00000303   -0.00000017
     atom    4 type  2   force =     0.00000176    0.00000310    0.00000026

     Total force =     0.023195     Total SCF correction =     0.000005


     Computing stress (Cartesian axis) and pressure

          total   stress  (Ry/bohr**3)                   (kbar)     P=      -89.87
  -0.00152918  -0.00034318   0.00000000         -224.95      -50.48        0.00
  -0.00034318  -0.00031760  -0.00000000          -50.48      -46.72       -0.00
   0.00000000  -0.00000000   0.00001409            0.00       -0.00        2.07

     kinetic stress (kbar)  10762.51    -56.95      0.00
                              -56.95  10951.53      0.00
                                0.00      0.00  12021.06

     local   stress (kbar) -22068.93    112.21     -0.00
                              112.21 -22448.06     -0.00
                               -0.00     -0.00  23248.88

     nonloc. stress (kbar)  -1376.28     10.16     -0.00
                               10.16  -1411.11     -0.00
                               -0.00     -0.00  -1454.17

     hartree stress (kbar)   9075.89    -33.31     -0.00
                              -33.31   9177.93      0.00
                               -0.00      0.00  -7114.03

     exc-cor stress (kbar)   -556.53     -0.27      0.00
                               -0.27   -555.47     -0.00
                                0.00     -0.00   -646.93

     corecor stress (kbar)  -1823.95      1.19      0.00
                                1.19  -1828.37     -0.00
                                0.00     -0.00  -1793.61

     ewald   stress (kbar)   5762.34    -83.51      0.00
                              -83.51   6066.83      0.00
                                0.00      0.00 -24259.13

     hubbard stress (kbar)      0.00      0.00      0.00
                                0.00      0.00      0.00
                                0.00      0.00      0.00

     DFT-D   stress (kbar)      0.00      0.00      0.00
                                0.00      0.00      0.00
                                0.00      0.00      0.00

     XDM     stress (kbar)      0.00      0.00      0.00
                                0.00      0.00      0.00
                                0.00      0.00      0.00

     dft-nl  stress (kbar)      0.00      0.00      0.00
                                0.00      0.00      0.00
                                0.00      0.00      0.00

     TS-vdW  stress (kbar)      0.00      0.00      0.00
                                0.00      0.00      0.00
                                0.00      0.00      0.00



     init_run     :      0.59s CPU      0.72s WALL (       1 calls)
     electrons    :     12.95s CPU     13.88s WALL (       1 calls)
     forces       :      0.16s CPU      0.16s WALL (       1 calls)
     stress       :      0.45s CPU      0.45s WALL (       1 calls)

     Called by init_run:
     wfcinit      :      0.43s CPU      0.51s WALL (       1 calls)
     wfcinit:atom :      0.01s CPU      0.01s WALL (     152 calls)
     wfcinit:wfcr :      0.39s CPU      0.46s WALL (     152 calls)
     potinit      :      0.05s CPU      0.05s WALL (       1 calls)
     hinit0       :      0.09s CPU      0.14s WALL (       1 calls)

     Called by electrons:
     c_bands      :     11.22s CPU     12.05s WALL (      11 calls)
     sum_band     :      1.60s CPU      1.69s WALL (      11 calls)
     v_of_rho     :      0.07s CPU      0.08s WALL (      12 calls)
     v_h          :      0.00s CPU      0.00s WALL (      12 calls)
     v_xc         :      0.08s CPU      0.08s WALL (      14 calls)
     newd         :      0.04s CPU      0.05s WALL (      12 calls)
     mix_rho      :      0.01s CPU      0.01s WALL (      11 calls)

     Called by c_bands:
     init_us_2    :      0.30s CPU      0.31s WALL (    3800 calls)
     cegterg      :     10.68s CPU     11.48s WALL (    1672 calls)

     Called by sum_band:
     sum_band:wei :      0.00s CPU      0.00s WALL (      11 calls)
     sum_band:loo :      1.55s CPU      1.64s WALL (      11 calls)
     sum_band:buf :      0.04s CPU      0.04s WALL (    1672 calls)
     sum_band:ini :      0.12s CPU      0.12s WALL (    1672 calls)
     sum_band:cal :      0.10s CPU      0.10s WALL (    1672 calls)
     sum_band:bec :      0.01s CPU      0.01s WALL (    1672 calls)
     addusdens    :      0.04s CPU      0.04s WALL (      11 calls)
     addusd:skk   :      0.00s CPU      0.00s WALL (      11 calls)
     addusd:dgemm :      0.02s CPU      0.02s WALL (      11 calls)
     addusd:qvan2 :      0.02s CPU      0.02s WALL (      11 calls)

     Called by *egterg:
     cdiaghg      :      1.06s CPU      1.36s WALL (    7683 calls)
     cegterg:over :      0.53s CPU      0.56s WALL (    6011 calls)
     cegterg:upda :      0.18s CPU      0.19s WALL (    6011 calls)
     cegterg:last :      0.30s CPU      0.31s WALL (    4170 calls)
     h_psi        :      8.40s CPU      8.88s WALL (    7835 calls)
     s_psi        :      0.19s CPU      0.20s WALL (    7835 calls)
     g_psi        :      0.04s CPU      0.04s WALL (    6011 calls)

     Called by h_psi:
     h_psi:calbec :      0.62s CPU      0.66s WALL (    7835 calls)
     vloc_psi     :      7.46s CPU      7.87s WALL (    7835 calls)
     add_vuspsi   :      0.24s CPU      0.25s WALL (    7835 calls)

     General routines
     calbec       :      0.74s CPU      0.80s WALL (   10267 calls)
     fft          :      0.04s CPU      0.08s WALL (     179 calls)
     ffts         :      0.00s CPU      0.00s WALL (      23 calls)
     fftw         :      7.91s CPU      8.37s WALL (  140852 calls)
     interpolate  :      0.00s CPU      0.00s WALL (      12 calls)

     Parallel routines
     fft_scatt_xy :      1.00s CPU      1.04s WALL (  141054 calls)
     fft_scatt_yz :      2.37s CPU      2.51s WALL (  141054 calls)

     PWSCF        :     14.24s CPU     15.45s WALL


   This run was terminated on:  21:22:58  28Sep2022            

=------------------------------------------------------------------------------=
   JOB DONE.
=------------------------------------------------------------------------------=
Note: The following floating-point exceptions are signalling: IEEE_UNDERFLOW_FLAG IEEE_DENORMAL
