
     Program PWSCF v.6.7MaX starts on 14Dec2022 at 15:16:56 

     This program is part of the open-source Quantum ESPRESSO suite
     for quantum simulation of materials; please cite
         "P. Giannozzi et al., J. Phys.:Condens. Matter 21 395502 (2009);
         "P. Giannozzi et al., J. Phys.:Condens. Matter 29 465901 (2017);
          URL http://www.quantum-espresso.org", 
     in publications or presentations arising from this work. More details at
     http://www.quantum-espresso.org/quote

     Parallel version (MPI), running on    24 processors

     MPI processes distributed on     1 nodes
     R & G space division:  proc/nbgrp/npool/nimage =      24
     Reading input from path3_cod-2.in

     Current dimensions of program PWSCF are:
     Max number of different atomic species (ntypx) = 10
     Max number of k-points (npk) =  40000
     Max angular momentum in pseudopotentials (lmaxx) =  3
     Message from routine read_pp_mesh:
     mesh size missing, using the one in header
     file Fe.pbe-spn-kjpaw_psl.0.2.1.UPF: wavefunction(s)  3D renormalized
     file O.pbe-n-kjpaw_psl.0.1.UPF: wavefunction(s)  2P renormalized

     Subspace diagonalization in iterative solution of the eigenvalue problem:
     a serial algorithm will be used


     Parallelization info
     --------------------
     sticks:   dense  smooth     PW     G-vecs:    dense   smooth      PW
     Min         827     306     82                53951    12161    1706
     Max         828     309     83                53954    12162    1709
     Sum       19863    7371   1983              1294859   291873   40977



     bravais-lattice index     =            0
     lattice parameter (alat)  =      19.6651  a.u.
     unit-cell volume          =    2160.3578 (a.u.)^3
     number of atoms/cell      =           25
     number of atomic types    =            4
     number of electrons       =       189.00
     number of Kohn-Sham states=          114
     kinetic-energy cutoff     =     100.0000  Ry
     charge density cutoff     =    1080.0000  Ry
     scf convergence threshold =      2.0E-10
     mixing beta               =       0.4000
     number of iterations used =            8  plain     mixing
     Exchange-correlation= PBE
                           (   1   4   3   4   0   0   0)

     celldm(1)=  19.665057  celldm(2)=   0.000000  celldm(3)=   0.000000
     celldm(4)=   0.000000  celldm(5)=   0.000000  celldm(6)=   0.000000

     crystal axes: (cart. coord. in units of alat)
               a(1) = (   1.000000   0.000000   0.000000 )  
               a(2) = (   0.000000   0.597590   0.000000 )  
               a(3) = (   0.000000   0.000000   0.475375 )  

     reciprocal axes: (cart. coord. in units 2 pi/alat)
               b(1) = (  1.000000  0.000000  0.000000 )  
               b(2) = (  0.000000  1.673388  0.000000 )  
               b(3) = (  0.000000  0.000000  2.103600 )  


     PseudoPot. # 1 for Fe read from file:
     /opt/QEpot/SSSP_precision_pseudos/Fe.pbe-spn-kjpaw_psl.0.2.1.UPF
     MD5 check sum: e86618425769142926afa95317d90200
     Pseudo is Projector augmented-wave + core cor, Zval = 16.0
     Generated using "atomic" code by A. Dal Corso  v.5.0.99 svn rev. 10869
     Shape of augmentation charge: PSQ
     Using radial grid of 1191 points,  6 beta functions with: 
                l(1) =   0
                l(2) =   0
                l(3) =   1
                l(4) =   1
                l(5) =   2
                l(6) =   2
     Q(r) pseudized with 0 coefficients 


     PseudoPot. # 2 for Na read from file:
     /opt/QEpot/SSSP_precision_pseudos/Na_ONCV_PBE-1.0.oncvpsp.upf
     MD5 check sum: 24a298df0a6742ae313db96548fdb2a4
     Pseudo is Norm-conserving, Zval =  9.0
     Generated using ONCVPSP code by D. R. Hamann
     Using radial grid of 1992 points,  4 beta functions with: 
                l(1) =   0
                l(2) =   0
                l(3) =   1
                l(4) =   1

     PseudoPot. # 3 for O  read from file:
     /opt/QEpot/SSSP_precision_pseudos/O.pbe-n-kjpaw_psl.0.1.UPF
     MD5 check sum: 0234752ac141de4415c5fc33072bef88
     Pseudo is Projector augmented-wave + core cor, Zval =  6.0
     Generated using "atomic" code by A. Dal Corso  v.5.0.99 svn rev. 10869
     Shape of augmentation charge: BESSEL
     Using radial grid of 1095 points,  4 beta functions with: 
                l(1) =   0
                l(2) =   0
                l(3) =   1
                l(4) =   1
     Q(r) pseudized with 0 coefficients 


     PseudoPot. # 4 for P  read from file:
     /opt/QEpot/SSSP_precision_pseudos/P.pbe-n-rrkjus_psl.1.0.0.UPF
     MD5 check sum: 8b930f418f0a4573dca56cd030ffe088
     Pseudo is Ultrasoft + core correction, Zval =  5.0
     Generated using "atomic" code by A. Dal Corso  v.5.1
     Using radial grid of 1147 points,  6 beta functions with: 
                l(1) =   0
                l(2) =   0
                l(3) =   1
                l(4) =   1
                l(5) =   2
                l(6) =   2
     Q(r) pseudized with 0 coefficients 


     atomic species   valence    mass     pseudopotential
        Fe            16.00    55.84500     Fe( 1.00)
        Na             9.00    22.98977     Na( 1.00)
        O              6.00    15.99940     O ( 1.00)
        P              5.00    30.97376     P ( 1.00)

     Starting magnetic structure 
     atomic species   magnetization
        Fe           0.312
        Na           0.000
        O            0.000
        P            0.000

     No symmetry found


                                    s                        frac. trans.

      isym =  1     identity                                     

 cryst.   s( 1) = (     1          0          0      )
                  (     0          1          0      )
                  (     0          0          1      )

 cart.    s( 1) = (  1.0000000  0.0000000  0.0000000 )
                  (  0.0000000  1.0000000  0.0000000 )
                  (  0.0000000  0.0000000  1.0000000 )


   Cartesian axes

     site n.     atom                  positions (alat units)
         1           Na  tau(   1) = (   0.0115797   0.0456728   0.0416962  )
         2           Fe  tau(   2) = (   0.2913454   0.4565558   0.4434152  )
         3           Fe  tau(   3) = (   0.2201156   0.1701247   0.2485796  )
         4           Fe  tau(   4) = (   0.7060869   0.1381022   0.0458951  )
         5           Fe  tau(   5) = (   0.7822733   0.4331542   0.2480422  )
         6           P   tau(   6) = (   0.0983658   0.4262254   0.1891660  )
         7           P   tau(   7) = (   0.3920646   0.1500872   0.4559458  )
         8           P   tau(   8) = (   0.8987804   0.1640052   0.3001164  )
         9           P   tau(   9) = (   0.6075129   0.4445597   0.0385196  )
        10           O   tau(  10) = (   0.1414110   0.4366105   0.3307621  )
        11           O   tau(  11) = (   0.3553681   0.1477289   0.1233148  )
        12           O   tau(  12) = (   0.8583392   0.1502280   0.1581605  )
        13           O   tau(  13) = (   0.6447443   0.4487156   0.3710829  )
        14           O   tau(  14) = (   0.4604883   0.4456165   0.0539070  )
        15           O   tau(  15) = (   0.0440326   0.1281014   0.3162555  )
        16           O   tau(  16) = (   0.5385999   0.1480719   0.4379199  )
        17           O   tau(  17) = (   0.9551653   0.4673184   0.1720239  )
        18           O   tau(  18) = (   0.1816088   0.5229867   0.1074832  )
        19           O   tau(  19) = (   0.3245338   0.0377497   0.3784444  )
        20           O   tau(  20) = (   0.8658187   0.2991628   0.3525866  )
        21           O   tau(  21) = (   0.6737521   0.3275674   0.1112804  )
        22           O   tau(  22) = (   0.8208629   0.0659940   0.3847898  )
        23           O   tau(  23) = (   0.6725031   0.5584645   0.1163702  )
        24           O   tau(  24) = (   0.1268440   0.2902935   0.1338746  )
        25           O   tau(  25) = (   0.3278726   0.2680175   0.3827633  )

   Crystallographic axes

     site n.     atom                  positions (cryst. coord.)
         1           Na  tau(   1) = (  0.0115797  0.0764283  0.0877122  )
         2           Fe  tau(   2) = (  0.2913454  0.7639951  0.9327684  )
         3           Fe  tau(   3) = (  0.2201156  0.2846846  0.5229122  )
         4           Fe  tau(   4) = (  0.7060869  0.2310985  0.0965449  )
         5           Fe  tau(   5) = (  0.7822733  0.7248352  0.5217817  )
         6           P   tau(   6) = (  0.0983658  0.7132406  0.3979297  )
         7           P   tau(   7) = (  0.3920646  0.2511542  0.9591277  )
         8           P   tau(   8) = (  0.8987804  0.2744445  0.6313249  )
         9           P   tau(   9) = (  0.6075129  0.7439210  0.0810298  )
        10           O   tau(  10) = (  0.1414110  0.7306189  0.6957912  )
        11           O   tau(  11) = (  0.3553681  0.2472078  0.2594050  )
        12           O   tau(  12) = (  0.8583392  0.2513898  0.3327064  )
        13           O   tau(  13) = (  0.6447443  0.7508755  0.7806101  )
        14           O   tau(  14) = (  0.4604883  0.7456894  0.1133988  )
        15           O   tau(  15) = (  0.0440326  0.2143634  0.6652751  )
        16           O   tau(  16) = (  0.5385999  0.2477817  0.9212084  )
        17           O   tau(  17) = (  0.9551653  0.7820052  0.3618696  )
        18           O   tau(  18) = (  0.1816088  0.8751599  0.2261016  )
        19           O   tau(  19) = (  0.3245338  0.0631698  0.7960957  )
        20           O   tau(  20) = (  0.8658187  0.5006155  0.7417013  )
        21           O   tau(  21) = (  0.6737521  0.5481475  0.2340895  )
        22           O   tau(  22) = (  0.8208629  0.1104336  0.8094438  )
        23           O   tau(  23) = (  0.6725031  0.9345280  0.2447965  )
        24           O   tau(  24) = (  0.1268440  0.4857737  0.2816186  )
        25           O   tau(  25) = (  0.3278726  0.4484973  0.8051810  )

     number of k points=   158  Marzari-Vanderbilt smearing, width (Ry)=  0.0073
                       cart. coord. in units 2pi/alat
        k(    1) = (   0.0000000   0.0000000   0.0000000), wk =   0.0031746
        k(    2) = (   0.0000000   0.0000000   0.2337334), wk =   0.0063492
        k(    3) = (   0.0000000   0.0000000   0.4674667), wk =   0.0063492
        k(    4) = (   0.0000000   0.0000000   0.7012001), wk =   0.0063492
        k(    5) = (   0.0000000   0.0000000   0.9349334), wk =   0.0063492
        k(    6) = (   0.0000000   0.2390555   0.0000000), wk =   0.0063492
        k(    7) = (   0.0000000   0.2390555   0.2337334), wk =   0.0063492
        k(    8) = (   0.0000000   0.2390555   0.4674667), wk =   0.0063492
        k(    9) = (   0.0000000   0.2390555   0.7012001), wk =   0.0063492
        k(   10) = (   0.0000000   0.2390555   0.9349334), wk =   0.0063492
        k(   11) = (   0.0000000   0.4781110   0.0000000), wk =   0.0063492
        k(   12) = (   0.0000000   0.4781110   0.2337334), wk =   0.0063492
        k(   13) = (   0.0000000   0.4781110   0.4674667), wk =   0.0063492
        k(   14) = (   0.0000000   0.4781110   0.7012001), wk =   0.0063492
        k(   15) = (   0.0000000   0.4781110   0.9349334), wk =   0.0063492
        k(   16) = (   0.0000000   0.7171664   0.0000000), wk =   0.0063492
        k(   17) = (   0.0000000   0.7171664   0.2337334), wk =   0.0063492
        k(   18) = (   0.0000000   0.7171664   0.4674667), wk =   0.0063492
        k(   19) = (   0.0000000   0.7171664   0.7012001), wk =   0.0063492
        k(   20) = (   0.0000000   0.7171664   0.9349334), wk =   0.0063492
        k(   21) = (   0.2000000   0.0000000   0.0000000), wk =   0.0063492
        k(   22) = (   0.2000000   0.0000000   0.2337334), wk =   0.0063492
        k(   23) = (   0.2000000   0.0000000   0.4674667), wk =   0.0063492
        k(   24) = (   0.2000000   0.0000000   0.7012001), wk =   0.0063492
        k(   25) = (   0.2000000   0.0000000   0.9349334), wk =   0.0063492
        k(   26) = (   0.2000000   0.2390555   0.0000000), wk =   0.0063492
        k(   27) = (   0.2000000   0.2390555   0.2337334), wk =   0.0063492
        k(   28) = (   0.2000000   0.2390555   0.4674667), wk =   0.0063492
        k(   29) = (   0.2000000   0.2390555   0.7012001), wk =   0.0063492
        k(   30) = (   0.2000000   0.2390555   0.9349334), wk =   0.0063492
        k(   31) = (   0.2000000   0.4781110   0.0000000), wk =   0.0063492
        k(   32) = (   0.2000000   0.4781110   0.2337334), wk =   0.0063492
        k(   33) = (   0.2000000   0.4781110   0.4674667), wk =   0.0063492
        k(   34) = (   0.2000000   0.4781110   0.7012001), wk =   0.0063492
        k(   35) = (   0.2000000   0.4781110   0.9349334), wk =   0.0063492
        k(   36) = (   0.2000000   0.7171664   0.0000000), wk =   0.0063492
        k(   37) = (   0.2000000   0.7171664   0.2337334), wk =   0.0063492
        k(   38) = (   0.2000000   0.7171664   0.4674667), wk =   0.0063492
        k(   39) = (   0.2000000   0.7171664   0.7012001), wk =   0.0063492
        k(   40) = (   0.2000000   0.7171664   0.9349334), wk =   0.0063492
        k(   41) = (   0.4000000   0.0000000   0.0000000), wk =   0.0063492
        k(   42) = (   0.4000000   0.0000000   0.2337334), wk =   0.0063492
        k(   43) = (   0.4000000   0.0000000   0.4674667), wk =   0.0063492
        k(   44) = (   0.4000000   0.0000000   0.7012001), wk =   0.0063492
        k(   45) = (   0.4000000   0.0000000   0.9349334), wk =   0.0063492
        k(   46) = (   0.4000000   0.2390555   0.0000000), wk =   0.0063492
        k(   47) = (   0.4000000   0.2390555   0.2337334), wk =   0.0063492
        k(   48) = (   0.4000000   0.2390555   0.4674667), wk =   0.0063492
        k(   49) = (   0.4000000   0.2390555   0.7012001), wk =   0.0063492
        k(   50) = (   0.4000000   0.2390555   0.9349334), wk =   0.0063492
        k(   51) = (   0.4000000   0.4781110   0.0000000), wk =   0.0063492
        k(   52) = (   0.4000000   0.4781110   0.2337334), wk =   0.0063492
        k(   53) = (   0.4000000   0.4781110   0.4674667), wk =   0.0063492
        k(   54) = (   0.4000000   0.4781110   0.7012001), wk =   0.0063492
        k(   55) = (   0.4000000   0.4781110   0.9349334), wk =   0.0063492
        k(   56) = (   0.4000000   0.7171664   0.0000000), wk =   0.0063492
        k(   57) = (   0.4000000   0.7171664   0.2337334), wk =   0.0063492
        k(   58) = (   0.4000000   0.7171664   0.4674667), wk =   0.0063492
        k(   59) = (   0.4000000   0.7171664   0.7012001), wk =   0.0063492
        k(   60) = (   0.4000000   0.7171664   0.9349334), wk =   0.0063492
        k(   61) = (   0.0000000  -0.2390555   0.2337334), wk =   0.0063492
        k(   62) = (   0.0000000  -0.2390555   0.4674667), wk =   0.0063492
        k(   63) = (   0.0000000  -0.2390555   0.7012001), wk =   0.0063492
        k(   64) = (   0.0000000  -0.2390555   0.9349334), wk =   0.0063492
        k(   65) = (   0.0000000  -0.4781110   0.2337334), wk =   0.0063492
        k(   66) = (   0.0000000  -0.4781110   0.4674667), wk =   0.0063492
        k(   67) = (   0.0000000  -0.4781110   0.7012001), wk =   0.0063492
        k(   68) = (   0.0000000  -0.4781110   0.9349334), wk =   0.0063492
        k(   69) = (   0.0000000  -0.7171664   0.2337334), wk =   0.0063492
        k(   70) = (   0.0000000  -0.7171664   0.4674667), wk =   0.0063492
        k(   71) = (   0.0000000  -0.7171664   0.7012001), wk =   0.0063492
        k(   72) = (   0.0000000  -0.7171664   0.9349334), wk =   0.0063492
        k(   73) = (  -0.2000000   0.0000000   0.2337334), wk =   0.0063492
        k(   74) = (  -0.2000000   0.0000000   0.4674667), wk =   0.0063492
        k(   75) = (  -0.2000000   0.0000000   0.7012001), wk =   0.0063492
        k(   76) = (  -0.2000000   0.0000000   0.9349334), wk =   0.0063492
        k(   77) = (  -0.2000000   0.2390555   0.0000000), wk =   0.0063492
        k(   78) = (  -0.2000000  -0.2390555   0.2337334), wk =   0.0063492
        k(   79) = (  -0.2000000   0.2390555  -0.2337334), wk =   0.0063492
        k(   80) = (   0.2000000  -0.2390555  -0.2337334), wk =   0.0063492
        k(   81) = (  -0.2000000  -0.2390555   0.4674667), wk =   0.0063492
        k(   82) = (  -0.2000000   0.2390555  -0.4674667), wk =   0.0063492
        k(   83) = (   0.2000000  -0.2390555  -0.4674667), wk =   0.0063492
        k(   84) = (  -0.2000000  -0.2390555   0.7012001), wk =   0.0063492
        k(   85) = (  -0.2000000   0.2390555  -0.7012001), wk =   0.0063492
        k(   86) = (   0.2000000  -0.2390555  -0.7012001), wk =   0.0063492
        k(   87) = (  -0.2000000  -0.2390555   0.9349334), wk =   0.0063492
        k(   88) = (  -0.2000000   0.2390555  -0.9349334), wk =   0.0063492
        k(   89) = (   0.2000000  -0.2390555  -0.9349334), wk =   0.0063492
        k(   90) = (  -0.2000000   0.4781110   0.0000000), wk =   0.0063492
        k(   91) = (  -0.2000000  -0.4781110   0.2337334), wk =   0.0063492
        k(   92) = (  -0.2000000   0.4781110  -0.2337334), wk =   0.0063492
        k(   93) = (   0.2000000  -0.4781110  -0.2337334), wk =   0.0063492
        k(   94) = (  -0.2000000  -0.4781110   0.4674667), wk =   0.0063492
        k(   95) = (  -0.2000000   0.4781110  -0.4674667), wk =   0.0063492
        k(   96) = (   0.2000000  -0.4781110  -0.4674667), wk =   0.0063492
        k(   97) = (  -0.2000000  -0.4781110   0.7012001), wk =   0.0063492
        k(   98) = (  -0.2000000   0.4781110  -0.7012001), wk =   0.0063492
        k(   99) = (   0.2000000  -0.4781110  -0.7012001), wk =   0.0063492
        k(  100) = (  -0.2000000  -0.4781110   0.9349334), wk =   0.0063492
        k(  101) = (  -0.2000000   0.4781110  -0.9349334), wk =   0.0063492
        k(  102) = (   0.2000000  -0.4781110  -0.9349334), wk =   0.0063492
        k(  103) = (  -0.2000000   0.7171664   0.0000000), wk =   0.0063492
        k(  104) = (  -0.2000000  -0.7171664   0.2337334), wk =   0.0063492
        k(  105) = (  -0.2000000   0.7171664  -0.2337334), wk =   0.0063492
        k(  106) = (   0.2000000  -0.7171664  -0.2337334), wk =   0.0063492
        k(  107) = (  -0.2000000  -0.7171664   0.4674667), wk =   0.0063492
        k(  108) = (  -0.2000000   0.7171664  -0.4674667), wk =   0.0063492
        k(  109) = (   0.2000000  -0.7171664  -0.4674667), wk =   0.0063492
        k(  110) = (  -0.2000000  -0.7171664   0.7012001), wk =   0.0063492
        k(  111) = (  -0.2000000   0.7171664  -0.7012001), wk =   0.0063492
        k(  112) = (   0.2000000  -0.7171664  -0.7012001), wk =   0.0063492
        k(  113) = (  -0.2000000  -0.7171664   0.9349334), wk =   0.0063492
        k(  114) = (  -0.2000000   0.7171664  -0.9349334), wk =   0.0063492
        k(  115) = (   0.2000000  -0.7171664  -0.9349334), wk =   0.0063492
        k(  116) = (  -0.4000000   0.0000000   0.2337334), wk =   0.0063492
        k(  117) = (  -0.4000000   0.0000000   0.4674667), wk =   0.0063492
        k(  118) = (  -0.4000000   0.0000000   0.7012001), wk =   0.0063492
        k(  119) = (  -0.4000000   0.0000000   0.9349334), wk =   0.0063492
        k(  120) = (  -0.4000000   0.2390555   0.0000000), wk =   0.0063492
        k(  121) = (  -0.4000000  -0.2390555   0.2337334), wk =   0.0063492
        k(  122) = (  -0.4000000   0.2390555  -0.2337334), wk =   0.0063492
        k(  123) = (   0.4000000  -0.2390555  -0.2337334), wk =   0.0063492
        k(  124) = (  -0.4000000  -0.2390555   0.4674667), wk =   0.0063492
        k(  125) = (  -0.4000000   0.2390555  -0.4674667), wk =   0.0063492
        k(  126) = (   0.4000000  -0.2390555  -0.4674667), wk =   0.0063492
        k(  127) = (  -0.4000000  -0.2390555   0.7012001), wk =   0.0063492
        k(  128) = (  -0.4000000   0.2390555  -0.7012001), wk =   0.0063492
        k(  129) = (   0.4000000  -0.2390555  -0.7012001), wk =   0.0063492
        k(  130) = (  -0.4000000  -0.2390555   0.9349334), wk =   0.0063492
        k(  131) = (  -0.4000000   0.2390555  -0.9349334), wk =   0.0063492
        k(  132) = (   0.4000000  -0.2390555  -0.9349334), wk =   0.0063492
        k(  133) = (  -0.4000000   0.4781110   0.0000000), wk =   0.0063492
        k(  134) = (  -0.4000000  -0.4781110   0.2337334), wk =   0.0063492
        k(  135) = (  -0.4000000   0.4781110  -0.2337334), wk =   0.0063492
        k(  136) = (   0.4000000  -0.4781110  -0.2337334), wk =   0.0063492
        k(  137) = (  -0.4000000  -0.4781110   0.4674667), wk =   0.0063492
        k(  138) = (  -0.4000000   0.4781110  -0.4674667), wk =   0.0063492
        k(  139) = (   0.4000000  -0.4781110  -0.4674667), wk =   0.0063492
        k(  140) = (  -0.4000000  -0.4781110   0.7012001), wk =   0.0063492
        k(  141) = (  -0.4000000   0.4781110  -0.7012001), wk =   0.0063492
        k(  142) = (   0.4000000  -0.4781110  -0.7012001), wk =   0.0063492
        k(  143) = (  -0.4000000  -0.4781110   0.9349334), wk =   0.0063492
        k(  144) = (  -0.4000000   0.4781110  -0.9349334), wk =   0.0063492
        k(  145) = (   0.4000000  -0.4781110  -0.9349334), wk =   0.0063492
        k(  146) = (  -0.4000000   0.7171664   0.0000000), wk =   0.0063492
        k(  147) = (  -0.4000000  -0.7171664   0.2337334), wk =   0.0063492
        k(  148) = (  -0.4000000   0.7171664  -0.2337334), wk =   0.0063492
        k(  149) = (   0.4000000  -0.7171664  -0.2337334), wk =   0.0063492
        k(  150) = (  -0.4000000  -0.7171664   0.4674667), wk =   0.0063492
        k(  151) = (  -0.4000000   0.7171664  -0.4674667), wk =   0.0063492
        k(  152) = (   0.4000000  -0.7171664  -0.4674667), wk =   0.0063492
        k(  153) = (  -0.4000000  -0.7171664   0.7012001), wk =   0.0063492
        k(  154) = (  -0.4000000   0.7171664  -0.7012001), wk =   0.0063492
        k(  155) = (   0.4000000  -0.7171664  -0.7012001), wk =   0.0063492
        k(  156) = (  -0.4000000  -0.7171664   0.9349334), wk =   0.0063492
        k(  157) = (  -0.4000000   0.7171664  -0.9349334), wk =   0.0063492
        k(  158) = (   0.4000000  -0.7171664  -0.9349334), wk =   0.0063492

                       cryst. coord.
        k(    1) = (   0.0000000   0.0000000   0.0000000), wk =   0.0031746
        k(    2) = (   0.0000000   0.0000000   0.1111111), wk =   0.0063492
        k(    3) = (   0.0000000   0.0000000   0.2222222), wk =   0.0063492
        k(    4) = (   0.0000000   0.0000000   0.3333333), wk =   0.0063492
        k(    5) = (   0.0000000   0.0000000   0.4444444), wk =   0.0063492
        k(    6) = (   0.0000000   0.1428571   0.0000000), wk =   0.0063492
        k(    7) = (   0.0000000   0.1428571   0.1111111), wk =   0.0063492
        k(    8) = (   0.0000000   0.1428571   0.2222222), wk =   0.0063492
        k(    9) = (   0.0000000   0.1428571   0.3333333), wk =   0.0063492
        k(   10) = (   0.0000000   0.1428571   0.4444444), wk =   0.0063492
        k(   11) = (   0.0000000   0.2857143   0.0000000), wk =   0.0063492
        k(   12) = (   0.0000000   0.2857143   0.1111111), wk =   0.0063492
        k(   13) = (   0.0000000   0.2857143   0.2222222), wk =   0.0063492
        k(   14) = (   0.0000000   0.2857143   0.3333333), wk =   0.0063492
        k(   15) = (   0.0000000   0.2857143   0.4444444), wk =   0.0063492
        k(   16) = (   0.0000000   0.4285714   0.0000000), wk =   0.0063492
        k(   17) = (   0.0000000   0.4285714   0.1111111), wk =   0.0063492
        k(   18) = (   0.0000000   0.4285714   0.2222222), wk =   0.0063492
        k(   19) = (   0.0000000   0.4285714   0.3333333), wk =   0.0063492
        k(   20) = (   0.0000000   0.4285714   0.4444444), wk =   0.0063492
        k(   21) = (   0.2000000   0.0000000   0.0000000), wk =   0.0063492
        k(   22) = (   0.2000000   0.0000000   0.1111111), wk =   0.0063492
        k(   23) = (   0.2000000   0.0000000   0.2222222), wk =   0.0063492
        k(   24) = (   0.2000000   0.0000000   0.3333333), wk =   0.0063492
        k(   25) = (   0.2000000   0.0000000   0.4444444), wk =   0.0063492
        k(   26) = (   0.2000000   0.1428571   0.0000000), wk =   0.0063492
        k(   27) = (   0.2000000   0.1428571   0.1111111), wk =   0.0063492
        k(   28) = (   0.2000000   0.1428571   0.2222222), wk =   0.0063492
        k(   29) = (   0.2000000   0.1428571   0.3333333), wk =   0.0063492
        k(   30) = (   0.2000000   0.1428571   0.4444444), wk =   0.0063492
        k(   31) = (   0.2000000   0.2857143   0.0000000), wk =   0.0063492
        k(   32) = (   0.2000000   0.2857143   0.1111111), wk =   0.0063492
        k(   33) = (   0.2000000   0.2857143   0.2222222), wk =   0.0063492
        k(   34) = (   0.2000000   0.2857143   0.3333333), wk =   0.0063492
        k(   35) = (   0.2000000   0.2857143   0.4444444), wk =   0.0063492
        k(   36) = (   0.2000000   0.4285714   0.0000000), wk =   0.0063492
        k(   37) = (   0.2000000   0.4285714   0.1111111), wk =   0.0063492
        k(   38) = (   0.2000000   0.4285714   0.2222222), wk =   0.0063492
        k(   39) = (   0.2000000   0.4285714   0.3333333), wk =   0.0063492
        k(   40) = (   0.2000000   0.4285714   0.4444444), wk =   0.0063492
        k(   41) = (   0.4000000   0.0000000   0.0000000), wk =   0.0063492
        k(   42) = (   0.4000000   0.0000000   0.1111111), wk =   0.0063492
        k(   43) = (   0.4000000   0.0000000   0.2222222), wk =   0.0063492
        k(   44) = (   0.4000000   0.0000000   0.3333333), wk =   0.0063492
        k(   45) = (   0.4000000   0.0000000   0.4444444), wk =   0.0063492
        k(   46) = (   0.4000000   0.1428571   0.0000000), wk =   0.0063492
        k(   47) = (   0.4000000   0.1428571   0.1111111), wk =   0.0063492
        k(   48) = (   0.4000000   0.1428571   0.2222222), wk =   0.0063492
        k(   49) = (   0.4000000   0.1428571   0.3333333), wk =   0.0063492
        k(   50) = (   0.4000000   0.1428571   0.4444444), wk =   0.0063492
        k(   51) = (   0.4000000   0.2857143   0.0000000), wk =   0.0063492
        k(   52) = (   0.4000000   0.2857143   0.1111111), wk =   0.0063492
        k(   53) = (   0.4000000   0.2857143   0.2222222), wk =   0.0063492
        k(   54) = (   0.4000000   0.2857143   0.3333333), wk =   0.0063492
        k(   55) = (   0.4000000   0.2857143   0.4444444), wk =   0.0063492
        k(   56) = (   0.4000000   0.4285714   0.0000000), wk =   0.0063492
        k(   57) = (   0.4000000   0.4285714   0.1111111), wk =   0.0063492
        k(   58) = (   0.4000000   0.4285714   0.2222222), wk =   0.0063492
        k(   59) = (   0.4000000   0.4285714   0.3333333), wk =   0.0063492
        k(   60) = (   0.4000000   0.4285714   0.4444444), wk =   0.0063492
        k(   61) = (   0.0000000  -0.1428571   0.1111111), wk =   0.0063492
        k(   62) = (   0.0000000  -0.1428571   0.2222222), wk =   0.0063492
        k(   63) = (   0.0000000  -0.1428571   0.3333333), wk =   0.0063492
        k(   64) = (   0.0000000  -0.1428571   0.4444444), wk =   0.0063492
        k(   65) = (   0.0000000  -0.2857143   0.1111111), wk =   0.0063492
        k(   66) = (   0.0000000  -0.2857143   0.2222222), wk =   0.0063492
        k(   67) = (   0.0000000  -0.2857143   0.3333333), wk =   0.0063492
        k(   68) = (   0.0000000  -0.2857143   0.4444444), wk =   0.0063492
        k(   69) = (   0.0000000  -0.4285714   0.1111111), wk =   0.0063492
        k(   70) = (   0.0000000  -0.4285714   0.2222222), wk =   0.0063492
        k(   71) = (   0.0000000  -0.4285714   0.3333333), wk =   0.0063492
        k(   72) = (   0.0000000  -0.4285714   0.4444444), wk =   0.0063492
        k(   73) = (  -0.2000000   0.0000000   0.1111111), wk =   0.0063492
        k(   74) = (  -0.2000000   0.0000000   0.2222222), wk =   0.0063492
        k(   75) = (  -0.2000000   0.0000000   0.3333333), wk =   0.0063492
        k(   76) = (  -0.2000000   0.0000000   0.4444444), wk =   0.0063492
        k(   77) = (  -0.2000000   0.1428571   0.0000000), wk =   0.0063492
        k(   78) = (  -0.2000000  -0.1428571   0.1111111), wk =   0.0063492
        k(   79) = (  -0.2000000   0.1428571  -0.1111111), wk =   0.0063492
        k(   80) = (   0.2000000  -0.1428571  -0.1111111), wk =   0.0063492
        k(   81) = (  -0.2000000  -0.1428571   0.2222222), wk =   0.0063492
        k(   82) = (  -0.2000000   0.1428571  -0.2222222), wk =   0.0063492
        k(   83) = (   0.2000000  -0.1428571  -0.2222222), wk =   0.0063492
        k(   84) = (  -0.2000000  -0.1428571   0.3333333), wk =   0.0063492
        k(   85) = (  -0.2000000   0.1428571  -0.3333333), wk =   0.0063492
        k(   86) = (   0.2000000  -0.1428571  -0.3333333), wk =   0.0063492
        k(   87) = (  -0.2000000  -0.1428571   0.4444444), wk =   0.0063492
        k(   88) = (  -0.2000000   0.1428571  -0.4444444), wk =   0.0063492
        k(   89) = (   0.2000000  -0.1428571  -0.4444444), wk =   0.0063492
        k(   90) = (  -0.2000000   0.2857143   0.0000000), wk =   0.0063492
        k(   91) = (  -0.2000000  -0.2857143   0.1111111), wk =   0.0063492
        k(   92) = (  -0.2000000   0.2857143  -0.1111111), wk =   0.0063492
        k(   93) = (   0.2000000  -0.2857143  -0.1111111), wk =   0.0063492
        k(   94) = (  -0.2000000  -0.2857143   0.2222222), wk =   0.0063492
        k(   95) = (  -0.2000000   0.2857143  -0.2222222), wk =   0.0063492
        k(   96) = (   0.2000000  -0.2857143  -0.2222222), wk =   0.0063492
        k(   97) = (  -0.2000000  -0.2857143   0.3333333), wk =   0.0063492
        k(   98) = (  -0.2000000   0.2857143  -0.3333333), wk =   0.0063492
        k(   99) = (   0.2000000  -0.2857143  -0.3333333), wk =   0.0063492
        k(  100) = (  -0.2000000  -0.2857143   0.4444444), wk =   0.0063492
        k(  101) = (  -0.2000000   0.2857143  -0.4444444), wk =   0.0063492
        k(  102) = (   0.2000000  -0.2857143  -0.4444444), wk =   0.0063492
        k(  103) = (  -0.2000000   0.4285714   0.0000000), wk =   0.0063492
        k(  104) = (  -0.2000000  -0.4285714   0.1111111), wk =   0.0063492
        k(  105) = (  -0.2000000   0.4285714  -0.1111111), wk =   0.0063492
        k(  106) = (   0.2000000  -0.4285714  -0.1111111), wk =   0.0063492
        k(  107) = (  -0.2000000  -0.4285714   0.2222222), wk =   0.0063492
        k(  108) = (  -0.2000000   0.4285714  -0.2222222), wk =   0.0063492
        k(  109) = (   0.2000000  -0.4285714  -0.2222222), wk =   0.0063492
        k(  110) = (  -0.2000000  -0.4285714   0.3333333), wk =   0.0063492
        k(  111) = (  -0.2000000   0.4285714  -0.3333333), wk =   0.0063492
        k(  112) = (   0.2000000  -0.4285714  -0.3333333), wk =   0.0063492
        k(  113) = (  -0.2000000  -0.4285714   0.4444444), wk =   0.0063492
        k(  114) = (  -0.2000000   0.4285714  -0.4444444), wk =   0.0063492
        k(  115) = (   0.2000000  -0.4285714  -0.4444444), wk =   0.0063492
        k(  116) = (  -0.4000000   0.0000000   0.1111111), wk =   0.0063492
        k(  117) = (  -0.4000000   0.0000000   0.2222222), wk =   0.0063492
        k(  118) = (  -0.4000000   0.0000000   0.3333333), wk =   0.0063492
        k(  119) = (  -0.4000000   0.0000000   0.4444444), wk =   0.0063492
        k(  120) = (  -0.4000000   0.1428571   0.0000000), wk =   0.0063492
        k(  121) = (  -0.4000000  -0.1428571   0.1111111), wk =   0.0063492
        k(  122) = (  -0.4000000   0.1428571  -0.1111111), wk =   0.0063492
        k(  123) = (   0.4000000  -0.1428571  -0.1111111), wk =   0.0063492
        k(  124) = (  -0.4000000  -0.1428571   0.2222222), wk =   0.0063492
        k(  125) = (  -0.4000000   0.1428571  -0.2222222), wk =   0.0063492
        k(  126) = (   0.4000000  -0.1428571  -0.2222222), wk =   0.0063492
        k(  127) = (  -0.4000000  -0.1428571   0.3333333), wk =   0.0063492
        k(  128) = (  -0.4000000   0.1428571  -0.3333333), wk =   0.0063492
        k(  129) = (   0.4000000  -0.1428571  -0.3333333), wk =   0.0063492
        k(  130) = (  -0.4000000  -0.1428571   0.4444444), wk =   0.0063492
        k(  131) = (  -0.4000000   0.1428571  -0.4444444), wk =   0.0063492
        k(  132) = (   0.4000000  -0.1428571  -0.4444444), wk =   0.0063492
        k(  133) = (  -0.4000000   0.2857143   0.0000000), wk =   0.0063492
        k(  134) = (  -0.4000000  -0.2857143   0.1111111), wk =   0.0063492
        k(  135) = (  -0.4000000   0.2857143  -0.1111111), wk =   0.0063492
        k(  136) = (   0.4000000  -0.2857143  -0.1111111), wk =   0.0063492
        k(  137) = (  -0.4000000  -0.2857143   0.2222222), wk =   0.0063492
        k(  138) = (  -0.4000000   0.2857143  -0.2222222), wk =   0.0063492
        k(  139) = (   0.4000000  -0.2857143  -0.2222222), wk =   0.0063492
        k(  140) = (  -0.4000000  -0.2857143   0.3333333), wk =   0.0063492
        k(  141) = (  -0.4000000   0.2857143  -0.3333333), wk =   0.0063492
        k(  142) = (   0.4000000  -0.2857143  -0.3333333), wk =   0.0063492
        k(  143) = (  -0.4000000  -0.2857143   0.4444444), wk =   0.0063492
        k(  144) = (  -0.4000000   0.2857143  -0.4444444), wk =   0.0063492
        k(  145) = (   0.4000000  -0.2857143  -0.4444444), wk =   0.0063492
        k(  146) = (  -0.4000000   0.4285714   0.0000000), wk =   0.0063492
        k(  147) = (  -0.4000000  -0.4285714   0.1111111), wk =   0.0063492
        k(  148) = (  -0.4000000   0.4285714  -0.1111111), wk =   0.0063492
        k(  149) = (   0.4000000  -0.4285714  -0.1111111), wk =   0.0063492
        k(  150) = (  -0.4000000  -0.4285714   0.2222222), wk =   0.0063492
        k(  151) = (  -0.4000000   0.4285714  -0.2222222), wk =   0.0063492
        k(  152) = (   0.4000000  -0.4285714  -0.2222222), wk =   0.0063492
        k(  153) = (  -0.4000000  -0.4285714   0.3333333), wk =   0.0063492
        k(  154) = (  -0.4000000   0.4285714  -0.3333333), wk =   0.0063492
        k(  155) = (   0.4000000  -0.4285714  -0.3333333), wk =   0.0063492
        k(  156) = (  -0.4000000  -0.4285714   0.4444444), wk =   0.0063492
        k(  157) = (  -0.4000000   0.4285714  -0.4444444), wk =   0.0063492
        k(  158) = (   0.4000000  -0.4285714  -0.4444444), wk =   0.0063492

     Dense  grid:  1294859 G-vectors     FFT dimensions: ( 216, 125, 100)

     Smooth grid:   291873 G-vectors     FFT dimensions: ( 125,  75,  60)

     Dynamical RAM for                 wfc:       2.64 MB

     Dynamical RAM for     wfc (w. buffer):     838.16 MB

     Dynamical RAM for           str. fact:       3.29 MB

     Dynamical RAM for           local pot:       0.00 MB

     Dynamical RAM for          nlocal pot:       6.49 MB

     Dynamical RAM for                qrad:      10.54 MB

     Dynamical RAM for          rho,v,vnew:      11.12 MB

     Dynamical RAM for               rhoin:       3.71 MB

     Dynamical RAM for            rho*nmix:      26.34 MB

     Dynamical RAM for           G-vectors:       3.18 MB

     Dynamical RAM for          h,s,v(r/c):       2.38 MB

     Dynamical RAM for          <psi|beta>:       0.49 MB

     Dynamical RAM for                 psi:       5.29 MB

     Dynamical RAM for                hpsi:       5.29 MB

     Dynamical RAM for                spsi:       5.29 MB

     Dynamical RAM for      wfcinit/wfcrot:       6.79 MB

     Dynamical RAM for           addusdens:     167.12 MB

     Dynamical RAM for          addusforce:     191.95 MB

     Dynamical RAM for         addusstress:     166.71 MB

     Estimated static dynamical RAM per process >     913.14 MB

     Estimated max dynamical RAM per process >       1.08 GB

     Estimated total dynamical RAM >      25.90 GB

     Check: negative core charge=   -0.000003
     Generating pointlists ...
     new r_m :   0.0764 (alat units)  1.5022 (a.u.) for type    1
     new r_m :   0.0901 (alat units)  1.7717 (a.u.) for type    2
     new r_m :   0.0608 (alat units)  1.1957 (a.u.) for type    3
     new r_m :   0.0608 (alat units)  1.1957 (a.u.) for type    4

     Initial potential from superposition of free atoms

     starting charge  188.99132, renormalised to  189.00000
     Starting wfcs are  137 randomized atomic wfcs
     Checking if some PAW data can be deallocated... 
       PAW data deallocated on   20 nodes for type:  1
       PAW data deallocated on    8 nodes for type:  3

     total cpu time spent up to now is      199.2 secs

     Self-consistent Calculation

     iteration #  1     ecut=   100.00 Ry     beta= 0.40
     Davidson diagonalization with overlap
     ethr =  1.00E-02,  avg # of iterations =  3.0

     negative rho (up, down):  0.000E+00 7.131E-05

     total cpu time spent up to now is      830.0 secs

     total energy              =   -2123.96775866 Ry
     estimated scf accuracy    <       6.89160562 Ry

     total magnetization       =    19.00 Bohr mag/cell
     absolute magnetization    =    19.00 Bohr mag/cell

     iteration #  2     ecut=   100.00 Ry     beta= 0.40
     Davidson diagonalization with overlap
     ethr =  3.65E-03,  avg # of iterations =  2.0

     negative rho (up, down):  0.000E+00 8.133E-06

     total cpu time spent up to now is     1383.7 secs

     total energy              =   -2121.47690973 Ry
     estimated scf accuracy    <      30.36011799 Ry

     total magnetization       =     8.72 Bohr mag/cell
     absolute magnetization    =    10.24 Bohr mag/cell

     iteration #  3     ecut=   100.00 Ry     beta= 0.40
     Davidson diagonalization with overlap
     ethr =  3.65E-03,  avg # of iterations =  2.5

     negative rho (up, down):  0.000E+00 7.232E-06

     total cpu time spent up to now is     1869.6 secs

     total energy              =   -2123.40599817 Ry
     estimated scf accuracy    <      65.60208068 Ry

     total magnetization       =     2.97 Bohr mag/cell
     absolute magnetization    =     5.85 Bohr mag/cell

     iteration #  4     ecut=   100.00 Ry     beta= 0.40
     Davidson diagonalization with overlap
     ethr =  3.65E-03,  avg # of iterations =  1.5

     negative rho (up, down):  0.000E+00 2.743E-06

     total cpu time spent up to now is     2303.1 secs

     total energy              =   -2124.54030301 Ry
     estimated scf accuracy    <      29.48455440 Ry

     total magnetization       =     9.01 Bohr mag/cell
     absolute magnetization    =     9.43 Bohr mag/cell

     iteration #  5     ecut=   100.00 Ry     beta= 0.40
     Davidson diagonalization with overlap
     ethr =  3.65E-03,  avg # of iterations =  1.9

     negative rho (up, down):  0.000E+00 4.277E-05

     total cpu time spent up to now is     2775.9 secs

     total energy              =   -2125.86606758 Ry
     estimated scf accuracy    <       3.81951951 Ry

     total magnetization       =    17.04 Bohr mag/cell
     absolute magnetization    =    17.12 Bohr mag/cell

     iteration #  6     ecut=   100.00 Ry     beta= 0.40
     Davidson diagonalization with overlap
     ethr =  2.02E-03,  avg # of iterations =  1.5

     negative rho (up, down):  0.000E+00 1.813E-04

     total cpu time spent up to now is     3233.3 secs

     total energy              =   -2126.10343927 Ry
     estimated scf accuracy    <       0.88274583 Ry

     total magnetization       =    19.09 Bohr mag/cell
     absolute magnetization    =    19.09 Bohr mag/cell

     iteration #  7     ecut=   100.00 Ry     beta= 0.40
     Davidson diagonalization with overlap
     ethr =  4.67E-04,  avg # of iterations =  1.2

     negative rho (up, down):  0.000E+00 3.048E-04

     total cpu time spent up to now is     3636.4 secs

     total energy              =   -2126.09821201 Ry
     estimated scf accuracy    <       0.38100192 Ry

     total magnetization       =    19.00 Bohr mag/cell
     absolute magnetization    =    19.00 Bohr mag/cell

     iteration #  8     ecut=   100.00 Ry     beta= 0.40
     Davidson diagonalization with overlap
     ethr =  2.02E-04,  avg # of iterations =  4.5

     negative rho (up, down):  0.000E+00 6.526E-04

     total cpu time spent up to now is     4149.9 secs

     total energy              =   -2126.08862460 Ry
     estimated scf accuracy    <       0.33722373 Ry

     total magnetization       =    19.00 Bohr mag/cell
     absolute magnetization    =    19.00 Bohr mag/cell

     iteration #  9     ecut=   100.00 Ry     beta= 0.40
     Davidson diagonalization with overlap
     ethr =  1.78E-04,  avg # of iterations =  3.6

     negative rho (up, down):  0.000E+00 7.023E-04

     total cpu time spent up to now is     4650.4 secs

     total energy              =   -2126.11351842 Ry
     estimated scf accuracy    <       0.61663294 Ry

     total magnetization       =    19.00 Bohr mag/cell
     absolute magnetization    =    19.02 Bohr mag/cell

     iteration # 10     ecut=   100.00 Ry     beta= 0.40
     Davidson diagonalization with overlap
     ethr =  1.78E-04,  avg # of iterations =  1.1

     negative rho (up, down):  0.000E+00 8.290E-04

     total cpu time spent up to now is     5095.2 secs

     total energy              =   -2126.11214871 Ry
     estimated scf accuracy    <       0.23193193 Ry

     total magnetization       =    19.00 Bohr mag/cell
     absolute magnetization    =    19.02 Bohr mag/cell

     iteration # 11     ecut=   100.00 Ry     beta= 0.40
     Davidson diagonalization with overlap
     ethr =  1.23E-04,  avg # of iterations =  1.5

     negative rho (up, down):  0.000E+00 8.986E-04

     total cpu time spent up to now is     5521.2 secs

     total energy              =   -2126.11791434 Ry
     estimated scf accuracy    <       0.01023097 Ry

     total magnetization       =    19.00 Bohr mag/cell
     absolute magnetization    =    19.02 Bohr mag/cell

     iteration # 12     ecut=   100.00 Ry     beta= 0.40
     Davidson diagonalization with overlap
     c_bands:  1 eigenvalues not converged
     c_bands:  1 eigenvalues not converged
     c_bands:  1 eigenvalues not converged
     c_bands:  1 eigenvalues not converged
     c_bands:  1 eigenvalues not converged
     c_bands:  1 eigenvalues not converged
     c_bands:  1 eigenvalues not converged
     c_bands:  1 eigenvalues not converged
     c_bands:  1 eigenvalues not converged
     c_bands:  1 eigenvalues not converged
     c_bands:  1 eigenvalues not converged
     c_bands:  1 eigenvalues not converged
     c_bands:  1 eigenvalues not converged
     c_bands:  1 eigenvalues not converged
     c_bands:  1 eigenvalues not converged
     c_bands:  1 eigenvalues not converged
     c_bands:  1 eigenvalues not converged
     c_bands:  1 eigenvalues not converged
     c_bands:  1 eigenvalues not converged
     c_bands:  1 eigenvalues not converged
     c_bands:  1 eigenvalues not converged
     c_bands:  1 eigenvalues not converged
     c_bands:  1 eigenvalues not converged
     c_bands:  1 eigenvalues not converged
     c_bands:  1 eigenvalues not converged
     c_bands:  1 eigenvalues not converged
     c_bands:  1 eigenvalues not converged
     c_bands:  1 eigenvalues not converged
     c_bands:  1 eigenvalues not converged
     c_bands:  1 eigenvalues not converged
     c_bands:  1 eigenvalues not converged
     c_bands:  1 eigenvalues not converged
     c_bands:  1 eigenvalues not converged
     c_bands:  1 eigenvalues not converged
     c_bands:  1 eigenvalues not converged
     c_bands:  1 eigenvalues not converged
     c_bands:  1 eigenvalues not converged
     c_bands:  1 eigenvalues not converged
     c_bands:  1 eigenvalues not converged
     c_bands:  1 eigenvalues not converged
     ethr =  5.41E-06,  avg # of iterations = 16.3

     negative rho (up, down):  0.000E+00 9.304E-04

     total cpu time spent up to now is     7218.3 secs

     total energy              =   -2126.12049954 Ry
     estimated scf accuracy    <       0.01834797 Ry

     total magnetization       =    19.00 Bohr mag/cell
     absolute magnetization    =    19.03 Bohr mag/cell

     iteration # 13     ecut=   100.00 Ry     beta= 0.40
     Davidson diagonalization with overlap
     ethr =  5.41E-06,  avg # of iterations =  1.2

     negative rho (up, down):  0.000E+00 9.603E-04

     total cpu time spent up to now is     7699.6 secs

     total energy              =   -2126.12137836 Ry
     estimated scf accuracy    <       0.00538848 Ry

     total magnetization       =    19.00 Bohr mag/cell
     absolute magnetization    =    19.03 Bohr mag/cell

     iteration # 14     ecut=   100.00 Ry     beta= 0.40
     Davidson diagonalization with overlap
     ethr =  2.85E-06,  avg # of iterations =  1.0

     negative rho (up, down):  0.000E+00 9.662E-04

     total cpu time spent up to now is     8237.6 secs

     total energy              =   -2126.12155475 Ry
     estimated scf accuracy    <       0.00243709 Ry

     total magnetization       =    19.00 Bohr mag/cell
     absolute magnetization    =    19.04 Bohr mag/cell

     iteration # 15     ecut=   100.00 Ry     beta= 0.40
     Davidson diagonalization with overlap
     ethr =  1.29E-06,  avg # of iterations =  1.1

     negative rho (up, down):  0.000E+00 9.558E-04

     total cpu time spent up to now is     8641.7 secs

     total energy              =   -2126.12163324 Ry
     estimated scf accuracy    <       0.00113954 Ry

     total magnetization       =    19.00 Bohr mag/cell
     absolute magnetization    =    19.04 Bohr mag/cell

     iteration # 16     ecut=   100.00 Ry     beta= 0.40
     Davidson diagonalization with overlap
     ethr =  6.03E-07,  avg # of iterations =  1.4

     negative rho (up, down):  0.000E+00 9.527E-04

     total cpu time spent up to now is     9118.4 secs

     total energy              =   -2126.12168678 Ry
     estimated scf accuracy    <       0.00004666 Ry

     total magnetization       =    19.00 Bohr mag/cell
     absolute magnetization    =    19.04 Bohr mag/cell

     iteration # 17     ecut=   100.00 Ry     beta= 0.40
     Davidson diagonalization with overlap
     ethr =  2.47E-08,  avg # of iterations =  5.6

     negative rho (up, down):  0.000E+00 9.520E-04

     total cpu time spent up to now is    10264.6 secs

     total energy              =   -2126.12173759 Ry
     estimated scf accuracy    <       0.00008705 Ry

     total magnetization       =    19.00 Bohr mag/cell
     absolute magnetization    =    19.04 Bohr mag/cell

     iteration # 18     ecut=   100.00 Ry     beta= 0.40
     Davidson diagonalization with overlap
     ethr =  2.47E-08,  avg # of iterations =  1.0

     negative rho (up, down):  0.000E+00 9.491E-04

     total cpu time spent up to now is    10687.8 secs

     total energy              =   -2126.12174259 Ry
     estimated scf accuracy    <       0.00002538 Ry

     total magnetization       =    19.00 Bohr mag/cell
     absolute magnetization    =    19.04 Bohr mag/cell

     iteration # 19     ecut=   100.00 Ry     beta= 0.40
     Davidson diagonalization with overlap
     ethr =  1.34E-08,  avg # of iterations =  2.0

     negative rho (up, down):  0.000E+00 9.480E-04

     total cpu time spent up to now is    11160.5 secs

     total energy              =   -2126.12174570 Ry
     estimated scf accuracy    <       0.00001407 Ry

     total magnetization       =    19.00 Bohr mag/cell
     absolute magnetization    =    19.04 Bohr mag/cell

     iteration # 20     ecut=   100.00 Ry     beta= 0.40
     Davidson diagonalization with overlap
     ethr =  7.44E-09,  avg # of iterations =  1.0

     negative rho (up, down):  0.000E+00 9.484E-04

     total cpu time spent up to now is    11613.0 secs

     total energy              =   -2126.12174643 Ry
     estimated scf accuracy    <       0.00000681 Ry

     total magnetization       =    19.00 Bohr mag/cell
     absolute magnetization    =    19.04 Bohr mag/cell

     iteration # 21     ecut=   100.00 Ry     beta= 0.40
     Davidson diagonalization with overlap
     ethr =  3.60E-09,  avg # of iterations =  1.0

     negative rho (up, down):  0.000E+00 9.490E-04

     total cpu time spent up to now is    12406.2 secs

     total energy              =   -2126.12174685 Ry
     estimated scf accuracy    <       0.00000103 Ry

     total magnetization       =    19.00 Bohr mag/cell
     absolute magnetization    =    19.04 Bohr mag/cell

     iteration # 22     ecut=   100.00 Ry     beta= 0.40
     Davidson diagonalization with overlap
     ethr =  5.45E-10,  avg # of iterations =  2.7

     negative rho (up, down):  0.000E+00 9.492E-04

     total cpu time spent up to now is    12934.2 secs

     total energy              =   -2126.12174731 Ry
     estimated scf accuracy    <       0.00000028 Ry

     total magnetization       =    19.00 Bohr mag/cell
     absolute magnetization    =    19.04 Bohr mag/cell

     iteration # 23     ecut=   100.00 Ry     beta= 0.40
     Davidson diagonalization with overlap
     ethr =  1.50E-10,  avg # of iterations =  3.8

     negative rho (up, down):  0.000E+00 9.494E-04

     total cpu time spent up to now is    13521.3 secs

     total energy              =   -2126.12174746 Ry
     estimated scf accuracy    <       0.00000128 Ry

     total magnetization       =    19.00 Bohr mag/cell
     absolute magnetization    =    19.04 Bohr mag/cell

     iteration # 24     ecut=   100.00 Ry     beta= 0.40
     Davidson diagonalization with overlap
     ethr =  1.50E-10,  avg # of iterations =  1.7

     negative rho (up, down):  0.000E+00 9.496E-04

     total cpu time spent up to now is    13961.9 secs

     total energy              =   -2126.12174752 Ry
     estimated scf accuracy    <       0.00000035 Ry

     total magnetization       =    19.00 Bohr mag/cell
     absolute magnetization    =    19.04 Bohr mag/cell

     iteration # 25     ecut=   100.00 Ry     beta= 0.40
     Davidson diagonalization with overlap
     ethr =  1.50E-10,  avg # of iterations =  2.0

     negative rho (up, down):  0.000E+00 9.495E-04

     total cpu time spent up to now is    14431.7 secs

     total energy              =   -2126.12174756 Ry
     estimated scf accuracy    <       0.00000011 Ry

     total magnetization       =    19.00 Bohr mag/cell
     absolute magnetization    =    19.04 Bohr mag/cell

     iteration # 26     ecut=   100.00 Ry     beta= 0.40
     Davidson diagonalization with overlap
     ethr =  5.60E-11,  avg # of iterations =  2.0

     negative rho (up, down):  0.000E+00 9.495E-04

     total cpu time spent up to now is    14918.3 secs

     total energy              =   -2126.12174759 Ry
     estimated scf accuracy    <       0.00000026 Ry

     total magnetization       =    19.00 Bohr mag/cell
     absolute magnetization    =    19.04 Bohr mag/cell

     iteration # 27     ecut=   100.00 Ry     beta= 0.40
     Davidson diagonalization with overlap
     ethr =  5.60E-11,  avg # of iterations =  1.3

     negative rho (up, down):  0.000E+00 9.494E-04

     total cpu time spent up to now is    15329.1 secs

     total energy              =   -2126.12174759 Ry
     estimated scf accuracy    <       0.00000001 Ry

     total magnetization       =    19.00 Bohr mag/cell
     absolute magnetization    =    19.04 Bohr mag/cell

     iteration # 28     ecut=   100.00 Ry     beta= 0.40
     Davidson diagonalization with overlap
     ethr =  6.42E-12,  avg # of iterations =  3.5

     negative rho (up, down):  0.000E+00 9.493E-04

     total cpu time spent up to now is    15948.5 secs

     total energy              =   -2126.12174761 Ry
     estimated scf accuracy    <       0.00000008 Ry

     total magnetization       =    19.00 Bohr mag/cell
     absolute magnetization    =    19.04 Bohr mag/cell

     iteration # 29     ecut=   100.00 Ry     beta= 0.40
     Davidson diagonalization with overlap
     ethr =  6.42E-12,  avg # of iterations =  2.0

     negative rho (up, down):  0.000E+00 9.493E-04

     total cpu time spent up to now is    16452.5 secs

     total energy              =   -2126.12174761 Ry
     estimated scf accuracy    <       0.00000002 Ry

     total magnetization       =    19.00 Bohr mag/cell
     absolute magnetization    =    19.04 Bohr mag/cell

     iteration # 30     ecut=   100.00 Ry     beta= 0.40
     Davidson diagonalization with overlap
     ethr =  6.42E-12,  avg # of iterations =  2.0

     negative rho (up, down):  0.000E+00 9.493E-04

     total cpu time spent up to now is    16908.1 secs

     total energy              =   -2126.12174762 Ry
     estimated scf accuracy    <          2.7E-09 Ry

     total magnetization       =    19.00 Bohr mag/cell
     absolute magnetization    =    19.04 Bohr mag/cell

     iteration # 31     ecut=   100.00 Ry     beta= 0.40
     Davidson diagonalization with overlap
     ethr =  1.41E-12,  avg # of iterations =  2.1

     negative rho (up, down):  0.000E+00 9.493E-04

     total cpu time spent up to now is    17390.1 secs

     total energy              =   -2126.12174762 Ry
     estimated scf accuracy    <          1.2E-09 Ry

     total magnetization       =    19.00 Bohr mag/cell
     absolute magnetization    =    19.04 Bohr mag/cell

     iteration # 32     ecut=   100.00 Ry     beta= 0.40
     Davidson diagonalization with overlap
     ethr =  6.36E-13,  avg # of iterations =  2.4

     negative rho (up, down):  0.000E+00 9.493E-04

     total cpu time spent up to now is    17875.0 secs

     total energy              =   -2126.12174762 Ry
     estimated scf accuracy    <          4.8E-10 Ry

     total magnetization       =    19.00 Bohr mag/cell
     absolute magnetization    =    19.04 Bohr mag/cell

     iteration # 33     ecut=   100.00 Ry     beta= 0.40
     Davidson diagonalization with overlap
     ethr =  2.56E-13,  avg # of iterations =  2.9

     negative rho (up, down):  0.000E+00 9.493E-04

     Magnetic moment per site:
     atom:    1    charge:    7.9350    magn:    0.0016    constr:    0.0000
     atom:    2    charge:   12.8778    magn:    3.6718    constr:    0.0000
     atom:    3    charge:   12.9125    magn:    3.5724    constr:    0.0000
     atom:    4    charge:   12.8800    magn:    3.6635    constr:    0.0000
     atom:    5    charge:   12.8946    magn:    3.6180    constr:    0.0000
     atom:    6    charge:    0.8432    magn:    0.0112    constr:    0.0000
     atom:    7    charge:    0.8389    magn:    0.0129    constr:    0.0000
     atom:    8    charge:    0.8468    magn:    0.0109    constr:    0.0000
     atom:    9    charge:    0.8375    magn:    0.0122    constr:    0.0000
     atom:   10    charge:    4.2533    magn:    0.1191    constr:    0.0000
     atom:   11    charge:    4.2557    magn:    0.1111    constr:    0.0000
     atom:   12    charge:    4.2692    magn:    0.0994    constr:    0.0000
     atom:   13    charge:    4.2554    magn:    0.1169    constr:    0.0000
     atom:   14    charge:    4.2463    magn:    0.1204    constr:    0.0000
     atom:   15    charge:    4.2469    magn:    0.0929    constr:    0.0000
     atom:   16    charge:    4.2506    magn:    0.1235    constr:    0.0000
     atom:   17    charge:    4.2455    magn:    0.1003    constr:    0.0000
     atom:   18    charge:    4.2451    magn:    0.1300    constr:    0.0000
     atom:   19    charge:    4.2365    magn:    0.1443    constr:    0.0000
     atom:   20    charge:    4.2456    magn:    0.1183    constr:    0.0000
     atom:   21    charge:    4.2278    magn:    0.1509    constr:    0.0000
     atom:   22    charge:    4.2368    magn:    0.1286    constr:    0.0000
     atom:   23    charge:    4.2345    magn:    0.1502    constr:    0.0000
     atom:   24    charge:    4.2420    magn:    0.1110    constr:    0.0000
     atom:   25    charge:    4.2357    magn:    0.1512    constr:    0.0000

     total cpu time spent up to now is    18365.9 secs

     End of self-consistent calculation

 ------ SPIN UP ------------


          k = 0.0000 0.0000 0.0000 ( 36463 PWs)   bands (ev):

   -85.3190 -85.3123 -85.0112 -84.8499 -51.4035 -51.3664 -51.2892 -51.2752
   -51.2501 -51.2490 -51.1995 -51.1153 -50.9802 -50.8476 -50.8117 -50.6413
   -44.5508 -16.6854 -16.5552 -16.5239 -16.2715 -16.0639 -15.9884 -15.7374
   -13.9267 -13.7569 -13.6473 -13.6307 -13.5810 -13.5602 -13.5221 -13.4886
   -13.4248 -13.4143 -13.3620 -13.3429  -4.2604  -3.8365  -3.6390  -3.3586
    -2.3060  -2.1381  -1.9705  -1.7942  -1.6620  -1.4057  -1.3833  -1.2505
    -1.0961  -1.0517  -1.0140  -0.8999  -0.2193  -0.1637   0.1997   0.3354
     0.3574   0.4023   0.4129   0.5692   0.6071   0.7304   0.7567   0.8756
     1.1935   1.2563   1.3795   1.4528   1.5198   1.6576   1.8161   1.8266
     1.9456   1.9942   2.0231   2.1385   2.2702   2.3900   2.4067   2.5378
     2.6104   2.6631   2.7356   2.8058   2.9952   3.0086   3.0667   3.2358
     3.3327   3.3550   3.4180   3.4829   3.6236   3.6497   3.7447   3.7734
     3.9850   4.0994   4.1567   4.1891   4.3724   4.5200   4.8834   5.0006
     9.1037  11.0522  11.4741  11.9879  12.1441  13.0921  13.1587  13.3068
    13.3593  13.4587

     occupation numbers 
     1.0000   1.0000   1.0000   1.0000   1.0000   1.0000   1.0000   1.0000
     1.0000   1.0000   1.0000   1.0000   1.0000   1.0000   1.0000   1.0000
     1.0000   1.0000   1.0000   1.0000   1.0000   1.0000   1.0000   1.0000
     1.0000   1.0000   1.0000   1.0000   1.0000   1.0000   1.0000   1.0000
     1.0000   1.0000   1.0000   1.0000   1.0000   1.0000   1.0000   1.0000
     1.0000   1.0000   1.0000   1.0000   1.0000   1.0000   1.0000   1.0000
     1.0000   1.0000   1.0000   1.0000   1.0000   1.0000   1.0000   1.0000
     1.0000   1.0000   1.0000   1.0000   1.0000   1.0000   1.0000   1.0000
     1.0000   1.0000   1.0000   1.0000   1.0000   1.0000   1.0000   1.0000
     1.0000   1.0000   1.0000   1.0000   1.0000   1.0000   1.0000   1.0000
     1.0000   1.0000   1.0000   1.0000   1.0000   1.0000   1.0000   1.0000
     1.0000   1.0000   1.0000   1.0000   1.0000   1.0000   1.0000   1.0000
     1.0000   1.0000   1.0000   1.0000   1.0000   1.0000   1.0000   1.0000
     0.0000   0.0000   0.0000   0.0000   0.0000   0.0000   0.0000   0.0000
     0.0000   0.0000

          k = 0.0000 0.0000 0.2337 ( 36493 PWs)   bands (ev):

   -85.3190 -85.3123 -85.0112 -84.8499 -51.4035 -51.3664 -51.2892 -51.2752
   -51.2501 -51.2490 -51.1995 -51.1153 -50.9802 -50.8476 -50.8117 -50.6413
   -44.5508 -16.6873 -16.5570 -16.5277 -16.2568 -16.0518 -15.9787 -15.7380
   -13.9352 -13.7712 -13.6490 -13.6309 -13.5932 -13.5602 -13.5265 -13.4900
   -13.4282 -13.4138 -13.3738 -13.3385  -4.2317  -3.8289  -3.6297  -3.3542
    -2.2704  -2.1320  -1.9622  -1.7776  -1.6590  -1.4075  -1.3824  -1.2145
    -1.1152  -1.0446  -1.0058  -0.8970  -0.2128  -0.1477   0.1804   0.3353
     0.3522   0.3916   0.4343   0.5612   0.6120   0.7087   0.7566   0.8938
     1.1548   1.2615   1.3818   1.4504   1.5058   1.6466   1.7874   1.8093
     1.9479   1.9646   2.0408   2.1443   2.2586   2.3429   2.4036   2.5557
     2.5950   2.6521   2.7339   2.8383   2.9695   2.9887   3.0697   3.2137
     3.3042   3.3601   3.4133   3.4890   3.6082   3.6770   3.7475   3.8222
     3.9789   4.0692   4.1433   4.2236   4.3602   4.5134   4.8765   4.9895
     9.2483  11.1256  11.5291  11.9968  12.2058  12.9843  13.0821  13.2438
    13.3169  13.4875

     occupation numbers 
     1.0000   1.0000   1.0000   1.0000   1.0000   1.0000   1.0000   1.0000
     1.0000   1.0000   1.0000   1.0000   1.0000   1.0000   1.0000   1.0000
     1.0000   1.0000   1.0000   1.0000   1.0000   1.0000   1.0000   1.0000
     1.0000   1.0000   1.0000   1.0000   1.0000   1.0000   1.0000   1.0000
     1.0000   1.0000   1.0000   1.0000   1.0000   1.0000   1.0000   1.0000
     1.0000   1.0000   1.0000   1.0000   1.0000   1.0000   1.0000   1.0000
     1.0000   1.0000   1.0000   1.0000   1.0000   1.0000   1.0000   1.0000
     1.0000   1.0000   1.0000   1.0000   1.0000   1.0000   1.0000   1.0000
     1.0000   1.0000   1.0000   1.0000   1.0000   1.0000   1.0000   1.0000
     1.0000   1.0000   1.0000   1.0000   1.0000   1.0000   1.0000   1.0000
     1.0000   1.0000   1.0000   1.0000   1.0000   1.0000   1.0000   1.0000
     1.0000   1.0000   1.0000   1.0000   1.0000   1.0000   1.0000   1.0000
     1.0000   1.0000   1.0000   1.0000   1.0000   1.0000   1.0000   1.0000
     0.0000   0.0000   0.0000   0.0000   0.0000   0.0000   0.0000   0.0000
     0.0000   0.0000

          k = 0.0000 0.0000 0.4675 ( 36542 PWs)   bands (ev):

   -85.3190 -85.3123 -85.0112 -84.8499 -51.4035 -51.3664 -51.2892 -51.2752
   -51.2501 -51.2490 -51.1995 -51.1153 -50.9802 -50.8476 -50.8117 -50.6413
   -44.5508 -16.6929 -16.5619 -16.5330 -16.2224 -16.0189 -15.9524 -15.7422
   -13.9571 -13.8075 -13.6600 -13.6355 -13.6150 -13.5667 -13.5331 -13.4938
   -13.4389 -13.4150 -13.3864 -13.3371  -4.1539  -3.8106  -3.6050  -3.3567
    -2.1836  -2.1100  -1.9229  -1.7529  -1.6525  -1.4059  -1.3744  -1.1977
    -1.1048  -1.0169  -0.9762  -0.8826  -0.1927  -0.1117   0.1600   0.2801
     0.3616   0.4113   0.4755   0.5118   0.6244   0.7142   0.7538   0.9282
     1.1084   1.2302   1.3620   1.4389   1.4706   1.5967   1.7420   1.7849
     1.8315   1.9699   2.0201   2.1139   2.2446   2.3227   2.3747   2.4894
     2.6044   2.6751   2.7030   2.8597   2.8938   2.9262   3.0997   3.1823
     3.2881   3.3492   3.4272   3.5066   3.6267   3.7241   3.7745   3.8746
     3.9578   4.0713   4.1180   4.2682   4.3400   4.4952   4.8537   4.9604
     9.6377  11.3220  11.6390  12.0743  12.3525  12.7749  12.9395  12.9935
    13.2245  13.3239

     occupation numbers 
     1.0000   1.0000   1.0000   1.0000   1.0000   1.0000   1.0000   1.0000
     1.0000   1.0000   1.0000   1.0000   1.0000   1.0000   1.0000   1.0000
     1.0000   1.0000   1.0000   1.0000   1.0000   1.0000   1.0000   1.0000
     1.0000   1.0000   1.0000   1.0000   1.0000   1.0000   1.0000   1.0000
     1.0000   1.0000   1.0000   1.0000   1.0000   1.0000   1.0000   1.0000
     1.0000   1.0000   1.0000   1.0000   1.0000   1.0000   1.0000   1.0000
     1.0000   1.0000   1.0000   1.0000   1.0000   1.0000   1.0000   1.0000
     1.0000   1.0000   1.0000   1.0000   1.0000   1.0000   1.0000   1.0000
     1.0000   1.0000   1.0000   1.0000   1.0000   1.0000   1.0000   1.0000
     1.0000   1.0000   1.0000   1.0000   1.0000   1.0000   1.0000   1.0000
     1.0000   1.0000   1.0000   1.0000   1.0000   1.0000   1.0000   1.0000
     1.0000   1.0000   1.0000   1.0000   1.0000   1.0000   1.0000   1.0000
     1.0000   1.0000   1.0000   1.0000   1.0000   1.0000   1.0000   1.0000
     0.0000   0.0000   0.0000   0.0000   0.0000   0.0000   0.0000   0.0000
     0.0000   0.0000

          k = 0.0000 0.0000 0.7012 ( 36506 PWs)   bands (ev):

   -85.3190 -85.3123 -85.0112 -84.8499 -51.4035 -51.3664 -51.2892 -51.2752
   -51.2501 -51.2490 -51.1995 -51.1153 -50.9802 -50.8476 -50.8117 -50.6413
   -44.5508 -16.7009 -16.5663 -16.5349 -16.1869 -15.9776 -15.9166 -15.7547
   -13.9826 -13.8491 -13.6942 -13.6411 -13.6215 -13.5812 -13.5350 -13.5041
   -13.4479 -13.4152 -13.3888 -13.3407  -4.0524  -3.7922  -3.5738  -3.3876
    -2.1474  -2.0156  -1.8551  -1.7411  -1.6424  -1.4054  -1.3617  -1.2575
    -1.0615  -0.9829  -0.9208  -0.8145  -0.1581  -0.0744   0.1574   0.2546
     0.3688   0.4129   0.4340   0.5466   0.6941   0.7323   0.7791   0.9241
     1.0711   1.1770   1.2941   1.3812   1.4476   1.5136   1.6376   1.6891
     1.7803   1.8525   2.0512   2.1304   2.2001   2.2919   2.3831   2.4380
     2.5313   2.6554   2.7269   2.7444   2.8281   2.9636   3.1004   3.1972
     3.2475   3.3239   3.4827   3.5599   3.7051   3.7557   3.8099   3.8936
     3.9333   4.0942   4.1357   4.3066   4.3328   4.4689   4.8193   4.9196
    10.1781  11.5563  11.6861  12.2145  12.3795  12.6203  12.7574  12.8641
    13.0582  13.1925

     occupation numbers 
     1.0000   1.0000   1.0000   1.0000   1.0000   1.0000   1.0000   1.0000
     1.0000   1.0000   1.0000   1.0000   1.0000   1.0000   1.0000   1.0000
     1.0000   1.0000   1.0000   1.0000   1.0000   1.0000   1.0000   1.0000
     1.0000   1.0000   1.0000   1.0000   1.0000   1.0000   1.0000   1.0000
     1.0000   1.0000   1.0000   1.0000   1.0000   1.0000   1.0000   1.0000
     1.0000   1.0000   1.0000   1.0000   1.0000   1.0000   1.0000   1.0000
     1.0000   1.0000   1.0000   1.0000   1.0000   1.0000   1.0000   1.0000
     1.0000   1.0000   1.0000   1.0000   1.0000   1.0000   1.0000   1.0000
     1.0000   1.0000   1.0000   1.0000   1.0000   1.0000   1.0000   1.0000
     1.0000   1.0000   1.0000   1.0000   1.0000   1.0000   1.0000   1.0000
     1.0000   1.0000   1.0000   1.0000   1.0000   1.0000   1.0000   1.0000
     1.0000   1.0000   1.0000   1.0000   1.0000   1.0000   1.0000   1.0000
     1.0000   1.0000   1.0000   1.0000   1.0000   1.0000   1.0000   1.0000
     0.0000   0.0000   0.0000   0.0000   0.0000   0.0000   0.0000   0.0000
     0.0000   0.0000

          k = 0.0000 0.0000 0.9349 ( 36496 PWs)   bands (ev):

   -85.3190 -85.3123 -85.0112 -84.8499 -51.4035 -51.3664 -51.2892 -51.2752
   -51.2501 -51.2490 -51.1995 -51.1153 -50.9802 -50.8476 -50.8117 -50.6413
   -44.5508 -16.7068 -16.5681 -16.5351 -16.1653 -15.9492 -15.8828 -15.7735
   -13.9991 -13.8767 -13.7235 -13.6431 -13.6228 -13.5939 -13.5363 -13.5120
   -13.4501 -13.4123 -13.3891 -13.3449  -3.9728  -3.7830  -3.5452  -3.4339
    -2.1431  -1.9379  -1.7953  -1.7371  -1.6259  -1.4264  -1.3536  -1.2773
    -1.0791  -0.9694  -0.8466  -0.7440  -0.1065  -0.0532   0.1595   0.2537
     0.3201   0.4032   0.4635   0.6535   0.7207   0.7920   0.8151   0.9080
     0.9608   1.0838   1.1980   1.2998   1.4416   1.4772   1.5928   1.6285
     1.7034   1.8678   2.0400   2.0727   2.1823   2.3006   2.3402   2.4551
     2.5132   2.6195   2.6687   2.7063   2.8181   2.9882   3.0879   3.1561
     3.2485   3.3420   3.5174   3.6270   3.6994   3.7986   3.8271   3.9017
     3.9643   4.0824   4.1798   4.3115   4.3743   4.4319   4.7961   4.8797
    10.7721  11.3428  11.8590  12.1017  12.3993  12.6266  12.7536  12.8795
    12.9621  13.0382

     occupation numbers 
     1.0000   1.0000   1.0000   1.0000   1.0000   1.0000   1.0000   1.0000
     1.0000   1.0000   1.0000   1.0000   1.0000   1.0000   1.0000   1.0000
     1.0000   1.0000   1.0000   1.0000   1.0000   1.0000   1.0000   1.0000
     1.0000   1.0000   1.0000   1.0000   1.0000   1.0000   1.0000   1.0000
     1.0000   1.0000   1.0000   1.0000   1.0000   1.0000   1.0000   1.0000
     1.0000   1.0000   1.0000   1.0000   1.0000   1.0000   1.0000   1.0000
     1.0000   1.0000   1.0000   1.0000   1.0000   1.0000   1.0000   1.0000
     1.0000   1.0000   1.0000   1.0000   1.0000   1.0000   1.0000   1.0000
     1.0000   1.0000   1.0000   1.0000   1.0000   1.0000   1.0000   1.0000
     1.0000   1.0000   1.0000   1.0000   1.0000   1.0000   1.0000   1.0000
     1.0000   1.0000   1.0000   1.0000   1.0000   1.0000   1.0000   1.0000
     1.0000   1.0000   1.0000   1.0000   1.0000   1.0000   1.0000   1.0000
     1.0000   1.0000   1.0000   1.0000   1.0000   1.0000   1.0000   1.0000
     0.0000   0.0000   0.0000   0.0000   0.0000   0.0000   0.0000   0.0000
     0.0000   0.0000

          k = 0.0000 0.2391 0.0000 ( 36485 PWs)   bands (ev):

   -85.3190 -85.3123 -85.0112 -84.8499 -51.4035 -51.3664 -51.2892 -51.2752
   -51.2501 -51.2490 -51.1995 -51.1153 -50.9802 -50.8476 -50.8117 -50.6413
   -44.5508 -16.6883 -16.5560 -16.5236 -16.2550 -16.0592 -15.9848 -15.7535
   -13.9291 -13.7630 -13.6661 -13.6412 -13.5989 -13.5477 -13.5197 -13.4838
   -13.4155 -13.4006 -13.3652 -13.3398  -4.2346  -3.8375  -3.6324  -3.3607
    -2.2752  -2.1096  -1.9736  -1.7961  -1.6316  -1.4011  -1.3660  -1.2418
    -1.1214  -1.0487  -0.9853  -0.8854  -0.2223  -0.1660   0.1815   0.2363
     0.3108   0.3509   0.4461   0.5385   0.6385   0.6857   0.8686   0.9643
     1.1736   1.2487   1.3677   1.4411   1.5050   1.5981   1.7415   1.7979
     1.9253   1.9659   2.0424   2.1123   2.2972   2.4159   2.4599   2.5392
     2.6329   2.6614   2.7256   2.7986   2.9021   2.9724   3.0904   3.2103
     3.3117   3.3613   3.3816   3.5202   3.6238   3.6761   3.7433   3.7776
     3.9622   4.0596   4.1751   4.2252   4.3094   4.6200   4.9158   5.0037
     9.2591  11.1300  11.5619  11.8930  12.1763  13.0509  13.1977  13.2399
    13.3188  13.5023

     occupation numbers 
     1.0000   1.0000   1.0000   1.0000   1.0000   1.0000   1.0000   1.0000
     1.0000   1.0000   1.0000   1.0000   1.0000   1.0000   1.0000   1.0000
     1.0000   1.0000   1.0000   1.0000   1.0000   1.0000   1.0000   1.0000
     1.0000   1.0000   1.0000   1.0000   1.0000   1.0000   1.0000   1.0000
     1.0000   1.0000   1.0000   1.0000   1.0000   1.0000   1.0000   1.0000
     1.0000   1.0000   1.0000   1.0000   1.0000   1.0000   1.0000   1.0000
     1.0000   1.0000   1.0000   1.0000   1.0000   1.0000   1.0000   1.0000
     1.0000   1.0000   1.0000   1.0000   1.0000   1.0000   1.0000   1.0000
     1.0000   1.0000   1.0000   1.0000   1.0000   1.0000   1.0000   1.0000
     1.0000   1.0000   1.0000   1.0000   1.0000   1.0000   1.0000   1.0000
     1.0000   1.0000   1.0000   1.0000   1.0000   1.0000   1.0000   1.0000
     1.0000   1.0000   1.0000   1.0000   1.0000   1.0000   1.0000   1.0000
     1.0000   1.0000   1.0000   1.0000   1.0000   1.0000   1.0000   1.0000
     0.0000   0.0000   0.0000   0.0000   0.0000   0.0000   0.0000   0.0000
     0.0000   0.0000

          k = 0.0000 0.2391 0.2337 ( 36495 PWs)   bands (ev):

   -85.3190 -85.3123 -85.0112 -84.8499 -51.4035 -51.3664 -51.2892 -51.2752
   -51.2501 -51.2490 -51.1995 -51.1153 -50.9802 -50.8476 -50.8117 -50.6413
   -44.5508 -16.6856 -16.5589 -16.5270 -16.2453 -16.0510 -15.9806 -15.7424
   -13.9367 -13.7762 -13.6715 -13.6411 -13.6129 -13.5495 -13.5104 -13.4851
   -13.4274 -13.4095 -13.3650 -13.3395  -4.2073  -3.8278  -3.6219  -3.3543
    -2.2451  -2.1039  -1.9752  -1.7713  -1.6232  -1.3963  -1.3428  -1.2104
    -1.1132  -1.0556  -0.9976  -0.9014  -0.2265  -0.1579   0.1450   0.2613
     0.3310   0.3864   0.4282   0.5195   0.6123   0.6538   0.9086   0.9485
     1.1145   1.2387   1.3790   1.4399   1.4699   1.5883   1.7543   1.8696
     1.9411   1.9979   2.0509   2.1223   2.2534   2.3925   2.4151   2.5212
     2.6107   2.6605   2.6734   2.7987   2.8840   2.9825   3.0599   3.2150
     3.2725   3.3533   3.4024   3.4975   3.6149   3.6741   3.7587   3.8185
     3.9630   4.0555   4.1501   4.2807   4.3177   4.6147   4.8877   5.0048
     9.3983  11.2118  11.6257  11.9111  12.1997  12.9697  13.1603  13.2121
    13.3062  13.4276

     occupation numbers 
     1.0000   1.0000   1.0000   1.0000   1.0000   1.0000   1.0000   1.0000
     1.0000   1.0000   1.0000   1.0000   1.0000   1.0000   1.0000   1.0000
     1.0000   1.0000   1.0000   1.0000   1.0000   1.0000   1.0000   1.0000
     1.0000   1.0000   1.0000   1.0000   1.0000   1.0000   1.0000   1.0000
     1.0000   1.0000   1.0000   1.0000   1.0000   1.0000   1.0000   1.0000
     1.0000   1.0000   1.0000   1.0000   1.0000   1.0000   1.0000   1.0000
     1.0000   1.0000   1.0000   1.0000   1.0000   1.0000   1.0000   1.0000
     1.0000   1.0000   1.0000   1.0000   1.0000   1.0000   1.0000   1.0000
     1.0000   1.0000   1.0000   1.0000   1.0000   1.0000   1.0000   1.0000
     1.0000   1.0000   1.0000   1.0000   1.0000   1.0000   1.0000   1.0000
     1.0000   1.0000   1.0000   1.0000   1.0000   1.0000   1.0000   1.0000
     1.0000   1.0000   1.0000   1.0000   1.0000   1.0000   1.0000   1.0000
     1.0000   1.0000   1.0000   1.0000   1.0000   1.0000   1.0000   1.0000
     0.0000   0.0000   0.0000   0.0000   0.0000   0.0000   0.0000   0.0000
     0.0000   0.0000

          k = 0.0000 0.2391 0.4675 ( 36500 PWs)   bands (ev):

   -85.3190 -85.3123 -85.0112 -84.8499 -51.4035 -51.3664 -51.2892 -51.2752
   -51.2501 -51.2490 -51.1995 -51.1153 -50.9802 -50.8476 -50.8117 -50.6413
   -44.5508 -16.6876 -16.5649 -16.5323 -16.2141 -16.0227 -15.9605 -15.7340
   -13.9582 -13.8094 -13.6894 -13.6516 -13.6277 -13.5575 -13.5056 -13.4877
   -13.4480 -13.4157 -13.3763 -13.3345  -4.1311  -3.8057  -3.6002  -3.3499
    -2.1658  -2.0887  -1.9339  -1.7400  -1.6150  -1.3868  -1.3145  -1.1841
    -1.1208  -1.0403  -0.9859  -0.8817  -0.2212  -0.1325   0.1205   0.2808
     0.3298   0.3806   0.4685   0.5253   0.5449   0.6704   0.9194   0.9478
     1.0554   1.2306   1.3285   1.4272   1.4440   1.5503   1.7230   1.8379
     1.9253   2.0116   2.0625   2.1132   2.2191   2.3295   2.3451   2.4685
     2.6010   2.6532   2.6866   2.7732   2.8347   2.9268   3.0426   3.1801
     3.2600   3.3613   3.4157   3.4967   3.5767   3.7331   3.8027   3.8786
     3.9626   4.0312   4.1312   4.3139   4.3587   4.5935   4.8531   4.9871
     9.7744  11.4088  11.7364  11.9935  12.3398  12.7939  12.9730  13.0619
    13.1652  13.2891

     occupation numbers 
     1.0000   1.0000   1.0000   1.0000   1.0000   1.0000   1.0000   1.0000
     1.0000   1.0000   1.0000   1.0000   1.0000   1.0000   1.0000   1.0000
     1.0000   1.0000   1.0000   1.0000   1.0000   1.0000   1.0000   1.0000
     1.0000   1.0000   1.0000   1.0000   1.0000   1.0000   1.0000   1.0000
     1.0000   1.0000   1.0000   1.0000   1.0000   1.0000   1.0000   1.0000
     1.0000   1.0000   1.0000   1.0000   1.0000   1.0000   1.0000   1.0000
     1.0000   1.0000   1.0000   1.0000   1.0000   1.0000   1.0000   1.0000
     1.0000   1.0000   1.0000   1.0000   1.0000   1.0000   1.0000   1.0000
     1.0000   1.0000   1.0000   1.0000   1.0000   1.0000   1.0000   1.0000
     1.0000   1.0000   1.0000   1.0000   1.0000   1.0000   1.0000   1.0000
     1.0000   1.0000   1.0000   1.0000   1.0000   1.0000   1.0000   1.0000
     1.0000   1.0000   1.0000   1.0000   1.0000   1.0000   1.0000   1.0000
     1.0000   1.0000   1.0000   1.0000   1.0000   1.0000   1.0000   1.0000
     0.0000   0.0000   0.0000   0.0000   0.0000   0.0000   0.0000   0.0000
     0.0000   0.0000

          k = 0.0000 0.2391 0.7012 ( 36515 PWs)   bands (ev):

   -85.3190 -85.3123 -85.0112 -84.8499 -51.4035 -51.3664 -51.2892 -51.2752
   -51.2501 -51.2490 -51.1995 -51.1153 -50.9802 -50.8476 -50.8117 -50.6413
   -44.5508 -16.6946 -16.5695 -16.5345 -16.1786 -15.9842 -15.9319 -15.7357
   -13.9842 -13.8486 -13.7194 -13.6699 -13.6343 -13.5650 -13.5068 -13.4951
   -13.4603 -13.4195 -13.3814 -13.3338  -4.0304  -3.7833  -3.5772  -3.3698
    -2.1303  -2.0035  -1.8590  -1.7268  -1.6072  -1.3750  -1.3089  -1.2472
    -1.1095  -0.9834  -0.9332  -0.8099  -0.1955  -0.1150   0.1235   0.2702
     0.3488   0.3730   0.4502   0.4925   0.6696   0.7254   0.8845   0.9424
     1.0254   1.1944   1.2556   1.3872   1.4112   1.5038   1.6595   1.7284
     1.8264   1.9064   2.0358   2.1267   2.1914   2.2914   2.3454   2.3998
     2.5702   2.6298   2.6802   2.7637   2.8251   2.8809   3.0240   3.1943
     3.2440   3.3241   3.4194   3.5399   3.6315   3.7723   3.8462   3.9017
     3.9757   4.0133   4.1560   4.3150   4.4243   4.5572   4.8190   4.9568
    10.3008  11.6558  11.7466  12.1468  12.4407  12.6431  12.7822  12.8819
    13.0220  13.1472

     occupation numbers 
     1.0000   1.0000   1.0000   1.0000   1.0000   1.0000   1.0000   1.0000
     1.0000   1.0000   1.0000   1.0000   1.0000   1.0000   1.0000   1.0000
     1.0000   1.0000   1.0000   1.0000   1.0000   1.0000   1.0000   1.0000
     1.0000   1.0000   1.0000   1.0000   1.0000   1.0000   1.0000   1.0000
     1.0000   1.0000   1.0000   1.0000   1.0000   1.0000   1.0000   1.0000
     1.0000   1.0000   1.0000   1.0000   1.0000   1.0000   1.0000   1.0000
     1.0000   1.0000   1.0000   1.0000   1.0000   1.0000   1.0000   1.0000
     1.0000   1.0000   1.0000   1.0000   1.0000   1.0000   1.0000   1.0000
     1.0000   1.0000   1.0000   1.0000   1.0000   1.0000   1.0000   1.0000
     1.0000   1.0000   1.0000   1.0000   1.0000   1.0000   1.0000   1.0000
     1.0000   1.0000   1.0000   1.0000   1.0000   1.0000   1.0000   1.0000
     1.0000   1.0000   1.0000   1.0000   1.0000   1.0000   1.0000   1.0000
     1.0000   1.0000   1.0000   1.0000   1.0000   1.0000   1.0000   1.0000
     0.0000   0.0000   0.0000   0.0000   0.0000   0.0000   0.0000   0.0000
     0.0000   0.0000

          k = 0.0000 0.2391 0.9349 ( 36488 PWs)   bands (ev):

   -85.3190 -85.3123 -85.0112 -84.8499 -51.4035 -51.3664 -51.2892 -51.2752
   -51.2501 -51.2490 -51.1995 -51.1153 -50.9802 -50.8476 -50.8117 -50.6413
   -44.5508 -16.7025 -16.5703 -16.5349 -16.1560 -15.9541 -15.8996 -15.7542
   -14.0009 -13.8761 -13.7433 -13.6765 -13.6389 -13.5721 -13.5214 -13.5013
   -13.4558 -13.4180 -13.3807 -13.3356  -3.9510  -3.7716  -3.5527  -3.4132
    -2.1202  -1.9255  -1.7943  -1.7290  -1.5940  -1.4022  -1.3292  -1.2592
    -1.1277  -0.9451  -0.8523  -0.7455  -0.1574  -0.1025   0.1412   0.2620
     0.2836   0.3709   0.4569   0.5943   0.7624   0.8149   0.8499   0.9141
     0.9828   1.1136   1.2096   1.3007   1.3873   1.4778   1.5966   1.6692
     1.7066   1.8593   2.0346   2.0550   2.1547   2.2652   2.3412   2.4283
     2.5213   2.6023   2.6732   2.7379   2.8017   2.9426   3.0105   3.2063
     3.2452   3.2834   3.4593   3.5809   3.6962   3.7521   3.8703   3.9209
     3.9713   4.0530   4.1788   4.3035   4.4277   4.5563   4.8040   4.9214
    10.8827  11.4434  11.8899  12.1871  12.3834  12.6361  12.7758  12.8792
    12.9509  13.0523

     occupation numbers 
     1.0000   1.0000   1.0000   1.0000   1.0000   1.0000   1.0000   1.0000
     1.0000   1.0000   1.0000   1.0000   1.0000   1.0000   1.0000   1.0000
     1.0000   1.0000   1.0000   1.0000   1.0000   1.0000   1.0000   1.0000
     1.0000   1.0000   1.0000   1.0000   1.0000   1.0000   1.0000   1.0000
     1.0000   1.0000   1.0000   1.0000   1.0000   1.0000   1.0000   1.0000
     1.0000   1.0000   1.0000   1.0000   1.0000   1.0000   1.0000   1.0000
     1.0000   1.0000   1.0000   1.0000   1.0000   1.0000   1.0000   1.0000
     1.0000   1.0000   1.0000   1.0000   1.0000   1.0000   1.0000   1.0000
     1.0000   1.0000   1.0000   1.0000   1.0000   1.0000   1.0000   1.0000
     1.0000   1.0000   1.0000   1.0000   1.0000   1.0000   1.0000   1.0000
     1.0000   1.0000   1.0000   1.0000   1.0000   1.0000   1.0000   1.0000
     1.0000   1.0000   1.0000   1.0000   1.0000   1.0000   1.0000   1.0000
     1.0000   1.0000   1.0000   1.0000   1.0000   1.0000   1.0000   1.0000
     0.0000   0.0000   0.0000   0.0000   0.0000   0.0000   0.0000   0.0000
     0.0000   0.0000

          k = 0.0000 0.4781 0.0000 ( 36507 PWs)   bands (ev):

   -85.3190 -85.3123 -85.0112 -84.8499 -51.4035 -51.3664 -51.2892 -51.2752
   -51.2501 -51.2490 -51.1995 -51.1153 -50.9802 -50.8476 -50.8117 -50.6413
   -44.5508 -16.6945 -16.5575 -16.5231 -16.2143 -16.0491 -15.9755 -15.7944
   -13.9323 -13.7918 -13.6926 -13.6604 -13.6012 -13.5512 -13.5165 -13.4734
   -13.4088 -13.3854 -13.3564 -13.3300  -4.1678  -3.8605  -3.5979  -3.3749
    -2.1972  -2.0461  -1.9750  -1.7995  -1.5654  -1.3981  -1.3109  -1.2143
    -1.1489  -1.0362  -0.9537  -0.8605  -0.2492  -0.1752   0.0773   0.1494
     0.2257   0.3072   0.4343   0.5331   0.6123   0.7044   0.9060   1.0815
     1.1662   1.2359   1.3098   1.4369   1.5149   1.5331   1.6795   1.7170
     1.8743   1.9702   2.0583   2.1399   2.2807   2.4133   2.4657   2.5241
     2.5620   2.6915   2.7640   2.7998   2.8614   2.8967   2.9928   3.1735
     3.2852   3.3737   3.3963   3.5155   3.6010   3.7227   3.7474   3.8129
     3.8889   4.0188   4.1528   4.2610   4.3876   4.7126   4.9559   5.0345
     9.6803  11.3181  11.5177  11.8666  12.1784  12.9129  13.1693  13.2514
    13.3869  13.5457

     occupation numbers 
     1.0000   1.0000   1.0000   1.0000   1.0000   1.0000   1.0000   1.0000
     1.0000   1.0000   1.0000   1.0000   1.0000   1.0000   1.0000   1.0000
     1.0000   1.0000   1.0000   1.0000   1.0000   1.0000   1.0000   1.0000
     1.0000   1.0000   1.0000   1.0000   1.0000   1.0000   1.0000   1.0000
     1.0000   1.0000   1.0000   1.0000   1.0000   1.0000   1.0000   1.0000
     1.0000   1.0000   1.0000   1.0000   1.0000   1.0000   1.0000   1.0000
     1.0000   1.0000   1.0000   1.0000   1.0000   1.0000   1.0000   1.0000
     1.0000   1.0000   1.0000   1.0000   1.0000   1.0000   1.0000   1.0000
     1.0000   1.0000   1.0000   1.0000   1.0000   1.0000   1.0000   1.0000
[...]
     atom   24 type  3   force =     0.00020372    0.00260742    0.00214510
     atom   25 type  3   force =    -0.00082818    0.00006479    0.00028425
     The non-local contrib.  to forces
     atom    1 type  2   force =     0.05940387    0.04015522    0.00129738
     atom    2 type  1   force =     0.07027617   -0.14141760   -0.01786524
     atom    3 type  1   force =    -0.03286157   -0.18418998    0.12395015
     atom    4 type  1   force =    -0.02729862    0.15086076   -0.00348327
     atom    5 type  1   force =     0.01203864    0.20969522   -0.12429625
     atom    6 type  4   force =    -0.03121799    0.03062359   -0.01631020
     atom    7 type  4   force =    -0.01257567    0.01004673   -0.05836311
     atom    8 type  4   force =     0.04455739   -0.04198623    0.00106981
     atom    9 type  4   force =     0.01545049   -0.00728517    0.05759615
     atom   10 type  3   force =     0.04308890   -0.07905231   -1.43874853
     atom   11 type  3   force =    -0.11986425    0.13355150   -1.45676709
     atom   12 type  3   force =     0.03117584    0.08620548    1.37597248
     atom   13 type  3   force =     0.12637678   -0.12713674    1.44487507
     atom   14 type  3   force =     1.33209249    0.00119855   -0.57553948
     atom   15 type  3   force =    -1.16891017    0.53351206   -0.36291489
     atom   16 type  3   force =    -1.30017231    0.00783080    0.61928766
     atom   17 type  3   force =     1.17970081   -0.53069541    0.45987321
     atom   18 type  3   force =    -0.69631348   -1.22924328    0.43870018
     atom   19 type  3   force =     0.48700496    0.87710661    0.92099084
     atom   20 type  3   force =     0.09959399   -1.27273304   -1.04932792
     atom   21 type  3   force =    -0.43886424    1.03306437   -0.70543621
     atom   22 type  3   force =     0.61033856    1.31841195   -0.54786426
     atom   23 type  3   force =    -0.44263542   -0.89398389   -0.92007425
     atom   24 type  3   force =    -0.03163342    1.23857471    1.07104770
     atom   25 type  3   force =     0.36551505   -1.05708417    0.66034488
     The ionic contribution  to forces
     atom    1 type  2   force =     1.09579347   -0.53025019   -1.80038973
     atom    2 type  1   force =    11.57645658   -2.09411250   -1.42472777
     atom    3 type  1   force =     5.40996295   -2.91446194   -1.44725377
     atom    4 type  1   force =   -12.40240921    3.26507225    0.66803197
     atom    5 type  1   force =    -3.45740090    3.08560981    2.41698229
     atom    6 type  4   force =    -1.07384340    0.01352914    0.03156234
     atom    7 type  4   force =     4.58023842    0.11666782    0.86809604
     atom    8 type  4   force =     0.22536211    0.29827028    0.16840332
     atom    9 type  4   force =    -4.22333740   -0.39317948   -0.66151592
     atom   10 type  3   force =    -5.58680578    0.25789891    1.92484373
     atom   11 type  3   force =     9.98138949   -1.13479050    2.29382154
     atom   12 type  3   force =     2.98877117    1.19705113   -0.49851799
     atom   13 type  3   force =    -9.59847137    0.67519000   -2.21847310
     atom   14 type  3   force =     1.78013992   -0.46064960    6.66810806
     atom   15 type  3   force =    -0.52444272   -2.33578508    3.23869625
     atom   16 type  3   force =    -1.82004828    0.48115535   -6.87546713
     atom   17 type  3   force =     0.31921947    1.02187170   -4.00537414
     atom   18 type  3   force =     1.55387431    4.60257726    3.20456062
     atom   19 type  3   force =     6.05390936   -1.85960891   -4.12581503
     atom   20 type  3   force =     3.02222644    2.01037072    7.92091659
     atom   21 type  3   force =    -6.20538490   -2.63264649    1.79888536
     atom   22 type  3   force =    -1.04834995   -6.32874159   -2.74314767
     atom   23 type  3   force =    -6.30614282    1.37972698    4.14106751
     atom   24 type  3   force =    -3.60468402   -0.67194170   -8.27018883
     atom   25 type  3   force =     7.26397705    2.95117665   -1.27310453
     The local contribution  to forces
     atom    1 type  2   force =    -1.15455764    0.48968201    1.79630533
     atom    2 type  1   force =   -11.64564835    2.23280383    1.44268118
     atom    3 type  1   force =    -5.37756424    3.09503385    1.32513298
     atom    4 type  1   force =    12.42878817   -3.41333512   -0.66524022
     atom    5 type  1   force =     3.44617872   -3.29228852   -2.29450523
     atom    6 type  4   force =     1.10244707   -0.04311986   -0.01620840
     atom    7 type  4   force =    -4.57239446   -0.12520718   -0.81267383
     atom    8 type  4   force =    -0.26529129   -0.25847355   -0.16857612
     atom    9 type  4   force =     4.21106169    0.39897140    0.60756152
     atom   10 type  3   force =     5.54488960   -0.17652473   -0.49288226
     atom   11 type  3   force =    -9.86136638    1.00237486   -0.85099945
     atom   12 type  3   force =    -3.02174742   -1.28400163   -0.87075685
     atom   13 type  3   force =     9.47283844   -0.54924885    0.78701826
     atom   14 type  3   force =    -3.10289041    0.45906526   -6.09807555
     atom   15 type  3   force =     1.68200343    1.80678689   -2.88009043
     atom   16 type  3   force =     3.11302197   -0.48877271    6.26205332
     atom   17 type  3   force =    -1.48885081   -0.49508992    3.55081393
     atom   18 type  3   force =    -0.86183787   -3.38347515   -3.63669631
     atom   19 type  3   force =    -6.53597908    0.98853585    3.21325550
     atom   20 type  3   force =    -3.12205097   -0.75055982   -6.88299837
     atom   21 type  3   force =     6.64128989    1.60838426   -1.09992018
     atom   22 type  3   force =     0.44139476    5.02092573    3.28334073
     atom   23 type  3   force =     6.74456244   -0.49237719   -3.22871295
     atom   24 type  3   force =     3.63648313   -0.55343483    7.21129115
     atom   25 type  3   force =    -7.62717232   -1.90316720    0.61900734
     The core correction contribution to forces
     atom    1 type  2   force =     0.00000000    0.00000000    0.00000000
     atom    2 type  1   force =    -0.00141771    0.00197271    0.00112559
     atom    3 type  1   force =     0.00122300    0.00207029   -0.00065882
     atom    4 type  1   force =     0.00082073   -0.00189107   -0.00071346
     atom    5 type  1   force =    -0.00102480   -0.00217995    0.00054517
     atom    6 type  4   force =     0.00302710   -0.00153843    0.00111398
     atom    7 type  4   force =     0.00061373   -0.00087399    0.00389276
     atom    8 type  4   force =    -0.00370066    0.00250996   -0.00007080
     atom    9 type  4   force =    -0.00084976    0.00088673   -0.00407013
     atom   10 type  3   force =    -0.00099834    0.00067089    0.01250277
     atom   11 type  3   force =     0.00175040   -0.00128768    0.01261350
     atom   12 type  3   force =     0.00040881   -0.00080347   -0.01189012
     atom   13 type  3   force =    -0.00179865    0.00120823   -0.01254653
     atom   14 type  3   force =    -0.01131695    0.00002363    0.00559915
     atom   15 type  3   force =     0.00987559   -0.00508252    0.00371374
     atom   16 type  3   force =     0.01100944   -0.00008959   -0.00596005
     atom   17 type  3   force =    -0.00998015    0.00499670   -0.00460918
     atom   18 type  3   force =     0.00588668    0.01125585   -0.00354724
     atom   19 type  3   force =    -0.00425355   -0.00734073   -0.00843349
     atom   20 type  3   force =    -0.00064119    0.01084055    0.00978993
     atom   21 type  3   force =     0.00381223   -0.00891945    0.00639687
     atom   22 type  3   force =    -0.00506424   -0.01203431    0.00459698
     atom   23 type  3   force =     0.00384532    0.00753161    0.00845064
     atom   24 type  3   force =     0.00003287   -0.01058929   -0.01000585
     atom   25 type  3   force =    -0.00314473    0.00914024   -0.00596151
     The Hubbard contrib.    to forces
     atom    1 type  2   force =     0.00000000    0.00000000    0.00000000
     atom    2 type  1   force =     0.00000000    0.00000000    0.00000000
     atom    3 type  1   force =     0.00000000    0.00000000    0.00000000
     atom    4 type  1   force =     0.00000000    0.00000000    0.00000000
     atom    5 type  1   force =     0.00000000    0.00000000    0.00000000
     atom    6 type  4   force =     0.00000000    0.00000000    0.00000000
     atom    7 type  4   force =     0.00000000    0.00000000    0.00000000
     atom    8 type  4   force =     0.00000000    0.00000000    0.00000000
     atom    9 type  4   force =     0.00000000    0.00000000    0.00000000
     atom   10 type  3   force =     0.00000000    0.00000000    0.00000000
     atom   11 type  3   force =     0.00000000    0.00000000    0.00000000
     atom   12 type  3   force =     0.00000000    0.00000000    0.00000000
     atom   13 type  3   force =     0.00000000    0.00000000    0.00000000
     atom   14 type  3   force =     0.00000000    0.00000000    0.00000000
     atom   15 type  3   force =     0.00000000    0.00000000    0.00000000
     atom   16 type  3   force =     0.00000000    0.00000000    0.00000000
     atom   17 type  3   force =     0.00000000    0.00000000    0.00000000
     atom   18 type  3   force =     0.00000000    0.00000000    0.00000000
     atom   19 type  3   force =     0.00000000    0.00000000    0.00000000
     atom   20 type  3   force =     0.00000000    0.00000000    0.00000000
     atom   21 type  3   force =     0.00000000    0.00000000    0.00000000
     atom   22 type  3   force =     0.00000000    0.00000000    0.00000000
     atom   23 type  3   force =     0.00000000    0.00000000    0.00000000
     atom   24 type  3   force =     0.00000000    0.00000000    0.00000000
     atom   25 type  3   force =     0.00000000    0.00000000    0.00000000
     The SCF correction term to forces
     atom    1 type  2   force =     0.00000920    0.00000041    0.00000012
     atom    2 type  1   force =    -0.00000133   -0.00000016   -0.00000065
     atom    3 type  1   force =     0.00000284    0.00000006    0.00000166
     atom    4 type  1   force =    -0.00000567   -0.00000047   -0.00000078
     atom    5 type  1   force =     0.00000042    0.00000015   -0.00000011
     atom    6 type  4   force =     0.00000426   -0.00000031    0.00000028
     atom    7 type  4   force =    -0.00000395    0.00000008   -0.00000069
     atom    8 type  4   force =     0.00000493   -0.00000044    0.00000006
     atom    9 type  4   force =    -0.00000494   -0.00000012   -0.00000042
     atom   10 type  3   force =     0.00000360   -0.00000064   -0.00000003
     atom   11 type  3   force =    -0.00000476    0.00000008    0.00000132
     atom   12 type  3   force =     0.00000676    0.00000003    0.00000155
     atom   13 type  3   force =    -0.00000759    0.00000027    0.00000257
     atom   14 type  3   force =    -0.00000451   -0.00000017   -0.00000054
     atom   15 type  3   force =     0.00000770    0.00000048   -0.00000080
     atom   16 type  3   force =    -0.00000943    0.00000037   -0.00000170
     atom   17 type  3   force =     0.00000871    0.00000052   -0.00000109
     atom   18 type  3   force =     0.00000260    0.00000077    0.00000039
     atom   19 type  3   force =    -0.00000270    0.00000133   -0.00000121
     atom   20 type  3   force =     0.00000592   -0.00000212    0.00000156
     atom   21 type  3   force =    -0.00000577    0.00000189   -0.00000105
     atom   22 type  3   force =     0.00000442   -0.00000097   -0.00000165
     atom   23 type  3   force =    -0.00000554   -0.00000257   -0.00000047
     atom   24 type  3   force =     0.00000503   -0.00000188    0.00000143
     atom   25 type  3   force =    -0.00000336   -0.00000114   -0.00000145

     Total force =     0.014175     Total SCF correction =     0.000029


     Computing stress (Cartesian axis) and pressure


     negative rho (up, down):  0.000E+00 9.493E-04
          total   stress  (Ry/bohr**3)                   (kbar)     P=        2.82
  -0.00020888   0.00004573  -0.00000385          -30.73        6.73       -0.57
   0.00004573   0.00013807  -0.00012116            6.73       20.31      -17.82
  -0.00000385  -0.00012116   0.00012829           -0.57      -17.82       18.87

     kinetic stress (kbar)  26496.21     40.41    -48.34
                               40.41  26703.25    -22.10
                              -48.34    -22.10  26567.27

     local   stress (kbar)  -6947.35   3849.77  -4802.41
                             3849.77 -13927.86   2020.29
                            -4802.41   2020.29  -6299.10

     nonloc. stress (kbar)  -6795.16      9.10      0.87
                                9.10  -6743.73      6.01
                                0.87      6.01  -6758.57

     hartree stress (kbar)  13662.01  -1505.68   1978.91
                            -1505.68  17657.41   -791.98
                             1978.91   -791.98  13949.83

     exc-cor stress (kbar)  -2802.87     -2.96      2.33
                               -2.96  -2809.08     -1.22
                                2.33     -1.22  -2807.05

     corecor stress (kbar)  -3114.43      0.70     -0.73
                                0.70  -3115.80      0.13
                               -0.73      0.13  -3116.05

     ewald   stress (kbar) -20529.14  -2384.61   2868.81
                            -2384.61 -17743.89  -1228.96
                             2868.81  -1228.96 -21517.46

     hubbard stress (kbar)      0.00      0.00      0.00
                                0.00      0.00      0.00
                                0.00      0.00      0.00

     DFT-D   stress (kbar)      0.00      0.00      0.00
                                0.00      0.00      0.00
                                0.00      0.00      0.00

     XDM     stress (kbar)      0.00      0.00      0.00
                                0.00      0.00      0.00
                                0.00      0.00      0.00

     dft-nl  stress (kbar)      0.00      0.00      0.00
                                0.00      0.00      0.00
                                0.00      0.00      0.00

     TS-vdW  stress (kbar)      0.00      0.00      0.00
                                0.00      0.00      0.00
                                0.00      0.00      0.00



     init_run     :    192.81s CPU    197.40s WALL (       1 calls)
     electrons    :  17856.71s CPU  18166.73s WALL (       1 calls)
     forces       :    119.78s CPU    122.31s WALL (       1 calls)
     stress       :    787.34s CPU    798.60s WALL (       1 calls)

     Called by init_run:
     wfcinit      :    182.87s CPU    186.45s WALL (       1 calls)
     wfcinit:atom :      3.60s CPU      3.69s WALL (     316 calls)
     wfcinit:wfcr :    169.15s CPU    172.40s WALL (     316 calls)
     potinit      :      3.55s CPU      3.74s WALL (       1 calls)
     hinit0       :      3.24s CPU      3.38s WALL (       1 calls)

     Called by electrons:
     c_bands      :  15895.61s CPU  16118.86s WALL (      33 calls)
     sum_band     :   1857.89s CPU   1922.98s WALL (      33 calls)
     v_of_rho     :     30.95s CPU     32.33s WALL (      34 calls)
     v_h          :      1.56s CPU      1.65s WALL (      34 calls)
     v_xc         :     31.18s CPU     32.54s WALL (      36 calls)
     newd         :     48.94s CPU     69.03s WALL (      34 calls)
     PAW_pot      :     14.35s CPU     14.50s WALL (      34 calls)
     mix_rho      :      8.23s CPU      8.65s WALL (      33 calls)

     Called by c_bands:
     init_us_2    :    310.57s CPU    320.43s WALL (   21804 calls)
     cegterg      :  15395.22s CPU  15604.32s WALL (   10428 calls)

     Called by sum_band:
     sum_band:wei :      0.54s CPU      0.55s WALL (      33 calls)
     sum_band:loo :   1699.90s CPU   1737.33s WALL (      33 calls)
     sum_band:buf :     78.66s CPU     80.90s WALL (   10428 calls)
     sum_band:ini :    149.52s CPU    153.67s WALL (   10428 calls)
     sum_band:cal :    713.62s CPU    723.36s WALL (   10428 calls)
     sum_band:bec :      5.75s CPU      5.86s WALL (   10428 calls)
     addusdens    :    150.37s CPU    177.72s WALL (      33 calls)
     addusd:skk   :      1.00s CPU      1.05s WALL (      99 calls)
     addusd:dgemm :     68.11s CPU     89.84s WALL (     198 calls)
     addusd:qvan2 :     79.40s CPU     80.69s WALL (     198 calls)

     Called by *egterg:
     cdiaghg      :    917.41s CPU    941.09s WALL (   37097 calls)
     cegterg:over :   1524.61s CPU   1552.95s WALL (   26669 calls)
     cegterg:upda :    795.74s CPU    801.92s WALL (   26669 calls)
     cegterg:last :   1717.30s CPU   1730.05s WALL (   18593 calls)
     h_psi        :   7779.88s CPU   7891.47s WALL (   37413 calls)
     s_psi        :   1738.76s CPU   1751.58s WALL (   37413 calls)
     g_psi        :     16.52s CPU     16.77s WALL (   26669 calls)

     Called by h_psi:
     h_psi:calbec :   1878.04s CPU   1902.74s WALL (   37413 calls)
     vloc_psi     :   3867.10s CPU   3933.52s WALL (   37413 calls)
     add_vuspsi   :   1855.70s CPU   1869.79s WALL (   37413 calls)

     General routines
     calbec       :   2700.95s CPU   2737.28s WALL (   49421 calls)
     fft          :     29.16s CPU     30.91s WALL (     888 calls)
     ffts         :      0.57s CPU      0.63s WALL (     134 calls)
     fftw         :   4381.31s CPU   4465.25s WALL ( 6554816 calls)
     interpolate  :      2.21s CPU      2.38s WALL (      68 calls)

     Parallel routines
     fft_scatt_xy :    287.17s CPU    290.37s WALL ( 6555838 calls)
     fft_scatt_yz :   2231.88s CPU   2293.65s WALL ( 6555838 calls)

     PAW routines
     PAW_pot      :     14.35s CPU     14.50s WALL (      34 calls)

     PWSCF        :      5h15m CPU      5h21m WALL


   This run was terminated on:  20:38:23  14Dec2022            

=------------------------------------------------------------------------------=
   JOB DONE.
=------------------------------------------------------------------------------=
Note: The following floating-point exceptions are signalling: IEEE_UNDERFLOW_FLAG IEEE_DENORMAL
Note: The following floating-point exceptions are signalling: IEEE_DENORMAL
Note: The following floating-point exceptions are signalling: IEEE_DENORMAL
Note: The following floating-point exceptions are signalling: IEEE_DENORMAL
Note: The following floating-point exceptions are signalling: IEEE_DENORMAL
Note: The following floating-point exceptions are signalling: IEEE_INVALID_FLAG IEEE_DENORMAL
Note: The following floating-point exceptions are signalling: IEEE_DENORMAL
Note: The following floating-point exceptions are signalling: IEEE_DENORMAL
Note: The following floating-point exceptions are signalling: IEEE_DENORMAL
Note: The following floating-point exceptions are signalling: IEEE_DENORMAL
Note: The following floating-point exceptions are signalling: IEEE_DENORMAL
Note: The following floating-point exceptions are signalling: IEEE_DENORMAL
Note: The following floating-point exceptions are signalling: IEEE_DENORMAL
Note: The following floating-point exceptions are signalling: IEEE_DENORMAL
Note: The following floating-point exceptions are signalling: IEEE_DENORMAL
Note: The following floating-point exceptions are signalling: IEEE_DENORMAL
Note: The following floating-point exceptions are signalling: IEEE_DENORMAL
Note: The following floating-point exceptions are signalling: IEEE_DENORMAL
Note: The following floating-point exceptions are signalling: IEEE_DENORMAL
Note: The following floating-point exceptions are signalling: IEEE_DENORMAL
Note: The following floating-point exceptions are signalling: IEEE_DENORMAL
Note: The following floating-point exceptions are signalling: IEEE_INVALID_FLAG IEEE_DENORMAL
Note: The following floating-point exceptions are signalling: IEEE_DENORMAL
Note: The following floating-point exceptions are signalling: IEEE_DENORMAL
