
     Program PWSCF v.6.7MaX starts on 21Dec2022 at 21:30: 4 

     This program is part of the open-source Quantum ESPRESSO suite
     for quantum simulation of materials; please cite
         "P. Giannozzi et al., J. Phys.:Condens. Matter 21 395502 (2009);
         "P. Giannozzi et al., J. Phys.:Condens. Matter 29 465901 (2017);
          URL http://www.quantum-espresso.org", 
     in publications or presentations arising from this work. More details at
     http://www.quantum-espresso.org/quote

     Parallel version (MPI), running on    12 processors

     MPI processes distributed on     1 nodes
     R & G space division:  proc/nbgrp/npool/nimage =      12
     Reading input from scale_3d-02.in

     Current dimensions of program PWSCF are:
     Max number of different atomic species (ntypx) = 10
     Max number of k-points (npk) =  40000
     Max angular momentum in pseudopotentials (lmaxx) =  3
     Message from routine read_pp_mesh:
     mesh size missing, using the one in header
     file Fe.pbe-spn-kjpaw_psl.0.2.1.UPF: wavefunction(s)  3D renormalized
     file O.pbe-n-kjpaw_psl.0.1.UPF: wavefunction(s)  2P renormalized

     Subspace diagonalization in iterative solution of the eigenvalue problem:
     a serial algorithm will be used


     Parallelization info
     --------------------
     sticks:   dense  smooth     PW     G-vecs:    dense   smooth      PW
     Min        1600     592    159               102600    23116    3255
     Max        1602     593    160               102601    23118    3258
     Sum       19211    7107   1919              1231207   277409   39077



     bravais-lattice index     =            0
     lattice parameter (alat)  =      19.3373  a.u.
     unit-cell volume          =    2054.1302 (a.u.)^3
     number of atoms/cell      =           25
     number of atomic types    =            4
     number of electrons       =       189.00
     number of Kohn-Sham states=          114
     kinetic-energy cutoff     =     100.0000  Ry
     charge density cutoff     =    1080.0000  Ry
     scf convergence threshold =      2.0E-10
     mixing beta               =       0.4000
     number of iterations used =            8  plain     mixing
     Exchange-correlation= PBE
                           (   1   4   3   4   0   0   0)

     celldm(1)=  19.337306  celldm(2)=   0.000000  celldm(3)=   0.000000
     celldm(4)=   0.000000  celldm(5)=   0.000000  celldm(6)=   0.000000

     crystal axes: (cart. coord. in units of alat)
               a(1) = (   1.000000   0.000000   0.000000 )  
               a(2) = (   0.000000   0.597590   0.000000 )  
               a(3) = (   0.000000   0.000000   0.475375 )  

     reciprocal axes: (cart. coord. in units 2 pi/alat)
               b(1) = (  1.000000  0.000000  0.000000 )  
               b(2) = (  0.000000  1.673388  0.000000 )  
               b(3) = (  0.000000  0.000000  2.103600 )  


     PseudoPot. # 1 for Fe read from file:
     /opt/QEpot/SSSP_precision_pseudos/Fe.pbe-spn-kjpaw_psl.0.2.1.UPF
     MD5 check sum: e86618425769142926afa95317d90200
     Pseudo is Projector augmented-wave + core cor, Zval = 16.0
     Generated using "atomic" code by A. Dal Corso  v.5.0.99 svn rev. 10869
     Shape of augmentation charge: PSQ
     Using radial grid of 1191 points,  6 beta functions with: 
                l(1) =   0
                l(2) =   0
                l(3) =   1
                l(4) =   1
                l(5) =   2
                l(6) =   2
     Q(r) pseudized with 0 coefficients 


     PseudoPot. # 2 for Na read from file:
     /opt/QEpot/SSSP_precision_pseudos/Na_ONCV_PBE-1.0.oncvpsp.upf
     MD5 check sum: 24a298df0a6742ae313db96548fdb2a4
     Pseudo is Norm-conserving, Zval =  9.0
     Generated using ONCVPSP code by D. R. Hamann
     Using radial grid of 1992 points,  4 beta functions with: 
                l(1) =   0
                l(2) =   0
                l(3) =   1
                l(4) =   1

     PseudoPot. # 3 for O  read from file:
     /opt/QEpot/SSSP_precision_pseudos/O.pbe-n-kjpaw_psl.0.1.UPF
     MD5 check sum: 0234752ac141de4415c5fc33072bef88
     Pseudo is Projector augmented-wave + core cor, Zval =  6.0
     Generated using "atomic" code by A. Dal Corso  v.5.0.99 svn rev. 10869
     Shape of augmentation charge: BESSEL
     Using radial grid of 1095 points,  4 beta functions with: 
                l(1) =   0
                l(2) =   0
                l(3) =   1
                l(4) =   1
     Q(r) pseudized with 0 coefficients 


     PseudoPot. # 4 for P  read from file:
     /opt/QEpot/SSSP_precision_pseudos/P.pbe-n-rrkjus_psl.1.0.0.UPF
     MD5 check sum: 8b930f418f0a4573dca56cd030ffe088
     Pseudo is Ultrasoft + core correction, Zval =  5.0
     Generated using "atomic" code by A. Dal Corso  v.5.1
     Using radial grid of 1147 points,  6 beta functions with: 
                l(1) =   0
                l(2) =   0
                l(3) =   1
                l(4) =   1
                l(5) =   2
                l(6) =   2
     Q(r) pseudized with 0 coefficients 


     atomic species   valence    mass     pseudopotential
        Fe            16.00    55.84500     Fe( 1.00)
        Na             9.00    22.98977     Na( 1.00)
        O              6.00    15.99940     O ( 1.00)
        P              5.00    30.97376     P ( 1.00)

     Starting magnetic structure 
     atomic species   magnetization
        Fe           0.312
        Na           0.000
        O            0.000
        P            0.000

     No symmetry found


                                    s                        frac. trans.

      isym =  1     identity                                     

 cryst.   s( 1) = (     1          0          0      )
                  (     0          1          0      )
                  (     0          0          1      )

 cart.    s( 1) = (  1.0000000  0.0000000  0.0000000 )
                  (  0.0000000  1.0000000  0.0000000 )
                  (  0.0000000  0.0000000  1.0000000 )


   Cartesian axes

     site n.     atom                  positions (alat units)
         1           Na  tau(   1) = (   0.0115800   0.0456726   0.0416961  )
         2           Fe  tau(   2) = (   0.2913450   0.4565557   0.4434150  )
         3           Fe  tau(   3) = (   0.2201160   0.1701249   0.2485796  )
         4           Fe  tau(   4) = (   0.7060870   0.1381024   0.0458951  )
         5           Fe  tau(   5) = (   0.7822730   0.4331541   0.2480424  )
         6           P   tau(   6) = (   0.0983660   0.4262256   0.1891662  )
         7           P   tau(   7) = (   0.3920650   0.1500871   0.4559459  )
         8           P   tau(   8) = (   0.8987800   0.1640050   0.3001164  )
         9           P   tau(   9) = (   0.6075130   0.4445597   0.0385197  )
        10           O   tau(  10) = (   0.1414110   0.4366106   0.3307620  )
        11           O   tau(  11) = (   0.3553680   0.1477290   0.1233148  )
        12           O   tau(  12) = (   0.8583390   0.1502281   0.1581603  )
        13           O   tau(  13) = (   0.6447440   0.4487153   0.3710829  )
        14           O   tau(  14) = (   0.4604880   0.4456162   0.0539071  )
        15           O   tau(  15) = (   0.0440330   0.1281012   0.3162554  )
        16           O   tau(  16) = (   0.5386000   0.1480720   0.4379197  )
        17           O   tau(  17) = (   0.9551650   0.4673183   0.1720241  )
        18           O   tau(  18) = (   0.1816090   0.5229868   0.1074833  )
        19           O   tau(  19) = (   0.3245340   0.0377498   0.3784445  )
        20           O   tau(  20) = (   0.8658190   0.2991631   0.3525865  )
        21           O   tau(  21) = (   0.6737520   0.3275671   0.1112802  )
        22           O   tau(  22) = (   0.8208630   0.0659942   0.3847898  )
        23           O   tau(  23) = (   0.6725030   0.5584645   0.1163700  )
        24           O   tau(  24) = (   0.1268440   0.2902936   0.1338748  )
        25           O   tau(  25) = (   0.3278730   0.2680173   0.3827633  )

   Crystallographic axes

     site n.     atom                  positions (cryst. coord.)
         1           Na  tau(   1) = (  0.0115800  0.0764280  0.0877120  )
         2           Fe  tau(   2) = (  0.2913450  0.7639950  0.9327680  )
         3           Fe  tau(   3) = (  0.2201160  0.2846850  0.5229120  )
         4           Fe  tau(   4) = (  0.7060870  0.2310990  0.0965450  )
         5           Fe  tau(   5) = (  0.7822730  0.7248350  0.5217820  )
         6           P   tau(   6) = (  0.0983660  0.7132410  0.3979300  )
         7           P   tau(   7) = (  0.3920650  0.2511540  0.9591280  )
         8           P   tau(   8) = (  0.8987800  0.2744440  0.6313250  )
         9           P   tau(   9) = (  0.6075130  0.7439210  0.0810300  )
        10           O   tau(  10) = (  0.1414110  0.7306190  0.6957910  )
        11           O   tau(  11) = (  0.3553680  0.2472080  0.2594050  )
        12           O   tau(  12) = (  0.8583390  0.2513900  0.3327060  )
        13           O   tau(  13) = (  0.6447440  0.7508750  0.7806100  )
        14           O   tau(  14) = (  0.4604880  0.7456890  0.1133990  )
        15           O   tau(  15) = (  0.0440330  0.2143630  0.6652750  )
        16           O   tau(  16) = (  0.5386000  0.2477820  0.9212080  )
        17           O   tau(  17) = (  0.9551650  0.7820050  0.3618700  )
        18           O   tau(  18) = (  0.1816090  0.8751600  0.2261020  )
        19           O   tau(  19) = (  0.3245340  0.0631700  0.7960960  )
        20           O   tau(  20) = (  0.8658190  0.5006160  0.7417010  )
        21           O   tau(  21) = (  0.6737520  0.5481470  0.2340890  )
        22           O   tau(  22) = (  0.8208630  0.1104340  0.8094440  )
        23           O   tau(  23) = (  0.6725030  0.9345280  0.2447960  )
        24           O   tau(  24) = (  0.1268440  0.4857740  0.2816190  )
        25           O   tau(  25) = (  0.3278730  0.4484970  0.8051810  )

     number of k points=   158  Marzari-Vanderbilt smearing, width (Ry)=  0.0073
                       cart. coord. in units 2pi/alat
        k(    1) = (   0.0000000   0.0000000   0.0000000), wk =   0.0031746
        k(    2) = (   0.0000000   0.0000000   0.2337334), wk =   0.0063492
        k(    3) = (   0.0000000   0.0000000   0.4674667), wk =   0.0063492
        k(    4) = (   0.0000000   0.0000000   0.7012001), wk =   0.0063492
        k(    5) = (   0.0000000   0.0000000   0.9349334), wk =   0.0063492
        k(    6) = (   0.0000000   0.2390555   0.0000000), wk =   0.0063492
        k(    7) = (   0.0000000   0.2390555   0.2337334), wk =   0.0063492
        k(    8) = (   0.0000000   0.2390555   0.4674667), wk =   0.0063492
        k(    9) = (   0.0000000   0.2390555   0.7012001), wk =   0.0063492
        k(   10) = (   0.0000000   0.2390555   0.9349334), wk =   0.0063492
        k(   11) = (   0.0000000   0.4781110   0.0000000), wk =   0.0063492
        k(   12) = (   0.0000000   0.4781110   0.2337334), wk =   0.0063492
        k(   13) = (   0.0000000   0.4781110   0.4674667), wk =   0.0063492
        k(   14) = (   0.0000000   0.4781110   0.7012001), wk =   0.0063492
        k(   15) = (   0.0000000   0.4781110   0.9349334), wk =   0.0063492
        k(   16) = (   0.0000000   0.7171664   0.0000000), wk =   0.0063492
        k(   17) = (   0.0000000   0.7171664   0.2337334), wk =   0.0063492
        k(   18) = (   0.0000000   0.7171664   0.4674667), wk =   0.0063492
        k(   19) = (   0.0000000   0.7171664   0.7012001), wk =   0.0063492
        k(   20) = (   0.0000000   0.7171664   0.9349334), wk =   0.0063492
        k(   21) = (   0.2000000   0.0000000   0.0000000), wk =   0.0063492
        k(   22) = (   0.2000000   0.0000000   0.2337334), wk =   0.0063492
        k(   23) = (   0.2000000   0.0000000   0.4674667), wk =   0.0063492
        k(   24) = (   0.2000000   0.0000000   0.7012001), wk =   0.0063492
        k(   25) = (   0.2000000   0.0000000   0.9349334), wk =   0.0063492
        k(   26) = (   0.2000000   0.2390555   0.0000000), wk =   0.0063492
        k(   27) = (   0.2000000   0.2390555   0.2337334), wk =   0.0063492
        k(   28) = (   0.2000000   0.2390555   0.4674667), wk =   0.0063492
        k(   29) = (   0.2000000   0.2390555   0.7012001), wk =   0.0063492
        k(   30) = (   0.2000000   0.2390555   0.9349334), wk =   0.0063492
        k(   31) = (   0.2000000   0.4781110   0.0000000), wk =   0.0063492
        k(   32) = (   0.2000000   0.4781110   0.2337334), wk =   0.0063492
        k(   33) = (   0.2000000   0.4781110   0.4674667), wk =   0.0063492
        k(   34) = (   0.2000000   0.4781110   0.7012001), wk =   0.0063492
        k(   35) = (   0.2000000   0.4781110   0.9349334), wk =   0.0063492
        k(   36) = (   0.2000000   0.7171664   0.0000000), wk =   0.0063492
        k(   37) = (   0.2000000   0.7171664   0.2337334), wk =   0.0063492
        k(   38) = (   0.2000000   0.7171664   0.4674667), wk =   0.0063492
        k(   39) = (   0.2000000   0.7171664   0.7012001), wk =   0.0063492
        k(   40) = (   0.2000000   0.7171664   0.9349334), wk =   0.0063492
        k(   41) = (   0.4000000   0.0000000   0.0000000), wk =   0.0063492
        k(   42) = (   0.4000000   0.0000000   0.2337334), wk =   0.0063492
        k(   43) = (   0.4000000   0.0000000   0.4674667), wk =   0.0063492
        k(   44) = (   0.4000000   0.0000000   0.7012001), wk =   0.0063492
        k(   45) = (   0.4000000   0.0000000   0.9349334), wk =   0.0063492
        k(   46) = (   0.4000000   0.2390555   0.0000000), wk =   0.0063492
        k(   47) = (   0.4000000   0.2390555   0.2337334), wk =   0.0063492
        k(   48) = (   0.4000000   0.2390555   0.4674667), wk =   0.0063492
        k(   49) = (   0.4000000   0.2390555   0.7012001), wk =   0.0063492
        k(   50) = (   0.4000000   0.2390555   0.9349334), wk =   0.0063492
        k(   51) = (   0.4000000   0.4781110   0.0000000), wk =   0.0063492
        k(   52) = (   0.4000000   0.4781110   0.2337334), wk =   0.0063492
        k(   53) = (   0.4000000   0.4781110   0.4674667), wk =   0.0063492
        k(   54) = (   0.4000000   0.4781110   0.7012001), wk =   0.0063492
        k(   55) = (   0.4000000   0.4781110   0.9349334), wk =   0.0063492
        k(   56) = (   0.4000000   0.7171664   0.0000000), wk =   0.0063492
        k(   57) = (   0.4000000   0.7171664   0.2337334), wk =   0.0063492
        k(   58) = (   0.4000000   0.7171664   0.4674667), wk =   0.0063492
        k(   59) = (   0.4000000   0.7171664   0.7012001), wk =   0.0063492
        k(   60) = (   0.4000000   0.7171664   0.9349334), wk =   0.0063492
        k(   61) = (   0.0000000  -0.2390555   0.2337334), wk =   0.0063492
        k(   62) = (   0.0000000  -0.2390555   0.4674667), wk =   0.0063492
        k(   63) = (   0.0000000  -0.2390555   0.7012001), wk =   0.0063492
        k(   64) = (   0.0000000  -0.2390555   0.9349334), wk =   0.0063492
        k(   65) = (   0.0000000  -0.4781110   0.2337334), wk =   0.0063492
        k(   66) = (   0.0000000  -0.4781110   0.4674667), wk =   0.0063492
        k(   67) = (   0.0000000  -0.4781110   0.7012001), wk =   0.0063492
        k(   68) = (   0.0000000  -0.4781110   0.9349334), wk =   0.0063492
        k(   69) = (   0.0000000  -0.7171664   0.2337334), wk =   0.0063492
        k(   70) = (   0.0000000  -0.7171664   0.4674667), wk =   0.0063492
        k(   71) = (   0.0000000  -0.7171664   0.7012001), wk =   0.0063492
        k(   72) = (   0.0000000  -0.7171664   0.9349334), wk =   0.0063492
        k(   73) = (  -0.2000000   0.0000000   0.2337334), wk =   0.0063492
        k(   74) = (  -0.2000000   0.0000000   0.4674667), wk =   0.0063492
        k(   75) = (  -0.2000000   0.0000000   0.7012001), wk =   0.0063492
        k(   76) = (  -0.2000000   0.0000000   0.9349334), wk =   0.0063492
        k(   77) = (  -0.2000000   0.2390555   0.0000000), wk =   0.0063492
        k(   78) = (  -0.2000000  -0.2390555   0.2337334), wk =   0.0063492
        k(   79) = (  -0.2000000   0.2390555  -0.2337334), wk =   0.0063492
        k(   80) = (   0.2000000  -0.2390555  -0.2337334), wk =   0.0063492
        k(   81) = (  -0.2000000  -0.2390555   0.4674667), wk =   0.0063492
        k(   82) = (  -0.2000000   0.2390555  -0.4674667), wk =   0.0063492
        k(   83) = (   0.2000000  -0.2390555  -0.4674667), wk =   0.0063492
        k(   84) = (  -0.2000000  -0.2390555   0.7012001), wk =   0.0063492
        k(   85) = (  -0.2000000   0.2390555  -0.7012001), wk =   0.0063492
        k(   86) = (   0.2000000  -0.2390555  -0.7012001), wk =   0.0063492
        k(   87) = (  -0.2000000  -0.2390555   0.9349334), wk =   0.0063492
        k(   88) = (  -0.2000000   0.2390555  -0.9349334), wk =   0.0063492
        k(   89) = (   0.2000000  -0.2390555  -0.9349334), wk =   0.0063492
        k(   90) = (  -0.2000000   0.4781110   0.0000000), wk =   0.0063492
        k(   91) = (  -0.2000000  -0.4781110   0.2337334), wk =   0.0063492
        k(   92) = (  -0.2000000   0.4781110  -0.2337334), wk =   0.0063492
        k(   93) = (   0.2000000  -0.4781110  -0.2337334), wk =   0.0063492
        k(   94) = (  -0.2000000  -0.4781110   0.4674667), wk =   0.0063492
        k(   95) = (  -0.2000000   0.4781110  -0.4674667), wk =   0.0063492
        k(   96) = (   0.2000000  -0.4781110  -0.4674667), wk =   0.0063492
        k(   97) = (  -0.2000000  -0.4781110   0.7012001), wk =   0.0063492
        k(   98) = (  -0.2000000   0.4781110  -0.7012001), wk =   0.0063492
        k(   99) = (   0.2000000  -0.4781110  -0.7012001), wk =   0.0063492
        k(  100) = (  -0.2000000  -0.4781110   0.9349334), wk =   0.0063492
        k(  101) = (  -0.2000000   0.4781110  -0.9349334), wk =   0.0063492
        k(  102) = (   0.2000000  -0.4781110  -0.9349334), wk =   0.0063492
        k(  103) = (  -0.2000000   0.7171664   0.0000000), wk =   0.0063492
        k(  104) = (  -0.2000000  -0.7171664   0.2337334), wk =   0.0063492
        k(  105) = (  -0.2000000   0.7171664  -0.2337334), wk =   0.0063492
        k(  106) = (   0.2000000  -0.7171664  -0.2337334), wk =   0.0063492
        k(  107) = (  -0.2000000  -0.7171664   0.4674667), wk =   0.0063492
        k(  108) = (  -0.2000000   0.7171664  -0.4674667), wk =   0.0063492
        k(  109) = (   0.2000000  -0.7171664  -0.4674667), wk =   0.0063492
        k(  110) = (  -0.2000000  -0.7171664   0.7012001), wk =   0.0063492
        k(  111) = (  -0.2000000   0.7171664  -0.7012001), wk =   0.0063492
        k(  112) = (   0.2000000  -0.7171664  -0.7012001), wk =   0.0063492
        k(  113) = (  -0.2000000  -0.7171664   0.9349334), wk =   0.0063492
        k(  114) = (  -0.2000000   0.7171664  -0.9349334), wk =   0.0063492
        k(  115) = (   0.2000000  -0.7171664  -0.9349334), wk =   0.0063492
        k(  116) = (  -0.4000000   0.0000000   0.2337334), wk =   0.0063492
        k(  117) = (  -0.4000000   0.0000000   0.4674667), wk =   0.0063492
        k(  118) = (  -0.4000000   0.0000000   0.7012001), wk =   0.0063492
        k(  119) = (  -0.4000000   0.0000000   0.9349334), wk =   0.0063492
        k(  120) = (  -0.4000000   0.2390555   0.0000000), wk =   0.0063492
        k(  121) = (  -0.4000000  -0.2390555   0.2337334), wk =   0.0063492
        k(  122) = (  -0.4000000   0.2390555  -0.2337334), wk =   0.0063492
        k(  123) = (   0.4000000  -0.2390555  -0.2337334), wk =   0.0063492
        k(  124) = (  -0.4000000  -0.2390555   0.4674667), wk =   0.0063492
        k(  125) = (  -0.4000000   0.2390555  -0.4674667), wk =   0.0063492
        k(  126) = (   0.4000000  -0.2390555  -0.4674667), wk =   0.0063492
        k(  127) = (  -0.4000000  -0.2390555   0.7012001), wk =   0.0063492
        k(  128) = (  -0.4000000   0.2390555  -0.7012001), wk =   0.0063492
        k(  129) = (   0.4000000  -0.2390555  -0.7012001), wk =   0.0063492
        k(  130) = (  -0.4000000  -0.2390555   0.9349334), wk =   0.0063492
        k(  131) = (  -0.4000000   0.2390555  -0.9349334), wk =   0.0063492
        k(  132) = (   0.4000000  -0.2390555  -0.9349334), wk =   0.0063492
        k(  133) = (  -0.4000000   0.4781110   0.0000000), wk =   0.0063492
        k(  134) = (  -0.4000000  -0.4781110   0.2337334), wk =   0.0063492
        k(  135) = (  -0.4000000   0.4781110  -0.2337334), wk =   0.0063492
        k(  136) = (   0.4000000  -0.4781110  -0.2337334), wk =   0.0063492
        k(  137) = (  -0.4000000  -0.4781110   0.4674667), wk =   0.0063492
        k(  138) = (  -0.4000000   0.4781110  -0.4674667), wk =   0.0063492
        k(  139) = (   0.4000000  -0.4781110  -0.4674667), wk =   0.0063492
        k(  140) = (  -0.4000000  -0.4781110   0.7012001), wk =   0.0063492
        k(  141) = (  -0.4000000   0.4781110  -0.7012001), wk =   0.0063492
        k(  142) = (   0.4000000  -0.4781110  -0.7012001), wk =   0.0063492
        k(  143) = (  -0.4000000  -0.4781110   0.9349334), wk =   0.0063492
        k(  144) = (  -0.4000000   0.4781110  -0.9349334), wk =   0.0063492
        k(  145) = (   0.4000000  -0.4781110  -0.9349334), wk =   0.0063492
        k(  146) = (  -0.4000000   0.7171664   0.0000000), wk =   0.0063492
        k(  147) = (  -0.4000000  -0.7171664   0.2337334), wk =   0.0063492
        k(  148) = (  -0.4000000   0.7171664  -0.2337334), wk =   0.0063492
        k(  149) = (   0.4000000  -0.7171664  -0.2337334), wk =   0.0063492
        k(  150) = (  -0.4000000  -0.7171664   0.4674667), wk =   0.0063492
        k(  151) = (  -0.4000000   0.7171664  -0.4674667), wk =   0.0063492
        k(  152) = (   0.4000000  -0.7171664  -0.4674667), wk =   0.0063492
        k(  153) = (  -0.4000000  -0.7171664   0.7012001), wk =   0.0063492
        k(  154) = (  -0.4000000   0.7171664  -0.7012001), wk =   0.0063492
        k(  155) = (   0.4000000  -0.7171664  -0.7012001), wk =   0.0063492
        k(  156) = (  -0.4000000  -0.7171664   0.9349334), wk =   0.0063492
        k(  157) = (  -0.4000000   0.7171664  -0.9349334), wk =   0.0063492
        k(  158) = (   0.4000000  -0.7171664  -0.9349334), wk =   0.0063492

                       cryst. coord.
        k(    1) = (   0.0000000   0.0000000   0.0000000), wk =   0.0031746
        k(    2) = (   0.0000000   0.0000000   0.1111111), wk =   0.0063492
        k(    3) = (   0.0000000   0.0000000   0.2222222), wk =   0.0063492
        k(    4) = (   0.0000000   0.0000000   0.3333333), wk =   0.0063492
        k(    5) = (   0.0000000   0.0000000   0.4444444), wk =   0.0063492
        k(    6) = (   0.0000000   0.1428571   0.0000000), wk =   0.0063492
        k(    7) = (   0.0000000   0.1428571   0.1111111), wk =   0.0063492
        k(    8) = (   0.0000000   0.1428571   0.2222222), wk =   0.0063492
        k(    9) = (   0.0000000   0.1428571   0.3333333), wk =   0.0063492
        k(   10) = (   0.0000000   0.1428571   0.4444444), wk =   0.0063492
        k(   11) = (   0.0000000   0.2857143   0.0000000), wk =   0.0063492
        k(   12) = (   0.0000000   0.2857143   0.1111111), wk =   0.0063492
        k(   13) = (   0.0000000   0.2857143   0.2222222), wk =   0.0063492
        k(   14) = (   0.0000000   0.2857143   0.3333333), wk =   0.0063492
        k(   15) = (   0.0000000   0.2857143   0.4444444), wk =   0.0063492
        k(   16) = (   0.0000000   0.4285714   0.0000000), wk =   0.0063492
        k(   17) = (   0.0000000   0.4285714   0.1111111), wk =   0.0063492
        k(   18) = (   0.0000000   0.4285714   0.2222222), wk =   0.0063492
        k(   19) = (   0.0000000   0.4285714   0.3333333), wk =   0.0063492
        k(   20) = (   0.0000000   0.4285714   0.4444444), wk =   0.0063492
        k(   21) = (   0.2000000   0.0000000   0.0000000), wk =   0.0063492
        k(   22) = (   0.2000000   0.0000000   0.1111111), wk =   0.0063492
        k(   23) = (   0.2000000   0.0000000   0.2222222), wk =   0.0063492
        k(   24) = (   0.2000000   0.0000000   0.3333333), wk =   0.0063492
        k(   25) = (   0.2000000   0.0000000   0.4444444), wk =   0.0063492
        k(   26) = (   0.2000000   0.1428571   0.0000000), wk =   0.0063492
        k(   27) = (   0.2000000   0.1428571   0.1111111), wk =   0.0063492
        k(   28) = (   0.2000000   0.1428571   0.2222222), wk =   0.0063492
        k(   29) = (   0.2000000   0.1428571   0.3333333), wk =   0.0063492
        k(   30) = (   0.2000000   0.1428571   0.4444444), wk =   0.0063492
        k(   31) = (   0.2000000   0.2857143   0.0000000), wk =   0.0063492
        k(   32) = (   0.2000000   0.2857143   0.1111111), wk =   0.0063492
        k(   33) = (   0.2000000   0.2857143   0.2222222), wk =   0.0063492
        k(   34) = (   0.2000000   0.2857143   0.3333333), wk =   0.0063492
        k(   35) = (   0.2000000   0.2857143   0.4444444), wk =   0.0063492
        k(   36) = (   0.2000000   0.4285714   0.0000000), wk =   0.0063492
        k(   37) = (   0.2000000   0.4285714   0.1111111), wk =   0.0063492
        k(   38) = (   0.2000000   0.4285714   0.2222222), wk =   0.0063492
        k(   39) = (   0.2000000   0.4285714   0.3333333), wk =   0.0063492
        k(   40) = (   0.2000000   0.4285714   0.4444444), wk =   0.0063492
        k(   41) = (   0.4000000   0.0000000   0.0000000), wk =   0.0063492
        k(   42) = (   0.4000000   0.0000000   0.1111111), wk =   0.0063492
        k(   43) = (   0.4000000   0.0000000   0.2222222), wk =   0.0063492
        k(   44) = (   0.4000000   0.0000000   0.3333333), wk =   0.0063492
        k(   45) = (   0.4000000   0.0000000   0.4444444), wk =   0.0063492
        k(   46) = (   0.4000000   0.1428571   0.0000000), wk =   0.0063492
        k(   47) = (   0.4000000   0.1428571   0.1111111), wk =   0.0063492
        k(   48) = (   0.4000000   0.1428571   0.2222222), wk =   0.0063492
        k(   49) = (   0.4000000   0.1428571   0.3333333), wk =   0.0063492
        k(   50) = (   0.4000000   0.1428571   0.4444444), wk =   0.0063492
        k(   51) = (   0.4000000   0.2857143   0.0000000), wk =   0.0063492
        k(   52) = (   0.4000000   0.2857143   0.1111111), wk =   0.0063492
        k(   53) = (   0.4000000   0.2857143   0.2222222), wk =   0.0063492
        k(   54) = (   0.4000000   0.2857143   0.3333333), wk =   0.0063492
        k(   55) = (   0.4000000   0.2857143   0.4444444), wk =   0.0063492
        k(   56) = (   0.4000000   0.4285714   0.0000000), wk =   0.0063492
        k(   57) = (   0.4000000   0.4285714   0.1111111), wk =   0.0063492
        k(   58) = (   0.4000000   0.4285714   0.2222222), wk =   0.0063492
        k(   59) = (   0.4000000   0.4285714   0.3333333), wk =   0.0063492
        k(   60) = (   0.4000000   0.4285714   0.4444444), wk =   0.0063492
        k(   61) = (   0.0000000  -0.1428571   0.1111111), wk =   0.0063492
        k(   62) = (   0.0000000  -0.1428571   0.2222222), wk =   0.0063492
        k(   63) = (   0.0000000  -0.1428571   0.3333333), wk =   0.0063492
        k(   64) = (   0.0000000  -0.1428571   0.4444444), wk =   0.0063492
        k(   65) = (   0.0000000  -0.2857143   0.1111111), wk =   0.0063492
        k(   66) = (   0.0000000  -0.2857143   0.2222222), wk =   0.0063492
        k(   67) = (   0.0000000  -0.2857143   0.3333333), wk =   0.0063492
        k(   68) = (   0.0000000  -0.2857143   0.4444444), wk =   0.0063492
        k(   69) = (   0.0000000  -0.4285714   0.1111111), wk =   0.0063492
        k(   70) = (   0.0000000  -0.4285714   0.2222222), wk =   0.0063492
        k(   71) = (   0.0000000  -0.4285714   0.3333333), wk =   0.0063492
        k(   72) = (   0.0000000  -0.4285714   0.4444444), wk =   0.0063492
        k(   73) = (  -0.2000000   0.0000000   0.1111111), wk =   0.0063492
        k(   74) = (  -0.2000000   0.0000000   0.2222222), wk =   0.0063492
        k(   75) = (  -0.2000000   0.0000000   0.3333333), wk =   0.0063492
        k(   76) = (  -0.2000000   0.0000000   0.4444444), wk =   0.0063492
        k(   77) = (  -0.2000000   0.1428571   0.0000000), wk =   0.0063492
        k(   78) = (  -0.2000000  -0.1428571   0.1111111), wk =   0.0063492
        k(   79) = (  -0.2000000   0.1428571  -0.1111111), wk =   0.0063492
        k(   80) = (   0.2000000  -0.1428571  -0.1111111), wk =   0.0063492
        k(   81) = (  -0.2000000  -0.1428571   0.2222222), wk =   0.0063492
        k(   82) = (  -0.2000000   0.1428571  -0.2222222), wk =   0.0063492
        k(   83) = (   0.2000000  -0.1428571  -0.2222222), wk =   0.0063492
        k(   84) = (  -0.2000000  -0.1428571   0.3333333), wk =   0.0063492
        k(   85) = (  -0.2000000   0.1428571  -0.3333333), wk =   0.0063492
        k(   86) = (   0.2000000  -0.1428571  -0.3333333), wk =   0.0063492
        k(   87) = (  -0.2000000  -0.1428571   0.4444444), wk =   0.0063492
        k(   88) = (  -0.2000000   0.1428571  -0.4444444), wk =   0.0063492
        k(   89) = (   0.2000000  -0.1428571  -0.4444444), wk =   0.0063492
        k(   90) = (  -0.2000000   0.2857143   0.0000000), wk =   0.0063492
        k(   91) = (  -0.2000000  -0.2857143   0.1111111), wk =   0.0063492
        k(   92) = (  -0.2000000   0.2857143  -0.1111111), wk =   0.0063492
        k(   93) = (   0.2000000  -0.2857143  -0.1111111), wk =   0.0063492
        k(   94) = (  -0.2000000  -0.2857143   0.2222222), wk =   0.0063492
        k(   95) = (  -0.2000000   0.2857143  -0.2222222), wk =   0.0063492
        k(   96) = (   0.2000000  -0.2857143  -0.2222222), wk =   0.0063492
        k(   97) = (  -0.2000000  -0.2857143   0.3333333), wk =   0.0063492
        k(   98) = (  -0.2000000   0.2857143  -0.3333333), wk =   0.0063492
        k(   99) = (   0.2000000  -0.2857143  -0.3333333), wk =   0.0063492
        k(  100) = (  -0.2000000  -0.2857143   0.4444444), wk =   0.0063492
        k(  101) = (  -0.2000000   0.2857143  -0.4444444), wk =   0.0063492
        k(  102) = (   0.2000000  -0.2857143  -0.4444444), wk =   0.0063492
        k(  103) = (  -0.2000000   0.4285714   0.0000000), wk =   0.0063492
        k(  104) = (  -0.2000000  -0.4285714   0.1111111), wk =   0.0063492
        k(  105) = (  -0.2000000   0.4285714  -0.1111111), wk =   0.0063492
        k(  106) = (   0.2000000  -0.4285714  -0.1111111), wk =   0.0063492
        k(  107) = (  -0.2000000  -0.4285714   0.2222222), wk =   0.0063492
        k(  108) = (  -0.2000000   0.4285714  -0.2222222), wk =   0.0063492
        k(  109) = (   0.2000000  -0.4285714  -0.2222222), wk =   0.0063492
        k(  110) = (  -0.2000000  -0.4285714   0.3333333), wk =   0.0063492
        k(  111) = (  -0.2000000   0.4285714  -0.3333333), wk =   0.0063492
        k(  112) = (   0.2000000  -0.4285714  -0.3333333), wk =   0.0063492
        k(  113) = (  -0.2000000  -0.4285714   0.4444444), wk =   0.0063492
        k(  114) = (  -0.2000000   0.4285714  -0.4444444), wk =   0.0063492
        k(  115) = (   0.2000000  -0.4285714  -0.4444444), wk =   0.0063492
        k(  116) = (  -0.4000000   0.0000000   0.1111111), wk =   0.0063492
        k(  117) = (  -0.4000000   0.0000000   0.2222222), wk =   0.0063492
        k(  118) = (  -0.4000000   0.0000000   0.3333333), wk =   0.0063492
        k(  119) = (  -0.4000000   0.0000000   0.4444444), wk =   0.0063492
        k(  120) = (  -0.4000000   0.1428571   0.0000000), wk =   0.0063492
        k(  121) = (  -0.4000000  -0.1428571   0.1111111), wk =   0.0063492
        k(  122) = (  -0.4000000   0.1428571  -0.1111111), wk =   0.0063492
        k(  123) = (   0.4000000  -0.1428571  -0.1111111), wk =   0.0063492
        k(  124) = (  -0.4000000  -0.1428571   0.2222222), wk =   0.0063492
        k(  125) = (  -0.4000000   0.1428571  -0.2222222), wk =   0.0063492
        k(  126) = (   0.4000000  -0.1428571  -0.2222222), wk =   0.0063492
        k(  127) = (  -0.4000000  -0.1428571   0.3333333), wk =   0.0063492
        k(  128) = (  -0.4000000   0.1428571  -0.3333333), wk =   0.0063492
        k(  129) = (   0.4000000  -0.1428571  -0.3333333), wk =   0.0063492
        k(  130) = (  -0.4000000  -0.1428571   0.4444444), wk =   0.0063492
        k(  131) = (  -0.4000000   0.1428571  -0.4444444), wk =   0.0063492
        k(  132) = (   0.4000000  -0.1428571  -0.4444444), wk =   0.0063492
        k(  133) = (  -0.4000000   0.2857143   0.0000000), wk =   0.0063492
        k(  134) = (  -0.4000000  -0.2857143   0.1111111), wk =   0.0063492
        k(  135) = (  -0.4000000   0.2857143  -0.1111111), wk =   0.0063492
        k(  136) = (   0.4000000  -0.2857143  -0.1111111), wk =   0.0063492
        k(  137) = (  -0.4000000  -0.2857143   0.2222222), wk =   0.0063492
        k(  138) = (  -0.4000000   0.2857143  -0.2222222), wk =   0.0063492
        k(  139) = (   0.4000000  -0.2857143  -0.2222222), wk =   0.0063492
        k(  140) = (  -0.4000000  -0.2857143   0.3333333), wk =   0.0063492
        k(  141) = (  -0.4000000   0.2857143  -0.3333333), wk =   0.0063492
        k(  142) = (   0.4000000  -0.2857143  -0.3333333), wk =   0.0063492
        k(  143) = (  -0.4000000  -0.2857143   0.4444444), wk =   0.0063492
        k(  144) = (  -0.4000000   0.2857143  -0.4444444), wk =   0.0063492
        k(  145) = (   0.4000000  -0.2857143  -0.4444444), wk =   0.0063492
        k(  146) = (  -0.4000000   0.4285714   0.0000000), wk =   0.0063492
        k(  147) = (  -0.4000000  -0.4285714   0.1111111), wk =   0.0063492
        k(  148) = (  -0.4000000   0.4285714  -0.1111111), wk =   0.0063492
        k(  149) = (   0.4000000  -0.4285714  -0.1111111), wk =   0.0063492
        k(  150) = (  -0.4000000  -0.4285714   0.2222222), wk =   0.0063492
        k(  151) = (  -0.4000000   0.4285714  -0.2222222), wk =   0.0063492
        k(  152) = (   0.4000000  -0.4285714  -0.2222222), wk =   0.0063492
        k(  153) = (  -0.4000000  -0.4285714   0.3333333), wk =   0.0063492
        k(  154) = (  -0.4000000   0.4285714  -0.3333333), wk =   0.0063492
        k(  155) = (   0.4000000  -0.4285714  -0.3333333), wk =   0.0063492
        k(  156) = (  -0.4000000  -0.4285714   0.4444444), wk =   0.0063492
        k(  157) = (  -0.4000000   0.4285714  -0.4444444), wk =   0.0063492
        k(  158) = (   0.4000000  -0.4285714  -0.4444444), wk =   0.0063492

     Dense  grid:  1231207 G-vectors     FFT dimensions: ( 216, 125, 100)

     Smooth grid:   277409 G-vectors     FFT dimensions: ( 125,  75,  60)

     Dynamical RAM for                 wfc:       5.03 MB

     Dynamical RAM for     wfc (w. buffer):    1593.61 MB

     Dynamical RAM for           str. fact:       6.26 MB

     Dynamical RAM for           local pot:       0.00 MB

     Dynamical RAM for          nlocal pot:      12.35 MB

     Dynamical RAM for                qrad:      10.54 MB

     Dynamical RAM for          rho,v,vnew:      20.52 MB

     Dynamical RAM for               rhoin:       6.84 MB

     Dynamical RAM for            rho*nmix:      50.10 MB

     Dynamical RAM for           G-vectors:       6.05 MB

     Dynamical RAM for          h,s,v(r/c):       2.38 MB

     Dynamical RAM for          <psi|beta>:       0.49 MB

     Dynamical RAM for                 psi:      10.05 MB

     Dynamical RAM for                hpsi:      10.05 MB

     Dynamical RAM for                spsi:      10.05 MB

     Dynamical RAM for      wfcinit/wfcrot:      12.51 MB

     Dynamical RAM for           addusdens:     317.81 MB

     Dynamical RAM for          addusforce:     364.90 MB

     Dynamical RAM for         addusstress:     317.03 MB

     Estimated static dynamical RAM per process >       1.68 GB

     Estimated max dynamical RAM per process >       2.04 GB

     Estimated total dynamical RAM >      24.49 GB

     Check: negative core charge=   -0.000003
     Generating pointlists ...
     new r_m :   0.0764 (alat units)  1.4772 (a.u.) for type    1
     new r_m :   0.0901 (alat units)  1.7422 (a.u.) for type    2
     new r_m :   0.0608 (alat units)  1.1758 (a.u.) for type    3
     new r_m :   0.0608 (alat units)  1.1758 (a.u.) for type    4

     Initial potential from superposition of free atoms

     starting charge  188.99132, renormalised to  189.00000
     Starting wfcs are  137 randomized atomic wfcs
     Checking if some PAW data can be deallocated... 
       PAW data deallocated on   10 nodes for type:  1
       PAW data deallocated on    4 nodes for type:  3

     total cpu time spent up to now is     2464.6 secs

     Self-consistent Calculation

     iteration #  1     ecut=   100.00 Ry     beta= 0.40
     Davidson diagonalization with overlap
     ethr =  1.00E-02,  avg # of iterations =  3.1

     negative rho (up, down):  0.000E+00 7.103E-05

     total cpu time spent up to now is     9518.6 secs

     total energy              =   -2123.99016990 Ry
     estimated scf accuracy    <       6.83380951 Ry

     total magnetization       =    19.00 Bohr mag/cell
     absolute magnetization    =    19.00 Bohr mag/cell

     iteration #  2     ecut=   100.00 Ry     beta= 0.40
     Davidson diagonalization with overlap
     ethr =  3.62E-03,  avg # of iterations =  2.0

     negative rho (up, down):  0.000E+00 1.785E-05

     total cpu time spent up to now is    16146.7 secs

     total energy              =   -2121.77321166 Ry
     estimated scf accuracy    <      27.02062130 Ry

     total magnetization       =     9.34 Bohr mag/cell
     absolute magnetization    =    10.93 Bohr mag/cell

     iteration #  3     ecut=   100.00 Ry     beta= 0.40
     Davidson diagonalization with overlap
     ethr =  3.62E-03,  avg # of iterations =  2.8

     negative rho (up, down):  0.000E+00 7.357E-06

     total cpu time spent up to now is    21714.5 secs

     total energy              =   -2123.39370305 Ry
     estimated scf accuracy    <      70.84821568 Ry

     total magnetization       =     2.33 Bohr mag/cell
     absolute magnetization    =     5.19 Bohr mag/cell

     iteration #  4     ecut=   100.00 Ry     beta= 0.40
     Davidson diagonalization with overlap
     ethr =  3.62E-03,  avg # of iterations =  1.5

     negative rho (up, down):  0.000E+00 5.533E-06

     total cpu time spent up to now is    26874.5 secs

     total energy              =   -2124.67196832 Ry
     estimated scf accuracy    <      22.31650036 Ry

     total magnetization       =    10.45 Bohr mag/cell
     absolute magnetization    =    10.81 Bohr mag/cell

     iteration #  5     ecut=   100.00 Ry     beta= 0.40
     Davidson diagonalization with overlap
     ethr =  3.62E-03,  avg # of iterations =  2.0

     negative rho (up, down):  0.000E+00 5.635E-05

     total cpu time spent up to now is    32156.9 secs

     total energy              =   -2125.83447657 Ry
     estimated scf accuracy    <       4.80264142 Ry

     total magnetization       =    16.67 Bohr mag/cell
     absolute magnetization    =    16.75 Bohr mag/cell

     iteration #  6     ecut=   100.00 Ry     beta= 0.40
     Davidson diagonalization with overlap
     ethr =  2.54E-03,  avg # of iterations =  1.5

     negative rho (up, down):  0.000E+00 1.138E-04

     total cpu time spent up to now is    37281.7 secs

     total energy              =   -2125.93460762 Ry
     estimated scf accuracy    <       1.22839290 Ry

     total magnetization       =    17.83 Bohr mag/cell
     absolute magnetization    =    17.84 Bohr mag/cell

     iteration #  7     ecut=   100.00 Ry     beta= 0.40
     Davidson diagonalization with overlap
     ethr =  6.50E-04,  avg # of iterations =  1.5

     negative rho (up, down):  0.000E+00 1.949E-04

     total cpu time spent up to now is    42445.2 secs

     total energy              =   -2125.94432077 Ry
     estimated scf accuracy    <       2.59536392 Ry

     total magnetization       =    17.43 Bohr mag/cell
     absolute magnetization    =    17.46 Bohr mag/cell

     iteration #  8     ecut=   100.00 Ry     beta= 0.40
     Davidson diagonalization with overlap
     ethr =  6.50E-04,  avg # of iterations =  1.0

     negative rho (up, down):  0.000E+00 3.069E-04

     total cpu time spent up to now is    47473.7 secs

     total energy              =   -2126.06864775 Ry
     estimated scf accuracy    <       0.47290940 Ry

     total magnetization       =    19.00 Bohr mag/cell
     absolute magnetization    =    19.00 Bohr mag/cell

     iteration #  9     ecut=   100.00 Ry     beta= 0.40
     Davidson diagonalization with overlap
     ethr =  2.50E-04,  avg # of iterations =  1.9

     negative rho (up, down):  0.000E+00 4.632E-04

     total cpu time spent up to now is    52668.3 secs

     total energy              =   -2126.06968499 Ry
     estimated scf accuracy    <       0.20385347 Ry

     total magnetization       =    19.00 Bohr mag/cell
     absolute magnetization    =    19.00 Bohr mag/cell

     iteration # 10     ecut=   100.00 Ry     beta= 0.40
     Davidson diagonalization with overlap
     c_bands:  1 eigenvalues not converged
     c_bands:  1 eigenvalues not converged
     c_bands:  1 eigenvalues not converged
     c_bands:  1 eigenvalues not converged
     c_bands:  2 eigenvalues not converged
     c_bands:  1 eigenvalues not converged
     c_bands:  1 eigenvalues not converged
     c_bands:  1 eigenvalues not converged
     c_bands:  1 eigenvalues not converged
     c_bands:  2 eigenvalues not converged
     ethr =  1.08E-04,  avg # of iterations =  9.7

     negative rho (up, down):  0.000E+00 6.799E-04

     total cpu time spent up to now is    58902.9 secs

     total energy              =   -2126.07955970 Ry
     estimated scf accuracy    <       0.09536847 Ry

     total magnetization       =    19.00 Bohr mag/cell
     absolute magnetization    =    19.01 Bohr mag/cell

     iteration # 11     ecut=   100.00 Ry     beta= 0.40
     Davidson diagonalization with overlap
     c_bands:  1 eigenvalues not converged
     c_bands:  1 eigenvalues not converged
     c_bands:  1 eigenvalues not converged
     ethr =  5.05E-05,  avg # of iterations =  9.2

     negative rho (up, down):  0.000E+00 8.722E-04

     total cpu time spent up to now is    65367.4 secs

     total energy              =   -2126.08534611 Ry
     estimated scf accuracy    <       0.08010915 Ry

     total magnetization       =    19.00 Bohr mag/cell
     absolute magnetization    =    19.02 Bohr mag/cell

     iteration # 12     ecut=   100.00 Ry     beta= 0.40
     Davidson diagonalization with overlap
     ethr =  4.24E-05,  avg # of iterations =  1.1

     negative rho (up, down):  0.000E+00 8.243E-04

     total cpu time spent up to now is    70495.6 secs

     total energy              =   -2126.08327479 Ry
     estimated scf accuracy    <       0.10849208 Ry

     total magnetization       =    19.00 Bohr mag/cell
     absolute magnetization    =    19.03 Bohr mag/cell

     iteration # 13     ecut=   100.00 Ry     beta= 0.40
     Davidson diagonalization with overlap
     ethr =  4.24E-05,  avg # of iterations =  1.0

     negative rho (up, down):  0.000E+00 9.261E-04

     total cpu time spent up to now is    75605.0 secs

     total energy              =   -2126.08675341 Ry
     estimated scf accuracy    <       0.04365844 Ry

     total magnetization       =    19.00 Bohr mag/cell
     absolute magnetization    =    19.03 Bohr mag/cell

     iteration # 14     ecut=   100.00 Ry     beta= 0.40
     Davidson diagonalization with overlap
     ethr =  2.31E-05,  avg # of iterations =  1.1

     negative rho (up, down):  0.000E+00 9.628E-04

     total cpu time spent up to now is    80787.4 secs

     total energy              =   -2126.08796720 Ry
     estimated scf accuracy    <       0.00277131 Ry

     total magnetization       =    19.00 Bohr mag/cell
     absolute magnetization    =    19.03 Bohr mag/cell

     iteration # 15     ecut=   100.00 Ry     beta= 0.40
     Davidson diagonalization with overlap
     c_bands:  1 eigenvalues not converged
     c_bands:  1 eigenvalues not converged
     c_bands:  1 eigenvalues not converged
     c_bands:  1 eigenvalues not converged
     c_bands:  1 eigenvalues not converged
     c_bands:  1 eigenvalues not converged
     c_bands:  1 eigenvalues not converged
     c_bands:  1 eigenvalues not converged
     c_bands:  1 eigenvalues not converged
     c_bands:  1 eigenvalues not converged
     c_bands:  1 eigenvalues not converged
     c_bands:  1 eigenvalues not converged
     c_bands:  1 eigenvalues not converged
     c_bands:  1 eigenvalues not converged
     c_bands:  1 eigenvalues not converged
     c_bands:  1 eigenvalues not converged
     c_bands:  1 eigenvalues not converged
     c_bands:  1 eigenvalues not converged
     c_bands:  1 eigenvalues not converged
     c_bands:  1 eigenvalues not converged
     ethr =  1.47E-06,  avg # of iterations = 13.8

     negative rho (up, down):  0.000E+00 9.423E-04

     total cpu time spent up to now is    89572.1 secs

     total energy              =   -2126.08862026 Ry
     estimated scf accuracy    <       0.00198877 Ry

     total magnetization       =    19.00 Bohr mag/cell
     absolute magnetization    =    19.04 Bohr mag/cell

     iteration # 16     ecut=   100.00 Ry     beta= 0.40
     Davidson diagonalization with overlap
     c_bands:  1 eigenvalues not converged
     ethr =  1.05E-06,  avg # of iterations =  1.1

     negative rho (up, down):  0.000E+00 9.299E-04

     total cpu time spent up to now is    94668.8 secs

     total energy              =   -2126.08869261 Ry
     estimated scf accuracy    <       0.00031760 Ry

     total magnetization       =    19.00 Bohr mag/cell
     absolute magnetization    =    19.04 Bohr mag/cell

     iteration # 17     ecut=   100.00 Ry     beta= 0.40
     Davidson diagonalization with overlap
     ethr =  1.68E-07,  avg # of iterations =  2.5

     negative rho (up, down):  0.000E+00 9.321E-04

     total cpu time spent up to now is   100397.8 secs

     total energy              =   -2126.08872576 Ry
     estimated scf accuracy    <       0.00054237 Ry

     total magnetization       =    19.00 Bohr mag/cell
     absolute magnetization    =    19.04 Bohr mag/cell

     iteration # 18     ecut=   100.00 Ry     beta= 0.40
     Davidson diagonalization with overlap
     ethr =  1.68E-07,  avg # of iterations =  1.0

     negative rho (up, down):  0.000E+00 9.270E-04

     total cpu time spent up to now is   105490.1 secs

     total energy              =   -2126.08874248 Ry
     estimated scf accuracy    <       0.00011646 Ry

     total magnetization       =    19.00 Bohr mag/cell
     absolute magnetization    =    19.04 Bohr mag/cell

     iteration # 19     ecut=   100.00 Ry     beta= 0.40
     Davidson diagonalization with overlap
     ethr =  6.16E-08,  avg # of iterations =  1.2

     negative rho (up, down):  0.000E+00 9.278E-04

     total cpu time spent up to now is   110643.8 secs

     total energy              =   -2126.08875106 Ry
     estimated scf accuracy    <       0.00002121 Ry

     total magnetization       =    19.00 Bohr mag/cell
     absolute magnetization    =    19.04 Bohr mag/cell

     iteration # 20     ecut=   100.00 Ry     beta= 0.40
     Davidson diagonalization with overlap
     ethr =  1.12E-08,  avg # of iterations =  2.6

     negative rho (up, down):  0.000E+00 9.285E-04

     total cpu time spent up to now is   116544.7 secs

     total energy              =   -2126.08875458 Ry
     estimated scf accuracy    <       0.00000579 Ry

     total magnetization       =    19.00 Bohr mag/cell
     absolute magnetization    =    19.04 Bohr mag/cell

     iteration # 21     ecut=   100.00 Ry     beta= 0.40
     Davidson diagonalization with overlap
     ethr =  3.06E-09,  avg # of iterations =  3.1

     negative rho (up, down):  0.000E+00 9.287E-04

     total cpu time spent up to now is   122568.5 secs

     total energy              =   -2126.08875581 Ry
     estimated scf accuracy    <       0.00000044 Ry

     total magnetization       =    19.00 Bohr mag/cell
     absolute magnetization    =    19.04 Bohr mag/cell

     iteration # 22     ecut=   100.00 Ry     beta= 0.40
     Davidson diagonalization with overlap
     ethr =  2.33E-10,  avg # of iterations =  3.5

     negative rho (up, down):  0.000E+00 9.286E-04

     total cpu time spent up to now is   129696.3 secs

     total energy              =   -2126.08875609 Ry
     estimated scf accuracy    <       0.00000052 Ry

     total magnetization       =    19.00 Bohr mag/cell
     absolute magnetization    =    19.04 Bohr mag/cell

     iteration # 23     ecut=   100.00 Ry     beta= 0.40
     Davidson diagonalization with overlap
     ethr =  2.33E-10,  avg # of iterations =  1.0

     negative rho (up, down):  0.000E+00 9.286E-04

     total cpu time spent up to now is   134816.7 secs

     total energy              =   -2126.08875611 Ry
     estimated scf accuracy    <       0.00000070 Ry

     total magnetization       =    19.00 Bohr mag/cell
     absolute magnetization    =    19.04 Bohr mag/cell

     iteration # 24     ecut=   100.00 Ry     beta= 0.40
     Davidson diagonalization with overlap
     ethr =  2.33E-10,  avg # of iterations =  2.0

     negative rho (up, down):  0.000E+00 9.284E-04

     total cpu time spent up to now is   140187.7 secs

     total energy              =   -2126.08875623 Ry
     estimated scf accuracy    <       0.00000018 Ry

     total magnetization       =    19.00 Bohr mag/cell
     absolute magnetization    =    19.04 Bohr mag/cell

     iteration # 25     ecut=   100.00 Ry     beta= 0.40
     Davidson diagonalization with overlap
     ethr =  9.67E-11,  avg # of iterations =  1.5

     negative rho (up, down):  0.000E+00 9.284E-04

     total cpu time spent up to now is   145360.2 secs

     total energy              =   -2126.08875625 Ry
     estimated scf accuracy    <       0.00000007 Ry

     total magnetization       =    19.00 Bohr mag/cell
     absolute magnetization    =    19.04 Bohr mag/cell

     iteration # 26     ecut=   100.00 Ry     beta= 0.40
     Davidson diagonalization with overlap
     ethr =  3.54E-11,  avg # of iterations =  2.0

     negative rho (up, down):  0.000E+00 9.284E-04

     total cpu time spent up to now is   148048.2 secs

     total energy              =   -2126.08875626 Ry
     estimated scf accuracy    <       0.00000005 Ry

     total magnetization       =    19.00 Bohr mag/cell
     absolute magnetization    =    19.04 Bohr mag/cell

     iteration # 27     ecut=   100.00 Ry     beta= 0.40
     Davidson diagonalization with overlap
     ethr =  2.62E-11,  avg # of iterations =  2.0

     negative rho (up, down):  0.000E+00 9.284E-04

     total cpu time spent up to now is   148774.6 secs

     total energy              =   -2126.08875627 Ry
     estimated scf accuracy    <       0.00000002 Ry

     total magnetization       =    19.00 Bohr mag/cell
     absolute magnetization    =    19.04 Bohr mag/cell

     iteration # 28     ecut=   100.00 Ry     beta= 0.40
     Davidson diagonalization with overlap
     ethr =  1.19E-11,  avg # of iterations =  2.1

     negative rho (up, down):  0.000E+00 9.284E-04

     total cpu time spent up to now is   149504.5 secs

     total energy              =   -2126.08875627 Ry
     estimated scf accuracy    <       0.00000002 Ry

     total magnetization       =    19.00 Bohr mag/cell
     absolute magnetization    =    19.04 Bohr mag/cell

     iteration # 29     ecut=   100.00 Ry     beta= 0.40
     Davidson diagonalization with overlap
     ethr =  9.85E-12,  avg # of iterations =  1.0

     negative rho (up, down):  0.000E+00 9.285E-04

     total cpu time spent up to now is   150114.1 secs

     total energy              =   -2126.08875627 Ry
     estimated scf accuracy    <          8.8E-09 Ry

     total magnetization       =    19.00 Bohr mag/cell
     absolute magnetization    =    19.04 Bohr mag/cell

     iteration # 30     ecut=   100.00 Ry     beta= 0.40
     Davidson diagonalization with overlap
     ethr =  4.68E-12,  avg # of iterations =  1.2

     negative rho (up, down):  0.000E+00 9.285E-04

     total cpu time spent up to now is   150746.1 secs

     total energy              =   -2126.08875627 Ry
     estimated scf accuracy    <          8.8E-09 Ry

     total magnetization       =    19.00 Bohr mag/cell
     absolute magnetization    =    19.04 Bohr mag/cell

     iteration # 31     ecut=   100.00 Ry     beta= 0.40
     Davidson diagonalization with overlap
     ethr =  4.67E-12,  avg # of iterations =  1.5

     negative rho (up, down):  0.000E+00 9.285E-04

     total cpu time spent up to now is   151401.2 secs

     total energy              =   -2126.08875628 Ry
     estimated scf accuracy    <          4.0E-09 Ry

     total magnetization       =    19.00 Bohr mag/cell
     absolute magnetization    =    19.04 Bohr mag/cell

     iteration # 32     ecut=   100.00 Ry     beta= 0.40
     Davidson diagonalization with overlap
     ethr =  2.11E-12,  avg # of iterations =  1.2

     negative rho (up, down):  0.000E+00 9.285E-04

     total cpu time spent up to now is   152030.0 secs

     total energy              =   -2126.08875628 Ry
     estimated scf accuracy    <          2.1E-10 Ry

     total magnetization       =    19.00 Bohr mag/cell
     absolute magnetization    =    19.04 Bohr mag/cell

     iteration # 33     ecut=   100.00 Ry     beta= 0.40
     Davidson diagonalization with overlap
     ethr =  1.13E-13,  avg # of iterations =  5.9

     negative rho (up, down):  0.000E+00 9.285E-04

     total cpu time spent up to now is   153438.6 secs

     total energy              =   -2126.08875628 Ry
     estimated scf accuracy    <          2.4E-10 Ry

     total magnetization       =    19.00 Bohr mag/cell
     absolute magnetization    =    19.04 Bohr mag/cell

     iteration # 34     ecut=   100.00 Ry     beta= 0.40
     Davidson diagonalization with overlap
     ethr =  1.13E-13,  avg # of iterations =  1.5

     negative rho (up, down):  0.000E+00 9.285E-04

     Magnetic moment per site:
     atom:    1    charge:    7.9229    magn:    0.0017    constr:    0.0000
     atom:    2    charge:   12.8066    magn:    3.6448    constr:    0.0000
     atom:    3    charge:   12.8418    magn:    3.5412    constr:    0.0000
     atom:    4    charge:   12.8086    magn:    3.6369    constr:    0.0000
     atom:    5    charge:   12.8238    magn:    3.5890    constr:    0.0000
     atom:    6    charge:    0.8162    magn:    0.0116    constr:    0.0000
     atom:    7    charge:    0.8120    magn:    0.0133    constr:    0.0000
     atom:    8    charge:    0.8198    magn:    0.0113    constr:    0.0000
     atom:    9    charge:    0.8105    magn:    0.0126    constr:    0.0000
     atom:   10    charge:    4.1892    magn:    0.1168    constr:    0.0000
     atom:   11    charge:    4.1916    magn:    0.1093    constr:    0.0000
     atom:   12    charge:    4.2053    magn:    0.0984    constr:    0.0000
     atom:   13    charge:    4.1913    magn:    0.1144    constr:    0.0000
     atom:   14    charge:    4.1820    magn:    0.1182    constr:    0.0000
     atom:   15    charge:    4.1821    magn:    0.0919    constr:    0.0000
     atom:   16    charge:    4.1864    magn:    0.1215    constr:    0.0000
     atom:   17    charge:    4.1809    magn:    0.0987    constr:    0.0000
     atom:   18    charge:    4.1808    magn:    0.1292    constr:    0.0000
     atom:   19    charge:    4.1724    magn:    0.1448    constr:    0.0000
     atom:   20    charge:    4.1814    magn:    0.1168    constr:    0.0000
     atom:   21    charge:    4.1635    magn:    0.1508    constr:    0.0000
     atom:   22    charge:    4.1724    magn:    0.1280    constr:    0.0000
     atom:   23    charge:    4.1705    magn:    0.1504    constr:    0.0000
     atom:   24    charge:    4.1776    magn:    0.1097    constr:    0.0000
     atom:   25    charge:    4.1717    magn:    0.1515    constr:    0.0000

     total cpu time spent up to now is   154095.4 secs

     End of self-consistent calculation

 ------ SPIN UP ------------


          k = 0.0000 0.0000 0.0000 ( 34745 PWs)   bands (ev):

   -84.6360 -84.6222 -84.3092 -84.1434 -50.7224 -50.6800 -50.6093 -50.6003
   -50.5730 -50.5614 -50.5050 -50.4152 -50.2836 -50.1496 -50.1140 -49.9380
   -43.9391 -16.2022 -16.0776 -15.9596 -15.9491 -15.8196 -15.7684 -15.4162
   -13.5872 -13.4102 -13.2869 -13.2758 -13.2170 -13.1985 -13.1522 -13.1202
   -13.0547 -13.0471 -12.9779 -12.9674  -3.8165  -3.3503  -3.1518  -2.8328
    -1.9677  -1.7807  -1.6032  -1.4222  -1.3215  -1.0322  -1.0044  -0.8678
    -0.7104  -0.6482  -0.6066  -0.5046   0.1823   0.2387   0.6199   0.7717
     0.7953   0.8471   0.8513   1.0147   1.0707   1.1741   1.2467   1.3620
     1.6707   1.7629   1.8885   1.9501   2.0327   2.2008   2.3401   2.3751
     2.4012   2.4818   2.5435   2.6974   2.8294   2.9067   3.0003   3.0808
     3.1881   3.2500   3.3523   3.4278   3.5736   3.6402   3.6838   3.7891
     3.9029   3.9104   4.0320   4.0890   4.2116   4.2900   4.3404   4.4190
     4.5809   4.7603   4.8084   4.8646   5.0977   5.2897   5.6509   5.7780
    10.0429  12.0331  12.3604  12.9296  13.0359  13.9246  14.1132  14.2633
    14.3108  14.3978

     occupation numbers 
     1.0000   1.0000   1.0000   1.0000   1.0000   1.0000   1.0000   1.0000
     1.0000   1.0000   1.0000   1.0000   1.0000   1.0000   1.0000   1.0000
     1.0000   1.0000   1.0000   1.0000   1.0000   1.0000   1.0000   1.0000
     1.0000   1.0000   1.0000   1.0000   1.0000   1.0000   1.0000   1.0000
     1.0000   1.0000   1.0000   1.0000   1.0000   1.0000   1.0000   1.0000
     1.0000   1.0000   1.0000   1.0000   1.0000   1.0000   1.0000   1.0000
     1.0000   1.0000   1.0000   1.0000   1.0000   1.0000   1.0000   1.0000
     1.0000   1.0000   1.0000   1.0000   1.0000   1.0000   1.0000   1.0000
     1.0000   1.0000   1.0000   1.0000   1.0000   1.0000   1.0000   1.0000
     1.0000   1.0000   1.0000   1.0000   1.0000   1.0000   1.0000   1.0000
     1.0000   1.0000   1.0000   1.0000   1.0000   1.0000   1.0000   1.0000
     1.0000   1.0000   1.0000   1.0000   1.0000   1.0000   1.0000   1.0000
     1.0000   1.0000   1.0000   1.0000   1.0000   1.0000   1.0000   1.0000
     0.0000   0.0000   0.0000   0.0000   0.0000   0.0000   0.0000   0.0000
     0.0000   0.0000

          k = 0.0000 0.0000 0.2337 ( 34669 PWs)   bands (ev):

   -84.6360 -84.6222 -84.3092 -84.1434 -50.7224 -50.6800 -50.6093 -50.6003
   -50.5730 -50.5614 -50.5050 -50.4152 -50.2836 -50.1496 -50.1140 -49.9380
   -43.9391 -16.2088 -16.0642 -15.9694 -15.9482 -15.8036 -15.7490 -15.4189
   -13.5964 -13.4258 -13.2905 -13.2735 -13.2303 -13.1978 -13.1579 -13.1225
   -13.0587 -13.0442 -12.9954 -12.9602  -3.7856  -3.3424  -3.1416  -2.8281
    -1.9272  -1.7761  -1.5951  -1.4031  -1.3191  -1.0340  -1.0061  -0.8294
    -0.7284  -0.6408  -0.6036  -0.4962   0.1864   0.2577   0.6014   0.7588
     0.7874   0.8335   0.8858   1.0151   1.0612   1.1492   1.2454   1.3869
     1.6429   1.7529   1.8824   1.9475   2.0206   2.1864   2.3100   2.3597
     2.4144   2.4666   2.5728   2.6874   2.7909   2.9084   2.9686   3.0980
     3.1621   3.2369   3.3754   3.4485   3.5832   3.6172   3.6508   3.7640
     3.8750   3.9383   4.0023   4.0907   4.2358   4.2956   4.3794   4.4380
     4.5767   4.7192   4.8075   4.8948   5.0827   5.2822   5.6419   5.7652
    10.1890  12.1037  12.4248  12.9166  13.1245  13.8628  14.0068  14.1618
    14.2199  14.4159

     occupation numbers 
     1.0000   1.0000   1.0000   1.0000   1.0000   1.0000   1.0000   1.0000
     1.0000   1.0000   1.0000   1.0000   1.0000   1.0000   1.0000   1.0000
     1.0000   1.0000   1.0000   1.0000   1.0000   1.0000   1.0000   1.0000
     1.0000   1.0000   1.0000   1.0000   1.0000   1.0000   1.0000   1.0000
     1.0000   1.0000   1.0000   1.0000   1.0000   1.0000   1.0000   1.0000
     1.0000   1.0000   1.0000   1.0000   1.0000   1.0000   1.0000   1.0000
     1.0000   1.0000   1.0000   1.0000   1.0000   1.0000   1.0000   1.0000
     1.0000   1.0000   1.0000   1.0000   1.0000   1.0000   1.0000   1.0000
     1.0000   1.0000   1.0000   1.0000   1.0000   1.0000   1.0000   1.0000
     1.0000   1.0000   1.0000   1.0000   1.0000   1.0000   1.0000   1.0000
     1.0000   1.0000   1.0000   1.0000   1.0000   1.0000   1.0000   1.0000
     1.0000   1.0000   1.0000   1.0000   1.0000   1.0000   1.0000   1.0000
     1.0000   1.0000   1.0000   1.0000   1.0000   1.0000   1.0000   1.0000
     0.0000   0.0000   0.0000   0.0000   0.0000   0.0000   0.0000   0.0000
     0.0000   0.0000

          k = 0.0000 0.0000 0.4675 ( 34709 PWs)   bands (ev):

   -84.6360 -84.6222 -84.3092 -84.1434 -50.7224 -50.6800 -50.6093 -50.6003
   -50.5730 -50.5614 -50.5050 -50.4152 -50.2836 -50.1496 -50.1140 -49.9380
   -43.9391 -16.2232 -16.0360 -15.9796 -15.9463 -15.7739 -15.6951 -15.4293
   -13.6204 -13.4653 -13.3032 -13.2731 -13.2570 -13.2043 -13.1680 -13.1254
   -13.0695 -13.0411 -13.0149 -12.9590  -3.7019  -3.3244  -3.1140  -2.8330
    -1.8290  -1.7554  -1.5524  -1.3765  -1.3134  -1.0329  -1.0017  -0.8205
    -0.7071  -0.6138  -0.5763  -0.4694   0.2034   0.2967   0.5805   0.6865
     0.7988   0.8687   0.9117   0.9582   1.0670   1.1629   1.2424   1.4325
     1.5924   1.7118   1.8539   1.9258   1.9953   2.1148   2.2902   2.3131
     2.3368   2.4913   2.5220   2.6499   2.7773   2.8572   2.9536   3.0577
     3.1619   3.2862   3.3137   3.4744   3.4955   3.5829   3.6514   3.7543
     3.9027   3.9313   3.9997   4.1008   4.2452   4.3674   4.4008   4.4866
     4.5532   4.7141   4.7866   4.9393   5.0581   5.2598   5.6156   5.7308
    10.5838  12.2919  12.5659  12.9860  13.2888  13.6798  13.8347  13.9080
    14.0778  14.2338

     occupation numbers 
     1.0000   1.0000   1.0000   1.0000   1.0000   1.0000   1.0000   1.0000
     1.0000   1.0000   1.0000   1.0000   1.0000   1.0000   1.0000   1.0000
     1.0000   1.0000   1.0000   1.0000   1.0000   1.0000   1.0000   1.0000
     1.0000   1.0000   1.0000   1.0000   1.0000   1.0000   1.0000   1.0000
     1.0000   1.0000   1.0000   1.0000   1.0000   1.0000   1.0000   1.0000
     1.0000   1.0000   1.0000   1.0000   1.0000   1.0000   1.0000   1.0000
     1.0000   1.0000   1.0000   1.0000   1.0000   1.0000   1.0000   1.0000
     1.0000   1.0000   1.0000   1.0000   1.0000   1.0000   1.0000   1.0000
     1.0000   1.0000   1.0000   1.0000   1.0000   1.0000   1.0000   1.0000
     1.0000   1.0000   1.0000   1.0000   1.0000   1.0000   1.0000   1.0000
     1.0000   1.0000   1.0000   1.0000   1.0000   1.0000   1.0000   1.0000
     1.0000   1.0000   1.0000   1.0000   1.0000   1.0000   1.0000   1.0000
     1.0000   1.0000   1.0000   1.0000   1.0000   1.0000   1.0000   1.0000
     0.0000   0.0000   0.0000   0.0000   0.0000   0.0000   0.0000   0.0000
     0.0000   0.0000

          k = 0.0000 0.0000 0.7012 ( 34655 PWs)   bands (ev):

   -84.6360 -84.6222 -84.3092 -84.1434 -50.7224 -50.6800 -50.6093 -50.6004
   -50.5730 -50.5614 -50.5050 -50.4152 -50.2836 -50.1496 -50.1140 -49.9380
   -43.9391 -16.2377 -16.0170 -15.9710 -15.9440 -15.7433 -15.6255 -15.4528
   -13.6480 -13.5108 -13.3378 -13.2833 -13.2616 -13.2222 -13.1703 -13.1344
   -13.0783 -13.0409 -13.0192 -12.9641  -3.5924  -3.3076  -3.0782  -2.8712
    -1.7996  -1.6411  -1.4776  -1.3648  -1.3054  -1.0365  -0.9909  -0.8834
    -0.6687  -0.5758  -0.5071  -0.3874   0.2379   0.3322   0.5726   0.6533
     0.8011   0.8697   0.8848   0.9688   1.1459   1.1966   1.2554   1.4366
     1.5378   1.6690   1.7847   1.8671   1.9670   2.0247   2.1476   2.1997
     2.2962   2.3563   2.5692   2.6615   2.7393   2.8371   2.9728   3.0299
     3.1007   3.2351   3.3308   3.3537   3.4489   3.5922   3.6964   3.8075
     3.8676   3.9155   4.0715   4.1278   4.3047   4.3897   4.4197   4.5176
     4.5402   4.7570   4.7789   4.9707   5.0604   5.2255   5.5807   5.6826
    11.1338  12.5290  12.6561  13.1176  13.2795  13.5283  13.6701  13.7508
    13.9199  14.0954

     occupation numbers 
     1.0000   1.0000   1.0000   1.0000   1.0000   1.0000   1.0000   1.0000
     1.0000   1.0000   1.0000   1.0000   1.0000   1.0000   1.0000   1.0000
     1.0000   1.0000   1.0000   1.0000   1.0000   1.0000   1.0000   1.0000
     1.0000   1.0000   1.0000   1.0000   1.0000   1.0000   1.0000   1.0000
     1.0000   1.0000   1.0000   1.0000   1.0000   1.0000   1.0000   1.0000
     1.0000   1.0000   1.0000   1.0000   1.0000   1.0000   1.0000   1.0000
     1.0000   1.0000   1.0000   1.0000   1.0000   1.0000   1.0000   1.0000
     1.0000   1.0000   1.0000   1.0000   1.0000   1.0000   1.0000   1.0000
     1.0000   1.0000   1.0000   1.0000   1.0000   1.0000   1.0000   1.0000
     1.0000   1.0000   1.0000   1.0000   1.0000   1.0000   1.0000   1.0000
     1.0000   1.0000   1.0000   1.0000   1.0000   1.0000   1.0000   1.0000
     1.0000   1.0000   1.0000   1.0000   1.0000   1.0000   1.0000   1.0000
     1.0000   1.0000   1.0000   1.0000   1.0000   1.0000   1.0000   1.0000
     0.0000   0.0000   0.0000   0.0000   0.0000   0.0000   0.0000   0.0000
     0.0000   0.0000

          k = 0.0000 0.0000 0.9349 ( 34716 PWs)   bands (ev):

   -84.6360 -84.6222 -84.3092 -84.1434 -50.7224 -50.6800 -50.6093 -50.6004
   -50.5730 -50.5614 -50.5050 -50.4152 -50.2836 -50.1496 -50.1140 -49.9380
   -43.9391 -16.2467 -16.0116 -15.9565 -15.9424 -15.7227 -15.5567 -15.4935
   -13.6657 -13.5409 -13.3697 -13.2880 -13.2598 -13.2380 -13.1703 -13.1431
   -13.0804 -13.0377 -13.0192 -12.9698  -3.5058  -3.3011  -3.0430  -2.9273
    -1.7985  -1.5549  -1.4110  -1.3584  -1.2909  -1.0643  -0.9851  -0.8978
    -0.6923  -0.5596  -0.4175  -0.3112   0.2973   0.3513   0.5682   0.6412
     0.7602   0.8508   0.9210   1.0757   1.1745   1.2550   1.2716   1.4003
     1.4445   1.6019   1.6948   1.7979   1.9568   1.9735   2.0789   2.1121
     2.2183   2.3374   2.5394   2.6233   2.7735   2.8880   2.9121   3.0307
     3.0890   3.1907   3.2615   3.3023   3.4562   3.6142   3.7066   3.7943
     3.8741   3.9324   4.1056   4.1847   4.3404   4.3721   4.4237   4.5006
     4.6236   4.7349   4.8218   4.9803   5.1003   5.1837   5.5612   5.6356
    11.7408  12.3642  12.7648  12.9770  13.3398  13.5246  13.6718  13.7562
    13.8258  13.9307

     occupation numbers 
     1.0000   1.0000   1.0000   1.0000   1.0000   1.0000   1.0000   1.0000
     1.0000   1.0000   1.0000   1.0000   1.0000   1.0000   1.0000   1.0000
     1.0000   1.0000   1.0000   1.0000   1.0000   1.0000   1.0000   1.0000
     1.0000   1.0000   1.0000   1.0000   1.0000   1.0000   1.0000   1.0000
     1.0000   1.0000   1.0000   1.0000   1.0000   1.0000   1.0000   1.0000
     1.0000   1.0000   1.0000   1.0000   1.0000   1.0000   1.0000   1.0000
     1.0000   1.0000   1.0000   1.0000   1.0000   1.0000   1.0000   1.0000
     1.0000   1.0000   1.0000   1.0000   1.0000   1.0000   1.0000   1.0000
     1.0000   1.0000   1.0000   1.0000   1.0000   1.0000   1.0000   1.0000
     1.0000   1.0000   1.0000   1.0000   1.0000   1.0000   1.0000   1.0000
     1.0000   1.0000   1.0000   1.0000   1.0000   1.0000   1.0000   1.0000
     1.0000   1.0000   1.0000   1.0000   1.0000   1.0000   1.0000   1.0000
     1.0000   1.0000   1.0000   1.0000   1.0000   1.0000   1.0000   1.0000
     0.0000   0.0000   0.0000   0.0000   0.0000   0.0000   0.0000   0.0000
     0.0000   0.0000

          k = 0.0000 0.2391 0.0000 ( 34769 PWs)   bands (ev):

   -84.6360 -84.6222 -84.3092 -84.1434 -50.7224 -50.6800 -50.6093 -50.6003
   -50.5730 -50.5614 -50.5050 -50.4152 -50.2836 -50.1496 -50.1140 -49.9380
   -43.9391 -16.2122 -16.0559 -15.9606 -15.9479 -15.8172 -15.7600 -15.4327
   -13.5907 -13.4169 -13.3092 -13.2888 -13.2387 -13.1821 -13.1486 -13.1151
   -13.0432 -13.0290 -12.9833 -12.9644  -3.7885  -3.3536  -3.1413  -2.8336
    -1.9356  -1.7520  -1.6071  -1.4249  -1.2860  -1.0230  -0.9900  -0.8600
    -0.7332  -0.6490  -0.5751  -0.4873   0.1790   0.2374   0.5999   0.6646
     0.7252   0.7921   0.8984   0.9961   1.0982   1.1531   1.3513   1.4348
     1.6578   1.7576   1.8672   1.9513   2.0157   2.1274   2.2347   2.3155
     2.4307   2.4933   2.5206   2.6800   2.8696   2.9561   3.0287   3.1003
     3.2153   3.2462   3.3586   3.4109   3.5154   3.5559   3.6688   3.7713
     3.8925   3.9366   3.9772   4.1025   4.2092   4.3092   4.3723   4.4095
     4.5662   4.6897   4.8398   4.9045   5.0623   5.3803   5.6868   5.7811
    10.1998  12.1119  12.4524  12.8507  13.0777  13.9203  14.0784  14.2032
    14.2676  14.4135

     occupation numbers 
     1.0000   1.0000   1.0000   1.0000   1.0000   1.0000   1.0000   1.0000
     1.0000   1.0000   1.0000   1.0000   1.0000   1.0000   1.0000   1.0000
     1.0000   1.0000   1.0000   1.0000   1.0000   1.0000   1.0000   1.0000
     1.0000   1.0000   1.0000   1.0000   1.0000   1.0000   1.0000   1.0000
     1.0000   1.0000   1.0000   1.0000   1.0000   1.0000   1.0000   1.0000
     1.0000   1.0000   1.0000   1.0000   1.0000   1.0000   1.0000   1.0000
     1.0000   1.0000   1.0000   1.0000   1.0000   1.0000   1.0000   1.0000
     1.0000   1.0000   1.0000   1.0000   1.0000   1.0000   1.0000   1.0000
     1.0000   1.0000   1.0000   1.0000   1.0000   1.0000   1.0000   1.0000
     1.0000   1.0000   1.0000   1.0000   1.0000   1.0000   1.0000   1.0000
     1.0000   1.0000   1.0000   1.0000   1.0000   1.0000   1.0000   1.0000
     1.0000   1.0000   1.0000   1.0000   1.0000   1.0000   1.0000   1.0000
     1.0000   1.0000   1.0000   1.0000   1.0000   1.0000   1.0000   1.0000
     0.0000   0.0000   0.0000   0.0000   0.0000   0.0000   0.0000   0.0000
     0.0000   0.0000

          k = 0.0000 0.2391 0.2337 ( 34721 PWs)   bands (ev):

   -84.6360 -84.6222 -84.3092 -84.1434 -50.7224 -50.6800 -50.6093 -50.6003
   -50.5730 -50.5614 -50.5050 -50.4152 -50.2836 -50.1496 -50.1140 -49.9380
   -43.9391 -16.2016 -16.0602 -15.9696 -15.9465 -15.8051 -15.7505 -15.4214
   -13.5988 -13.4315 -13.3136 -13.2875 -13.2527 -13.1845 -13.1403 -13.1167
   -13.0566 -13.0395 -12.9862 -12.9617  -3.7594  -3.3429  -3.1296  -2.8271
    -1.9019  -1.7469  -1.6102  -1.3965  -1.2777  -1.0197  -0.9651  -0.8239
    -0.7255  -0.6611  -0.5885  -0.4998   0.1723   0.2470   0.5634   0.6884
     0.7601   0.8191   0.8717   0.9677   1.0631   1.1176   1.3993   1.4229
     1.6064   1.7359   1.8768   1.9327   1.9745   2.1202   2.2945   2.3847
     2.4355   2.5129   2.5791   2.6741   2.8272   2.9153   2.9764   3.0691
     3.1999   3.2437   3.3118   3.4137   3.4990   3.5801   3.6345   3.7626
     3.8517   3.9305   3.9769   4.0912   4.2451   4.3045   4.3997   4.4159
     4.5632   4.6857   4.8254   4.9592   5.0655   5.3724   5.6585   5.7793
    10.3411  12.1906  12.5277  12.8558  13.1124  13.8597  14.0647  14.1532
    14.2102  14.3188

     occupation numbers 
     1.0000   1.0000   1.0000   1.0000   1.0000   1.0000   1.0000   1.0000
     1.0000   1.0000   1.0000   1.0000   1.0000   1.0000   1.0000   1.0000
     1.0000   1.0000   1.0000   1.0000   1.0000   1.0000   1.0000   1.0000
     1.0000   1.0000   1.0000   1.0000   1.0000   1.0000   1.0000   1.0000
     1.0000   1.0000   1.0000   1.0000   1.0000   1.0000   1.0000   1.0000
     1.0000   1.0000   1.0000   1.0000   1.0000   1.0000   1.0000   1.0000
     1.0000   1.0000   1.0000   1.0000   1.0000   1.0000   1.0000   1.0000
     1.0000   1.0000   1.0000   1.0000   1.0000   1.0000   1.0000   1.0000
     1.0000   1.0000   1.0000   1.0000   1.0000   1.0000   1.0000   1.0000
     1.0000   1.0000   1.0000   1.0000   1.0000   1.0000   1.0000   1.0000
     1.0000   1.0000   1.0000   1.0000   1.0000   1.0000   1.0000   1.0000
     1.0000   1.0000   1.0000   1.0000   1.0000   1.0000   1.0000   1.0000
     1.0000   1.0000   1.0000   1.0000   1.0000   1.0000   1.0000   1.0000
     0.0000   0.0000   0.0000   0.0000   0.0000   0.0000   0.0000   0.0000
     0.0000   0.0000

          k = 0.0000 0.2391 0.4675 ( 34695 PWs)   bands (ev):

   -84.6360 -84.6222 -84.3092 -84.1434 -50.7224 -50.6800 -50.6093 -50.6003
   -50.5730 -50.5614 -50.5050 -50.4152 -50.2836 -50.1496 -50.1140 -49.9380
   -43.9391 -16.2054 -16.0477 -15.9734 -15.9453 -15.7769 -15.7100 -15.4161
   -13.6224 -13.4675 -13.3333 -13.2916 -13.2725 -13.1937 -13.1372 -13.1194
   -13.0789 -13.0437 -13.0036 -12.9553  -3.6773  -3.3195  -3.1058  -2.8244
    -1.8130  -1.7335  -1.5646  -1.3620  -1.2711  -1.0107  -0.9378  -0.8028
    -0.7258  -0.6467  -0.5820  -0.4673   0.1724   0.2757   0.5381   0.7051
     0.7613   0.8098   0.9084   0.9615   0.9940   1.1334   1.3957   1.4447
     1.5374   1.7231   1.8199   1.9268   1.9528   2.0520   2.2921   2.3521
     2.4388   2.5368   2.5728   2.6452   2.7886   2.8411   2.9348   3.0241
     3.1855   3.2631   3.2867   3.3966   3.4430   3.5377   3.6029   3.7460
     3.8546   3.9452   3.9895   4.0858   4.2105   4.3626   4.4298   4.4982
     4.5536   4.6798   4.7842   5.0010   5.0925   5.3500   5.6200   5.7564
    10.7230  12.3763  12.6724  12.9284  13.2592  13.6786  13.8848  13.9833
    14.0501  14.1898

     occupation numbers 
     1.0000   1.0000   1.0000   1.0000   1.0000   1.0000   1.0000   1.0000
     1.0000   1.0000   1.0000   1.0000   1.0000   1.0000   1.0000   1.0000
     1.0000   1.0000   1.0000   1.0000   1.0000   1.0000   1.0000   1.0000
     1.0000   1.0000   1.0000   1.0000   1.0000   1.0000   1.0000   1.0000
     1.0000   1.0000   1.0000   1.0000   1.0000   1.0000   1.0000   1.0000
     1.0000   1.0000   1.0000   1.0000   1.0000   1.0000   1.0000   1.0000
     1.0000   1.0000   1.0000   1.0000   1.0000   1.0000   1.0000   1.0000
     1.0000   1.0000   1.0000   1.0000   1.0000   1.0000   1.0000   1.0000
     1.0000   1.0000   1.0000   1.0000   1.0000   1.0000   1.0000   1.0000
     1.0000   1.0000   1.0000   1.0000   1.0000   1.0000   1.0000   1.0000
     1.0000   1.0000   1.0000   1.0000   1.0000   1.0000   1.0000   1.0000
     1.0000   1.0000   1.0000   1.0000   1.0000   1.0000   1.0000   1.0000
     1.0000   1.0000   1.0000   1.0000   1.0000   1.0000   1.0000   1.0000
     0.0000   0.0000   0.0000   0.0000   0.0000   0.0000   0.0000   0.0000
     0.0000   0.0000

          k = 0.0000 0.2391 0.7012 ( 34688 PWs)   bands (ev):

   -84.6360 -84.6222 -84.3092 -84.1434 -50.7224 -50.6800 -50.6093 -50.6004
   -50.5730 -50.5614 -50.5050 -50.4152 -50.2836 -50.1496 -50.1140 -49.9380
   -43.9391 -16.2207 -16.0315 -15.9603 -15.9434 -15.7473 -15.6545 -15.4238
   -13.6507 -13.5102 -13.3653 -13.3117 -13.2797 -13.2029 -13.1398 -13.1235
   -13.0929 -13.0463 -13.0119 -12.9553  -3.5682  -3.2975  -3.0800  -2.8506
    -1.7829  -1.6305  -1.4813  -1.3485  -1.2661  -1.0003  -0.9367  -0.8709
    -0.7199  -0.5782  -0.5217  -0.3839   0.1959   0.2922   0.5385   0.6818
     0.7851   0.8075   0.8899   0.9225   1.1231   1.1904   1.3534   1.4450
     1.5018   1.6760   1.7550   1.8760   1.9262   2.0090   2.1899   2.2340
     2.3290   2.4015   2.5726   2.6741   2.7248   2.8584   2.9285   2.9803
     3.1574   3.2266   3.2671   3.3785   3.4190   3.5082   3.6172   3.7851
     3.8573   3.9290   4.0146   4.1058   4.2238   4.3942   4.4643   4.5331
     4.5905   4.6598   4.7937   4.9987   5.1492   5.3162   5.5825   5.7204
    11.2589  12.6039  12.7441  13.0653  13.3379  13.5160  13.6911  13.7956
    13.8987  14.0702

     occupation numbers 
     1.0000   1.0000   1.0000   1.0000   1.0000   1.0000   1.0000   1.0000
     1.0000   1.0000   1.0000   1.0000   1.0000   1.0000   1.0000   1.0000
     1.0000   1.0000   1.0000   1.0000   1.0000   1.0000   1.0000   1.0000
     1.0000   1.0000   1.0000   1.0000   1.0000   1.0000   1.0000   1.0000
     1.0000   1.0000   1.0000   1.0000   1.0000   1.0000   1.0000   1.0000
     1.0000   1.0000   1.0000   1.0000   1.0000   1.0000   1.0000   1.0000
     1.0000   1.0000   1.0000   1.0000   1.0000   1.0000   1.0000   1.0000
     1.0000   1.0000   1.0000   1.0000   1.0000   1.0000   1.0000   1.0000
     1.0000   1.0000   1.0000   1.0000   1.0000   1.0000   1.0000   1.0000
     1.0000   1.0000   1.0000   1.0000   1.0000   1.0000   1.0000   1.0000
     1.0000   1.0000   1.0000   1.0000   1.0000   1.0000   1.0000   1.0000
     1.0000   1.0000   1.0000   1.0000   1.0000   1.0000   1.0000   1.0000
     1.0000   1.0000   1.0000   1.0000   1.0000   1.0000   1.0000   1.0000
     0.0000   0.0000   0.0000   0.0000   0.0000   0.0000   0.0000   0.0000
     0.0000   0.0000

          k = 0.0000 0.2391 0.9349 ( 34658 PWs)   bands (ev):

   -84.6360 -84.6222 -84.3092 -84.1434 -50.7224 -50.6800 -50.6093 -50.6004
   -50.5730 -50.5614 -50.5050 -50.4152 -50.2836 -50.1496 -50.1140 -49.9380
   -43.9391 -16.2362 -16.0197 -15.9473 -15.9404 -15.7269 -15.5962 -15.4531
   -13.6686 -13.5402 -13.3916 -13.3204 -13.2843 -13.2118 -13.1539 -13.1306
   -13.0867 -13.0446 -13.0110 -12.9584  -3.4809  -3.2879  -3.0518  -2.9032
    -1.7751  -1.5427  -1.4094  -1.3499  -1.2549  -1.0363  -0.9576  -0.8801
    -0.7418  -0.5371  -0.4245  -0.3147   0.2364   0.3057   0.5482   0.6576
     0.7175   0.8184   0.9015   1.0341   1.1986   1.2789   1.3159   1.4172
     1.4738   1.6045   1.7018   1.7953   1.8973   1.9908   2.0712   2.1402
     2.2354   2.3294   2.5415   2.6192   2.7527   2.8577   2.8975   3.0099
     3.0932   3.1813   3.2719   3.3271   3.4271   3.5732   3.6335   3.8158
     3.8592   3.9052   4.0457   4.1458   4.2728   4.3737   4.4775   4.5461
     4.6025   4.6994   4.8174   4.9745   5.1509   5.3161   5.5677   5.6810
    11.8534  12.4596  12.7944  13.0617  13.3394  13.5201  13.6932  13.7488
    13.8316  13.9927

     occupation numbers 
     1.0000   1.0000   1.0000   1.0000   1.0000   1.0000   1.0000   1.0000
     1.0000   1.0000   1.0000   1.0000   1.0000   1.0000   1.0000   1.0000
     1.0000   1.0000   1.0000   1.0000   1.0000   1.0000   1.0000   1.0000
     1.0000   1.0000   1.0000   1.0000   1.0000   1.0000   1.0000   1.0000
     1.0000   1.0000   1.0000   1.0000   1.0000   1.0000   1.0000   1.0000
     1.0000   1.0000   1.0000   1.0000   1.0000   1.0000   1.0000   1.0000
     1.0000   1.0000   1.0000   1.0000   1.0000   1.0000   1.0000   1.0000
     1.0000   1.0000   1.0000   1.0000   1.0000   1.0000   1.0000   1.0000
     1.0000   1.0000   1.0000   1.0000   1.0000   1.0000   1.0000   1.0000
     1.0000   1.0000   1.0000   1.0000   1.0000   1.0000   1.0000   1.0000
     1.0000   1.0000   1.0000   1.0000   1.0000   1.0000   1.0000   1.0000
     1.0000   1.0000   1.0000   1.0000   1.0000   1.0000   1.0000   1.0000
     1.0000   1.0000   1.0000   1.0000   1.0000   1.0000   1.0000   1.0000
     0.0000   0.0000   0.0000   0.0000   0.0000   0.0000   0.0000   0.0000
     0.0000   0.0000

          k = 0.0000 0.4781 0.0000 ( 34707 PWs)   bands (ev):

   -84.6360 -84.6222 -84.3092 -84.1434 -50.7224 -50.6800 -50.6093 -50.6003
   -50.5730 -50.5614 -50.5050 -50.4152 -50.2836 -50.1496 -50.1140 -49.9380
   -43.9391 -16.2289 -16.0092 -15.9616 -15.9453 -15.8170 -15.7363 -15.4744
   -13.5960 -13.4491 -13.3417 -13.3112 -13.2396 -13.1850 -13.1460 -13.1026
   -13.0331 -13.0058 -12.9794 -12.9547  -3.7165  -3.3835  -3.0963  -2.8468
    -1.8522  -1.6886  -1.6090  -1.4299  -1.2069  -1.0203  -0.9320  -0.8332
    -0.7611  -0.6368  -0.5413  -0.4540   0.1493   0.2257   0.4846   0.5603
     0.6389   0.7549   0.8893   0.9808   1.0787   1.1802   1.3613   1.5601
     1.6702   1.7561   1.7889   1.9667   1.9969   2.0577   2.1626   2.2116
     2.3879   2.5088   2.5626   2.7081   2.8544   2.9722   3.0412   3.0993
     3.1415   3.3057   3.3664   3.3886   3.4581   3.5094   3.5472   3.7320
     3.8716   3.9500   3.9767   4.0818   4.1960   4.3118   4.3965   4.4495
     4.5002   4.6266   4.8254   4.9531   5.1545   5.4733   5.7362   5.8110
    10.6265  12.3153  12.4611  12.7818  13.1150  13.8476  14.0443  14.0982
    14.2789  14.4622

     occupation numbers 
     1.0000   1.0000   1.0000   1.0000   1.0000   1.0000   1.0000   1.0000
     1.0000   1.0000   1.0000   1.0000   1.0000   1.0000   1.0000   1.0000
     1.0000   1.0000   1.0000   1.0000   1.0000   1.0000   1.0000   1.0000
     1.0000   1.0000   1.0000   1.0000   1.0000   1.0000   1.0000   1.0000
     1.0000   1.0000   1.0000   1.0000   1.0000   1.0000   1.0000   1.0000
     1.0000   1.0000   1.0000   1.0000   1.0000   1.0000   1.0000   1.0000
[...]
     atom    9 type  4   force =     0.00301912   -0.00157308    0.00447612
     atom   10 type  3   force =     0.00047413    0.00454196    0.04081041
     atom   11 type  3   force =     0.00237782   -0.00254750    0.03396642
     atom   12 type  3   force =    -0.00432220   -0.00246059   -0.03861144
     atom   13 type  3   force =    -0.00201925    0.00234543   -0.03350071
     atom   14 type  3   force =    -0.03773989   -0.00094020    0.01221358
     atom   15 type  3   force =     0.03032751   -0.01159709    0.00585461
     atom   16 type  3   force =     0.03869822    0.00035922   -0.01347847
     atom   17 type  3   force =    -0.03195860    0.01288155   -0.00834333
     atom   18 type  3   force =     0.01907064    0.03063496   -0.00650945
     atom   19 type  3   force =    -0.01027361   -0.02497860   -0.01987875
     atom   20 type  3   force =    -0.00338931    0.02924876    0.02320911
     atom   21 type  3   force =     0.01075082   -0.02767190    0.01466957
     atom   22 type  3   force =    -0.01763772   -0.03370772    0.00911109
     atom   23 type  3   force =     0.00944501    0.02471672    0.02052742
     atom   24 type  3   force =     0.00046244   -0.02859817   -0.02396618
     atom   25 type  3   force =    -0.00836324    0.02783980   -0.01280563
     The non-local contrib.  to forces
     atom    1 type  2   force =     0.05955287    0.04080436    0.00134732
     atom    2 type  1   force =     0.06755098   -0.14084515   -0.01510584
     atom    3 type  1   force =    -0.03098827   -0.17348709    0.13003263
     atom    4 type  1   force =    -0.02434150    0.14989865   -0.00638263
     atom    5 type  1   force =     0.00924179    0.20052313   -0.13070629
     atom    6 type  4   force =    -0.03227257    0.02987958   -0.01836646
     atom    7 type  4   force =    -0.01560070    0.01078541   -0.06197793
     atom    8 type  4   force =     0.04623195   -0.04261319    0.00283726
     atom    9 type  4   force =     0.01849338   -0.00844572    0.06182773
     atom   10 type  3   force =     0.02935948   -0.08280552   -1.42087526
     atom   11 type  3   force =    -0.10703918    0.13173066   -1.44026386
     atom   12 type  3   force =     0.03920275    0.09161321    1.36198162
     atom   13 type  3   force =     0.11295831   -0.12590588    1.42913451
     atom   14 type  3   force =     1.31534613   -0.00078805   -0.55736057
     atom   15 type  3   force =    -1.15505061    0.52400628   -0.35532718
     atom   16 type  3   force =    -1.28368480    0.00924348    0.60088995
     atom   17 type  3   force =     1.16527913   -0.52146399    0.44732379
     atom   18 type  3   force =    -0.68700598   -1.21262242    0.44344449
     atom   19 type  3   force =     0.48534127    0.86825188    0.91088335
     atom   20 type  3   force =     0.10190611   -1.26457051   -1.03013750
     atom   21 type  3   force =    -0.43669648    1.02227873   -0.69715580
     atom   22 type  3   force =     0.60355973    1.29832005   -0.55001373
     atom   23 type  3   force =    -0.44214286   -0.88428228   -0.91009159
     atom   24 type  3   force =    -0.03512050    1.22854673    1.05235735
     atom   25 type  3   force =     0.36509251   -1.04687292    0.65340049
     The ionic contribution  to forces
     atom    1 type  2   force =     1.13318270   -0.54835349   -1.86190781
     atom    2 type  1   force =    11.97218691   -2.16567040   -1.47344115
     atom    3 type  1   force =     5.59480773   -3.01409651   -1.49669248
     atom    4 type  1   force =   -12.82634789    3.37653407    0.69084495
     atom    5 type  1   force =    -3.57560353    3.19118295    2.49956783
     atom    6 type  4   force =    -1.11062320    0.01401077    0.03260898
     atom    7 type  4   force =     4.73679877    0.12062333    0.89779434
     atom    8 type  4   force =     0.23314235    0.30845973    0.17412462
     atom    9 type  4   force =    -4.36774743   -0.40658010   -0.68411695
     atom   10 type  3   force =    -5.77784807    0.26670872    1.99065735
     atom   11 type  3   force =    10.32261624   -1.17360699    2.37217452
     atom   12 type  3   force =     3.09106227    1.23795340   -0.51549957
     atom   13 type  3   force =    -9.92661926    0.69829639   -2.29430873
     atom   14 type  3   force =     1.84104993   -0.47638134    6.89605751
     atom   15 type  3   force =    -0.54247519   -2.41561933    3.34938177
     atom   16 type  3   force =    -1.88223093    0.49757317   -7.11053247
     atom   17 type  3   force =     0.33015713    1.05681181   -4.14230060
     atom   18 type  3   force =     1.60700659    4.75994209    3.31412220
     atom   19 type  3   force =     6.26085372   -1.92321258   -4.26684736
     atom   20 type  3   force =     3.12565124    2.07904815    8.19169505
     atom   21 type  3   force =    -6.41749464   -2.72254641    1.86040619
     atom   22 type  3   force =    -1.08418022   -6.54514602   -2.83689398
     atom   23 type  3   force =    -6.52167650    1.42691282    4.28261993
     atom   24 type  3   force =    -3.72797702   -0.69493537   -8.55290719
     atom   25 type  3   force =     7.51230832    3.05209115   -1.31660694
     The local contribution  to forces
     atom    1 type  2   force =    -1.19022721    0.50794242    1.85734718
     atom    2 type  1   force =   -12.03510634    2.29842424    1.48731002
     atom    3 type  1   force =    -5.56671190    3.17516103    1.37267333
     atom    4 type  1   force =    12.84829127   -3.51784813   -0.68440711
     atom    5 type  1   force =     3.56920470   -3.37872607   -2.37507255
     atom    6 type  4   force =     1.13640977   -0.04086802   -0.01749958
     atom    7 type  4   force =    -4.72699666   -0.12908961   -0.84349527
     atom    8 type  4   force =    -0.27023751   -0.27118405   -0.17447561
     atom    9 type  4   force =     4.35318744    0.41246092    0.63098159
     atom   10 type  3   force =     5.74982288   -0.18004682   -0.54071289
     atom   11 type  3   force =   -10.21480634    1.04055349   -0.90980170
     atom   12 type  3   force =    -3.13495111   -1.33118964   -0.87389735
     atom   13 type  3   force =     9.81328853   -0.57119745    0.84347896
     atom   14 type  3   force =    -3.18355320    0.47617943   -6.33168271
     atom   15 type  3   force =     1.71862286    1.88480221   -2.99171467
     atom   16 type  3   force =     3.19432158   -0.50635243    6.50170468
     atom   17 type  3   force =    -1.51807032   -0.52716388    3.69095304
     atom   18 type  3   force =    -0.90643127   -3.52730694   -3.76065841
     atom   19 type  3   force =    -6.75243539    1.03685788    3.34407107
     atom   20 type  3   force =    -3.23034245   -0.79546989   -7.14755990
     atom   21 type  3   force =     6.86133925    1.68098676   -1.15461753
     atom   22 type  3   force =     0.46771866    5.22444313    3.39161554
     atom   23 type  3   force =     6.96961035   -0.52497403   -3.36000407
     atom   24 type  3   force =     3.76352392   -0.55222950    7.48600845
     atom   25 type  3   force =    -7.88278119   -1.98598487    0.65603558
     The core correction contribution to forces
     atom    1 type  2   force =     0.00000000    0.00000000    0.00000000
     atom    2 type  1   force =    -0.00154206    0.00226486    0.00122564
     atom    3 type  1   force =     0.00131064    0.00228945   -0.00076559
     atom    4 type  1   force =     0.00086590   -0.00219181   -0.00082218
     atom    5 type  1   force =    -0.00110026   -0.00243546    0.00062380
     atom    6 type  4   force =     0.00319942   -0.00142404    0.00117070
     atom    7 type  4   force =     0.00066576   -0.00092911    0.00397303
     atom    8 type  4   force =    -0.00386562    0.00248317   -0.00010463
     atom    9 type  4   force =    -0.00091314    0.00099161   -0.00421527
     atom   10 type  3   force =    -0.00086076    0.00068596    0.01174193
     atom   11 type  3   force =     0.00160634   -0.00122470    0.01185799
     atom   12 type  3   force =     0.00036694   -0.00083715   -0.01119336
     atom   13 type  3   force =    -0.00164270    0.00115155   -0.01180820
     atom   14 type  3   force =    -0.01058319    0.00004970    0.00519962
     atom   15 type  3   force =     0.00922986   -0.00478645    0.00351469
     atom   16 type  3   force =     0.01028949   -0.00010491   -0.00554159
     atom   17 type  3   force =    -0.00932858    0.00469665   -0.00431747
     atom   18 type  3   force =     0.00550042    0.01062187   -0.00341769
     atom   19 type  3   force =    -0.00403375   -0.00687619   -0.00798536
     atom   20 type  3   force =    -0.00060521    0.01024591    0.00920827
     atom   21 type  3   force =     0.00360466   -0.00838535    0.00604052
     atom   22 type  3   force =    -0.00473283   -0.01132831    0.00440013
     atom   23 type  3   force =     0.00365592    0.00705351    0.00800667
     atom   24 type  3   force =     0.00003489   -0.00997934   -0.00942424
     atom   25 type  3   force =    -0.00298304    0.00860676   -0.00563432
     The Hubbard contrib.    to forces
     atom    1 type  2   force =     0.00000000    0.00000000    0.00000000
     atom    2 type  1   force =     0.00000000    0.00000000    0.00000000
     atom    3 type  1   force =     0.00000000    0.00000000    0.00000000
     atom    4 type  1   force =     0.00000000    0.00000000    0.00000000
     atom    5 type  1   force =     0.00000000    0.00000000    0.00000000
     atom    6 type  4   force =     0.00000000    0.00000000    0.00000000
     atom    7 type  4   force =     0.00000000    0.00000000    0.00000000
     atom    8 type  4   force =     0.00000000    0.00000000    0.00000000
     atom    9 type  4   force =     0.00000000    0.00000000    0.00000000
     atom   10 type  3   force =     0.00000000    0.00000000    0.00000000
     atom   11 type  3   force =     0.00000000    0.00000000    0.00000000
     atom   12 type  3   force =     0.00000000    0.00000000    0.00000000
     atom   13 type  3   force =     0.00000000    0.00000000    0.00000000
     atom   14 type  3   force =     0.00000000    0.00000000    0.00000000
     atom   15 type  3   force =     0.00000000    0.00000000    0.00000000
     atom   16 type  3   force =     0.00000000    0.00000000    0.00000000
     atom   17 type  3   force =     0.00000000    0.00000000    0.00000000
     atom   18 type  3   force =     0.00000000    0.00000000    0.00000000
     atom   19 type  3   force =     0.00000000    0.00000000    0.00000000
     atom   20 type  3   force =     0.00000000    0.00000000    0.00000000
     atom   21 type  3   force =     0.00000000    0.00000000    0.00000000
     atom   22 type  3   force =     0.00000000    0.00000000    0.00000000
     atom   23 type  3   force =     0.00000000    0.00000000    0.00000000
     atom   24 type  3   force =     0.00000000    0.00000000    0.00000000
     atom   25 type  3   force =     0.00000000    0.00000000    0.00000000
     The SCF correction term to forces
     atom    1 type  2   force =    -0.00000033    0.00000125   -0.00000026
     atom    2 type  1   force =     0.00000155   -0.00000060    0.00000002
     atom    3 type  1   force =     0.00000178    0.00000045    0.00000095
     atom    4 type  1   force =    -0.00000214    0.00000057   -0.00000079
     atom    5 type  1   force =    -0.00000294   -0.00000025   -0.00000056
     atom    6 type  4   force =     0.00000112   -0.00000001    0.00000002
     atom    7 type  4   force =     0.00000072    0.00000011   -0.00000001
     atom    8 type  4   force =    -0.00000082   -0.00000066    0.00000063
     atom    9 type  4   force =    -0.00000124    0.00000013   -0.00000062
     atom   10 type  3   force =     0.00000050   -0.00000045   -0.00000035
     atom   11 type  3   force =     0.00000065   -0.00000003   -0.00000017
     atom   12 type  3   force =    -0.00000316   -0.00000048   -0.00000241
     atom   13 type  3   force =    -0.00000424    0.00000075    0.00000311
     atom   14 type  3   force =     0.00000034   -0.00000001    0.00000009
     atom   15 type  3   force =     0.00000048    0.00000013    0.00000036
     atom   16 type  3   force =     0.00000278   -0.00000015    0.00000133
     atom   17 type  3   force =     0.00000394    0.00000089   -0.00000172
     atom   18 type  3   force =     0.00000078    0.00000029    0.00000033
     atom   19 type  3   force =     0.00000043    0.00000033   -0.00000008
     atom   20 type  3   force =     0.00000090   -0.00000496    0.00000355
     atom   21 type  3   force =    -0.00000208   -0.00000570   -0.00000345
     atom   22 type  3   force =    -0.00000316    0.00000337    0.00000350
     atom   23 type  3   force =    -0.00000200    0.00000663   -0.00000317
     atom   24 type  3   force =     0.00000105   -0.00000077   -0.00000018
     atom   25 type  3   force =     0.00000005   -0.00000039   -0.00000008

     Total force =     0.147101     Total SCF correction =     0.000017


     Computing stress (Cartesian axis) and pressure


     negative rho (up, down):  0.000E+00 9.285E-04
          total   stress  (Ry/bohr**3)                   (kbar)     P=       91.95
   0.00044573   0.00001137   0.00001382           65.57        1.67        2.03
   0.00001137   0.00068619  -0.00014495            1.67      100.94      -21.32
   0.00001382  -0.00014495   0.00074336            2.03      -21.32      109.35

     kinetic stress (kbar)  28064.83     38.89    -49.11
                               38.89  28268.89    -25.33
                              -49.11    -25.33  28130.12

     local   stress (kbar)  -6711.66   4093.79  -5116.70
                             4093.79 -14207.77   2146.03
                            -5116.70   2146.03  -6060.41

     nonloc. stress (kbar)  -7225.92     10.96      0.80
                               10.96  -7165.51      7.39
                                0.80      7.39  -7181.29

     hartree stress (kbar)  14136.66  -1589.13   2097.04
                            -1589.13  18432.56   -833.78
                             2097.04   -833.78  14482.51

     exc-cor stress (kbar)  -2963.88     -3.21      2.53
                               -3.21  -2970.60     -1.33
                                2.53     -1.33  -2968.56

     corecor stress (kbar)  -3277.70      0.81     -0.82
                                0.81  -3278.82      0.11
                               -0.82      0.11  -3279.28

     ewald   stress (kbar) -21956.76  -2550.44   3068.30
                            -2550.44 -18977.81  -1314.42
                             3068.30  -1314.42 -23013.74

     hubbard stress (kbar)      0.00      0.00      0.00
                                0.00      0.00      0.00
                                0.00      0.00      0.00

     DFT-D   stress (kbar)      0.00      0.00      0.00
                                0.00      0.00      0.00
                                0.00      0.00      0.00

     XDM     stress (kbar)      0.00      0.00      0.00
                                0.00      0.00      0.00
                                0.00      0.00      0.00

     dft-nl  stress (kbar)      0.00      0.00      0.00
                                0.00      0.00      0.00
                                0.00      0.00      0.00

     TS-vdW  stress (kbar)      0.00      0.00      0.00
                                0.00      0.00      0.00
                                0.00      0.00      0.00



     init_run     :   2022.85s CPU   2440.24s WALL (       1 calls)
     electrons    : 125185.60s CPU 151630.93s WALL (       1 calls)
     forces       :    176.79s CPU    178.55s WALL (       1 calls)
     stress       :    853.55s CPU    858.74s WALL (       1 calls)

     Called by init_run:
     wfcinit      :   2004.56s CPU   2417.59s WALL (       1 calls)
     wfcinit:atom :      1.51s CPU      1.80s WALL (     316 calls)
     wfcinit:wfcr :   1994.72s CPU   2405.50s WALL (     316 calls)
     potinit      :      7.90s CPU      9.13s WALL (       1 calls)
     hinit0       :      7.26s CPU      8.97s WALL (       1 calls)

     Called by electrons:
     c_bands      : 105215.27s CPU 127340.50s WALL (      34 calls)
     sum_band     :  19755.78s CPU  24018.19s WALL (      34 calls)
     v_of_rho     :     65.06s CPU     77.48s WALL (      35 calls)
     v_h          :      4.49s CPU      5.32s WALL (      35 calls)
     v_xc         :     62.79s CPU     74.44s WALL (      37 calls)
     newd         :     69.50s CPU    100.82s WALL (      35 calls)
     PAW_pot      :     33.04s CPU     38.92s WALL (      35 calls)
     mix_rho      :     36.94s CPU     43.87s WALL (      34 calls)

     Called by c_bands:
     init_us_2    :    193.15s CPU    217.69s WALL (   22436 calls)
     cegterg      : 104175.52s CPU 126080.80s WALL (   10744 calls)

     Called by sum_band:
     sum_band:wei :      0.54s CPU      0.62s WALL (      34 calls)
     sum_band:loo :  19565.12s CPU  23774.05s WALL (      34 calls)
     sum_band:buf :     51.32s CPU     54.33s WALL (   10744 calls)
     sum_band:ini :     87.85s CPU    100.12s WALL (   10744 calls)
     sum_band:cal :   1789.38s CPU   2100.08s WALL (   10744 calls)
     sum_band:bec :      5.40s CPU      5.56s WALL (   10744 calls)
     addusdens    :    168.75s CPU    219.59s WALL (      34 calls)
     addusd:skk   :      1.13s CPU      1.32s WALL (     102 calls)
     addusd:dgemm :     50.58s CPU     80.77s WALL (     204 calls)
     addusd:qvan2 :    113.43s CPU    130.64s WALL (     204 calls)

     Called by *egterg:
     cdiaghg      :   2971.20s CPU   3651.78s WALL (   39550 calls)
     cegterg:over :   4959.22s CPU   5868.17s WALL (   28806 calls)
     cegterg:upda :   1161.28s CPU   1365.47s WALL (   28806 calls)
     cegterg:last :   2426.07s CPU   2823.55s WALL (   17876 calls)
     h_psi        :  87916.46s CPU 106847.39s WALL (   39866 calls)
     s_psi        :   2558.96s CPU   3004.33s WALL (   39866 calls)
     g_psi        :     22.58s CPU     26.27s WALL (   28806 calls)

     Called by h_psi:
     h_psi:calbec :   4703.67s CPU   5535.97s WALL (   39866 calls)
     vloc_psi     :  80468.27s CPU  98043.03s WALL (   39866 calls)
     add_vuspsi   :   2648.12s CPU   3156.63s WALL (   39866 calls)

     General routines
     calbec       :   6684.96s CPU   7829.05s WALL (   52190 calls)
     fft          :     82.28s CPU     96.26s WALL (     913 calls)
     ffts         :      7.90s CPU      9.55s WALL (     138 calls)
     fftw         :  97720.60s CPU 119167.02s WALL ( 6694766 calls)
     interpolate  :      9.81s CPU     11.82s WALL (      70 calls)

     Parallel routines
     fft_scatt_xy :    514.58s CPU    549.98s WALL ( 6695817 calls)
     fft_scatt_yz :  94181.78s CPU 115474.11s WALL ( 6695817 calls)

     PAW routines
     PAW_pot      :     33.04s CPU     38.92s WALL (      35 calls)

     PWSCF        :   1d11h37m CPU   1d19h 5m WALL


   This run was terminated on:  16:35:37  23Dec2022            

=------------------------------------------------------------------------------=
   JOB DONE.
=------------------------------------------------------------------------------=
Note: The following floating-point exceptions are signalling: IEEE_UNDERFLOW_FLAG IEEE_DENORMAL
Note: The following floating-point exceptions are signalling: IEEE_DENORMAL
Note: The following floating-point exceptions are signalling: IEEE_INVALID_FLAG IEEE_DENORMAL
Note: The following floating-point exceptions are signalling: IEEE_DENORMAL
Note: The following floating-point exceptions are signalling: IEEE_DENORMAL
Note: The following floating-point exceptions are signalling: IEEE_DENORMAL
Note: The following floating-point exceptions are signalling: IEEE_DENORMAL
Note: The following floating-point exceptions are signalling: IEEE_DENORMAL
Note: The following floating-point exceptions are signalling: IEEE_DENORMAL
