
     Program PWSCF v.6.7MaX starts on 24Dec2022 at 14:39:50 

     This program is part of the open-source Quantum ESPRESSO suite
     for quantum simulation of materials; please cite
         "P. Giannozzi et al., J. Phys.:Condens. Matter 21 395502 (2009);
         "P. Giannozzi et al., J. Phys.:Condens. Matter 29 465901 (2017);
          URL http://www.quantum-espresso.org", 
     in publications or presentations arising from this work. More details at
     http://www.quantum-espresso.org/quote

     Parallel version (MPI), running on    12 processors

     MPI processes distributed on     1 nodes
     R & G space division:  proc/nbgrp/npool/nimage =      12
     Reading input from scale_1da-04.in

     Current dimensions of program PWSCF are:
     Max number of different atomic species (ntypx) = 10
     Max number of k-points (npk) =  40000
     Max angular momentum in pseudopotentials (lmaxx) =  3
     Message from routine read_pp_mesh:
     mesh size missing, using the one in header
     file Fe.pbe-spn-kjpaw_psl.0.2.1.UPF: wavefunction(s)  3D renormalized
     file O.pbe-n-kjpaw_psl.0.1.UPF: wavefunction(s)  2P renormalized

     Subspace diagonalization in iterative solution of the eigenvalue problem:
     a serial algorithm will be used


     Parallelization info
     --------------------
     sticks:   dense  smooth     PW     G-vecs:    dense   smooth      PW
     Min        1710     633    171               111503    25143    3530
     Max        1711     634    173               111505    25145    3531
     Sum       20531    7599   2057              1338043   301725   42371



     bravais-lattice index     =            0
     lattice parameter (alat)  =      20.3206  a.u.
     unit-cell volume          =    2232.3697 (a.u.)^3
     number of atoms/cell      =           25
     number of atomic types    =            4
     number of electrons       =       189.00
     number of Kohn-Sham states=          114
     kinetic-energy cutoff     =     100.0000  Ry
     charge density cutoff     =    1080.0000  Ry
     scf convergence threshold =      2.0E-10
     mixing beta               =       0.4000
     number of iterations used =            8  plain     mixing
     Exchange-correlation= PBE
                           (   1   4   3   4   0   0   0)

     celldm(1)=  20.320559  celldm(2)=   0.000000  celldm(3)=   0.000000
     celldm(4)=   0.000000  celldm(5)=   0.000000  celldm(6)=   0.000000

     crystal axes: (cart. coord. in units of alat)
               a(1) = (   1.000000   0.000000   0.000000 )  
               a(2) = (   0.000000   0.578313   0.000000 )  
               a(3) = (   0.000000   0.000000   0.460041 )  

     reciprocal axes: (cart. coord. in units 2 pi/alat)
               b(1) = (  1.000000  0.000000  0.000000 )  
               b(2) = (  0.000000  1.729168  0.000000 )  
               b(3) = (  0.000000  0.000000  2.173720 )  


     PseudoPot. # 1 for Fe read from file:
     /opt/QEpot/SSSP_precision_pseudos/Fe.pbe-spn-kjpaw_psl.0.2.1.UPF
     MD5 check sum: e86618425769142926afa95317d90200
     Pseudo is Projector augmented-wave + core cor, Zval = 16.0
     Generated using "atomic" code by A. Dal Corso  v.5.0.99 svn rev. 10869
     Shape of augmentation charge: PSQ
     Using radial grid of 1191 points,  6 beta functions with: 
                l(1) =   0
                l(2) =   0
                l(3) =   1
                l(4) =   1
                l(5) =   2
                l(6) =   2
     Q(r) pseudized with 0 coefficients 


     PseudoPot. # 2 for Na read from file:
     /opt/QEpot/SSSP_precision_pseudos/Na_ONCV_PBE-1.0.oncvpsp.upf
     MD5 check sum: 24a298df0a6742ae313db96548fdb2a4
     Pseudo is Norm-conserving, Zval =  9.0
     Generated using ONCVPSP code by D. R. Hamann
     Using radial grid of 1992 points,  4 beta functions with: 
                l(1) =   0
                l(2) =   0
                l(3) =   1
                l(4) =   1

     PseudoPot. # 3 for O  read from file:
     /opt/QEpot/SSSP_precision_pseudos/O.pbe-n-kjpaw_psl.0.1.UPF
     MD5 check sum: 0234752ac141de4415c5fc33072bef88
     Pseudo is Projector augmented-wave + core cor, Zval =  6.0
     Generated using "atomic" code by A. Dal Corso  v.5.0.99 svn rev. 10869
     Shape of augmentation charge: BESSEL
     Using radial grid of 1095 points,  4 beta functions with: 
                l(1) =   0
                l(2) =   0
                l(3) =   1
                l(4) =   1
     Q(r) pseudized with 0 coefficients 


     PseudoPot. # 4 for P  read from file:
     /opt/QEpot/SSSP_precision_pseudos/P.pbe-n-rrkjus_psl.1.0.0.UPF
     MD5 check sum: 8b930f418f0a4573dca56cd030ffe088
     Pseudo is Ultrasoft + core correction, Zval =  5.0
     Generated using "atomic" code by A. Dal Corso  v.5.1
     Using radial grid of 1147 points,  6 beta functions with: 
                l(1) =   0
                l(2) =   0
                l(3) =   1
                l(4) =   1
                l(5) =   2
                l(6) =   2
     Q(r) pseudized with 0 coefficients 


     atomic species   valence    mass     pseudopotential
        Fe            16.00    55.84500     Fe( 1.00)
        Na             9.00    22.98977     Na( 1.00)
        O              6.00    15.99940     O ( 1.00)
        P              5.00    30.97376     P ( 1.00)

     Starting magnetic structure 
     atomic species   magnetization
        Fe           0.312
        Na           0.000
        O            0.000
        P            0.000

     No symmetry found


                                    s                        frac. trans.

      isym =  1     identity                                     

 cryst.   s( 1) = (     1          0          0      )
                  (     0          1          0      )
                  (     0          0          1      )

 cart.    s( 1) = (  1.0000000  0.0000000  0.0000000 )
                  (  0.0000000  1.0000000  0.0000000 )
                  (  0.0000000  0.0000000  1.0000000 )


   Cartesian axes

     site n.     atom                  positions (alat units)
         1           Na  tau(   1) = (   0.0115800   0.0441993   0.0403511  )
         2           Fe  tau(   2) = (   0.2913450   0.4418281   0.4291113  )
         3           Fe  tau(   3) = (   0.2201160   0.1646370   0.2405609  )
         4           Fe  tau(   4) = (   0.7060870   0.1336475   0.0444146  )
         5           Fe  tau(   5) = (   0.7822730   0.4191814   0.2400410  )
         6           P   tau(   6) = (   0.0983660   0.4124764   0.1830640  )
         7           P   tau(   7) = (   0.3920650   0.1452456   0.4412380  )
         8           P   tau(   8) = (   0.8987800   0.1587145   0.2904353  )
         9           P   tau(   9) = (   0.6075130   0.4302191   0.0372771  )
        10           O   tau(  10) = (   0.1414110   0.4225263   0.3200922  )
        11           O   tau(  11) = (   0.3553680   0.1429636   0.1193369  )
        12           O   tau(  12) = (   0.8583390   0.1453821   0.1530583  )
        13           O   tau(  13) = (   0.6447440   0.4342406   0.3591124  )
        14           O   tau(  14) = (   0.4604880   0.4312415   0.0521682  )
        15           O   tau(  15) = (   0.0440330   0.1239689   0.3060536  )
        16           O   tau(  16) = (   0.5386000   0.1432955   0.4237933  )
        17           O   tau(  17) = (   0.9551650   0.4522435   0.1664750  )
        18           O   tau(  18) = (   0.1816090   0.5061163   0.1040161  )
        19           O   tau(  19) = (   0.3245340   0.0365320   0.3662366  )
        20           O   tau(  20) = (   0.8658190   0.2895127   0.3412127  )
        21           O   tau(  21) = (   0.6737520   0.3170004   0.1076905  )
        22           O   tau(  22) = (   0.8208630   0.0638654   0.3723773  )
        23           O   tau(  23) = (   0.6725030   0.5404495   0.1126161  )
        24           O   tau(  24) = (   0.1268440   0.2809293   0.1295562  )
        25           O   tau(  25) = (   0.3278730   0.2593716   0.3704161  )

   Crystallographic axes

     site n.     atom                  positions (cryst. coord.)
         1           Na  tau(   1) = (  0.0115800  0.0764280  0.0877120  )
         2           Fe  tau(   2) = (  0.2913450  0.7639950  0.9327680  )
         3           Fe  tau(   3) = (  0.2201160  0.2846850  0.5229120  )
         4           Fe  tau(   4) = (  0.7060870  0.2310990  0.0965450  )
         5           Fe  tau(   5) = (  0.7822730  0.7248350  0.5217820  )
         6           P   tau(   6) = (  0.0983660  0.7132410  0.3979300  )
         7           P   tau(   7) = (  0.3920650  0.2511540  0.9591280  )
         8           P   tau(   8) = (  0.8987800  0.2744440  0.6313250  )
         9           P   tau(   9) = (  0.6075130  0.7439210  0.0810300  )
        10           O   tau(  10) = (  0.1414110  0.7306190  0.6957910  )
        11           O   tau(  11) = (  0.3553680  0.2472080  0.2594050  )
        12           O   tau(  12) = (  0.8583390  0.2513900  0.3327060  )
        13           O   tau(  13) = (  0.6447440  0.7508750  0.7806100  )
        14           O   tau(  14) = (  0.4604880  0.7456890  0.1133990  )
        15           O   tau(  15) = (  0.0440330  0.2143630  0.6652750  )
        16           O   tau(  16) = (  0.5386000  0.2477820  0.9212080  )
        17           O   tau(  17) = (  0.9551650  0.7820050  0.3618700  )
        18           O   tau(  18) = (  0.1816090  0.8751600  0.2261020  )
        19           O   tau(  19) = (  0.3245340  0.0631700  0.7960960  )
        20           O   tau(  20) = (  0.8658190  0.5006160  0.7417010  )
        21           O   tau(  21) = (  0.6737520  0.5481470  0.2340890  )
        22           O   tau(  22) = (  0.8208630  0.1104340  0.8094440  )
        23           O   tau(  23) = (  0.6725030  0.9345280  0.2447960  )
        24           O   tau(  24) = (  0.1268440  0.4857740  0.2816190  )
        25           O   tau(  25) = (  0.3278730  0.4484970  0.8051810  )

     number of k points=   158  Marzari-Vanderbilt smearing, width (Ry)=  0.0073
                       cart. coord. in units 2pi/alat
        k(    1) = (   0.0000000   0.0000000   0.0000000), wk =   0.0031746
        k(    2) = (   0.0000000   0.0000000   0.2415245), wk =   0.0063492
        k(    3) = (   0.0000000   0.0000000   0.4830489), wk =   0.0063492
        k(    4) = (   0.0000000   0.0000000   0.7245734), wk =   0.0063492
        k(    5) = (   0.0000000   0.0000000   0.9660979), wk =   0.0063492
        k(    6) = (   0.0000000   0.2470240   0.0000000), wk =   0.0063492
        k(    7) = (   0.0000000   0.2470240   0.2415245), wk =   0.0063492
        k(    8) = (   0.0000000   0.2470240   0.4830489), wk =   0.0063492
        k(    9) = (   0.0000000   0.2470240   0.7245734), wk =   0.0063492
        k(   10) = (   0.0000000   0.2470240   0.9660979), wk =   0.0063492
        k(   11) = (   0.0000000   0.4940480   0.0000000), wk =   0.0063492
        k(   12) = (   0.0000000   0.4940480   0.2415245), wk =   0.0063492
        k(   13) = (   0.0000000   0.4940480   0.4830489), wk =   0.0063492
        k(   14) = (   0.0000000   0.4940480   0.7245734), wk =   0.0063492
        k(   15) = (   0.0000000   0.4940480   0.9660979), wk =   0.0063492
        k(   16) = (   0.0000000   0.7410720   0.0000000), wk =   0.0063492
        k(   17) = (   0.0000000   0.7410720   0.2415245), wk =   0.0063492
        k(   18) = (   0.0000000   0.7410720   0.4830489), wk =   0.0063492
        k(   19) = (   0.0000000   0.7410720   0.7245734), wk =   0.0063492
        k(   20) = (   0.0000000   0.7410720   0.9660979), wk =   0.0063492
        k(   21) = (   0.2000000   0.0000000   0.0000000), wk =   0.0063492
        k(   22) = (   0.2000000   0.0000000   0.2415245), wk =   0.0063492
        k(   23) = (   0.2000000   0.0000000   0.4830489), wk =   0.0063492
        k(   24) = (   0.2000000   0.0000000   0.7245734), wk =   0.0063492
        k(   25) = (   0.2000000   0.0000000   0.9660979), wk =   0.0063492
        k(   26) = (   0.2000000   0.2470240   0.0000000), wk =   0.0063492
        k(   27) = (   0.2000000   0.2470240   0.2415245), wk =   0.0063492
        k(   28) = (   0.2000000   0.2470240   0.4830489), wk =   0.0063492
        k(   29) = (   0.2000000   0.2470240   0.7245734), wk =   0.0063492
        k(   30) = (   0.2000000   0.2470240   0.9660979), wk =   0.0063492
        k(   31) = (   0.2000000   0.4940480   0.0000000), wk =   0.0063492
        k(   32) = (   0.2000000   0.4940480   0.2415245), wk =   0.0063492
        k(   33) = (   0.2000000   0.4940480   0.4830489), wk =   0.0063492
        k(   34) = (   0.2000000   0.4940480   0.7245734), wk =   0.0063492
        k(   35) = (   0.2000000   0.4940480   0.9660979), wk =   0.0063492
        k(   36) = (   0.2000000   0.7410720   0.0000000), wk =   0.0063492
        k(   37) = (   0.2000000   0.7410720   0.2415245), wk =   0.0063492
        k(   38) = (   0.2000000   0.7410720   0.4830489), wk =   0.0063492
        k(   39) = (   0.2000000   0.7410720   0.7245734), wk =   0.0063492
        k(   40) = (   0.2000000   0.7410720   0.9660979), wk =   0.0063492
        k(   41) = (   0.4000000   0.0000000   0.0000000), wk =   0.0063492
        k(   42) = (   0.4000000   0.0000000   0.2415245), wk =   0.0063492
        k(   43) = (   0.4000000   0.0000000   0.4830489), wk =   0.0063492
        k(   44) = (   0.4000000   0.0000000   0.7245734), wk =   0.0063492
        k(   45) = (   0.4000000   0.0000000   0.9660979), wk =   0.0063492
        k(   46) = (   0.4000000   0.2470240   0.0000000), wk =   0.0063492
        k(   47) = (   0.4000000   0.2470240   0.2415245), wk =   0.0063492
        k(   48) = (   0.4000000   0.2470240   0.4830489), wk =   0.0063492
        k(   49) = (   0.4000000   0.2470240   0.7245734), wk =   0.0063492
        k(   50) = (   0.4000000   0.2470240   0.9660979), wk =   0.0063492
        k(   51) = (   0.4000000   0.4940480   0.0000000), wk =   0.0063492
        k(   52) = (   0.4000000   0.4940480   0.2415245), wk =   0.0063492
        k(   53) = (   0.4000000   0.4940480   0.4830489), wk =   0.0063492
        k(   54) = (   0.4000000   0.4940480   0.7245734), wk =   0.0063492
        k(   55) = (   0.4000000   0.4940480   0.9660979), wk =   0.0063492
        k(   56) = (   0.4000000   0.7410720   0.0000000), wk =   0.0063492
        k(   57) = (   0.4000000   0.7410720   0.2415245), wk =   0.0063492
        k(   58) = (   0.4000000   0.7410720   0.4830489), wk =   0.0063492
        k(   59) = (   0.4000000   0.7410720   0.7245734), wk =   0.0063492
        k(   60) = (   0.4000000   0.7410720   0.9660979), wk =   0.0063492
        k(   61) = (   0.0000000  -0.2470240   0.2415245), wk =   0.0063492
        k(   62) = (   0.0000000  -0.2470240   0.4830489), wk =   0.0063492
        k(   63) = (   0.0000000  -0.2470240   0.7245734), wk =   0.0063492
        k(   64) = (   0.0000000  -0.2470240   0.9660979), wk =   0.0063492
        k(   65) = (   0.0000000  -0.4940480   0.2415245), wk =   0.0063492
        k(   66) = (   0.0000000  -0.4940480   0.4830489), wk =   0.0063492
        k(   67) = (   0.0000000  -0.4940480   0.7245734), wk =   0.0063492
        k(   68) = (   0.0000000  -0.4940480   0.9660979), wk =   0.0063492
        k(   69) = (   0.0000000  -0.7410720   0.2415245), wk =   0.0063492
        k(   70) = (   0.0000000  -0.7410720   0.4830489), wk =   0.0063492
        k(   71) = (   0.0000000  -0.7410720   0.7245734), wk =   0.0063492
        k(   72) = (   0.0000000  -0.7410720   0.9660979), wk =   0.0063492
        k(   73) = (  -0.2000000   0.0000000   0.2415245), wk =   0.0063492
        k(   74) = (  -0.2000000   0.0000000   0.4830489), wk =   0.0063492
        k(   75) = (  -0.2000000   0.0000000   0.7245734), wk =   0.0063492
        k(   76) = (  -0.2000000   0.0000000   0.9660979), wk =   0.0063492
        k(   77) = (  -0.2000000   0.2470240   0.0000000), wk =   0.0063492
        k(   78) = (  -0.2000000  -0.2470240   0.2415245), wk =   0.0063492
        k(   79) = (  -0.2000000   0.2470240  -0.2415245), wk =   0.0063492
        k(   80) = (   0.2000000  -0.2470240  -0.2415245), wk =   0.0063492
        k(   81) = (  -0.2000000  -0.2470240   0.4830489), wk =   0.0063492
        k(   82) = (  -0.2000000   0.2470240  -0.4830489), wk =   0.0063492
        k(   83) = (   0.2000000  -0.2470240  -0.4830489), wk =   0.0063492
        k(   84) = (  -0.2000000  -0.2470240   0.7245734), wk =   0.0063492
        k(   85) = (  -0.2000000   0.2470240  -0.7245734), wk =   0.0063492
        k(   86) = (   0.2000000  -0.2470240  -0.7245734), wk =   0.0063492
        k(   87) = (  -0.2000000  -0.2470240   0.9660979), wk =   0.0063492
        k(   88) = (  -0.2000000   0.2470240  -0.9660979), wk =   0.0063492
        k(   89) = (   0.2000000  -0.2470240  -0.9660979), wk =   0.0063492
        k(   90) = (  -0.2000000   0.4940480   0.0000000), wk =   0.0063492
        k(   91) = (  -0.2000000  -0.4940480   0.2415245), wk =   0.0063492
        k(   92) = (  -0.2000000   0.4940480  -0.2415245), wk =   0.0063492
        k(   93) = (   0.2000000  -0.4940480  -0.2415245), wk =   0.0063492
        k(   94) = (  -0.2000000  -0.4940480   0.4830489), wk =   0.0063492
        k(   95) = (  -0.2000000   0.4940480  -0.4830489), wk =   0.0063492
        k(   96) = (   0.2000000  -0.4940480  -0.4830489), wk =   0.0063492
        k(   97) = (  -0.2000000  -0.4940480   0.7245734), wk =   0.0063492
        k(   98) = (  -0.2000000   0.4940480  -0.7245734), wk =   0.0063492
        k(   99) = (   0.2000000  -0.4940480  -0.7245734), wk =   0.0063492
        k(  100) = (  -0.2000000  -0.4940480   0.9660979), wk =   0.0063492
        k(  101) = (  -0.2000000   0.4940480  -0.9660979), wk =   0.0063492
        k(  102) = (   0.2000000  -0.4940480  -0.9660979), wk =   0.0063492
        k(  103) = (  -0.2000000   0.7410720   0.0000000), wk =   0.0063492
        k(  104) = (  -0.2000000  -0.7410720   0.2415245), wk =   0.0063492
        k(  105) = (  -0.2000000   0.7410720  -0.2415245), wk =   0.0063492
        k(  106) = (   0.2000000  -0.7410720  -0.2415245), wk =   0.0063492
        k(  107) = (  -0.2000000  -0.7410720   0.4830489), wk =   0.0063492
        k(  108) = (  -0.2000000   0.7410720  -0.4830489), wk =   0.0063492
        k(  109) = (   0.2000000  -0.7410720  -0.4830489), wk =   0.0063492
        k(  110) = (  -0.2000000  -0.7410720   0.7245734), wk =   0.0063492
        k(  111) = (  -0.2000000   0.7410720  -0.7245734), wk =   0.0063492
        k(  112) = (   0.2000000  -0.7410720  -0.7245734), wk =   0.0063492
        k(  113) = (  -0.2000000  -0.7410720   0.9660979), wk =   0.0063492
        k(  114) = (  -0.2000000   0.7410720  -0.9660979), wk =   0.0063492
        k(  115) = (   0.2000000  -0.7410720  -0.9660979), wk =   0.0063492
        k(  116) = (  -0.4000000   0.0000000   0.2415245), wk =   0.0063492
        k(  117) = (  -0.4000000   0.0000000   0.4830489), wk =   0.0063492
        k(  118) = (  -0.4000000   0.0000000   0.7245734), wk =   0.0063492
        k(  119) = (  -0.4000000   0.0000000   0.9660979), wk =   0.0063492
        k(  120) = (  -0.4000000   0.2470240   0.0000000), wk =   0.0063492
        k(  121) = (  -0.4000000  -0.2470240   0.2415245), wk =   0.0063492
        k(  122) = (  -0.4000000   0.2470240  -0.2415245), wk =   0.0063492
        k(  123) = (   0.4000000  -0.2470240  -0.2415245), wk =   0.0063492
        k(  124) = (  -0.4000000  -0.2470240   0.4830489), wk =   0.0063492
        k(  125) = (  -0.4000000   0.2470240  -0.4830489), wk =   0.0063492
        k(  126) = (   0.4000000  -0.2470240  -0.4830489), wk =   0.0063492
        k(  127) = (  -0.4000000  -0.2470240   0.7245734), wk =   0.0063492
        k(  128) = (  -0.4000000   0.2470240  -0.7245734), wk =   0.0063492
        k(  129) = (   0.4000000  -0.2470240  -0.7245734), wk =   0.0063492
        k(  130) = (  -0.4000000  -0.2470240   0.9660979), wk =   0.0063492
        k(  131) = (  -0.4000000   0.2470240  -0.9660979), wk =   0.0063492
        k(  132) = (   0.4000000  -0.2470240  -0.9660979), wk =   0.0063492
        k(  133) = (  -0.4000000   0.4940480   0.0000000), wk =   0.0063492
        k(  134) = (  -0.4000000  -0.4940480   0.2415245), wk =   0.0063492
        k(  135) = (  -0.4000000   0.4940480  -0.2415245), wk =   0.0063492
        k(  136) = (   0.4000000  -0.4940480  -0.2415245), wk =   0.0063492
        k(  137) = (  -0.4000000  -0.4940480   0.4830489), wk =   0.0063492
        k(  138) = (  -0.4000000   0.4940480  -0.4830489), wk =   0.0063492
        k(  139) = (   0.4000000  -0.4940480  -0.4830489), wk =   0.0063492
        k(  140) = (  -0.4000000  -0.4940480   0.7245734), wk =   0.0063492
        k(  141) = (  -0.4000000   0.4940480  -0.7245734), wk =   0.0063492
        k(  142) = (   0.4000000  -0.4940480  -0.7245734), wk =   0.0063492
        k(  143) = (  -0.4000000  -0.4940480   0.9660979), wk =   0.0063492
        k(  144) = (  -0.4000000   0.4940480  -0.9660979), wk =   0.0063492
        k(  145) = (   0.4000000  -0.4940480  -0.9660979), wk =   0.0063492
        k(  146) = (  -0.4000000   0.7410720   0.0000000), wk =   0.0063492
        k(  147) = (  -0.4000000  -0.7410720   0.2415245), wk =   0.0063492
        k(  148) = (  -0.4000000   0.7410720  -0.2415245), wk =   0.0063492
        k(  149) = (   0.4000000  -0.7410720  -0.2415245), wk =   0.0063492
        k(  150) = (  -0.4000000  -0.7410720   0.4830489), wk =   0.0063492
        k(  151) = (  -0.4000000   0.7410720  -0.4830489), wk =   0.0063492
        k(  152) = (   0.4000000  -0.7410720  -0.4830489), wk =   0.0063492
        k(  153) = (  -0.4000000  -0.7410720   0.7245734), wk =   0.0063492
        k(  154) = (  -0.4000000   0.7410720  -0.7245734), wk =   0.0063492
        k(  155) = (   0.4000000  -0.7410720  -0.7245734), wk =   0.0063492
        k(  156) = (  -0.4000000  -0.7410720   0.9660979), wk =   0.0063492
        k(  157) = (  -0.4000000   0.7410720  -0.9660979), wk =   0.0063492
        k(  158) = (   0.4000000  -0.7410720  -0.9660979), wk =   0.0063492

                       cryst. coord.
        k(    1) = (   0.0000000   0.0000000   0.0000000), wk =   0.0031746
        k(    2) = (   0.0000000   0.0000000   0.1111111), wk =   0.0063492
        k(    3) = (   0.0000000   0.0000000   0.2222222), wk =   0.0063492
        k(    4) = (   0.0000000   0.0000000   0.3333333), wk =   0.0063492
        k(    5) = (   0.0000000   0.0000000   0.4444444), wk =   0.0063492
        k(    6) = (   0.0000000   0.1428571   0.0000000), wk =   0.0063492
        k(    7) = (   0.0000000   0.1428571   0.1111111), wk =   0.0063492
        k(    8) = (   0.0000000   0.1428571   0.2222222), wk =   0.0063492
        k(    9) = (   0.0000000   0.1428571   0.3333333), wk =   0.0063492
        k(   10) = (   0.0000000   0.1428571   0.4444444), wk =   0.0063492
        k(   11) = (   0.0000000   0.2857143   0.0000000), wk =   0.0063492
        k(   12) = (   0.0000000   0.2857143   0.1111111), wk =   0.0063492
        k(   13) = (   0.0000000   0.2857143   0.2222222), wk =   0.0063492
        k(   14) = (   0.0000000   0.2857143   0.3333333), wk =   0.0063492
        k(   15) = (   0.0000000   0.2857143   0.4444444), wk =   0.0063492
        k(   16) = (   0.0000000   0.4285714   0.0000000), wk =   0.0063492
        k(   17) = (   0.0000000   0.4285714   0.1111111), wk =   0.0063492
        k(   18) = (   0.0000000   0.4285714   0.2222222), wk =   0.0063492
        k(   19) = (   0.0000000   0.4285714   0.3333333), wk =   0.0063492
        k(   20) = (   0.0000000   0.4285714   0.4444444), wk =   0.0063492
        k(   21) = (   0.2000000   0.0000000   0.0000000), wk =   0.0063492
        k(   22) = (   0.2000000   0.0000000   0.1111111), wk =   0.0063492
        k(   23) = (   0.2000000   0.0000000   0.2222222), wk =   0.0063492
        k(   24) = (   0.2000000   0.0000000   0.3333333), wk =   0.0063492
        k(   25) = (   0.2000000   0.0000000   0.4444444), wk =   0.0063492
        k(   26) = (   0.2000000   0.1428571   0.0000000), wk =   0.0063492
        k(   27) = (   0.2000000   0.1428571   0.1111111), wk =   0.0063492
        k(   28) = (   0.2000000   0.1428571   0.2222222), wk =   0.0063492
        k(   29) = (   0.2000000   0.1428571   0.3333333), wk =   0.0063492
        k(   30) = (   0.2000000   0.1428571   0.4444444), wk =   0.0063492
        k(   31) = (   0.2000000   0.2857143   0.0000000), wk =   0.0063492
        k(   32) = (   0.2000000   0.2857143   0.1111111), wk =   0.0063492
        k(   33) = (   0.2000000   0.2857143   0.2222222), wk =   0.0063492
        k(   34) = (   0.2000000   0.2857143   0.3333333), wk =   0.0063492
        k(   35) = (   0.2000000   0.2857143   0.4444444), wk =   0.0063492
        k(   36) = (   0.2000000   0.4285714   0.0000000), wk =   0.0063492
        k(   37) = (   0.2000000   0.4285714   0.1111111), wk =   0.0063492
        k(   38) = (   0.2000000   0.4285714   0.2222222), wk =   0.0063492
        k(   39) = (   0.2000000   0.4285714   0.3333333), wk =   0.0063492
        k(   40) = (   0.2000000   0.4285714   0.4444444), wk =   0.0063492
        k(   41) = (   0.4000000   0.0000000   0.0000000), wk =   0.0063492
        k(   42) = (   0.4000000   0.0000000   0.1111111), wk =   0.0063492
        k(   43) = (   0.4000000   0.0000000   0.2222222), wk =   0.0063492
        k(   44) = (   0.4000000   0.0000000   0.3333333), wk =   0.0063492
        k(   45) = (   0.4000000   0.0000000   0.4444444), wk =   0.0063492
        k(   46) = (   0.4000000   0.1428571   0.0000000), wk =   0.0063492
        k(   47) = (   0.4000000   0.1428571   0.1111111), wk =   0.0063492
        k(   48) = (   0.4000000   0.1428571   0.2222222), wk =   0.0063492
        k(   49) = (   0.4000000   0.1428571   0.3333333), wk =   0.0063492
        k(   50) = (   0.4000000   0.1428571   0.4444444), wk =   0.0063492
        k(   51) = (   0.4000000   0.2857143   0.0000000), wk =   0.0063492
        k(   52) = (   0.4000000   0.2857143   0.1111111), wk =   0.0063492
        k(   53) = (   0.4000000   0.2857143   0.2222222), wk =   0.0063492
        k(   54) = (   0.4000000   0.2857143   0.3333333), wk =   0.0063492
        k(   55) = (   0.4000000   0.2857143   0.4444444), wk =   0.0063492
        k(   56) = (   0.4000000   0.4285714   0.0000000), wk =   0.0063492
        k(   57) = (   0.4000000   0.4285714   0.1111111), wk =   0.0063492
        k(   58) = (   0.4000000   0.4285714   0.2222222), wk =   0.0063492
        k(   59) = (   0.4000000   0.4285714   0.3333333), wk =   0.0063492
        k(   60) = (   0.4000000   0.4285714   0.4444444), wk =   0.0063492
        k(   61) = (   0.0000000  -0.1428571   0.1111111), wk =   0.0063492
        k(   62) = (   0.0000000  -0.1428571   0.2222222), wk =   0.0063492
        k(   63) = (   0.0000000  -0.1428571   0.3333333), wk =   0.0063492
        k(   64) = (   0.0000000  -0.1428571   0.4444444), wk =   0.0063492
        k(   65) = (   0.0000000  -0.2857143   0.1111111), wk =   0.0063492
        k(   66) = (   0.0000000  -0.2857143   0.2222222), wk =   0.0063492
        k(   67) = (   0.0000000  -0.2857143   0.3333333), wk =   0.0063492
        k(   68) = (   0.0000000  -0.2857143   0.4444444), wk =   0.0063492
        k(   69) = (   0.0000000  -0.4285714   0.1111111), wk =   0.0063492
        k(   70) = (   0.0000000  -0.4285714   0.2222222), wk =   0.0063492
        k(   71) = (   0.0000000  -0.4285714   0.3333333), wk =   0.0063492
        k(   72) = (   0.0000000  -0.4285714   0.4444444), wk =   0.0063492
        k(   73) = (  -0.2000000   0.0000000   0.1111111), wk =   0.0063492
        k(   74) = (  -0.2000000   0.0000000   0.2222222), wk =   0.0063492
        k(   75) = (  -0.2000000   0.0000000   0.3333333), wk =   0.0063492
        k(   76) = (  -0.2000000   0.0000000   0.4444444), wk =   0.0063492
        k(   77) = (  -0.2000000   0.1428571   0.0000000), wk =   0.0063492
        k(   78) = (  -0.2000000  -0.1428571   0.1111111), wk =   0.0063492
        k(   79) = (  -0.2000000   0.1428571  -0.1111111), wk =   0.0063492
        k(   80) = (   0.2000000  -0.1428571  -0.1111111), wk =   0.0063492
        k(   81) = (  -0.2000000  -0.1428571   0.2222222), wk =   0.0063492
        k(   82) = (  -0.2000000   0.1428571  -0.2222222), wk =   0.0063492
        k(   83) = (   0.2000000  -0.1428571  -0.2222222), wk =   0.0063492
        k(   84) = (  -0.2000000  -0.1428571   0.3333333), wk =   0.0063492
        k(   85) = (  -0.2000000   0.1428571  -0.3333333), wk =   0.0063492
        k(   86) = (   0.2000000  -0.1428571  -0.3333333), wk =   0.0063492
        k(   87) = (  -0.2000000  -0.1428571   0.4444444), wk =   0.0063492
        k(   88) = (  -0.2000000   0.1428571  -0.4444444), wk =   0.0063492
        k(   89) = (   0.2000000  -0.1428571  -0.4444444), wk =   0.0063492
        k(   90) = (  -0.2000000   0.2857143   0.0000000), wk =   0.0063492
        k(   91) = (  -0.2000000  -0.2857143   0.1111111), wk =   0.0063492
        k(   92) = (  -0.2000000   0.2857143  -0.1111111), wk =   0.0063492
        k(   93) = (   0.2000000  -0.2857143  -0.1111111), wk =   0.0063492
        k(   94) = (  -0.2000000  -0.2857143   0.2222222), wk =   0.0063492
        k(   95) = (  -0.2000000   0.2857143  -0.2222222), wk =   0.0063492
        k(   96) = (   0.2000000  -0.2857143  -0.2222222), wk =   0.0063492
        k(   97) = (  -0.2000000  -0.2857143   0.3333333), wk =   0.0063492
        k(   98) = (  -0.2000000   0.2857143  -0.3333333), wk =   0.0063492
        k(   99) = (   0.2000000  -0.2857143  -0.3333333), wk =   0.0063492
        k(  100) = (  -0.2000000  -0.2857143   0.4444444), wk =   0.0063492
        k(  101) = (  -0.2000000   0.2857143  -0.4444444), wk =   0.0063492
        k(  102) = (   0.2000000  -0.2857143  -0.4444444), wk =   0.0063492
        k(  103) = (  -0.2000000   0.4285714   0.0000000), wk =   0.0063492
        k(  104) = (  -0.2000000  -0.4285714   0.1111111), wk =   0.0063492
        k(  105) = (  -0.2000000   0.4285714  -0.1111111), wk =   0.0063492
        k(  106) = (   0.2000000  -0.4285714  -0.1111111), wk =   0.0063492
        k(  107) = (  -0.2000000  -0.4285714   0.2222222), wk =   0.0063492
        k(  108) = (  -0.2000000   0.4285714  -0.2222222), wk =   0.0063492
        k(  109) = (   0.2000000  -0.4285714  -0.2222222), wk =   0.0063492
        k(  110) = (  -0.2000000  -0.4285714   0.3333333), wk =   0.0063492
        k(  111) = (  -0.2000000   0.4285714  -0.3333333), wk =   0.0063492
        k(  112) = (   0.2000000  -0.4285714  -0.3333333), wk =   0.0063492
        k(  113) = (  -0.2000000  -0.4285714   0.4444444), wk =   0.0063492
        k(  114) = (  -0.2000000   0.4285714  -0.4444444), wk =   0.0063492
        k(  115) = (   0.2000000  -0.4285714  -0.4444444), wk =   0.0063492
        k(  116) = (  -0.4000000   0.0000000   0.1111111), wk =   0.0063492
        k(  117) = (  -0.4000000   0.0000000   0.2222222), wk =   0.0063492
        k(  118) = (  -0.4000000   0.0000000   0.3333333), wk =   0.0063492
        k(  119) = (  -0.4000000   0.0000000   0.4444444), wk =   0.0063492
        k(  120) = (  -0.4000000   0.1428571   0.0000000), wk =   0.0063492
        k(  121) = (  -0.4000000  -0.1428571   0.1111111), wk =   0.0063492
        k(  122) = (  -0.4000000   0.1428571  -0.1111111), wk =   0.0063492
        k(  123) = (   0.4000000  -0.1428571  -0.1111111), wk =   0.0063492
        k(  124) = (  -0.4000000  -0.1428571   0.2222222), wk =   0.0063492
        k(  125) = (  -0.4000000   0.1428571  -0.2222222), wk =   0.0063492
        k(  126) = (   0.4000000  -0.1428571  -0.2222222), wk =   0.0063492
        k(  127) = (  -0.4000000  -0.1428571   0.3333333), wk =   0.0063492
        k(  128) = (  -0.4000000   0.1428571  -0.3333333), wk =   0.0063492
        k(  129) = (   0.4000000  -0.1428571  -0.3333333), wk =   0.0063492
        k(  130) = (  -0.4000000  -0.1428571   0.4444444), wk =   0.0063492
        k(  131) = (  -0.4000000   0.1428571  -0.4444444), wk =   0.0063492
        k(  132) = (   0.4000000  -0.1428571  -0.4444444), wk =   0.0063492
        k(  133) = (  -0.4000000   0.2857143   0.0000000), wk =   0.0063492
        k(  134) = (  -0.4000000  -0.2857143   0.1111111), wk =   0.0063492
        k(  135) = (  -0.4000000   0.2857143  -0.1111111), wk =   0.0063492
        k(  136) = (   0.4000000  -0.2857143  -0.1111111), wk =   0.0063492
        k(  137) = (  -0.4000000  -0.2857143   0.2222222), wk =   0.0063492
        k(  138) = (  -0.4000000   0.2857143  -0.2222222), wk =   0.0063492
        k(  139) = (   0.4000000  -0.2857143  -0.2222222), wk =   0.0063492
        k(  140) = (  -0.4000000  -0.2857143   0.3333333), wk =   0.0063492
        k(  141) = (  -0.4000000   0.2857143  -0.3333333), wk =   0.0063492
        k(  142) = (   0.4000000  -0.2857143  -0.3333333), wk =   0.0063492
        k(  143) = (  -0.4000000  -0.2857143   0.4444444), wk =   0.0063492
        k(  144) = (  -0.4000000   0.2857143  -0.4444444), wk =   0.0063492
        k(  145) = (   0.4000000  -0.2857143  -0.4444444), wk =   0.0063492
        k(  146) = (  -0.4000000   0.4285714   0.0000000), wk =   0.0063492
        k(  147) = (  -0.4000000  -0.4285714   0.1111111), wk =   0.0063492
        k(  148) = (  -0.4000000   0.4285714  -0.1111111), wk =   0.0063492
        k(  149) = (   0.4000000  -0.4285714  -0.1111111), wk =   0.0063492
        k(  150) = (  -0.4000000  -0.4285714   0.2222222), wk =   0.0063492
        k(  151) = (  -0.4000000   0.4285714  -0.2222222), wk =   0.0063492
        k(  152) = (   0.4000000  -0.4285714  -0.2222222), wk =   0.0063492
        k(  153) = (  -0.4000000  -0.4285714   0.3333333), wk =   0.0063492
        k(  154) = (  -0.4000000   0.4285714  -0.3333333), wk =   0.0063492
        k(  155) = (   0.4000000  -0.4285714  -0.3333333), wk =   0.0063492
        k(  156) = (  -0.4000000  -0.4285714   0.4444444), wk =   0.0063492
        k(  157) = (  -0.4000000   0.4285714  -0.4444444), wk =   0.0063492
        k(  158) = (   0.4000000  -0.4285714  -0.4444444), wk =   0.0063492

     Dense  grid:  1338043 G-vectors     FFT dimensions: ( 216, 125, 100)

     Smooth grid:   301725 G-vectors     FFT dimensions: ( 135,  75,  60)

     Dynamical RAM for                 wfc:       5.46 MB

     Dynamical RAM for     wfc (w. buffer):    1732.02 MB

     Dynamical RAM for           str. fact:       6.81 MB

     Dynamical RAM for           local pot:       0.00 MB

     Dynamical RAM for          nlocal pot:      13.42 MB

     Dynamical RAM for                qrad:      10.54 MB

     Dynamical RAM for          rho,v,vnew:      21.33 MB

     Dynamical RAM for               rhoin:       7.11 MB

     Dynamical RAM for            rho*nmix:      54.45 MB

     Dynamical RAM for           G-vectors:       6.57 MB

     Dynamical RAM for          h,s,v(r/c):       2.38 MB

     Dynamical RAM for          <psi|beta>:       0.49 MB

     Dynamical RAM for                 psi:      10.93 MB

     Dynamical RAM for                hpsi:      10.93 MB

     Dynamical RAM for                spsi:      10.93 MB

     Dynamical RAM for      wfcinit/wfcrot:      13.56 MB

     Dynamical RAM for           addusdens:     345.39 MB

     Dynamical RAM for          addusforce:     396.56 MB

     Dynamical RAM for         addusstress:     344.54 MB

     Estimated static dynamical RAM per process >       1.83 GB

     Estimated max dynamical RAM per process >       2.22 GB

     Estimated total dynamical RAM >      26.58 GB

     Check: negative core charge=   -0.000003
     Generating pointlists ...
     new r_m :   0.0753 (alat units)  1.5301 (a.u.) for type    1
     new r_m :   0.0877 (alat units)  1.7818 (a.u.) for type    2
     new r_m :   0.0590 (alat units)  1.1982 (a.u.) for type    3
     new r_m :   0.0590 (alat units)  1.1982 (a.u.) for type    4

     Initial potential from superposition of free atoms

     starting charge  188.99132, renormalised to  189.00000
     Starting wfcs are  137 randomized atomic wfcs
     Checking if some PAW data can be deallocated... 
       PAW data deallocated on   10 nodes for type:  1
       PAW data deallocated on    4 nodes for type:  3

     total cpu time spent up to now is      326.2 secs

     Self-consistent Calculation

     iteration #  1     ecut=   100.00 Ry     beta= 0.40
     Davidson diagonalization with overlap
     ethr =  1.00E-02,  avg # of iterations =  3.0

     negative rho (up, down):  0.000E+00 7.271E-05

     total cpu time spent up to now is     1350.9 secs

     total energy              =   -2123.87609844 Ry
     estimated scf accuracy    <       6.98492303 Ry

     total magnetization       =    19.00 Bohr mag/cell
     absolute magnetization    =    19.00 Bohr mag/cell

     iteration #  2     ecut=   100.00 Ry     beta= 0.40
     Davidson diagonalization with overlap
     ethr =  3.70E-03,  avg # of iterations =  2.0

     negative rho (up, down):  0.000E+00 5.872E-06

     total cpu time spent up to now is     2327.7 secs

     total energy              =   -2121.11765259 Ry
     estimated scf accuracy    <      34.05614691 Ry

     total magnetization       =     8.33 Bohr mag/cell
     absolute magnetization    =     9.59 Bohr mag/cell

     iteration #  3     ecut=   100.00 Ry     beta= 0.40
     Davidson diagonalization with overlap
     ethr =  3.70E-03,  avg # of iterations =  2.4

     negative rho (up, down):  0.000E+00 6.973E-06

     total cpu time spent up to now is     3123.3 secs

     total energy              =   -2123.25887605 Ry
     estimated scf accuracy    <      67.11355158 Ry

     total magnetization       =     2.92 Bohr mag/cell
     absolute magnetization    =     5.92 Bohr mag/cell

     iteration #  4     ecut=   100.00 Ry     beta= 0.40
     Davidson diagonalization with overlap
     ethr =  3.70E-03,  avg # of iterations =  1.5

     negative rho (up, down):  0.000E+00 3.494E-06

     total cpu time spent up to now is     3841.4 secs

     total energy              =   -2124.60337538 Ry
     estimated scf accuracy    <      30.85148298 Ry

     total magnetization       =     9.00 Bohr mag/cell
     absolute magnetization    =     9.36 Bohr mag/cell

     iteration #  5     ecut=   100.00 Ry     beta= 0.40
     Davidson diagonalization with overlap
     ethr =  3.70E-03,  avg # of iterations =  1.8

     negative rho (up, down):  0.000E+00 3.045E-05

     total cpu time spent up to now is     4595.4 secs

     total energy              =   -2125.78258925 Ry
     estimated scf accuracy    <       4.87945451 Ry

     total magnetization       =    17.02 Bohr mag/cell
     absolute magnetization    =    17.10 Bohr mag/cell

     iteration #  6     ecut=   100.00 Ry     beta= 0.40
     Davidson diagonalization with overlap
     ethr =  2.58E-03,  avg # of iterations =  1.5

     negative rho (up, down):  0.000E+00 1.663E-04

     total cpu time spent up to now is     5312.8 secs

     total energy              =   -2126.06442460 Ry
     estimated scf accuracy    <       1.26860201 Ry

     total magnetization       =    18.81 Bohr mag/cell
     absolute magnetization    =    18.82 Bohr mag/cell

     iteration #  7     ecut=   100.00 Ry     beta= 0.40
     Davidson diagonalization with overlap
     ethr =  6.71E-04,  avg # of iterations =  1.0

     negative rho (up, down):  0.000E+00 2.837E-04

     total cpu time spent up to now is     5973.4 secs

     total energy              =   -2126.06804833 Ry
     estimated scf accuracy    <       0.48459566 Ry

     total magnetization       =    19.00 Bohr mag/cell
     absolute magnetization    =    19.00 Bohr mag/cell

     iteration #  8     ecut=   100.00 Ry     beta= 0.40
     Davidson diagonalization with overlap
     ethr =  2.56E-04,  avg # of iterations =  2.3

     negative rho (up, down):  0.000E+00 5.173E-04

     total cpu time spent up to now is     6722.5 secs

     total energy              =   -2126.05183707 Ry
     estimated scf accuracy    <       0.33327224 Ry

     total magnetization       =    19.00 Bohr mag/cell
     absolute magnetization    =    19.00 Bohr mag/cell

     iteration #  9     ecut=   100.00 Ry     beta= 0.40
     Davidson diagonalization with overlap
     ethr =  1.76E-04,  avg # of iterations =  2.8

     negative rho (up, down):  0.000E+00 5.901E-04

     total cpu time spent up to now is     7498.9 secs

     total energy              =   -2126.06235403 Ry
     estimated scf accuracy    <       0.26144155 Ry

     total magnetization       =    19.00 Bohr mag/cell
     absolute magnetization    =    19.01 Bohr mag/cell

     iteration # 10     ecut=   100.00 Ry     beta= 0.40
     Davidson diagonalization with overlap
     ethr =  1.38E-04,  avg # of iterations =  1.9

     negative rho (up, down):  0.000E+00 9.115E-04

     total cpu time spent up to now is     8220.3 secs

     total energy              =   -2126.06029764 Ry
     estimated scf accuracy    <       0.34041982 Ry

     total magnetization       =    19.00 Bohr mag/cell
     absolute magnetization    =    19.02 Bohr mag/cell

     iteration # 11     ecut=   100.00 Ry     beta= 0.40
     Davidson diagonalization with overlap
     ethr =  1.38E-04,  avg # of iterations =  1.7

     negative rho (up, down):  0.000E+00 9.482E-04

     total cpu time spent up to now is     8943.0 secs

     total energy              =   -2126.07748314 Ry
     estimated scf accuracy    <       0.16136530 Ry

     total magnetization       =    19.00 Bohr mag/cell
     absolute magnetization    =    19.03 Bohr mag/cell

     iteration # 12     ecut=   100.00 Ry     beta= 0.40
     Davidson diagonalization with overlap
     c_bands:  1 eigenvalues not converged
     c_bands:  1 eigenvalues not converged
     c_bands:  1 eigenvalues not converged
     c_bands:  1 eigenvalues not converged
     ethr =  8.54E-05,  avg # of iterations =  3.8

     negative rho (up, down):  0.000E+00 9.360E-04

     total cpu time spent up to now is     9736.9 secs

     total energy              =   -2126.07567346 Ry
     estimated scf accuracy    <       0.09631152 Ry

     total magnetization       =    19.00 Bohr mag/cell
     absolute magnetization    =    19.03 Bohr mag/cell

     iteration # 13     ecut=   100.00 Ry     beta= 0.40
     Davidson diagonalization with overlap
     c_bands:  1 eigenvalues not converged
     c_bands:  1 eigenvalues not converged
     c_bands:  1 eigenvalues not converged
     c_bands:  1 eigenvalues not converged
     c_bands:  1 eigenvalues not converged
     c_bands:  3 eigenvalues not converged
     c_bands:  1 eigenvalues not converged
     c_bands:  2 eigenvalues not converged
     c_bands:  1 eigenvalues not converged
     c_bands:  1 eigenvalues not converged
     c_bands:  1 eigenvalues not converged
     c_bands:  1 eigenvalues not converged
     c_bands:  1 eigenvalues not converged
     ethr =  5.10E-05,  avg # of iterations =  9.0

     negative rho (up, down):  0.000E+00 9.697E-04

     total cpu time spent up to now is    10663.7 secs

     total energy              =   -2126.07850094 Ry
     estimated scf accuracy    <       0.01649042 Ry

     total magnetization       =    19.00 Bohr mag/cell
     absolute magnetization    =    19.04 Bohr mag/cell

     iteration # 14     ecut=   100.00 Ry     beta= 0.40
     Davidson diagonalization with overlap
     c_bands:  1 eigenvalues not converged
     c_bands:  1 eigenvalues not converged
     c_bands:  1 eigenvalues not converged
     c_bands:  1 eigenvalues not converged
     c_bands:  1 eigenvalues not converged
     c_bands:  1 eigenvalues not converged
     c_bands:  1 eigenvalues not converged
     c_bands:  1 eigenvalues not converged
     c_bands:  1 eigenvalues not converged
     c_bands:  1 eigenvalues not converged
     c_bands:  1 eigenvalues not converged
     ethr =  8.73E-06,  avg # of iterations = 12.7

     negative rho (up, down):  0.000E+00 9.816E-04

     total cpu time spent up to now is    11901.0 secs

     total energy              =   -2126.07908980 Ry
     estimated scf accuracy    <       0.00736221 Ry

     total magnetization       =    19.00 Bohr mag/cell
     absolute magnetization    =    19.04 Bohr mag/cell

     iteration # 15     ecut=   100.00 Ry     beta= 0.40
     Davidson diagonalization with overlap
     c_bands:  1 eigenvalues not converged
     ethr =  3.90E-06,  avg # of iterations =  2.4

     negative rho (up, down):  0.000E+00 9.865E-04

     total cpu time spent up to now is    12665.7 secs

     total energy              =   -2126.07956092 Ry
     estimated scf accuracy    <       0.00162354 Ry

     total magnetization       =    19.00 Bohr mag/cell
     absolute magnetization    =    19.04 Bohr mag/cell

     iteration # 16     ecut=   100.00 Ry     beta= 0.40
     Davidson diagonalization with overlap
     c_bands:  1 eigenvalues not converged
     ethr =  8.59E-07,  avg # of iterations =  4.3

     negative rho (up, down):  0.000E+00 9.759E-04

     total cpu time spent up to now is    13589.8 secs

     total energy              =   -2126.07985704 Ry
     estimated scf accuracy    <       0.00154270 Ry

     total magnetization       =    19.00 Bohr mag/cell
     absolute magnetization    =    19.05 Bohr mag/cell

     iteration # 17     ecut=   100.00 Ry     beta= 0.40
     Davidson diagonalization with overlap
     ethr =  8.16E-07,  avg # of iterations =  1.1

     negative rho (up, down):  0.000E+00 9.677E-04

     total cpu time spent up to now is    14261.6 secs

     total energy              =   -2126.07991605 Ry
     estimated scf accuracy    <       0.00003062 Ry

     total magnetization       =    19.00 Bohr mag/cell
     absolute magnetization    =    19.05 Bohr mag/cell

     iteration # 18     ecut=   100.00 Ry     beta= 0.40
     Davidson diagonalization with overlap
     ethr =  1.62E-08,  avg # of iterations =  5.8

     negative rho (up, down):  0.000E+00 9.610E-04

     total cpu time spent up to now is    16042.5 secs

     total energy              =   -2126.07996460 Ry
     estimated scf accuracy    <       0.00013127 Ry

     total magnetization       =    19.00 Bohr mag/cell
     absolute magnetization    =    19.05 Bohr mag/cell

     iteration # 19     ecut=   100.00 Ry     beta= 0.40
     Davidson diagonalization with overlap
     ethr =  1.62E-08,  avg # of iterations =  1.0

     negative rho (up, down):  0.000E+00 9.597E-04

     total cpu time spent up to now is    16702.5 secs

     total energy              =   -2126.07996868 Ry
     estimated scf accuracy    <       0.00006941 Ry

     total magnetization       =    19.00 Bohr mag/cell
     absolute magnetization    =    19.05 Bohr mag/cell

     iteration # 20     ecut=   100.00 Ry     beta= 0.40
     Davidson diagonalization with overlap
     ethr =  1.62E-08,  avg # of iterations =  1.0

     negative rho (up, down):  0.000E+00 9.582E-04

     total cpu time spent up to now is    17360.5 secs

     total energy              =   -2126.07997168 Ry
     estimated scf accuracy    <       0.00001266 Ry

     total magnetization       =    19.00 Bohr mag/cell
     absolute magnetization    =    19.05 Bohr mag/cell

     iteration # 21     ecut=   100.00 Ry     beta= 0.40
     Davidson diagonalization with overlap
     ethr =  6.70E-09,  avg # of iterations =  2.0

     negative rho (up, down):  0.000E+00 9.604E-04

     total cpu time spent up to now is    18181.8 secs

     total energy              =   -2126.07997520 Ry
     estimated scf accuracy    <       0.00002379 Ry

     total magnetization       =    19.00 Bohr mag/cell
     absolute magnetization    =    19.05 Bohr mag/cell

     iteration # 22     ecut=   100.00 Ry     beta= 0.40
     Davidson diagonalization with overlap
     ethr =  6.70E-09,  avg # of iterations =  2.0

     negative rho (up, down):  0.000E+00 9.630E-04

     total cpu time spent up to now is    18937.4 secs

     total energy              =   -2126.07997563 Ry
     estimated scf accuracy    <       0.00000248 Ry

     total magnetization       =    19.00 Bohr mag/cell
     absolute magnetization    =    19.05 Bohr mag/cell

     iteration # 23     ecut=   100.00 Ry     beta= 0.40
     Davidson diagonalization with overlap
     ethr =  1.31E-09,  avg # of iterations =  2.1

     negative rho (up, down):  0.000E+00 9.629E-04

     total cpu time spent up to now is    19788.7 secs

     total energy              =   -2126.07997854 Ry
     estimated scf accuracy    <       0.00000170 Ry

     total magnetization       =    19.00 Bohr mag/cell
     absolute magnetization    =    19.05 Bohr mag/cell

     iteration # 24     ecut=   100.00 Ry     beta= 0.40
     Davidson diagonalization with overlap
     ethr =  8.99E-10,  avg # of iterations =  2.0

     negative rho (up, down):  0.000E+00 9.631E-04

     total cpu time spent up to now is    20578.3 secs

     total energy              =   -2126.07997905 Ry
     estimated scf accuracy    <       0.00000087 Ry

     total magnetization       =    19.00 Bohr mag/cell
     absolute magnetization    =    19.05 Bohr mag/cell

     iteration # 25     ecut=   100.00 Ry     beta= 0.40
     Davidson diagonalization with overlap
     ethr =  4.62E-10,  avg # of iterations =  2.0

     negative rho (up, down):  0.000E+00 9.627E-04

     total cpu time spent up to now is    21355.4 secs

     total energy              =   -2126.07997918 Ry
     estimated scf accuracy    <       0.00000108 Ry

     total magnetization       =    19.00 Bohr mag/cell
     absolute magnetization    =    19.05 Bohr mag/cell

     iteration # 26     ecut=   100.00 Ry     beta= 0.40
     Davidson diagonalization with overlap
     ethr =  4.62E-10,  avg # of iterations =  1.1

     negative rho (up, down):  0.000E+00 9.626E-04

     total cpu time spent up to now is    22020.1 secs

     total energy              =   -2126.07997911 Ry
     estimated scf accuracy    <       0.00000057 Ry

     total magnetization       =    19.00 Bohr mag/cell
     absolute magnetization    =    19.05 Bohr mag/cell

     iteration # 27     ecut=   100.00 Ry     beta= 0.40
     Davidson diagonalization with overlap
     ethr =  2.99E-10,  avg # of iterations =  2.0

     negative rho (up, down):  0.000E+00 9.621E-04

     total cpu time spent up to now is    22813.6 secs

     total energy              =   -2126.07997951 Ry
     estimated scf accuracy    <       0.00000141 Ry

     total magnetization       =    19.00 Bohr mag/cell
     absolute magnetization    =    19.05 Bohr mag/cell

     iteration # 28     ecut=   100.00 Ry     beta= 0.40
     Davidson diagonalization with overlap
     ethr =  2.99E-10,  avg # of iterations =  2.0

     negative rho (up, down):  0.000E+00 9.618E-04

     total cpu time spent up to now is    23611.2 secs

     total energy              =   -2126.07997964 Ry
     estimated scf accuracy    <       0.00000034 Ry

     total magnetization       =    19.00 Bohr mag/cell
     absolute magnetization    =    19.05 Bohr mag/cell

     iteration # 29     ecut=   100.00 Ry     beta= 0.40
     Davidson diagonalization with overlap
     ethr =  1.78E-10,  avg # of iterations =  2.0

     negative rho (up, down):  0.000E+00 9.618E-04

     total cpu time spent up to now is    24392.7 secs

     total energy              =   -2126.07997969 Ry
     estimated scf accuracy    <       0.00000054 Ry

     total magnetization       =    19.00 Bohr mag/cell
     absolute magnetization    =    19.05 Bohr mag/cell

     iteration # 30     ecut=   100.00 Ry     beta= 0.40
     Davidson diagonalization with overlap
     ethr =  1.78E-10,  avg # of iterations =  1.0

     negative rho (up, down):  0.000E+00 9.622E-04

     total cpu time spent up to now is    25050.6 secs

     total energy              =   -2126.07997969 Ry
     estimated scf accuracy    <       0.00000021 Ry

     total magnetization       =    19.00 Bohr mag/cell
     absolute magnetization    =    19.05 Bohr mag/cell

     iteration # 31     ecut=   100.00 Ry     beta= 0.40
     Davidson diagonalization with overlap
     ethr =  1.10E-10,  avg # of iterations =  2.0

     negative rho (up, down):  0.000E+00 9.621E-04

     total cpu time spent up to now is    25837.9 secs

     total energy              =   -2126.07997973 Ry
     estimated scf accuracy    <       0.00000008 Ry

     total magnetization       =    19.00 Bohr mag/cell
     absolute magnetization    =    19.05 Bohr mag/cell

     iteration # 32     ecut=   100.00 Ry     beta= 0.40
     Davidson diagonalization with overlap
     ethr =  4.17E-11,  avg # of iterations =  2.0

     negative rho (up, down):  0.000E+00 9.623E-04

     total cpu time spent up to now is    26613.3 secs

     total energy              =   -2126.07997974 Ry
     estimated scf accuracy    <       0.00000004 Ry

     total magnetization       =    19.00 Bohr mag/cell
     absolute magnetization    =    19.05 Bohr mag/cell

     iteration # 33     ecut=   100.00 Ry     beta= 0.40
     Davidson diagonalization with overlap
     ethr =  2.23E-11,  avg # of iterations =  1.5

     negative rho (up, down):  0.000E+00 9.623E-04

     total cpu time spent up to now is    27317.4 secs

     total energy              =   -2126.07997974 Ry
     estimated scf accuracy    <          7.0E-09 Ry

     total magnetization       =    19.00 Bohr mag/cell
     absolute magnetization    =    19.05 Bohr mag/cell

     iteration # 34     ecut=   100.00 Ry     beta= 0.40
     Davidson diagonalization with overlap
     ethr =  3.70E-12,  avg # of iterations =  5.0

     negative rho (up, down):  0.000E+00 9.623E-04

     total cpu time spent up to now is    28389.9 secs

     total energy              =   -2126.07997974 Ry
     estimated scf accuracy    <          1.7E-09 Ry

     total magnetization       =    19.00 Bohr mag/cell
     absolute magnetization    =    19.05 Bohr mag/cell

     iteration # 35     ecut=   100.00 Ry     beta= 0.40
     Davidson diagonalization with overlap
     ethr =  8.92E-13,  avg # of iterations =  2.7

     negative rho (up, down):  0.000E+00 9.623E-04

     total cpu time spent up to now is    29230.7 secs

     total energy              =   -2126.07997974 Ry
     estimated scf accuracy    <          8.8E-10 Ry

     total magnetization       =    19.00 Bohr mag/cell
     absolute magnetization    =    19.05 Bohr mag/cell

     iteration # 36     ecut=   100.00 Ry     beta= 0.40
     Davidson diagonalization with overlap
     ethr =  4.63E-13,  avg # of iterations =  2.0

     negative rho (up, down):  0.000E+00 9.623E-04

     total cpu time spent up to now is    30022.6 secs

     total energy              =   -2126.07997974 Ry
     estimated scf accuracy    <          4.5E-10 Ry

     total magnetization       =    19.00 Bohr mag/cell
     absolute magnetization    =    19.05 Bohr mag/cell

     iteration # 37     ecut=   100.00 Ry     beta= 0.40
     Davidson diagonalization with overlap
     ethr =  2.36E-13,  avg # of iterations =  2.0

     negative rho (up, down):  0.000E+00 9.623E-04

     total cpu time spent up to now is    30804.9 secs

     total energy              =   -2126.07997974 Ry
     estimated scf accuracy    <          2.6E-10 Ry

     total magnetization       =    19.00 Bohr mag/cell
     absolute magnetization    =    19.05 Bohr mag/cell

     iteration # 38     ecut=   100.00 Ry     beta= 0.40
     Davidson diagonalization with overlap
     ethr =  1.35E-13,  avg # of iterations =  2.0

     negative rho (up, down):  0.000E+00 9.623E-04

     Magnetic moment per site:
     atom:    1    charge:    7.9363    magn:    0.0015    constr:    0.0000
     atom:    2    charge:   12.9561    magn:    3.7004    constr:    0.0000
     atom:    3    charge:   12.9914    magn:    3.5992    constr:    0.0000
     atom:    4    charge:   12.9572    magn:    3.6940    constr:    0.0000
     atom:    5    charge:   12.9734    magn:    3.6439    constr:    0.0000
     atom:    6    charge:    0.8344    magn:    0.0104    constr:    0.0000
     atom:    7    charge:    0.8277    magn:    0.0122    constr:    0.0000
     atom:    8    charge:    0.8382    magn:    0.0102    constr:    0.0000
     atom:    9    charge:    0.8264    magn:    0.0115    constr:    0.0000
     atom:   10    charge:    4.2537    magn:    0.1184    constr:    0.0000
     atom:   11    charge:    4.2572    magn:    0.1094    constr:    0.0000
     atom:   12    charge:    4.2687    magn:    0.0977    constr:    0.0000
     atom:   13    charge:    4.2564    magn:    0.1151    constr:    0.0000
     atom:   14    charge:    4.2145    magn:    0.1266    constr:    0.0000
     atom:   15    charge:    4.2204    magn:    0.0939    constr:    0.0000
     atom:   16    charge:    4.2181    magn:    0.1296    constr:    0.0000
     atom:   17    charge:    4.2183    magn:    0.1031    constr:    0.0000
     atom:   18    charge:    4.2392    magn:    0.1305    constr:    0.0000
     atom:   19    charge:    4.2375    magn:    0.1436    constr:    0.0000
     atom:   20    charge:    4.2506    magn:    0.1179    constr:    0.0000
     atom:   21    charge:    4.2294    magn:    0.1490    constr:    0.0000
     atom:   22    charge:    4.2328    magn:    0.1287    constr:    0.0000
     atom:   23    charge:    4.2360    magn:    0.1494    constr:    0.0000
     atom:   24    charge:    4.2475    magn:    0.1094    constr:    0.0000
     atom:   25    charge:    4.2369    magn:    0.1488    constr:    0.0000

     total cpu time spent up to now is    31588.5 secs

     End of self-consistent calculation

 ------ SPIN UP ------------


          k = 0.0000 0.0000 0.0000 ( 37701 PWs)   bands (ev):

   -85.7984 -85.7852 -85.4814 -85.3192 -51.8412 -51.8217 -51.7744 -51.7591
   -51.7396 -51.7320 -51.6739 -51.5894 -51.4449 -51.3104 -51.2794 -51.0979
   -44.8779 -16.9675 -16.8733 -16.8331 -16.4276 -16.2492 -16.1502 -15.9242
   -14.0936 -13.9822 -13.9533 -13.8693 -13.8077 -13.7569 -13.7222 -13.6825
   -13.6180 -13.5594 -13.4988 -13.4617  -4.5330  -4.1708  -3.9054  -3.6951
    -2.5338  -2.4351  -2.1202  -1.9948  -1.8939  -1.6871  -1.5900  -1.4639
    -1.3432  -1.3061  -1.2301  -1.1721  -0.5209  -0.4640  -0.0819   0.0030
     0.0582   0.0938   0.1153   0.2478   0.2785   0.4395   0.4804   0.5708
     0.8979   0.9421   1.0478   1.1522   1.2042   1.3356   1.4628   1.4713
     1.6118   1.6534   1.7206   1.8563   1.9862   2.0012   2.0297   2.2424
     2.2755   2.3315   2.3756   2.4387   2.5693   2.6024   2.7624   2.8952
     2.9686   2.9891   3.0281   3.1163   3.2382   3.2879   3.3711   3.4140
     3.6187   3.6728   3.7425   3.7610   3.9180   4.0310   4.3583   4.4807
     8.4249  10.3880  10.8274  11.2007  11.5557  12.3706  12.5221  12.6278
    12.7462  12.8577

     occupation numbers 
     1.0000   1.0000   1.0000   1.0000   1.0000   1.0000   1.0000   1.0000
     1.0000   1.0000   1.0000   1.0000   1.0000   1.0000   1.0000   1.0000
     1.0000   1.0000   1.0000   1.0000   1.0000   1.0000   1.0000   1.0000
     1.0000   1.0000   1.0000   1.0000   1.0000   1.0000   1.0000   1.0000
     1.0000   1.0000   1.0000   1.0000   1.0000   1.0000   1.0000   1.0000
     1.0000   1.0000   1.0000   1.0000   1.0000   1.0000   1.0000   1.0000
     1.0000   1.0000   1.0000   1.0000   1.0000   1.0000   1.0000   1.0000
     1.0000   1.0000   1.0000   1.0000   1.0000   1.0000   1.0000   1.0000
     1.0000   1.0000   1.0000   1.0000   1.0000   1.0000   1.0000   1.0000
     1.0000   1.0000   1.0000   1.0000   1.0000   1.0000   1.0000   1.0000
     1.0000   1.0000   1.0000   1.0000   1.0000   1.0000   1.0000   1.0000
     1.0000   1.0000   1.0000   1.0000   1.0000   1.0000   1.0000   1.0000
     1.0000   1.0000   1.0000   1.0000   1.0000   1.0000   1.0000   1.0000
     0.0000   0.0000   0.0000   0.0000   0.0000   0.0000   0.0000   0.0000
     0.0000   0.0000

          k = 0.0000 0.0000 0.2415 ( 37675 PWs)   bands (ev):

   -85.7984 -85.7852 -85.4814 -85.3192 -51.8412 -51.8217 -51.7744 -51.7591
   -51.7396 -51.7320 -51.6739 -51.5894 -51.4449 -51.3104 -51.2794 -51.0979
   -44.8779 -16.9682 -16.8739 -16.8357 -16.4152 -16.2384 -16.1401 -15.9229
   -14.1065 -13.9978 -13.9542 -13.8688 -13.8245 -13.7547 -13.7286 -13.6884
   -13.6277 -13.5537 -13.4979 -13.4581  -4.5068  -4.1628  -3.8964  -3.6878
    -2.4997  -2.4203  -2.1083  -1.9781  -1.8911  -1.6875  -1.5912  -1.4399
    -1.3586  -1.2985  -1.2372  -1.1469  -0.5159  -0.4531  -0.1034   0.0056
     0.0597   0.0889   0.1191   0.2382   0.3020   0.4293   0.4542   0.5892
     0.8572   0.9599   1.0454   1.1457   1.1889   1.3187   1.4443   1.4472
     1.6244   1.6542   1.7220   1.8318   1.9423   1.9882   2.0452   2.2487
     2.2822   2.3209   2.3576   2.4635   2.5483   2.5826   2.7665   2.8709
     2.9433   2.9740   3.0471   3.1246   3.2135   3.3073   3.3746   3.4449
     3.6114   3.6555   3.7282   3.7878   3.9174   4.0198   4.3561   4.4713
     8.5663  10.4629  10.8722  11.2218  11.6035  12.2867  12.4619  12.5994
    12.7188  12.8531

     occupation numbers 
     1.0000   1.0000   1.0000   1.0000   1.0000   1.0000   1.0000   1.0000
     1.0000   1.0000   1.0000   1.0000   1.0000   1.0000   1.0000   1.0000
     1.0000   1.0000   1.0000   1.0000   1.0000   1.0000   1.0000   1.0000
     1.0000   1.0000   1.0000   1.0000   1.0000   1.0000   1.0000   1.0000
     1.0000   1.0000   1.0000   1.0000   1.0000   1.0000   1.0000   1.0000
     1.0000   1.0000   1.0000   1.0000   1.0000   1.0000   1.0000   1.0000
     1.0000   1.0000   1.0000   1.0000   1.0000   1.0000   1.0000   1.0000
     1.0000   1.0000   1.0000   1.0000   1.0000   1.0000   1.0000   1.0000
     1.0000   1.0000   1.0000   1.0000   1.0000   1.0000   1.0000   1.0000
     1.0000   1.0000   1.0000   1.0000   1.0000   1.0000   1.0000   1.0000
     1.0000   1.0000   1.0000   1.0000   1.0000   1.0000   1.0000   1.0000
     1.0000   1.0000   1.0000   1.0000   1.0000   1.0000   1.0000   1.0000
     1.0000   1.0000   1.0000   1.0000   1.0000   1.0000   1.0000   1.0000
     0.0000   0.0000   0.0000   0.0000   0.0000   0.0000   0.0000   0.0000
     0.0000   0.0000

          k = 0.0000 0.0000 0.4830 ( 37730 PWs)   bands (ev):

   -85.7984 -85.7852 -85.4814 -85.3192 -51.8412 -51.8217 -51.7744 -51.7592
   -51.7396 -51.7320 -51.6739 -51.5894 -51.4449 -51.3104 -51.2794 -51.0979
   -44.8779 -16.9709 -16.8755 -16.8408 -16.3842 -16.2096 -16.1134 -15.9214
   -14.1399 -14.0370 -13.9546 -13.8812 -13.8552 -13.7527 -13.7489 -13.7008
   -13.6418 -13.5434 -13.4968 -13.4500  -4.4364  -4.1421  -3.8740  -3.6812
    -2.4327  -2.3556  -2.0687  -1.9501  -1.8831  -1.6838  -1.5901  -1.4591
    -1.3382  -1.2733  -1.2175  -1.0920  -0.5009  -0.4266  -0.1312  -0.0101
     0.0536   0.0819   0.1385   0.2252   0.3467   0.4167   0.4356   0.6123
     0.8042   0.9400   1.0212   1.1207   1.1548   1.2816   1.3776   1.4433
     1.5420   1.6543   1.7013   1.7783   1.9128   1.9858   2.0546   2.1739
     2.2539   2.3079   2.3630   2.4590   2.5143   2.5472   2.7621   2.8175
     2.8833   2.9862   3.0817   3.1395   3.2449   3.3327   3.3992   3.4763
     3.5918   3.6659   3.7057   3.8213   3.9188   3.9985   4.3416   4.4474
     8.9450  10.6625  10.9523  11.2982  11.7384  12.1339  12.2853  12.3811
    12.6622  12.7316

     occupation numbers 
     1.0000   1.0000   1.0000   1.0000   1.0000   1.0000   1.0000   1.0000
     1.0000   1.0000   1.0000   1.0000   1.0000   1.0000   1.0000   1.0000
     1.0000   1.0000   1.0000   1.0000   1.0000   1.0000   1.0000   1.0000
     1.0000   1.0000   1.0000   1.0000   1.0000   1.0000   1.0000   1.0000
     1.0000   1.0000   1.0000   1.0000   1.0000   1.0000   1.0000   1.0000
     1.0000   1.0000   1.0000   1.0000   1.0000   1.0000   1.0000   1.0000
     1.0000   1.0000   1.0000   1.0000   1.0000   1.0000   1.0000   1.0000
     1.0000   1.0000   1.0000   1.0000   1.0000   1.0000   1.0000   1.0000
     1.0000   1.0000   1.0000   1.0000   1.0000   1.0000   1.0000   1.0000
     1.0000   1.0000   1.0000   1.0000   1.0000   1.0000   1.0000   1.0000
     1.0000   1.0000   1.0000   1.0000   1.0000   1.0000   1.0000   1.0000
     1.0000   1.0000   1.0000   1.0000   1.0000   1.0000   1.0000   1.0000
     1.0000   1.0000   1.0000   1.0000   1.0000   1.0000   1.0000   1.0000
     0.0000   0.0000   0.0000   0.0000   0.0000   0.0000   0.0000   0.0000
     0.0000   0.0000

          k = 0.0000 0.0000 0.7246 ( 37724 PWs)   bands (ev):

   -85.7984 -85.7852 -85.4814 -85.3192 -51.8412 -51.8217 -51.7744 -51.7592
   -51.7396 -51.7320 -51.6739 -51.5894 -51.4450 -51.3104 -51.2794 -51.0979
   -44.8779 -16.9751 -16.8772 -16.8443 -16.3495 -16.1733 -16.0800 -15.9242
   -14.1781 -14.0803 -13.9536 -13.9318 -13.8553 -13.7883 -13.7499 -13.7048
   -13.6494 -13.5342 -13.4973 -13.4419  -4.3461  -4.1174  -3.8501  -3.6973
    -2.3949  -2.2343  -2.0095  -1.9267  -1.8732  -1.6776  -1.5899  -1.5192
    -1.3349  -1.2470  -1.1199  -1.0068  -0.4763  -0.3976  -0.1338  -0.0354
     0.0493   0.0856   0.1286   0.2577   0.4023   0.4287   0.4623   0.5944
     0.7507   0.8705   0.9603   1.0678   1.1167   1.2078   1.2946   1.4021
     1.4774   1.5435   1.7309   1.7821   1.9112   1.9572   2.0189   2.0821
     2.1798   2.3018   2.3587   2.3726   2.4858   2.5732   2.7105   2.7862
     2.8451   2.9880   3.1122   3.2221   3.3274   3.3711   3.4341   3.4818
     3.5700   3.6780   3.7340   3.8514   3.9156   3.9833   4.3118   4.4140
     9.4657  10.8420  11.0077  11.4332  11.7670  12.0265  12.0792  12.2705
    12.5073  12.5735

     occupation numbers 
     1.0000   1.0000   1.0000   1.0000   1.0000   1.0000   1.0000   1.0000
     1.0000   1.0000   1.0000   1.0000   1.0000   1.0000   1.0000   1.0000
     1.0000   1.0000   1.0000   1.0000   1.0000   1.0000   1.0000   1.0000
     1.0000   1.0000   1.0000   1.0000   1.0000   1.0000   1.0000   1.0000
     1.0000   1.0000   1.0000   1.0000   1.0000   1.0000   1.0000   1.0000
     1.0000   1.0000   1.0000   1.0000   1.0000   1.0000   1.0000   1.0000
     1.0000   1.0000   1.0000   1.0000   1.0000   1.0000   1.0000   1.0000
     1.0000   1.0000   1.0000   1.0000   1.0000   1.0000   1.0000   1.0000
     1.0000   1.0000   1.0000   1.0000   1.0000   1.0000   1.0000   1.0000
     1.0000   1.0000   1.0000   1.0000   1.0000   1.0000   1.0000   1.0000
     1.0000   1.0000   1.0000   1.0000   1.0000   1.0000   1.0000   1.0000
     1.0000   1.0000   1.0000   1.0000   1.0000   1.0000   1.0000   1.0000
     1.0000   1.0000   1.0000   1.0000   1.0000   1.0000   1.0000   1.0000
     0.0000   0.0000   0.0000   0.0000   0.0000   0.0000   0.0000   0.0000
     0.0000   0.0000

          k = 0.0000 0.0000 0.9661 ( 37764 PWs)   bands (ev):

   -85.7984 -85.7852 -85.4814 -85.3192 -51.8412 -51.8217 -51.7744 -51.7592
   -51.7396 -51.7320 -51.6739 -51.5894 -51.4450 -51.3104 -51.2794 -51.0979
   -44.8779 -16.9785 -16.8779 -16.8456 -16.3271 -16.1471 -16.0543 -15.9313
   -14.2030 -14.1074 -13.9696 -13.9515 -13.8524 -13.8173 -13.7499 -13.7042
   -13.6527 -13.5284 -13.4987 -13.4371  -4.2781  -4.0996  -3.8347  -3.7257
    -2.3754  -2.1553  -1.9590  -1.9014  -1.8656  -1.6836  -1.6044  -1.5355
    -1.3583  -1.2321  -1.0274  -0.9365  -0.4366  -0.3876  -0.1149  -0.0357
    -0.0025   0.0729   0.1888   0.3564   0.4012   0.4582   0.5349   0.5704
     0.6234   0.7343   0.8984   0.9999   1.0756   1.1918   1.2569   1.3728
     1.4093   1.5797   1.7003   1.8009   1.8226   1.9443   1.9676   2.0824
     2.1338   2.2824   2.3321   2.3614   2.4565   2.5770   2.6810   2.7336
     2.8473   3.0182   3.1303   3.2934   3.3120   3.4326   3.4623   3.5166
     3.5678   3.6709   3.7737   3.8802   3.9128   3.9683   4.2894   4.3797
    10.0334  10.5612  11.2492  11.5170  11.6320  11.8738  12.1611  12.2918
    12.3967  12.4462

     occupation numbers 
     1.0000   1.0000   1.0000   1.0000   1.0000   1.0000   1.0000   1.0000
     1.0000   1.0000   1.0000   1.0000   1.0000   1.0000   1.0000   1.0000
     1.0000   1.0000   1.0000   1.0000   1.0000   1.0000   1.0000   1.0000
     1.0000   1.0000   1.0000   1.0000   1.0000   1.0000   1.0000   1.0000
     1.0000   1.0000   1.0000   1.0000   1.0000   1.0000   1.0000   1.0000
     1.0000   1.0000   1.0000   1.0000   1.0000   1.0000   1.0000   1.0000
     1.0000   1.0000   1.0000   1.0000   1.0000   1.0000   1.0000   1.0000
     1.0000   1.0000   1.0000   1.0000   1.0000   1.0000   1.0000   1.0000
     1.0000   1.0000   1.0000   1.0000   1.0000   1.0000   1.0000   1.0000
     1.0000   1.0000   1.0000   1.0000   1.0000   1.0000   1.0000   1.0000
     1.0000   1.0000   1.0000   1.0000   1.0000   1.0000   1.0000   1.0000
     1.0000   1.0000   1.0000   1.0000   1.0000   1.0000   1.0000   1.0000
     1.0000   1.0000   1.0000   1.0000   1.0000   1.0000   1.0000   1.0000
     0.0000   0.0000   0.0000   0.0000   0.0000   0.0000   0.0000   0.0000
     0.0000   0.0000

          k = 0.0000 0.2470 0.0000 ( 37673 PWs)   bands (ev):

   -85.7984 -85.7852 -85.4814 -85.3192 -51.8412 -51.8217 -51.7744 -51.7591
   -51.7396 -51.7320 -51.6739 -51.5894 -51.4449 -51.3104 -51.2794 -51.0979
   -44.8779 -16.9688 -16.8739 -16.8330 -16.4138 -16.2457 -16.1451 -15.9379
   -14.0971 -13.9881 -13.9558 -13.8845 -13.8134 -13.7713 -13.7253 -13.6681
   -13.6169 -13.5499 -13.4978 -13.4521  -4.5057  -4.1607  -3.9091  -3.6976
    -2.4998  -2.4022  -2.1252  -1.9988  -1.8681  -1.6737  -1.5810  -1.4630
    -1.3592  -1.3048  -1.2001  -1.1650  -0.5232  -0.4712  -0.1221  -0.0691
     0.0271   0.0492   0.1437   0.2005   0.3522   0.3828   0.5754   0.6478
     0.8686   0.9441   1.0356   1.1260   1.1850   1.2696   1.4026   1.4742
     1.5770   1.6515   1.7426   1.8414   1.9724   2.0300   2.0831   2.2274
     2.2857   2.3114   2.3563   2.4447   2.5054   2.6356   2.7620   2.8698
     2.9138   2.9607   3.0489   3.1529   3.2634   3.2803   3.3541   3.4262
     3.5895   3.6547   3.7544   3.7772   3.8466   4.1318   4.3889   4.4816
     8.5817  10.4635  10.9091  11.1169  11.5800  12.3036  12.5404  12.6572
    12.7372  12.8832

     occupation numbers 
     1.0000   1.0000   1.0000   1.0000   1.0000   1.0000   1.0000   1.0000
     1.0000   1.0000   1.0000   1.0000   1.0000   1.0000   1.0000   1.0000
     1.0000   1.0000   1.0000   1.0000   1.0000   1.0000   1.0000   1.0000
     1.0000   1.0000   1.0000   1.0000   1.0000   1.0000   1.0000   1.0000
     1.0000   1.0000   1.0000   1.0000   1.0000   1.0000   1.0000   1.0000
     1.0000   1.0000   1.0000   1.0000   1.0000   1.0000   1.0000   1.0000
     1.0000   1.0000   1.0000   1.0000   1.0000   1.0000   1.0000   1.0000
     1.0000   1.0000   1.0000   1.0000   1.0000   1.0000   1.0000   1.0000
     1.0000   1.0000   1.0000   1.0000   1.0000   1.0000   1.0000   1.0000
     1.0000   1.0000   1.0000   1.0000   1.0000   1.0000   1.0000   1.0000
     1.0000   1.0000   1.0000   1.0000   1.0000   1.0000   1.0000   1.0000
     1.0000   1.0000   1.0000   1.0000   1.0000   1.0000   1.0000   1.0000
     1.0000   1.0000   1.0000   1.0000   1.0000   1.0000   1.0000   1.0000
     0.0000   0.0000   0.0000   0.0000   0.0000   0.0000   0.0000   0.0000
     0.0000   0.0000

          k = 0.0000 0.2470 0.2415 ( 37679 PWs)   bands (ev):

   -85.7984 -85.7852 -85.4814 -85.3192 -51.8412 -51.8217 -51.7744 -51.7591
   -51.7396 -51.7320 -51.6739 -51.5894 -51.4449 -51.3104 -51.2794 -51.0979
   -44.8779 -16.9674 -16.8750 -16.8354 -16.4044 -16.2364 -16.1407 -15.9276
   -14.1104 -14.0010 -13.9613 -13.8932 -13.8240 -13.7636 -13.7287 -13.6695
   -13.6304 -13.5444 -13.4937 -13.4563  -4.4807  -4.1521  -3.8993  -3.6866
    -2.4720  -2.3910  -2.1199  -1.9732  -1.8559  -1.6709  -1.5679  -1.4243
    -1.3622  -1.3056  -1.2381  -1.1525  -0.5374  -0.4591  -0.1475  -0.0507
     0.0280   0.0852   0.1356   0.2048   0.3245   0.3601   0.6019   0.6167
     0.8204   0.9327   1.0398   1.1291   1.1702   1.2568   1.4036   1.5289
     1.6209   1.6623   1.7234   1.8485   1.9313   2.0016   2.0899   2.1884
     2.2817   2.2862   2.3118   2.4363   2.4866   2.6315   2.7485   2.8578
     2.9171   2.9737   3.0522   3.1147   3.2198   3.2991   3.3800   3.4518
     3.5941   3.6457   3.7265   3.8190   3.8680   4.1330   4.3616   4.4862
     8.7159  10.5469  10.9537  11.1442  11.6084  12.2234  12.5588  12.5755
    12.7335  12.8299

     occupation numbers 
     1.0000   1.0000   1.0000   1.0000   1.0000   1.0000   1.0000   1.0000
     1.0000   1.0000   1.0000   1.0000   1.0000   1.0000   1.0000   1.0000
     1.0000   1.0000   1.0000   1.0000   1.0000   1.0000   1.0000   1.0000
     1.0000   1.0000   1.0000   1.0000   1.0000   1.0000   1.0000   1.0000
     1.0000   1.0000   1.0000   1.0000   1.0000   1.0000   1.0000   1.0000
     1.0000   1.0000   1.0000   1.0000   1.0000   1.0000   1.0000   1.0000
     1.0000   1.0000   1.0000   1.0000   1.0000   1.0000   1.0000   1.0000
     1.0000   1.0000   1.0000   1.0000   1.0000   1.0000   1.0000   1.0000
     1.0000   1.0000   1.0000   1.0000   1.0000   1.0000   1.0000   1.0000
     1.0000   1.0000   1.0000   1.0000   1.0000   1.0000   1.0000   1.0000
     1.0000   1.0000   1.0000   1.0000   1.0000   1.0000   1.0000   1.0000
     1.0000   1.0000   1.0000   1.0000   1.0000   1.0000   1.0000   1.0000
     1.0000   1.0000   1.0000   1.0000   1.0000   1.0000   1.0000   1.0000
     0.0000   0.0000   0.0000   0.0000   0.0000   0.0000   0.0000   0.0000
     0.0000   0.0000

          k = 0.0000 0.2470 0.4830 ( 37698 PWs)   bands (ev):

   -85.7984 -85.7852 -85.4814 -85.3192 -51.8412 -51.8217 -51.7744 -51.7592
   -51.7396 -51.7320 -51.6739 -51.5894 -51.4449 -51.3104 -51.2794 -51.0979
   -44.8779 -16.9682 -16.8771 -16.8404 -16.3757 -16.2095 -16.1196 -15.9165
   -14.1433 -14.0381 -13.9702 -13.9209 -13.8359 -13.7600 -13.7400 -13.6885
   -13.6419 -13.5362 -13.4896 -13.4546  -4.4115  -4.1300  -3.8784  -3.6720
    -2.4113  -2.3339  -2.0795  -1.9382  -1.8442  -1.6660  -1.5464  -1.4360
    -1.3605  -1.2787  -1.2422  -1.0932  -0.5387  -0.4396  -0.1656  -0.0451
     0.0274   0.0927   0.1353   0.2498   0.2706   0.3743   0.5867   0.6253
     0.7533   0.9198   0.9911   1.1145   1.1577   1.2432   1.3377   1.5241
     1.5843   1.6960   1.7441   1.8064   1.8533   1.9706   2.0607   2.1348
     2.2293   2.2970   2.3231   2.3860   2.4523   2.5857   2.7238   2.8079
     2.9064   2.9745   3.0566   3.1182   3.2053   3.3467   3.4255   3.4810
     3.5894   3.6210   3.7244   3.8557   3.9119   4.1101   4.3352   4.4751
     9.0792  10.7491  11.0281  11.2292  11.7485  12.1278  12.3186  12.4236
    12.5865  12.7013

     occupation numbers 
     1.0000   1.0000   1.0000   1.0000   1.0000   1.0000   1.0000   1.0000
     1.0000   1.0000   1.0000   1.0000   1.0000   1.0000   1.0000   1.0000
     1.0000   1.0000   1.0000   1.0000   1.0000   1.0000   1.0000   1.0000
     1.0000   1.0000   1.0000   1.0000   1.0000   1.0000   1.0000   1.0000
     1.0000   1.0000   1.0000   1.0000   1.0000   1.0000   1.0000   1.0000
     1.0000   1.0000   1.0000   1.0000   1.0000   1.0000   1.0000   1.0000
     1.0000   1.0000   1.0000   1.0000   1.0000   1.0000   1.0000   1.0000
     1.0000   1.0000   1.0000   1.0000   1.0000   1.0000   1.0000   1.0000
     1.0000   1.0000   1.0000   1.0000   1.0000   1.0000   1.0000   1.0000
     1.0000   1.0000   1.0000   1.0000   1.0000   1.0000   1.0000   1.0000
     1.0000   1.0000   1.0000   1.0000   1.0000   1.0000   1.0000   1.0000
     1.0000   1.0000   1.0000   1.0000   1.0000   1.0000   1.0000   1.0000
     1.0000   1.0000   1.0000   1.0000   1.0000   1.0000   1.0000   1.0000
     0.0000   0.0000   0.0000   0.0000   0.0000   0.0000   0.0000   0.0000
     0.0000   0.0000

          k = 0.0000 0.2470 0.7246 ( 37707 PWs)   bands (ev):

   -85.7984 -85.7852 -85.4814 -85.3192 -51.8412 -51.8217 -51.7744 -51.7592
   -51.7396 -51.7320 -51.6739 -51.5894 -51.4450 -51.3104 -51.2794 -51.0979
   -44.8779 -16.9718 -16.8787 -16.8440 -16.3417 -16.1750 -16.0902 -15.9121
   -14.1810 -14.0813 -13.9785 -13.9622 -13.8422 -13.7718 -13.7500 -13.7040
   -13.6456 -13.5295 -13.4892 -13.4478  -4.3222  -4.1040  -3.8591  -3.6772
    -2.3760  -2.2185  -2.0143  -1.9146  -1.8381  -1.6585  -1.5436  -1.5016
    -1.3826  -1.2374  -1.1415  -1.0052  -0.5214  -0.4268  -0.1594  -0.0550
     0.0317   0.0729   0.1561   0.2250   0.3658   0.4269   0.5743   0.5966
     0.7030   0.8633   0.9349   1.0879   1.1359   1.1757   1.2812   1.4203
     1.5309   1.6003   1.7076   1.7694   1.8908   1.9249   2.0304   2.0491
     2.1855   2.2722   2.3287   2.3761   2.4569   2.5385   2.6642   2.7965
     2.8740   2.9505   3.0435   3.1959   3.2656   3.3895   3.4668   3.4956
     3.5700   3.6295   3.7555   3.8815   3.9671   4.0647   4.3098   4.4520
     9.5837  10.9600  11.0316  11.3870  11.8308  12.0374  12.1327  12.2504
    12.4490  12.5446

     occupation numbers 
     1.0000   1.0000   1.0000   1.0000   1.0000   1.0000   1.0000   1.0000
     1.0000   1.0000   1.0000   1.0000   1.0000   1.0000   1.0000   1.0000
     1.0000   1.0000   1.0000   1.0000   1.0000   1.0000   1.0000   1.0000
     1.0000   1.0000   1.0000   1.0000   1.0000   1.0000   1.0000   1.0000
     1.0000   1.0000   1.0000   1.0000   1.0000   1.0000   1.0000   1.0000
     1.0000   1.0000   1.0000   1.0000   1.0000   1.0000   1.0000   1.0000
     1.0000   1.0000   1.0000   1.0000   1.0000   1.0000   1.0000   1.0000
     1.0000   1.0000   1.0000   1.0000   1.0000   1.0000   1.0000   1.0000
     1.0000   1.0000   1.0000   1.0000   1.0000   1.0000   1.0000   1.0000
     1.0000   1.0000   1.0000   1.0000   1.0000   1.0000   1.0000   1.0000
     1.0000   1.0000   1.0000   1.0000   1.0000   1.0000   1.0000   1.0000
     1.0000   1.0000   1.0000   1.0000   1.0000   1.0000   1.0000   1.0000
     1.0000   1.0000   1.0000   1.0000   1.0000   1.0000   1.0000   1.0000
     0.0000   0.0000   0.0000   0.0000   0.0000   0.0000   0.0000   0.0000
     0.0000   0.0000

          k = 0.0000 0.2470 0.9661 ( 37706 PWs)   bands (ev):

   -85.7984 -85.7852 -85.4814 -85.3192 -51.8412 -51.8217 -51.7744 -51.7592
   -51.7396 -51.7320 -51.6739 -51.5894 -51.4450 -51.3104 -51.2794 -51.0979
   -44.8778 -16.9761 -16.8791 -16.8454 -16.3190 -16.1490 -16.0624 -15.9205
   -14.2056 -14.1096 -13.9951 -13.9778 -13.8458 -13.7944 -13.7543 -13.7052
   -13.6466 -13.5244 -13.4924 -13.4395  -4.2546  -4.0855  -3.8421  -3.7054
    -2.3524  -2.1372  -1.9624  -1.8924  -1.8402  -1.6688  -1.5870  -1.5104
    -1.3984  -1.2076  -1.0390  -0.9382  -0.4909  -0.4202  -0.1344  -0.0694
    -0.0024   0.0378   0.2031   0.2905   0.4348   0.5134   0.5555   0.5684
     0.6518   0.7507   0.9161   1.0031   1.0738   1.1621   1.2410   1.3824
     1.4274   1.5751   1.6721   1.7480   1.7959   1.9371   1.9641   2.0717
     2.1634   2.2468   2.3331   2.3666   2.4748   2.5246   2.6207   2.8031
     2.8491   2.9349   3.0878   3.2324   3.3195   3.3828   3.4956   3.5182
     3.5722   3.6607   3.7758   3.8902   3.9679   4.0586   4.2974   4.4201
    10.1366  10.6598  11.2715  11.5661  11.6690  11.8835  12.1526  12.3156
    12.3840  12.4303

     occupation numbers 
     1.0000   1.0000   1.0000   1.0000   1.0000   1.0000   1.0000   1.0000
     1.0000   1.0000   1.0000   1.0000   1.0000   1.0000   1.0000   1.0000
     1.0000   1.0000   1.0000   1.0000   1.0000   1.0000   1.0000   1.0000
     1.0000   1.0000   1.0000   1.0000   1.0000   1.0000   1.0000   1.0000
     1.0000   1.0000   1.0000   1.0000   1.0000   1.0000   1.0000   1.0000
     1.0000   1.0000   1.0000   1.0000   1.0000   1.0000   1.0000   1.0000
     1.0000   1.0000   1.0000   1.0000   1.0000   1.0000   1.0000   1.0000
     1.0000   1.0000   1.0000   1.0000   1.0000   1.0000   1.0000   1.0000
     1.0000   1.0000   1.0000   1.0000   1.0000   1.0000   1.0000   1.0000
     1.0000   1.0000   1.0000   1.0000   1.0000   1.0000   1.0000   1.0000
     1.0000   1.0000   1.0000   1.0000   1.0000   1.0000   1.0000   1.0000
     1.0000   1.0000   1.0000   1.0000   1.0000   1.0000   1.0000   1.0000
     1.0000   1.0000   1.0000   1.0000   1.0000   1.0000   1.0000   1.0000
[...]
     atom    9 type  4   force =    -0.04530306   -0.00091424    0.00290286
     atom   10 type  3   force =     0.00377704    0.00302016    0.00540650
     atom   11 type  3   force =    -0.00241224    0.00226824   -0.00101491
     atom   12 type  3   force =    -0.00230691   -0.00277372   -0.00606699
     atom   13 type  3   force =     0.00357632   -0.00206495    0.00053530
     atom   14 type  3   force =     0.05800299    0.00055483   -0.00945112
     atom   15 type  3   force =    -0.05186483    0.01158744   -0.00655646
     atom   16 type  3   force =    -0.05477775   -0.00021383    0.01133502
     atom   17 type  3   force =     0.05001261   -0.01274661    0.00724031
     atom   18 type  3   force =    -0.01171666   -0.00673491    0.00470594
     atom   19 type  3   force =     0.00721082    0.00216658    0.00293143
     atom   20 type  3   force =    -0.00236204    0.00231148   -0.00342489
     atom   21 type  3   force =    -0.00374788    0.00229801   -0.00211033
     atom   22 type  3   force =     0.00898966    0.00732980   -0.00568658
     atom   23 type  3   force =    -0.00577832   -0.00168195   -0.00241921
     atom   24 type  3   force =     0.00252573   -0.00176084    0.00438017
     atom   25 type  3   force =     0.00253069   -0.00237097    0.00102539
     The non-local contrib.  to forces
     atom    1 type  2   force =     0.05811703    0.03757786    0.00730519
     atom    2 type  1   force =     0.07228546   -0.14529821   -0.00764194
     atom    3 type  1   force =    -0.04319722   -0.19385807    0.12571380
     atom    4 type  1   force =    -0.03055700    0.15314047   -0.01605948
     atom    5 type  1   force =     0.01833371    0.22002403   -0.12822824
     atom    6 type  4   force =    -0.07078937    0.05320571   -0.02988850
     atom    7 type  4   force =     0.03821836    0.00880907   -0.07600407
     atom    8 type  4   force =     0.08574060   -0.05999801    0.01589398
     atom    9 type  4   force =    -0.03545959   -0.00743603    0.07372195
     atom   10 type  3   force =     0.01735089   -0.08178598   -1.46307844
     atom   11 type  3   force =    -0.10080963    0.13548169   -1.48367572
     atom   12 type  3   force =     0.06095768    0.08968561    1.40337096
     atom   13 type  3   force =     0.10777080   -0.12965898    1.47324392
     atom   14 type  3   force =     1.34615348    0.00486901   -0.55704644
     atom   15 type  3   force =    -1.18667309    0.50520970   -0.33616903
     atom   16 type  3   force =    -1.31464074    0.00421345    0.60061981
     atom   17 type  3   force =     1.20056170   -0.50165391    0.43395017
     atom   18 type  3   force =    -0.72295723   -1.20489677    0.42557821
     atom   19 type  3   force =     0.51289551    0.84508488    0.91220486
     atom   20 type  3   force =     0.10231713   -1.26631069   -1.04647428
     atom   21 type  3   force =    -0.46036607    0.99317747   -0.70710663
     atom   22 type  3   force =     0.63409155    1.29292994   -0.54442560
     atom   23 type  3   force =    -0.46736797   -0.86268213   -0.91567180
     atom   24 type  3   force =    -0.03169397    1.23936201    1.06769080
     atom   25 type  3   force =     0.38511537   -1.01856323    0.66238191
     The ionic contribution  to forces
     atom    1 type  2   force =     0.90944205   -0.48484205   -1.72873061
     atom    2 type  1   force =    12.18761362   -2.04001123   -0.98228018
     atom    3 type  1   force =     4.76965497   -3.05548093   -1.34331848
     atom    4 type  1   force =   -12.83285390    3.16081867    0.26567040
     atom    5 type  1   force =    -2.90636253    3.15430666    2.16397609
     atom    6 type  4   force =    -1.74906476    0.23607027   -0.06505968
     atom    7 type  4   force =     5.40269678    0.09427638    0.72026816
     atom    8 type  4   force =     0.91631315    0.10179440    0.27411275
     atom    9 type  4   force =    -5.06149455   -0.38350544   -0.52406345
     atom   10 type  3   force =    -5.46716698    0.30966815    2.29419743
     atom   11 type  3   force =    10.00888615   -1.05065507    2.58491439
     atom   12 type  3   force =     2.93078645    1.07026735   -0.98601922
     atom   13 type  3   force =    -9.64903961    0.60259714   -2.53673707
     atom   14 type  3   force =     1.97093521   -0.39643010    6.19041544
     atom   15 type  3   force =    -0.52449885   -1.97060833    2.88918787
     atom   16 type  3   force =    -1.98170373    0.42715590   -6.37535619
     atom   17 type  3   force =     0.30121905    0.68417341   -3.61953428
     atom   18 type  3   force =     1.33009155    4.52272637    2.93205062
     atom   19 type  3   force =     6.28408615   -1.67758407   -4.08117759
     atom   20 type  3   force =     3.23368281    2.12589717    7.82047964
     atom   21 type  3   force =    -6.44690132   -2.47844338    1.87720116
     atom   22 type  3   force =    -0.83903186   -6.09885356   -2.40595804
     atom   23 type  3   force =    -6.51149062    1.24836633    4.13598077
     atom   24 type  3   force =    -3.78179044   -0.86484692   -8.13190744
     atom   25 type  3   force =     7.50599123    2.76314288   -1.36831248
     The local contribution  to forces
     atom    1 type  2   force =    -0.96832150    0.44696302    1.72100302
     atom    2 type  1   force =   -12.25672978    2.18392875    0.99447851
     atom    3 type  1   force =    -4.73222648    3.24746127    1.21663673
     atom    4 type  1   force =    12.85863875   -3.31304442   -0.25448626
     atom    5 type  1   force =     2.89485464   -3.37292610   -2.03488390
     atom    6 type  4   force =     1.78153870   -0.26982008    0.08910815
     atom    7 type  4   force =    -5.39259210   -0.10230741   -0.65362577
     atom    8 type  4   force =    -0.96132978   -0.06086047   -0.28451743
     atom    9 type  4   force =     5.04726859    0.38914514    0.45888503
     atom   10 type  3   force =     5.45442864   -0.22554053   -0.83851477
     atom   11 type  3   force =    -9.91212222    0.91878450   -1.11517196
     atom   12 type  3   force =    -2.99421800   -1.16191829   -0.41122300
     atom   13 type  3   force =     9.54653633   -0.47626881    1.07689238
     atom   14 type  3   force =    -3.24661799    0.39214490   -5.64850561
     atom   15 type  3   force =     1.64842272    1.48207458   -2.56319293
     atom   16 type  3   force =     3.22941562   -0.43153744    5.79214981
     atom   17 type  3   force =    -1.44075047   -0.20028356    3.19738066
     atom   18 type  3   force =    -0.62521511   -3.33579233   -3.34944575
     atom   19 type  3   force =    -6.78514120    0.84181258    3.18034296
     atom   20 type  3   force =    -3.33769793   -0.86806181   -6.78725276
     atom   21 type  3   force =     6.89939055    1.49619888   -1.17869494
     atom   22 type  3   force =     0.21940578    4.82525270    2.94006083
     atom   23 type  3   force =     6.96888133   -0.39470616   -3.23121760
     atom   24 type  3   force =     3.81600289   -0.36567291    7.07863328
     atom   25 type  3   force =    -7.88515390   -1.75581608    0.71300174
     The core correction contribution to forces
     atom    1 type  2   force =     0.00000000    0.00000000    0.00000000
     atom    2 type  1   force =    -0.00163653    0.00184895    0.00064842
     atom    3 type  1   force =     0.00161056    0.00213423   -0.00080087
     atom    4 type  1   force =     0.00111919   -0.00182340   -0.00030450
     atom    5 type  1   force =    -0.00136953   -0.00218325    0.00070589
     atom    6 type  4   force =     0.00718277   -0.00395119    0.00244051
     atom    7 type  4   force =    -0.00458516   -0.00072826    0.00561385
     atom    8 type  4   force =    -0.00809140    0.00449728   -0.00147574
     atom    9 type  4   force =     0.00437896    0.00088209   -0.00564068
     atom   10 type  3   force =    -0.00083104    0.00067883    0.01280352
     atom   11 type  3   force =     0.00163283   -0.00134302    0.01291802
     atom   12 type  3   force =     0.00017013   -0.00080857   -0.01219441
     atom   13 type  3   force =    -0.00169519    0.00126572   -0.01286299
     atom   14 type  3   force =    -0.01247195   -0.00002904    0.00568476
     atom   15 type  3   force =     0.01088737   -0.00508882    0.00361795
     atom   16 type  3   force =     0.01214514   -0.00004572   -0.00607920
     atom   17 type  3   force =    -0.01101429    0.00501758   -0.00455637
     atom   18 type  3   force =     0.00636775    0.01122675   -0.00347829
     atom   19 type  3   force =    -0.00462976   -0.00714911   -0.00843753
     atom   20 type  3   force =    -0.00066183    0.01078673    0.00982287
     atom   21 type  3   force =     0.00412534   -0.00863267    0.00649046
     atom   22 type  3   force =    -0.00547355   -0.01200047    0.00463506
     atom   23 type  3   force =     0.00419535    0.00733741    0.00848978
     atom   24 type  3   force =     0.00001024   -0.01060257   -0.01003666
     atom   25 type  3   force =    -0.00342227    0.00886733   -0.00604474
     The Hubbard contrib.    to forces
     atom    1 type  2   force =     0.00000000    0.00000000    0.00000000
     atom    2 type  1   force =     0.00000000    0.00000000    0.00000000
     atom    3 type  1   force =     0.00000000    0.00000000    0.00000000
     atom    4 type  1   force =     0.00000000    0.00000000    0.00000000
     atom    5 type  1   force =     0.00000000    0.00000000    0.00000000
     atom    6 type  4   force =     0.00000000    0.00000000    0.00000000
     atom    7 type  4   force =     0.00000000    0.00000000    0.00000000
     atom    8 type  4   force =     0.00000000    0.00000000    0.00000000
     atom    9 type  4   force =     0.00000000    0.00000000    0.00000000
     atom   10 type  3   force =     0.00000000    0.00000000    0.00000000
     atom   11 type  3   force =     0.00000000    0.00000000    0.00000000
     atom   12 type  3   force =     0.00000000    0.00000000    0.00000000
     atom   13 type  3   force =     0.00000000    0.00000000    0.00000000
     atom   14 type  3   force =     0.00000000    0.00000000    0.00000000
     atom   15 type  3   force =     0.00000000    0.00000000    0.00000000
     atom   16 type  3   force =     0.00000000    0.00000000    0.00000000
     atom   17 type  3   force =     0.00000000    0.00000000    0.00000000
     atom   18 type  3   force =     0.00000000    0.00000000    0.00000000
     atom   19 type  3   force =     0.00000000    0.00000000    0.00000000
     atom   20 type  3   force =     0.00000000    0.00000000    0.00000000
     atom   21 type  3   force =     0.00000000    0.00000000    0.00000000
     atom   22 type  3   force =     0.00000000    0.00000000    0.00000000
     atom   23 type  3   force =     0.00000000    0.00000000    0.00000000
     atom   24 type  3   force =     0.00000000    0.00000000    0.00000000
     atom   25 type  3   force =     0.00000000    0.00000000    0.00000000
     The SCF correction term to forces
     atom    1 type  2   force =    -0.00000455    0.00000045   -0.00000001
     atom    2 type  1   force =    -0.00000287    0.00000042   -0.00000035
     atom    3 type  1   force =    -0.00000498    0.00000037   -0.00000076
     atom    4 type  1   force =     0.00000557    0.00000061    0.00000051
     atom    5 type  1   force =     0.00000134   -0.00000123   -0.00000035
     atom    6 type  4   force =    -0.00000284   -0.00000019    0.00000019
     atom    7 type  4   force =     0.00000107    0.00000011    0.00000010
     atom    8 type  4   force =    -0.00000208    0.00000031    0.00000026
     atom    9 type  4   force =     0.00000353   -0.00000009    0.00000024
     atom   10 type  3   force =    -0.00000445   -0.00000039   -0.00000101
     atom   11 type  3   force =     0.00000063    0.00000006    0.00000058
     atom   12 type  3   force =    -0.00000316    0.00000011   -0.00000109
     atom   13 type  3   force =     0.00000400   -0.00000010   -0.00000071
     atom   14 type  3   force =     0.00000424   -0.00000001    0.00000096
     atom   15 type  3   force =    -0.00000298    0.00000023   -0.00000009
     atom   16 type  3   force =     0.00000597   -0.00000010    0.00000103
     atom   17 type  3   force =    -0.00000337   -0.00000021    0.00000036
     atom   18 type  3   force =    -0.00000360    0.00000098    0.00000138
     atom   19 type  3   force =     0.00000013    0.00000223   -0.00000104
     atom   20 type  3   force =    -0.00000221    0.00000001   -0.00000013
     atom   21 type  3   force =     0.00000364   -0.00000237   -0.00000015
     atom   22 type  3   force =    -0.00000224    0.00000111    0.00000140
     atom   23 type  3   force =     0.00000359    0.00000252   -0.00000013
     atom   24 type  3   force =    -0.00000298   -0.00000053    0.00000041
     atom   25 type  3   force =     0.00000026   -0.00000195   -0.00000081

     Total force =     0.139619     Total SCF correction =     0.000018


     Computing stress (Cartesian axis) and pressure


     negative rho (up, down):  0.000E+00 9.623E-04
          total   stress  (Ry/bohr**3)                   (kbar)     P=      -48.55
  -0.00092295   0.00009421  -0.00000737         -135.77       13.86       -1.08
   0.00009421  -0.00002212  -0.00009963           13.86       -3.25      -14.66
  -0.00000737  -0.00009963  -0.00004507           -1.08      -14.66       -6.63

     kinetic stress (kbar)  25463.07     44.88    -47.33
                               44.88  25739.93    -24.07
                              -47.33    -24.07  25608.83

     local   stress (kbar)  -6109.95   3631.40  -4579.90
                             3631.40 -14697.04   1868.15
                            -4579.90   1868.15  -6486.18

     nonloc. stress (kbar)  -6519.47      9.92      3.09
                                9.92  -6475.70      7.33
                                3.09      7.33  -6475.83

     hartree stress (kbar)  12955.43  -1425.88   1889.76
                            -1425.88  17554.19   -738.32
                             1889.76   -738.32  13660.23

     exc-cor stress (kbar)  -2702.62     -2.71      2.31
                               -2.71  -2707.85     -1.10
                                2.31     -1.10  -2706.60

     corecor stress (kbar)  -3011.94      0.47     -0.91
                                0.47  -3014.53      0.11
                               -0.91      0.11  -3014.90

     ewald   stress (kbar) -20210.29  -2244.21   2731.90
                            -2244.21 -16402.24  -1126.75
                             2731.90  -1126.75 -20592.18

     hubbard stress (kbar)      0.00      0.00      0.00
                                0.00      0.00      0.00
                                0.00      0.00      0.00

     DFT-D   stress (kbar)      0.00      0.00      0.00
                                0.00      0.00      0.00
                                0.00      0.00      0.00

     XDM     stress (kbar)      0.00      0.00      0.00
                                0.00      0.00      0.00
                                0.00      0.00      0.00

     dft-nl  stress (kbar)      0.00      0.00      0.00
                                0.00      0.00      0.00
                                0.00      0.00      0.00

     TS-vdW  stress (kbar)      0.00      0.00      0.00
                                0.00      0.00      0.00
                                0.00      0.00      0.00



     init_run     :    310.50s CPU    324.83s WALL (       1 calls)
     electrons    :  30229.45s CPU  31262.36s WALL (       1 calls)
     forces       :    190.70s CPU    192.13s WALL (       1 calls)
     stress       :    849.82s CPU    856.11s WALL (       1 calls)

     Called by init_run:
     wfcinit      :    295.39s CPU    308.56s WALL (       1 calls)
     wfcinit:atom :      4.23s CPU      4.28s WALL (     316 calls)
     wfcinit:wfcr :    278.15s CPU    291.07s WALL (     316 calls)
     potinit      :      5.72s CPU      5.91s WALL (       1 calls)
     hinit0       :      6.19s CPU      6.54s WALL (       1 calls)

     Called by electrons:
     c_bands      :  26838.04s CPU  27654.66s WALL (      38 calls)
     sum_band     :   3219.97s CPU   3408.80s WALL (      38 calls)
     v_of_rho     :     46.34s CPU     47.83s WALL (      39 calls)
     v_h          :      2.16s CPU      2.26s WALL (      39 calls)
     v_xc         :     46.41s CPU     47.87s WALL (      41 calls)
     newd         :     81.35s CPU    107.28s WALL (      39 calls)
     PAW_pot      :     31.98s CPU     32.10s WALL (      39 calls)
     mix_rho      :     11.18s CPU     11.53s WALL (      38 calls)

     Called by c_bands:
     init_us_2    :    332.72s CPU    337.73s WALL (   24964 calls)
     cegterg      :  26175.65s CPU  26984.59s WALL (   12008 calls)

     Called by sum_band:
     sum_band:wei :      0.60s CPU      0.60s WALL (      38 calls)
     sum_band:loo :   2942.08s CPU   3101.56s WALL (      38 calls)
     sum_band:buf :     92.28s CPU     93.33s WALL (   12008 calls)
     sum_band:ini :    161.02s CPU    163.11s WALL (   12008 calls)
     sum_band:cal :   1461.37s CPU   1468.00s WALL (   12008 calls)
     sum_band:bec :      5.16s CPU      5.25s WALL (   12008 calls)
     addusdens    :    269.28s CPU    298.39s WALL (      38 calls)
     addusd:skk   :      0.95s CPU      0.98s WALL (     114 calls)
     addusd:dgemm :     84.27s CPU    107.35s WALL (     228 calls)
     addusd:qvan2 :    181.85s CPU    183.31s WALL (     228 calls)

     Called by *egterg:
     cdiaghg      :    901.09s CPU    917.44s WALL (   43677 calls)
     cegterg:over :   2640.03s CPU   2662.38s WALL (   31669 calls)
     cegterg:upda :   1639.81s CPU   1645.68s WALL (   31669 calls)
     cegterg:last :   3923.74s CPU   3937.46s WALL (   22326 calls)
     h_psi        :  12294.67s CPU  13034.04s WALL (   43993 calls)
     s_psi        :   3395.61s CPU   3407.44s WALL (   43993 calls)
     g_psi        :     43.12s CPU     43.57s WALL (   31669 calls)

     Called by h_psi:
     h_psi:calbec :   3513.02s CPU   3532.43s WALL (   43993 calls)
     vloc_psi     :   5103.28s CPU   5807.89s WALL (   43993 calls)
     add_vuspsi   :   3470.66s CPU   3482.60s WALL (   43993 calls)

     General routines
     calbec       :   5186.21s CPU   5213.11s WALL (   57581 calls)
     fft          :     40.19s CPU     42.40s WALL (    1013 calls)
     ffts         :      0.48s CPU      0.55s WALL (     154 calls)
     fftw         :   5893.14s CPU   6694.85s WALL ( 7442352 calls)
     interpolate  :      3.32s CPU      3.52s WALL (      78 calls)

     Parallel routines
     fft_scatt_xy :    521.39s CPU    614.34s WALL ( 7443519 calls)
     fft_scatt_yz :   1713.84s CPU   2029.22s WALL ( 7443519 calls)

     PAW routines
     PAW_pot      :     31.98s CPU     32.10s WALL (      39 calls)

     PWSCF        :      8h46m CPU      9h 3m WALL


   This run was terminated on:  23:43:47  24Dec2022            

=------------------------------------------------------------------------------=
   JOB DONE.
=------------------------------------------------------------------------------=
Note: The following floating-point exceptions are signalling: IEEE_UNDERFLOW_FLAG IEEE_DENORMAL
Note: The following floating-point exceptions are signalling: IEEE_DENORMAL
Note: The following floating-point exceptions are signalling: IEEE_DENORMAL
Note: The following floating-point exceptions are signalling: IEEE_DENORMAL
Note: The following floating-point exceptions are signalling: IEEE_DENORMAL
Note: The following floating-point exceptions are signalling: IEEE_DENORMAL
Note: The following floating-point exceptions are signalling: IEEE_DENORMAL
Note: The following floating-point exceptions are signalling: IEEE_DENORMAL
Note: The following floating-point exceptions are signalling: IEEE_DENORMAL
Note: The following floating-point exceptions are signalling: IEEE_DENORMAL
