
     Program PWSCF v.6.7MaX starts on 24Dec2022 at  8:15:24 

     This program is part of the open-source Quantum ESPRESSO suite
     for quantum simulation of materials; please cite
         "P. Giannozzi et al., J. Phys.:Condens. Matter 21 395502 (2009);
         "P. Giannozzi et al., J. Phys.:Condens. Matter 29 465901 (2017);
          URL http://www.quantum-espresso.org", 
     in publications or presentations arising from this work. More details at
     http://www.quantum-espresso.org/quote

     Parallel version (MPI), running on    12 processors

     MPI processes distributed on     1 nodes
     R & G space division:  proc/nbgrp/npool/nimage =      12
     Reading input from scale_1da-00.in

     Current dimensions of program PWSCF are:
     Max number of different atomic species (ntypx) = 10
     Max number of k-points (npk) =  40000
     Max angular momentum in pseudopotentials (lmaxx) =  3
     Message from routine read_pp_mesh:
     mesh size missing, using the one in header
     file Fe.pbe-spn-kjpaw_psl.0.2.1.UPF: wavefunction(s)  3D renormalized
     file O.pbe-n-kjpaw_psl.0.1.UPF: wavefunction(s)  2P renormalized

     Subspace diagonalization in iterative solution of the eigenvalue problem:
     a serial algorithm will be used


     Parallelization info
     --------------------
     sticks:   dense  smooth     PW     G-vecs:    dense   smooth      PW
     Min        1572     583    157               102512    23116    3251
     Max        1573     584    159               102513    23117    3252
     Sum       18873    6997   1891              1230153   277403   39017



     bravais-lattice index     =            0
     lattice parameter (alat)  =      18.6818  a.u.
     unit-cell volume          =    2052.3399 (a.u.)^3
     number of atoms/cell      =           25
     number of atomic types    =            4
     number of electrons       =       189.00
     number of Kohn-Sham states=          114
     kinetic-energy cutoff     =     100.0000  Ry
     charge density cutoff     =    1080.0000  Ry
     scf convergence threshold =      2.0E-10
     mixing beta               =       0.4000
     number of iterations used =            8  plain     mixing
     Exchange-correlation= PBE
                           (   1   4   3   4   0   0   0)

     celldm(1)=  18.681804  celldm(2)=   0.000000  celldm(3)=   0.000000
     celldm(4)=   0.000000  celldm(5)=   0.000000  celldm(6)=   0.000000

     crystal axes: (cart. coord. in units of alat)
               a(1) = (   1.000000   0.000000   0.000000 )  
               a(2) = (   0.000000   0.629042   0.000000 )  
               a(3) = (   0.000000   0.000000   0.500395 )  

     reciprocal axes: (cart. coord. in units 2 pi/alat)
               b(1) = (  1.000000  0.000000  0.000000 )  
               b(2) = (  0.000000  1.589719  0.000000 )  
               b(3) = (  0.000000  0.000000  1.998420 )  


     PseudoPot. # 1 for Fe read from file:
     /opt/QEpot/SSSP_precision_pseudos/Fe.pbe-spn-kjpaw_psl.0.2.1.UPF
     MD5 check sum: e86618425769142926afa95317d90200
     Pseudo is Projector augmented-wave + core cor, Zval = 16.0
     Generated using "atomic" code by A. Dal Corso  v.5.0.99 svn rev. 10869
     Shape of augmentation charge: PSQ
     Using radial grid of 1191 points,  6 beta functions with: 
                l(1) =   0
                l(2) =   0
                l(3) =   1
                l(4) =   1
                l(5) =   2
                l(6) =   2
     Q(r) pseudized with 0 coefficients 


     PseudoPot. # 2 for Na read from file:
     /opt/QEpot/SSSP_precision_pseudos/Na_ONCV_PBE-1.0.oncvpsp.upf
     MD5 check sum: 24a298df0a6742ae313db96548fdb2a4
     Pseudo is Norm-conserving, Zval =  9.0
     Generated using ONCVPSP code by D. R. Hamann
     Using radial grid of 1992 points,  4 beta functions with: 
                l(1) =   0
                l(2) =   0
                l(3) =   1
                l(4) =   1

     PseudoPot. # 3 for O  read from file:
     /opt/QEpot/SSSP_precision_pseudos/O.pbe-n-kjpaw_psl.0.1.UPF
     MD5 check sum: 0234752ac141de4415c5fc33072bef88
     Pseudo is Projector augmented-wave + core cor, Zval =  6.0
     Generated using "atomic" code by A. Dal Corso  v.5.0.99 svn rev. 10869
     Shape of augmentation charge: BESSEL
     Using radial grid of 1095 points,  4 beta functions with: 
                l(1) =   0
                l(2) =   0
                l(3) =   1
                l(4) =   1
     Q(r) pseudized with 0 coefficients 


     PseudoPot. # 4 for P  read from file:
     /opt/QEpot/SSSP_precision_pseudos/P.pbe-n-rrkjus_psl.1.0.0.UPF
     MD5 check sum: 8b930f418f0a4573dca56cd030ffe088
     Pseudo is Ultrasoft + core correction, Zval =  5.0
     Generated using "atomic" code by A. Dal Corso  v.5.1
     Using radial grid of 1147 points,  6 beta functions with: 
                l(1) =   0
                l(2) =   0
                l(3) =   1
                l(4) =   1
                l(5) =   2
                l(6) =   2
     Q(r) pseudized with 0 coefficients 


     atomic species   valence    mass     pseudopotential
        Fe            16.00    55.84500     Fe( 1.00)
        Na             9.00    22.98977     Na( 1.00)
        O              6.00    15.99940     O ( 1.00)
        P              5.00    30.97376     P ( 1.00)

     Starting magnetic structure 
     atomic species   magnetization
        Fe           0.312
        Na           0.000
        O            0.000
        P            0.000

     No symmetry found


                                    s                        frac. trans.

      isym =  1     identity                                     

 cryst.   s( 1) = (     1          0          0      )
                  (     0          1          0      )
                  (     0          0          1      )

 cart.    s( 1) = (  1.0000000  0.0000000  0.0000000 )
                  (  0.0000000  1.0000000  0.0000000 )
                  (  0.0000000  0.0000000  1.0000000 )


   Cartesian axes

     site n.     atom                  positions (alat units)
         1           Na  tau(   1) = (   0.0115800   0.0480764   0.0438907  )
         2           Fe  tau(   2) = (   0.2913450   0.4805850   0.4667527  )
         3           Fe  tau(   3) = (   0.2201160   0.1790788   0.2616627  )
         4           Fe  tau(   4) = (   0.7060870   0.1453710   0.0483107  )
         5           Fe  tau(   5) = (   0.7822730   0.4559517   0.2610972  )
         6           P   tau(   6) = (   0.0983660   0.4486586   0.1991223  )
         7           P   tau(   7) = (   0.3920650   0.1579864   0.4799431  )
         8           P   tau(   8) = (   0.8987800   0.1726368   0.3159120  )
         9           P   tau(   9) = (   0.6075130   0.4679576   0.0405470  )
        10           O   tau(  10) = (   0.1414110   0.4595901   0.3481705  )
        11           O   tau(  11) = (   0.3553680   0.1555042   0.1298050  )
        12           O   tau(  12) = (   0.8583390   0.1581349   0.1664845  )
        13           O   tau(  13) = (   0.6447440   0.4723319   0.3906135  )
        14           O   tau(  14) = (   0.4604880   0.4690697   0.0567443  )
        15           O   tau(  15) = (   0.0440330   0.1348433   0.3329005  )
        16           O   tau(  16) = (   0.5386000   0.1558653   0.4609681  )
        17           O   tau(  17) = (   0.9551650   0.4919140   0.1810780  )
        18           O   tau(  18) = (   0.1816090   0.5505124   0.1131404  )
        19           O   tau(  19) = (   0.3245340   0.0397366   0.3983627  )
        20           O   tau(  20) = (   0.8658190   0.3149085   0.3711437  )
        21           O   tau(  21) = (   0.6737520   0.3448075   0.1171370  )
        22           O   tau(  22) = (   0.8208630   0.0694676   0.4050419  )
        23           O   tau(  23) = (   0.6725030   0.5878574   0.1224948  )
        24           O   tau(  24) = (   0.1268440   0.3055723   0.1409208  )
        25           O   tau(  25) = (   0.3278730   0.2821235   0.4029088  )

   Crystallographic axes

     site n.     atom                  positions (cryst. coord.)
         1           Na  tau(   1) = (  0.0115800  0.0764280  0.0877120  )
         2           Fe  tau(   2) = (  0.2913450  0.7639950  0.9327680  )
         3           Fe  tau(   3) = (  0.2201160  0.2846850  0.5229120  )
         4           Fe  tau(   4) = (  0.7060870  0.2310990  0.0965450  )
         5           Fe  tau(   5) = (  0.7822730  0.7248350  0.5217820  )
         6           P   tau(   6) = (  0.0983660  0.7132410  0.3979300  )
         7           P   tau(   7) = (  0.3920650  0.2511540  0.9591280  )
         8           P   tau(   8) = (  0.8987800  0.2744440  0.6313250  )
         9           P   tau(   9) = (  0.6075130  0.7439210  0.0810300  )
        10           O   tau(  10) = (  0.1414110  0.7306190  0.6957910  )
        11           O   tau(  11) = (  0.3553680  0.2472080  0.2594050  )
        12           O   tau(  12) = (  0.8583390  0.2513900  0.3327060  )
        13           O   tau(  13) = (  0.6447440  0.7508750  0.7806100  )
        14           O   tau(  14) = (  0.4604880  0.7456890  0.1133990  )
        15           O   tau(  15) = (  0.0440330  0.2143630  0.6652750  )
        16           O   tau(  16) = (  0.5386000  0.2477820  0.9212080  )
        17           O   tau(  17) = (  0.9551650  0.7820050  0.3618700  )
        18           O   tau(  18) = (  0.1816090  0.8751600  0.2261020  )
        19           O   tau(  19) = (  0.3245340  0.0631700  0.7960960  )
        20           O   tau(  20) = (  0.8658190  0.5006160  0.7417010  )
        21           O   tau(  21) = (  0.6737520  0.5481470  0.2340890  )
        22           O   tau(  22) = (  0.8208630  0.1104340  0.8094440  )
        23           O   tau(  23) = (  0.6725030  0.9345280  0.2447960  )
        24           O   tau(  24) = (  0.1268440  0.4857740  0.2816190  )
        25           O   tau(  25) = (  0.3278730  0.4484970  0.8051810  )

     number of k points=   158  Marzari-Vanderbilt smearing, width (Ry)=  0.0073
                       cart. coord. in units 2pi/alat
        k(    1) = (   0.0000000   0.0000000   0.0000000), wk =   0.0031746
        k(    2) = (   0.0000000   0.0000000   0.2220467), wk =   0.0063492
        k(    3) = (   0.0000000   0.0000000   0.4440934), wk =   0.0063492
        k(    4) = (   0.0000000   0.0000000   0.6661401), wk =   0.0063492
        k(    5) = (   0.0000000   0.0000000   0.8881868), wk =   0.0063492
        k(    6) = (   0.0000000   0.2271027   0.0000000), wk =   0.0063492
        k(    7) = (   0.0000000   0.2271027   0.2220467), wk =   0.0063492
        k(    8) = (   0.0000000   0.2271027   0.4440934), wk =   0.0063492
        k(    9) = (   0.0000000   0.2271027   0.6661401), wk =   0.0063492
        k(   10) = (   0.0000000   0.2271027   0.8881868), wk =   0.0063492
        k(   11) = (   0.0000000   0.4542054   0.0000000), wk =   0.0063492
        k(   12) = (   0.0000000   0.4542054   0.2220467), wk =   0.0063492
        k(   13) = (   0.0000000   0.4542054   0.4440934), wk =   0.0063492
        k(   14) = (   0.0000000   0.4542054   0.6661401), wk =   0.0063492
        k(   15) = (   0.0000000   0.4542054   0.8881868), wk =   0.0063492
        k(   16) = (   0.0000000   0.6813081   0.0000000), wk =   0.0063492
        k(   17) = (   0.0000000   0.6813081   0.2220467), wk =   0.0063492
        k(   18) = (   0.0000000   0.6813081   0.4440934), wk =   0.0063492
        k(   19) = (   0.0000000   0.6813081   0.6661401), wk =   0.0063492
        k(   20) = (   0.0000000   0.6813081   0.8881868), wk =   0.0063492
        k(   21) = (   0.2000000   0.0000000   0.0000000), wk =   0.0063492
        k(   22) = (   0.2000000   0.0000000   0.2220467), wk =   0.0063492
        k(   23) = (   0.2000000   0.0000000   0.4440934), wk =   0.0063492
        k(   24) = (   0.2000000   0.0000000   0.6661401), wk =   0.0063492
        k(   25) = (   0.2000000   0.0000000   0.8881868), wk =   0.0063492
        k(   26) = (   0.2000000   0.2271027   0.0000000), wk =   0.0063492
        k(   27) = (   0.2000000   0.2271027   0.2220467), wk =   0.0063492
        k(   28) = (   0.2000000   0.2271027   0.4440934), wk =   0.0063492
        k(   29) = (   0.2000000   0.2271027   0.6661401), wk =   0.0063492
        k(   30) = (   0.2000000   0.2271027   0.8881868), wk =   0.0063492
        k(   31) = (   0.2000000   0.4542054   0.0000000), wk =   0.0063492
        k(   32) = (   0.2000000   0.4542054   0.2220467), wk =   0.0063492
        k(   33) = (   0.2000000   0.4542054   0.4440934), wk =   0.0063492
        k(   34) = (   0.2000000   0.4542054   0.6661401), wk =   0.0063492
        k(   35) = (   0.2000000   0.4542054   0.8881868), wk =   0.0063492
        k(   36) = (   0.2000000   0.6813081   0.0000000), wk =   0.0063492
        k(   37) = (   0.2000000   0.6813081   0.2220467), wk =   0.0063492
        k(   38) = (   0.2000000   0.6813081   0.4440934), wk =   0.0063492
        k(   39) = (   0.2000000   0.6813081   0.6661401), wk =   0.0063492
        k(   40) = (   0.2000000   0.6813081   0.8881868), wk =   0.0063492
        k(   41) = (   0.4000000   0.0000000   0.0000000), wk =   0.0063492
        k(   42) = (   0.4000000   0.0000000   0.2220467), wk =   0.0063492
        k(   43) = (   0.4000000   0.0000000   0.4440934), wk =   0.0063492
        k(   44) = (   0.4000000   0.0000000   0.6661401), wk =   0.0063492
        k(   45) = (   0.4000000   0.0000000   0.8881868), wk =   0.0063492
        k(   46) = (   0.4000000   0.2271027   0.0000000), wk =   0.0063492
        k(   47) = (   0.4000000   0.2271027   0.2220467), wk =   0.0063492
        k(   48) = (   0.4000000   0.2271027   0.4440934), wk =   0.0063492
        k(   49) = (   0.4000000   0.2271027   0.6661401), wk =   0.0063492
        k(   50) = (   0.4000000   0.2271027   0.8881868), wk =   0.0063492
        k(   51) = (   0.4000000   0.4542054   0.0000000), wk =   0.0063492
        k(   52) = (   0.4000000   0.4542054   0.2220467), wk =   0.0063492
        k(   53) = (   0.4000000   0.4542054   0.4440934), wk =   0.0063492
        k(   54) = (   0.4000000   0.4542054   0.6661401), wk =   0.0063492
        k(   55) = (   0.4000000   0.4542054   0.8881868), wk =   0.0063492
        k(   56) = (   0.4000000   0.6813081   0.0000000), wk =   0.0063492
        k(   57) = (   0.4000000   0.6813081   0.2220467), wk =   0.0063492
        k(   58) = (   0.4000000   0.6813081   0.4440934), wk =   0.0063492
        k(   59) = (   0.4000000   0.6813081   0.6661401), wk =   0.0063492
        k(   60) = (   0.4000000   0.6813081   0.8881868), wk =   0.0063492
        k(   61) = (   0.0000000  -0.2271027   0.2220467), wk =   0.0063492
        k(   62) = (   0.0000000  -0.2271027   0.4440934), wk =   0.0063492
        k(   63) = (   0.0000000  -0.2271027   0.6661401), wk =   0.0063492
        k(   64) = (   0.0000000  -0.2271027   0.8881868), wk =   0.0063492
        k(   65) = (   0.0000000  -0.4542054   0.2220467), wk =   0.0063492
        k(   66) = (   0.0000000  -0.4542054   0.4440934), wk =   0.0063492
        k(   67) = (   0.0000000  -0.4542054   0.6661401), wk =   0.0063492
        k(   68) = (   0.0000000  -0.4542054   0.8881868), wk =   0.0063492
        k(   69) = (   0.0000000  -0.6813081   0.2220467), wk =   0.0063492
        k(   70) = (   0.0000000  -0.6813081   0.4440934), wk =   0.0063492
        k(   71) = (   0.0000000  -0.6813081   0.6661401), wk =   0.0063492
        k(   72) = (   0.0000000  -0.6813081   0.8881868), wk =   0.0063492
        k(   73) = (  -0.2000000   0.0000000   0.2220467), wk =   0.0063492
        k(   74) = (  -0.2000000   0.0000000   0.4440934), wk =   0.0063492
        k(   75) = (  -0.2000000   0.0000000   0.6661401), wk =   0.0063492
        k(   76) = (  -0.2000000   0.0000000   0.8881868), wk =   0.0063492
        k(   77) = (  -0.2000000   0.2271027   0.0000000), wk =   0.0063492
        k(   78) = (  -0.2000000  -0.2271027   0.2220467), wk =   0.0063492
        k(   79) = (  -0.2000000   0.2271027  -0.2220467), wk =   0.0063492
        k(   80) = (   0.2000000  -0.2271027  -0.2220467), wk =   0.0063492
        k(   81) = (  -0.2000000  -0.2271027   0.4440934), wk =   0.0063492
        k(   82) = (  -0.2000000   0.2271027  -0.4440934), wk =   0.0063492
        k(   83) = (   0.2000000  -0.2271027  -0.4440934), wk =   0.0063492
        k(   84) = (  -0.2000000  -0.2271027   0.6661401), wk =   0.0063492
        k(   85) = (  -0.2000000   0.2271027  -0.6661401), wk =   0.0063492
        k(   86) = (   0.2000000  -0.2271027  -0.6661401), wk =   0.0063492
        k(   87) = (  -0.2000000  -0.2271027   0.8881868), wk =   0.0063492
        k(   88) = (  -0.2000000   0.2271027  -0.8881868), wk =   0.0063492
        k(   89) = (   0.2000000  -0.2271027  -0.8881868), wk =   0.0063492
        k(   90) = (  -0.2000000   0.4542054   0.0000000), wk =   0.0063492
        k(   91) = (  -0.2000000  -0.4542054   0.2220467), wk =   0.0063492
        k(   92) = (  -0.2000000   0.4542054  -0.2220467), wk =   0.0063492
        k(   93) = (   0.2000000  -0.4542054  -0.2220467), wk =   0.0063492
        k(   94) = (  -0.2000000  -0.4542054   0.4440934), wk =   0.0063492
        k(   95) = (  -0.2000000   0.4542054  -0.4440934), wk =   0.0063492
        k(   96) = (   0.2000000  -0.4542054  -0.4440934), wk =   0.0063492
        k(   97) = (  -0.2000000  -0.4542054   0.6661401), wk =   0.0063492
        k(   98) = (  -0.2000000   0.4542054  -0.6661401), wk =   0.0063492
        k(   99) = (   0.2000000  -0.4542054  -0.6661401), wk =   0.0063492
        k(  100) = (  -0.2000000  -0.4542054   0.8881868), wk =   0.0063492
        k(  101) = (  -0.2000000   0.4542054  -0.8881868), wk =   0.0063492
        k(  102) = (   0.2000000  -0.4542054  -0.8881868), wk =   0.0063492
        k(  103) = (  -0.2000000   0.6813081   0.0000000), wk =   0.0063492
        k(  104) = (  -0.2000000  -0.6813081   0.2220467), wk =   0.0063492
        k(  105) = (  -0.2000000   0.6813081  -0.2220467), wk =   0.0063492
        k(  106) = (   0.2000000  -0.6813081  -0.2220467), wk =   0.0063492
        k(  107) = (  -0.2000000  -0.6813081   0.4440934), wk =   0.0063492
        k(  108) = (  -0.2000000   0.6813081  -0.4440934), wk =   0.0063492
        k(  109) = (   0.2000000  -0.6813081  -0.4440934), wk =   0.0063492
        k(  110) = (  -0.2000000  -0.6813081   0.6661401), wk =   0.0063492
        k(  111) = (  -0.2000000   0.6813081  -0.6661401), wk =   0.0063492
        k(  112) = (   0.2000000  -0.6813081  -0.6661401), wk =   0.0063492
        k(  113) = (  -0.2000000  -0.6813081   0.8881868), wk =   0.0063492
        k(  114) = (  -0.2000000   0.6813081  -0.8881868), wk =   0.0063492
        k(  115) = (   0.2000000  -0.6813081  -0.8881868), wk =   0.0063492
        k(  116) = (  -0.4000000   0.0000000   0.2220467), wk =   0.0063492
        k(  117) = (  -0.4000000   0.0000000   0.4440934), wk =   0.0063492
        k(  118) = (  -0.4000000   0.0000000   0.6661401), wk =   0.0063492
        k(  119) = (  -0.4000000   0.0000000   0.8881868), wk =   0.0063492
        k(  120) = (  -0.4000000   0.2271027   0.0000000), wk =   0.0063492
        k(  121) = (  -0.4000000  -0.2271027   0.2220467), wk =   0.0063492
        k(  122) = (  -0.4000000   0.2271027  -0.2220467), wk =   0.0063492
        k(  123) = (   0.4000000  -0.2271027  -0.2220467), wk =   0.0063492
        k(  124) = (  -0.4000000  -0.2271027   0.4440934), wk =   0.0063492
        k(  125) = (  -0.4000000   0.2271027  -0.4440934), wk =   0.0063492
        k(  126) = (   0.4000000  -0.2271027  -0.4440934), wk =   0.0063492
        k(  127) = (  -0.4000000  -0.2271027   0.6661401), wk =   0.0063492
        k(  128) = (  -0.4000000   0.2271027  -0.6661401), wk =   0.0063492
        k(  129) = (   0.4000000  -0.2271027  -0.6661401), wk =   0.0063492
        k(  130) = (  -0.4000000  -0.2271027   0.8881868), wk =   0.0063492
        k(  131) = (  -0.4000000   0.2271027  -0.8881868), wk =   0.0063492
        k(  132) = (   0.4000000  -0.2271027  -0.8881868), wk =   0.0063492
        k(  133) = (  -0.4000000   0.4542054   0.0000000), wk =   0.0063492
        k(  134) = (  -0.4000000  -0.4542054   0.2220467), wk =   0.0063492
        k(  135) = (  -0.4000000   0.4542054  -0.2220467), wk =   0.0063492
        k(  136) = (   0.4000000  -0.4542054  -0.2220467), wk =   0.0063492
        k(  137) = (  -0.4000000  -0.4542054   0.4440934), wk =   0.0063492
        k(  138) = (  -0.4000000   0.4542054  -0.4440934), wk =   0.0063492
        k(  139) = (   0.4000000  -0.4542054  -0.4440934), wk =   0.0063492
        k(  140) = (  -0.4000000  -0.4542054   0.6661401), wk =   0.0063492
        k(  141) = (  -0.4000000   0.4542054  -0.6661401), wk =   0.0063492
        k(  142) = (   0.4000000  -0.4542054  -0.6661401), wk =   0.0063492
        k(  143) = (  -0.4000000  -0.4542054   0.8881868), wk =   0.0063492
        k(  144) = (  -0.4000000   0.4542054  -0.8881868), wk =   0.0063492
        k(  145) = (   0.4000000  -0.4542054  -0.8881868), wk =   0.0063492
        k(  146) = (  -0.4000000   0.6813081   0.0000000), wk =   0.0063492
        k(  147) = (  -0.4000000  -0.6813081   0.2220467), wk =   0.0063492
        k(  148) = (  -0.4000000   0.6813081  -0.2220467), wk =   0.0063492
        k(  149) = (   0.4000000  -0.6813081  -0.2220467), wk =   0.0063492
        k(  150) = (  -0.4000000  -0.6813081   0.4440934), wk =   0.0063492
        k(  151) = (  -0.4000000   0.6813081  -0.4440934), wk =   0.0063492
        k(  152) = (   0.4000000  -0.6813081  -0.4440934), wk =   0.0063492
        k(  153) = (  -0.4000000  -0.6813081   0.6661401), wk =   0.0063492
        k(  154) = (  -0.4000000   0.6813081  -0.6661401), wk =   0.0063492
        k(  155) = (   0.4000000  -0.6813081  -0.6661401), wk =   0.0063492
        k(  156) = (  -0.4000000  -0.6813081   0.8881868), wk =   0.0063492
        k(  157) = (  -0.4000000   0.6813081  -0.8881868), wk =   0.0063492
        k(  158) = (   0.4000000  -0.6813081  -0.8881868), wk =   0.0063492

                       cryst. coord.
        k(    1) = (   0.0000000   0.0000000   0.0000000), wk =   0.0031746
        k(    2) = (   0.0000000   0.0000000   0.1111111), wk =   0.0063492
        k(    3) = (   0.0000000   0.0000000   0.2222222), wk =   0.0063492
        k(    4) = (   0.0000000   0.0000000   0.3333333), wk =   0.0063492
        k(    5) = (   0.0000000   0.0000000   0.4444444), wk =   0.0063492
        k(    6) = (   0.0000000   0.1428571   0.0000000), wk =   0.0063492
        k(    7) = (   0.0000000   0.1428571   0.1111111), wk =   0.0063492
        k(    8) = (   0.0000000   0.1428571   0.2222222), wk =   0.0063492
        k(    9) = (   0.0000000   0.1428571   0.3333333), wk =   0.0063492
        k(   10) = (   0.0000000   0.1428571   0.4444444), wk =   0.0063492
        k(   11) = (   0.0000000   0.2857143   0.0000000), wk =   0.0063492
        k(   12) = (   0.0000000   0.2857143   0.1111111), wk =   0.0063492
        k(   13) = (   0.0000000   0.2857143   0.2222222), wk =   0.0063492
        k(   14) = (   0.0000000   0.2857143   0.3333333), wk =   0.0063492
        k(   15) = (   0.0000000   0.2857143   0.4444444), wk =   0.0063492
        k(   16) = (   0.0000000   0.4285714   0.0000000), wk =   0.0063492
        k(   17) = (   0.0000000   0.4285714   0.1111111), wk =   0.0063492
        k(   18) = (   0.0000000   0.4285714   0.2222222), wk =   0.0063492
        k(   19) = (   0.0000000   0.4285714   0.3333333), wk =   0.0063492
        k(   20) = (   0.0000000   0.4285714   0.4444444), wk =   0.0063492
        k(   21) = (   0.2000000   0.0000000   0.0000000), wk =   0.0063492
        k(   22) = (   0.2000000   0.0000000   0.1111111), wk =   0.0063492
        k(   23) = (   0.2000000   0.0000000   0.2222222), wk =   0.0063492
        k(   24) = (   0.2000000   0.0000000   0.3333333), wk =   0.0063492
        k(   25) = (   0.2000000   0.0000000   0.4444444), wk =   0.0063492
        k(   26) = (   0.2000000   0.1428571   0.0000000), wk =   0.0063492
        k(   27) = (   0.2000000   0.1428571   0.1111111), wk =   0.0063492
        k(   28) = (   0.2000000   0.1428571   0.2222222), wk =   0.0063492
        k(   29) = (   0.2000000   0.1428571   0.3333333), wk =   0.0063492
        k(   30) = (   0.2000000   0.1428571   0.4444444), wk =   0.0063492
        k(   31) = (   0.2000000   0.2857143   0.0000000), wk =   0.0063492
        k(   32) = (   0.2000000   0.2857143   0.1111111), wk =   0.0063492
        k(   33) = (   0.2000000   0.2857143   0.2222222), wk =   0.0063492
        k(   34) = (   0.2000000   0.2857143   0.3333333), wk =   0.0063492
        k(   35) = (   0.2000000   0.2857143   0.4444444), wk =   0.0063492
        k(   36) = (   0.2000000   0.4285714   0.0000000), wk =   0.0063492
        k(   37) = (   0.2000000   0.4285714   0.1111111), wk =   0.0063492
        k(   38) = (   0.2000000   0.4285714   0.2222222), wk =   0.0063492
        k(   39) = (   0.2000000   0.4285714   0.3333333), wk =   0.0063492
        k(   40) = (   0.2000000   0.4285714   0.4444444), wk =   0.0063492
        k(   41) = (   0.4000000   0.0000000   0.0000000), wk =   0.0063492
        k(   42) = (   0.4000000   0.0000000   0.1111111), wk =   0.0063492
        k(   43) = (   0.4000000   0.0000000   0.2222222), wk =   0.0063492
        k(   44) = (   0.4000000   0.0000000   0.3333333), wk =   0.0063492
        k(   45) = (   0.4000000   0.0000000   0.4444444), wk =   0.0063492
        k(   46) = (   0.4000000   0.1428571   0.0000000), wk =   0.0063492
        k(   47) = (   0.4000000   0.1428571   0.1111111), wk =   0.0063492
        k(   48) = (   0.4000000   0.1428571   0.2222222), wk =   0.0063492
        k(   49) = (   0.4000000   0.1428571   0.3333333), wk =   0.0063492
        k(   50) = (   0.4000000   0.1428571   0.4444444), wk =   0.0063492
        k(   51) = (   0.4000000   0.2857143   0.0000000), wk =   0.0063492
        k(   52) = (   0.4000000   0.2857143   0.1111111), wk =   0.0063492
        k(   53) = (   0.4000000   0.2857143   0.2222222), wk =   0.0063492
        k(   54) = (   0.4000000   0.2857143   0.3333333), wk =   0.0063492
        k(   55) = (   0.4000000   0.2857143   0.4444444), wk =   0.0063492
        k(   56) = (   0.4000000   0.4285714   0.0000000), wk =   0.0063492
        k(   57) = (   0.4000000   0.4285714   0.1111111), wk =   0.0063492
        k(   58) = (   0.4000000   0.4285714   0.2222222), wk =   0.0063492
        k(   59) = (   0.4000000   0.4285714   0.3333333), wk =   0.0063492
        k(   60) = (   0.4000000   0.4285714   0.4444444), wk =   0.0063492
        k(   61) = (   0.0000000  -0.1428571   0.1111111), wk =   0.0063492
        k(   62) = (   0.0000000  -0.1428571   0.2222222), wk =   0.0063492
        k(   63) = (   0.0000000  -0.1428571   0.3333333), wk =   0.0063492
        k(   64) = (   0.0000000  -0.1428571   0.4444444), wk =   0.0063492
        k(   65) = (   0.0000000  -0.2857143   0.1111111), wk =   0.0063492
        k(   66) = (   0.0000000  -0.2857143   0.2222222), wk =   0.0063492
        k(   67) = (   0.0000000  -0.2857143   0.3333333), wk =   0.0063492
        k(   68) = (   0.0000000  -0.2857143   0.4444444), wk =   0.0063492
        k(   69) = (   0.0000000  -0.4285714   0.1111111), wk =   0.0063492
        k(   70) = (   0.0000000  -0.4285714   0.2222222), wk =   0.0063492
        k(   71) = (   0.0000000  -0.4285714   0.3333333), wk =   0.0063492
        k(   72) = (   0.0000000  -0.4285714   0.4444444), wk =   0.0063492
        k(   73) = (  -0.2000000   0.0000000   0.1111111), wk =   0.0063492
        k(   74) = (  -0.2000000   0.0000000   0.2222222), wk =   0.0063492
        k(   75) = (  -0.2000000   0.0000000   0.3333333), wk =   0.0063492
        k(   76) = (  -0.2000000   0.0000000   0.4444444), wk =   0.0063492
        k(   77) = (  -0.2000000   0.1428571   0.0000000), wk =   0.0063492
        k(   78) = (  -0.2000000  -0.1428571   0.1111111), wk =   0.0063492
        k(   79) = (  -0.2000000   0.1428571  -0.1111111), wk =   0.0063492
        k(   80) = (   0.2000000  -0.1428571  -0.1111111), wk =   0.0063492
        k(   81) = (  -0.2000000  -0.1428571   0.2222222), wk =   0.0063492
        k(   82) = (  -0.2000000   0.1428571  -0.2222222), wk =   0.0063492
        k(   83) = (   0.2000000  -0.1428571  -0.2222222), wk =   0.0063492
        k(   84) = (  -0.2000000  -0.1428571   0.3333333), wk =   0.0063492
        k(   85) = (  -0.2000000   0.1428571  -0.3333333), wk =   0.0063492
        k(   86) = (   0.2000000  -0.1428571  -0.3333333), wk =   0.0063492
        k(   87) = (  -0.2000000  -0.1428571   0.4444444), wk =   0.0063492
        k(   88) = (  -0.2000000   0.1428571  -0.4444444), wk =   0.0063492
        k(   89) = (   0.2000000  -0.1428571  -0.4444444), wk =   0.0063492
        k(   90) = (  -0.2000000   0.2857143   0.0000000), wk =   0.0063492
        k(   91) = (  -0.2000000  -0.2857143   0.1111111), wk =   0.0063492
        k(   92) = (  -0.2000000   0.2857143  -0.1111111), wk =   0.0063492
        k(   93) = (   0.2000000  -0.2857143  -0.1111111), wk =   0.0063492
        k(   94) = (  -0.2000000  -0.2857143   0.2222222), wk =   0.0063492
        k(   95) = (  -0.2000000   0.2857143  -0.2222222), wk =   0.0063492
        k(   96) = (   0.2000000  -0.2857143  -0.2222222), wk =   0.0063492
        k(   97) = (  -0.2000000  -0.2857143   0.3333333), wk =   0.0063492
        k(   98) = (  -0.2000000   0.2857143  -0.3333333), wk =   0.0063492
        k(   99) = (   0.2000000  -0.2857143  -0.3333333), wk =   0.0063492
        k(  100) = (  -0.2000000  -0.2857143   0.4444444), wk =   0.0063492
        k(  101) = (  -0.2000000   0.2857143  -0.4444444), wk =   0.0063492
        k(  102) = (   0.2000000  -0.2857143  -0.4444444), wk =   0.0063492
        k(  103) = (  -0.2000000   0.4285714   0.0000000), wk =   0.0063492
        k(  104) = (  -0.2000000  -0.4285714   0.1111111), wk =   0.0063492
        k(  105) = (  -0.2000000   0.4285714  -0.1111111), wk =   0.0063492
        k(  106) = (   0.2000000  -0.4285714  -0.1111111), wk =   0.0063492
        k(  107) = (  -0.2000000  -0.4285714   0.2222222), wk =   0.0063492
        k(  108) = (  -0.2000000   0.4285714  -0.2222222), wk =   0.0063492
        k(  109) = (   0.2000000  -0.4285714  -0.2222222), wk =   0.0063492
        k(  110) = (  -0.2000000  -0.4285714   0.3333333), wk =   0.0063492
        k(  111) = (  -0.2000000   0.4285714  -0.3333333), wk =   0.0063492
        k(  112) = (   0.2000000  -0.4285714  -0.3333333), wk =   0.0063492
        k(  113) = (  -0.2000000  -0.4285714   0.4444444), wk =   0.0063492
        k(  114) = (  -0.2000000   0.4285714  -0.4444444), wk =   0.0063492
        k(  115) = (   0.2000000  -0.4285714  -0.4444444), wk =   0.0063492
        k(  116) = (  -0.4000000   0.0000000   0.1111111), wk =   0.0063492
        k(  117) = (  -0.4000000   0.0000000   0.2222222), wk =   0.0063492
        k(  118) = (  -0.4000000   0.0000000   0.3333333), wk =   0.0063492
        k(  119) = (  -0.4000000   0.0000000   0.4444444), wk =   0.0063492
        k(  120) = (  -0.4000000   0.1428571   0.0000000), wk =   0.0063492
        k(  121) = (  -0.4000000  -0.1428571   0.1111111), wk =   0.0063492
        k(  122) = (  -0.4000000   0.1428571  -0.1111111), wk =   0.0063492
        k(  123) = (   0.4000000  -0.1428571  -0.1111111), wk =   0.0063492
        k(  124) = (  -0.4000000  -0.1428571   0.2222222), wk =   0.0063492
        k(  125) = (  -0.4000000   0.1428571  -0.2222222), wk =   0.0063492
        k(  126) = (   0.4000000  -0.1428571  -0.2222222), wk =   0.0063492
        k(  127) = (  -0.4000000  -0.1428571   0.3333333), wk =   0.0063492
        k(  128) = (  -0.4000000   0.1428571  -0.3333333), wk =   0.0063492
        k(  129) = (   0.4000000  -0.1428571  -0.3333333), wk =   0.0063492
        k(  130) = (  -0.4000000  -0.1428571   0.4444444), wk =   0.0063492
        k(  131) = (  -0.4000000   0.1428571  -0.4444444), wk =   0.0063492
        k(  132) = (   0.4000000  -0.1428571  -0.4444444), wk =   0.0063492
        k(  133) = (  -0.4000000   0.2857143   0.0000000), wk =   0.0063492
        k(  134) = (  -0.4000000  -0.2857143   0.1111111), wk =   0.0063492
        k(  135) = (  -0.4000000   0.2857143  -0.1111111), wk =   0.0063492
        k(  136) = (   0.4000000  -0.2857143  -0.1111111), wk =   0.0063492
        k(  137) = (  -0.4000000  -0.2857143   0.2222222), wk =   0.0063492
        k(  138) = (  -0.4000000   0.2857143  -0.2222222), wk =   0.0063492
        k(  139) = (   0.4000000  -0.2857143  -0.2222222), wk =   0.0063492
        k(  140) = (  -0.4000000  -0.2857143   0.3333333), wk =   0.0063492
        k(  141) = (  -0.4000000   0.2857143  -0.3333333), wk =   0.0063492
        k(  142) = (   0.4000000  -0.2857143  -0.3333333), wk =   0.0063492
        k(  143) = (  -0.4000000  -0.2857143   0.4444444), wk =   0.0063492
        k(  144) = (  -0.4000000   0.2857143  -0.4444444), wk =   0.0063492
        k(  145) = (   0.4000000  -0.2857143  -0.4444444), wk =   0.0063492
        k(  146) = (  -0.4000000   0.4285714   0.0000000), wk =   0.0063492
        k(  147) = (  -0.4000000  -0.4285714   0.1111111), wk =   0.0063492
        k(  148) = (  -0.4000000   0.4285714  -0.1111111), wk =   0.0063492
        k(  149) = (   0.4000000  -0.4285714  -0.1111111), wk =   0.0063492
        k(  150) = (  -0.4000000  -0.4285714   0.2222222), wk =   0.0063492
        k(  151) = (  -0.4000000   0.4285714  -0.2222222), wk =   0.0063492
        k(  152) = (   0.4000000  -0.4285714  -0.2222222), wk =   0.0063492
        k(  153) = (  -0.4000000  -0.4285714   0.3333333), wk =   0.0063492
        k(  154) = (  -0.4000000   0.4285714  -0.3333333), wk =   0.0063492
        k(  155) = (   0.4000000  -0.4285714  -0.3333333), wk =   0.0063492
        k(  156) = (  -0.4000000  -0.4285714   0.4444444), wk =   0.0063492
        k(  157) = (  -0.4000000   0.4285714  -0.4444444), wk =   0.0063492
        k(  158) = (   0.4000000  -0.4285714  -0.4444444), wk =   0.0063492

     Dense  grid:  1230153 G-vectors     FFT dimensions: ( 200, 125, 100)

     Smooth grid:   277403 G-vectors     FFT dimensions: ( 120,  75,  60)

     Dynamical RAM for                 wfc:       5.02 MB

     Dynamical RAM for     wfc (w. buffer):    1592.51 MB

     Dynamical RAM for           str. fact:       6.26 MB

     Dynamical RAM for           local pot:       0.00 MB

     Dynamical RAM for          nlocal pot:      12.34 MB

     Dynamical RAM for                qrad:      10.54 MB

     Dynamical RAM for          rho,v,vnew:      19.69 MB

     Dynamical RAM for               rhoin:       6.56 MB

     Dynamical RAM for            rho*nmix:      50.06 MB

     Dynamical RAM for           G-vectors:       6.04 MB

     Dynamical RAM for          h,s,v(r/c):       2.38 MB

     Dynamical RAM for          <psi|beta>:       0.49 MB

     Dynamical RAM for                 psi:      10.05 MB

     Dynamical RAM for                hpsi:      10.05 MB

     Dynamical RAM for                spsi:      10.05 MB

     Dynamical RAM for      wfcinit/wfcrot:      12.51 MB

     Dynamical RAM for           addusdens:     317.54 MB

     Dynamical RAM for          addusforce:     364.59 MB

     Dynamical RAM for         addusstress:     316.76 MB

     Estimated static dynamical RAM per process >       1.68 GB

     Estimated max dynamical RAM per process >       2.04 GB

     Estimated total dynamical RAM >      24.45 GB

     Check: negative core charge=   -0.000003
     Generating pointlists ...
     new r_m :   0.0781 (alat units)  1.4593 (a.u.) for type    1
     new r_m :   0.0920 (alat units)  1.7186 (a.u.) for type    2
     new r_m :   0.0610 (alat units)  1.1388 (a.u.) for type    3
     new r_m :   0.0610 (alat units)  1.1388 (a.u.) for type    4

     Initial potential from superposition of free atoms

     starting charge  188.99132, renormalised to  189.00000
     Starting wfcs are  137 randomized atomic wfcs
     Checking if some PAW data can be deallocated... 
       PAW data deallocated on   10 nodes for type:  1
       PAW data deallocated on    4 nodes for type:  3

     total cpu time spent up to now is      290.3 secs

     Self-consistent Calculation

     iteration #  1     ecut=   100.00 Ry     beta= 0.40
     Davidson diagonalization with overlap
     ethr =  1.00E-02,  avg # of iterations =  3.1

     negative rho (up, down):  0.000E+00 4.304E-05

     total cpu time spent up to now is     1229.1 secs

     total energy              =   -2123.98001646 Ry
     estimated scf accuracy    <       6.80825336 Ry

     total magnetization       =    19.00 Bohr mag/cell
     absolute magnetization    =    19.00 Bohr mag/cell

     iteration #  2     ecut=   100.00 Ry     beta= 0.40
     Davidson diagonalization with overlap
     ethr =  3.60E-03,  avg # of iterations =  2.0

     negative rho (up, down):  0.000E+00 2.461E-05

     total cpu time spent up to now is     2062.8 secs

     total energy              =   -2122.10417778 Ry
     estimated scf accuracy    <      23.41197144 Ry

     total magnetization       =     9.95 Bohr mag/cell
     absolute magnetization    =    11.55 Bohr mag/cell

     iteration #  3     ecut=   100.00 Ry     beta= 0.40
     Davidson diagonalization with overlap
     ethr =  3.60E-03,  avg # of iterations =  2.6

     negative rho (up, down):  0.000E+00 1.531E-05

     total cpu time spent up to now is     2773.2 secs

     total energy              =   -2123.48455293 Ry
     estimated scf accuracy    <      63.45663280 Ry

     total magnetization       =     2.97 Bohr mag/cell
     absolute magnetization    =     5.65 Bohr mag/cell

     iteration #  4     ecut=   100.00 Ry     beta= 0.40
     Davidson diagonalization with overlap
     ethr =  3.60E-03,  avg # of iterations =  1.5

     negative rho (up, down):  0.000E+00 1.545E-05

     total cpu time spent up to now is     3415.7 secs

     total energy              =   -2124.50350637 Ry
     estimated scf accuracy    <      28.36814426 Ry

     total magnetization       =     9.00 Bohr mag/cell
     absolute magnetization    =     9.46 Bohr mag/cell

     iteration #  5     ecut=   100.00 Ry     beta= 0.40
     Davidson diagonalization with overlap
     ethr =  3.60E-03,  avg # of iterations =  2.0

     negative rho (up, down):  0.000E+00 5.569E-05

     total cpu time spent up to now is     4103.0 secs

     total energy              =   -2125.81533913 Ry
     estimated scf accuracy    <       4.05749970 Ry

     total magnetization       =    17.05 Bohr mag/cell
     absolute magnetization    =    17.13 Bohr mag/cell

     iteration #  6     ecut=   100.00 Ry     beta= 0.40
     Davidson diagonalization with overlap
     ethr =  2.15E-03,  avg # of iterations =  1.5

     negative rho (up, down):  0.000E+00 9.658E-05

     total cpu time spent up to now is     4733.8 secs

     total energy              =   -2125.89255572 Ry
     estimated scf accuracy    <       1.49773732 Ry

     total magnetization       =    17.45 Bohr mag/cell
     absolute magnetization    =    17.49 Bohr mag/cell

     iteration #  7     ecut=   100.00 Ry     beta= 0.40
     Davidson diagonalization with overlap
     ethr =  7.92E-04,  avg # of iterations =  1.5

     negative rho (up, down):  0.000E+00 1.893E-04

     total cpu time spent up to now is     5371.8 secs

     total energy              =   -2125.91511580 Ry
     estimated scf accuracy    <       2.95672323 Ry

     total magnetization       =    17.20 Bohr mag/cell
     absolute magnetization    =    17.25 Bohr mag/cell

     iteration #  8     ecut=   100.00 Ry     beta= 0.40
     Davidson diagonalization with overlap
     ethr =  7.92E-04,  avg # of iterations =  1.0

     negative rho (up, down):  0.000E+00 2.879E-04

     total cpu time spent up to now is     5960.0 secs

     total energy              =   -2126.04599334 Ry
     estimated scf accuracy    <       0.46820285 Ry

     total magnetization       =    19.00 Bohr mag/cell
     absolute magnetization    =    19.00 Bohr mag/cell

     iteration #  9     ecut=   100.00 Ry     beta= 0.40
     Davidson diagonalization with overlap
     ethr =  2.48E-04,  avg # of iterations =  2.3

     negative rho (up, down):  0.000E+00 4.200E-04

     total cpu time spent up to now is     6629.8 secs

     total energy              =   -2126.04929801 Ry
     estimated scf accuracy    <       0.19716021 Ry

     total magnetization       =    19.00 Bohr mag/cell
     absolute magnetization    =    19.00 Bohr mag/cell

     iteration # 10     ecut=   100.00 Ry     beta= 0.40
     Davidson diagonalization with overlap
     c_bands:  1 eigenvalues not converged
     c_bands:  1 eigenvalues not converged
     c_bands:  1 eigenvalues not converged
     ethr =  1.04E-04,  avg # of iterations =  9.6

     negative rho (up, down):  0.000E+00 6.733E-04

     total cpu time spent up to now is     7608.7 secs

     total energy              =   -2126.06002001 Ry
     estimated scf accuracy    <       0.07727622 Ry

     total magnetization       =    19.00 Bohr mag/cell
     absolute magnetization    =    19.01 Bohr mag/cell

     iteration # 11     ecut=   100.00 Ry     beta= 0.40
     Davidson diagonalization with overlap
     c_bands:  1 eigenvalues not converged
     c_bands:  1 eigenvalues not converged
     c_bands:  1 eigenvalues not converged
     c_bands:  1 eigenvalues not converged
     c_bands:  1 eigenvalues not converged
     c_bands:  1 eigenvalues not converged
     c_bands:  1 eigenvalues not converged
     ethr =  4.09E-05,  avg # of iterations =  9.0

     negative rho (up, down):  0.000E+00 8.713E-04

     total cpu time spent up to now is     8512.0 secs

     total energy              =   -2126.06567383 Ry
     estimated scf accuracy    <       0.05368163 Ry

     total magnetization       =    19.00 Bohr mag/cell
     absolute magnetization    =    19.02 Bohr mag/cell

     iteration # 12     ecut=   100.00 Ry     beta= 0.40
     Davidson diagonalization with overlap
     ethr =  2.84E-05,  avg # of iterations =  1.4

     negative rho (up, down):  0.000E+00 8.666E-04

     total cpu time spent up to now is     9127.0 secs

     total energy              =   -2126.06503581 Ry
     estimated scf accuracy    <       0.06184703 Ry

     total magnetization       =    19.00 Bohr mag/cell
     absolute magnetization    =    19.02 Bohr mag/cell

     iteration # 13     ecut=   100.00 Ry     beta= 0.40
     Davidson diagonalization with overlap
     ethr =  2.84E-05,  avg # of iterations =  1.0

     negative rho (up, down):  0.000E+00 9.292E-04

     total cpu time spent up to now is     9712.3 secs

     total energy              =   -2126.06734166 Ry
     estimated scf accuracy    <       0.03612063 Ry

     total magnetization       =    19.00 Bohr mag/cell
     absolute magnetization    =    19.03 Bohr mag/cell

     iteration # 14     ecut=   100.00 Ry     beta= 0.40
     Davidson diagonalization with overlap
     ethr =  1.91E-05,  avg # of iterations =  1.1

     negative rho (up, down):  0.000E+00 9.657E-04

     total cpu time spent up to now is    10306.2 secs

     total energy              =   -2126.06839887 Ry
     estimated scf accuracy    <       0.00266134 Ry

     total magnetization       =    19.00 Bohr mag/cell
     absolute magnetization    =    19.03 Bohr mag/cell

     iteration # 15     ecut=   100.00 Ry     beta= 0.40
     Davidson diagonalization with overlap
     c_bands:  1 eigenvalues not converged
     c_bands:  1 eigenvalues not converged
     c_bands:  1 eigenvalues not converged
     c_bands:  1 eigenvalues not converged
     c_bands:  1 eigenvalues not converged
     c_bands:  1 eigenvalues not converged
     c_bands:  1 eigenvalues not converged
     c_bands:  1 eigenvalues not converged
     c_bands:  1 eigenvalues not converged
     c_bands:  1 eigenvalues not converged
     c_bands:  1 eigenvalues not converged
     c_bands:  1 eigenvalues not converged
     c_bands:  1 eigenvalues not converged
     c_bands:  1 eigenvalues not converged
     c_bands:  1 eigenvalues not converged
     c_bands:  1 eigenvalues not converged
     c_bands:  1 eigenvalues not converged
     c_bands:  1 eigenvalues not converged
     c_bands:  1 eigenvalues not converged
     c_bands:  1 eigenvalues not converged
     c_bands:  1 eigenvalues not converged
     c_bands:  1 eigenvalues not converged
     c_bands:  1 eigenvalues not converged
     c_bands:  1 eigenvalues not converged
     ethr =  1.41E-06,  avg # of iterations = 13.1

     negative rho (up, down):  0.000E+00 9.495E-04

     total cpu time spent up to now is    11576.8 secs

     total energy              =   -2126.06905161 Ry
     estimated scf accuracy    <       0.00086443 Ry

     total magnetization       =    19.00 Bohr mag/cell
     absolute magnetization    =    19.03 Bohr mag/cell

     iteration # 16     ecut=   100.00 Ry     beta= 0.40
     Davidson diagonalization with overlap
     c_bands:  1 eigenvalues not converged
     ethr =  4.57E-07,  avg # of iterations =  1.7

     negative rho (up, down):  0.000E+00 9.373E-04

     total cpu time spent up to now is    12228.5 secs

     total energy              =   -2126.06908662 Ry
     estimated scf accuracy    <       0.00112563 Ry

     total magnetization       =    19.00 Bohr mag/cell
     absolute magnetization    =    19.04 Bohr mag/cell

     iteration # 17     ecut=   100.00 Ry     beta= 0.40
     Davidson diagonalization with overlap
     ethr =  4.57E-07,  avg # of iterations =  1.0

     negative rho (up, down):  0.000E+00 9.374E-04

     total cpu time spent up to now is    12815.0 secs

     total energy              =   -2126.06911087 Ry
     estimated scf accuracy    <       0.00006306 Ry

     total magnetization       =    19.00 Bohr mag/cell
     absolute magnetization    =    19.04 Bohr mag/cell

     iteration # 18     ecut=   100.00 Ry     beta= 0.40
     Davidson diagonalization with overlap
     ethr =  3.34E-08,  avg # of iterations =  3.0

     negative rho (up, down):  0.000E+00 9.317E-04

     total cpu time spent up to now is    13673.9 secs

     total energy              =   -2126.06912692 Ry
     estimated scf accuracy    <       0.00002875 Ry

     total magnetization       =    19.00 Bohr mag/cell
     absolute magnetization    =    19.04 Bohr mag/cell

     iteration # 19     ecut=   100.00 Ry     beta= 0.40
     Davidson diagonalization with overlap
     ethr =  1.52E-08,  avg # of iterations =  1.4

     negative rho (up, down):  0.000E+00 9.317E-04

     total cpu time spent up to now is    14303.8 secs

     total energy              =   -2126.06912896 Ry
     estimated scf accuracy    <       0.00001756 Ry

     total magnetization       =    19.00 Bohr mag/cell
     absolute magnetization    =    19.04 Bohr mag/cell

     iteration # 20     ecut=   100.00 Ry     beta= 0.40
     Davidson diagonalization with overlap
     ethr =  9.29E-09,  avg # of iterations =  1.2

     negative rho (up, down):  0.000E+00 9.314E-04

     total cpu time spent up to now is    14904.4 secs

     total energy              =   -2126.06912989 Ry
     estimated scf accuracy    <       0.00000818 Ry

     total magnetization       =    19.00 Bohr mag/cell
     absolute magnetization    =    19.04 Bohr mag/cell

     iteration # 21     ecut=   100.00 Ry     beta= 0.40
     Davidson diagonalization with overlap
     ethr =  4.33E-09,  avg # of iterations =  1.6

     negative rho (up, down):  0.000E+00 9.313E-04

     total cpu time spent up to now is    15541.8 secs

     total energy              =   -2126.06913035 Ry
     estimated scf accuracy    <       0.00000267 Ry

     total magnetization       =    19.00 Bohr mag/cell
     absolute magnetization    =    19.04 Bohr mag/cell

     iteration # 22     ecut=   100.00 Ry     beta= 0.40
     Davidson diagonalization with overlap
     ethr =  1.41E-09,  avg # of iterations =  2.7

     negative rho (up, down):  0.000E+00 9.310E-04

     total cpu time spent up to now is    16275.2 secs

     total energy              =   -2126.06913070 Ry
     estimated scf accuracy    <       0.00000029 Ry

     total magnetization       =    19.00 Bohr mag/cell
     absolute magnetization    =    19.04 Bohr mag/cell

     iteration # 23     ecut=   100.00 Ry     beta= 0.40
     Davidson diagonalization with overlap
     ethr =  1.52E-10,  avg # of iterations =  3.6

     negative rho (up, down):  0.000E+00 9.307E-04

     total cpu time spent up to now is    17179.2 secs

     total energy              =   -2126.06913080 Ry
     estimated scf accuracy    <       0.00000007 Ry

     total magnetization       =    19.00 Bohr mag/cell
     absolute magnetization    =    19.04 Bohr mag/cell

     iteration # 24     ecut=   100.00 Ry     beta= 0.40
     Davidson diagonalization with overlap
     ethr =  3.66E-11,  avg # of iterations =  2.0

     negative rho (up, down):  0.000E+00 9.306E-04

     total cpu time spent up to now is    17866.8 secs

     total energy              =   -2126.06913081 Ry
     estimated scf accuracy    <       0.00000003 Ry

     total magnetization       =    19.00 Bohr mag/cell
     absolute magnetization    =    19.04 Bohr mag/cell

     iteration # 25     ecut=   100.00 Ry     beta= 0.40
     Davidson diagonalization with overlap
     ethr =  1.85E-11,  avg # of iterations =  1.2

     negative rho (up, down):  0.000E+00 9.306E-04

     total cpu time spent up to now is    18469.7 secs

     total energy              =   -2126.06913082 Ry
     estimated scf accuracy    <          8.5E-09 Ry

     total magnetization       =    19.00 Bohr mag/cell
     absolute magnetization    =    19.04 Bohr mag/cell

     iteration # 26     ecut=   100.00 Ry     beta= 0.40
     Davidson diagonalization with overlap
     ethr =  4.49E-12,  avg # of iterations =  2.9

     negative rho (up, down):  0.000E+00 9.306E-04

     total cpu time spent up to now is    19222.0 secs

     total energy              =   -2126.06913082 Ry
     estimated scf accuracy    <          4.5E-09 Ry

     total magnetization       =    19.00 Bohr mag/cell
     absolute magnetization    =    19.04 Bohr mag/cell

     iteration # 27     ecut=   100.00 Ry     beta= 0.40
     Davidson diagonalization with overlap
     ethr =  2.39E-12,  avg # of iterations =  1.6

     negative rho (up, down):  0.000E+00 9.306E-04

     total cpu time spent up to now is    19861.0 secs

     total energy              =   -2126.06913082 Ry
     estimated scf accuracy    <          7.6E-10 Ry

     total magnetization       =    19.00 Bohr mag/cell
     absolute magnetization    =    19.04 Bohr mag/cell

     iteration # 28     ecut=   100.00 Ry     beta= 0.40
     Davidson diagonalization with overlap
     ethr =  4.02E-13,  avg # of iterations =  4.2

     negative rho (up, down):  0.000E+00 9.306E-04

     total cpu time spent up to now is    20835.3 secs

     total energy              =   -2126.06913082 Ry
     estimated scf accuracy    <          1.1E-09 Ry

     total magnetization       =    19.00 Bohr mag/cell
     absolute magnetization    =    19.04 Bohr mag/cell

     iteration # 29     ecut=   100.00 Ry     beta= 0.40
     Davidson diagonalization with overlap
     ethr =  4.02E-13,  avg # of iterations =  1.0

     negative rho (up, down):  0.000E+00 9.306E-04

     total cpu time spent up to now is    21420.0 secs

     total energy              =   -2126.06913082 Ry
     estimated scf accuracy    <          2.2E-10 Ry

     total magnetization       =    19.00 Bohr mag/cell
     absolute magnetization    =    19.04 Bohr mag/cell

     iteration # 30     ecut=   100.00 Ry     beta= 0.40
     Davidson diagonalization with overlap
     ethr =  1.17E-13,  avg # of iterations =  1.9

     negative rho (up, down):  0.000E+00 9.306E-04

     Magnetic moment per site:
     atom:    1    charge:    7.9028    magn:    0.0016    constr:    0.0000
     atom:    2    charge:   12.7494    magn:    3.6160    constr:    0.0000
     atom:    3    charge:   12.7819    magn:    3.5211    constr:    0.0000
     atom:    4    charge:   12.7537    magn:    3.6038    constr:    0.0000
     atom:    5    charge:   12.7644    magn:    3.5681    constr:    0.0000
     atom:    6    charge:    0.7226    magn:    0.0105    constr:    0.0000
     atom:    7    charge:    0.7230    magn:    0.0118    constr:    0.0000
     atom:    8    charge:    0.7251    magn:    0.0102    constr:    0.0000
     atom:    9    charge:    0.7218    magn:    0.0112    constr:    0.0000
     atom:   10    charge:    4.0048    magn:    0.1151    constr:    0.0000
     atom:   11    charge:    4.0061    magn:    0.1088    constr:    0.0000
     atom:   12    charge:    4.0206    magn:    0.0976    constr:    0.0000
     atom:   13    charge:    4.0063    magn:    0.1146    constr:    0.0000
     atom:   14    charge:    4.0516    magn:    0.1092    constr:    0.0000
     atom:   15    charge:    4.0433    magn:    0.0892    constr:    0.0000
     atom:   16    charge:    4.0565    magn:    0.1120    constr:    0.0000
     atom:   17    charge:    4.0429    magn:    0.0943    constr:    0.0000
     atom:   18    charge:    4.0053    magn:    0.1252    constr:    0.0000
     atom:   19    charge:    3.9873    magn:    0.1399    constr:    0.0000
     atom:   20    charge:    3.9899    magn:    0.1147    constr:    0.0000
     atom:   21    charge:    3.9791    magn:    0.1481    constr:    0.0000
     atom:   22    charge:    3.9963    magn:    0.1247    constr:    0.0000
     atom:   23    charge:    3.9849    magn:    0.1457    constr:    0.0000
     atom:   24    charge:    3.9866    magn:    0.1093    constr:    0.0000
     atom:   25    charge:    3.9864    magn:    0.1491    constr:    0.0000

     total cpu time spent up to now is    22088.5 secs

     End of self-consistent calculation

 ------ SPIN UP ------------


          k = 0.0000 0.0000 0.0000 ( 34615 PWs)   bands (ev):

   -84.5309 -84.5235 -84.2500 -84.0874 -50.6407 -50.6113 -50.5134 -50.4800
   -50.4594 -50.4483 -50.4366 -50.3502 -50.2281 -50.0995 -50.0552 -49.8972
   -44.0187 -16.2809 -16.1118 -16.0392 -16.0245 -15.8717 -15.7675 -15.4665
   -13.8067 -13.5527 -13.4365 -13.3590 -13.1992 -13.1919 -13.1207 -13.0523
   -12.9936 -12.9751 -12.8811 -12.8687  -3.8489  -3.3955  -3.1474  -2.8217
    -2.0016  -1.7567  -1.6435  -1.4235  -1.3063  -1.0599  -0.9806  -0.8676
    -0.7242  -0.6915  -0.6149  -0.4222   0.2431   0.3239   0.6114   0.8011
     0.8376   0.8885   0.8942   1.0619   1.0939   1.1503   1.2463   1.3446
     1.5875   1.6827   1.8606   1.9385   2.0322   2.1948   2.3078   2.3588
     2.3842   2.4689   2.5554   2.7472   2.7655   2.9666   2.9999   3.0927
     3.2141   3.2688   3.3748   3.4763   3.5620   3.6781   3.7199   3.8113
     3.8946   3.9707   4.0577   4.1119   4.2356   4.3241   4.4106   4.4892
     4.6245   4.8109   4.8570   4.8776   5.1979   5.4042   5.7706   5.8677
    10.1119  12.0670  12.4044  13.0390  13.1371  13.9225  14.0613  14.2907
    14.3627  14.4638

     occupation numbers 
     1.0000   1.0000   1.0000   1.0000   1.0000   1.0000   1.0000   1.0000
     1.0000   1.0000   1.0000   1.0000   1.0000   1.0000   1.0000   1.0000
     1.0000   1.0000   1.0000   1.0000   1.0000   1.0000   1.0000   1.0000
     1.0000   1.0000   1.0000   1.0000   1.0000   1.0000   1.0000   1.0000
     1.0000   1.0000   1.0000   1.0000   1.0000   1.0000   1.0000   1.0000
     1.0000   1.0000   1.0000   1.0000   1.0000   1.0000   1.0000   1.0000
     1.0000   1.0000   1.0000   1.0000   1.0000   1.0000   1.0000   1.0000
     1.0000   1.0000   1.0000   1.0000   1.0000   1.0000   1.0000   1.0000
     1.0000   1.0000   1.0000   1.0000   1.0000   1.0000   1.0000   1.0000
     1.0000   1.0000   1.0000   1.0000   1.0000   1.0000   1.0000   1.0000
     1.0000   1.0000   1.0000   1.0000   1.0000   1.0000   1.0000   1.0000
     1.0000   1.0000   1.0000   1.0000   1.0000   1.0000   1.0000   1.0000
     1.0000   1.0000   1.0000   1.0000   1.0000   1.0000   1.0000   1.0000
     0.0000   0.0000   0.0000   0.0000   0.0000   0.0000   0.0000   0.0000
     0.0000   0.0000

          k = 0.0000 0.0000 0.2220 ( 34593 PWs)   bands (ev):

   -84.5309 -84.5235 -84.2500 -84.0874 -50.6407 -50.6113 -50.5134 -50.4800
   -50.4594 -50.4483 -50.4366 -50.3502 -50.2281 -50.0995 -50.0552 -49.8972
   -44.0187 -16.2895 -16.1061 -16.0393 -16.0256 -15.8471 -15.7602 -15.4702
   -13.8065 -13.5552 -13.4405 -13.3561 -13.2097 -13.2021 -13.1210 -13.0576
   -13.0042 -12.9789 -12.8893 -12.8645  -3.8172  -3.3850  -3.1428  -2.8226
    -1.9692  -1.7464  -1.6510  -1.4076  -1.3008  -1.0567  -0.9713  -0.8407
    -0.7238  -0.7005  -0.6038  -0.4296   0.2508   0.3482   0.6019   0.7617
     0.8549   0.8854   0.9240   1.0265   1.1060   1.1496   1.2429   1.3607
     1.5657   1.6687   1.8516   1.9577   2.0180   2.1551   2.2823   2.3257
     2.4073   2.4926   2.5464   2.7336   2.7658   2.9353   3.0049   3.0504
     3.1737   3.2677   3.4141   3.5118   3.5737   3.6609   3.6959   3.7687
     3.9036   3.9695   4.0058   4.1113   4.2657   4.3455   4.4706   4.4955
     4.6222   4.7623   4.8504   4.9188   5.1838   5.3967   5.7574   5.8540
    10.2591  12.1367  12.4698  13.0228  13.2173  13.8639  13.9918  14.1709
    14.2535  14.4395

     occupation numbers 
     1.0000   1.0000   1.0000   1.0000   1.0000   1.0000   1.0000   1.0000
     1.0000   1.0000   1.0000   1.0000   1.0000   1.0000   1.0000   1.0000
     1.0000   1.0000   1.0000   1.0000   1.0000   1.0000   1.0000   1.0000
     1.0000   1.0000   1.0000   1.0000   1.0000   1.0000   1.0000   1.0000
     1.0000   1.0000   1.0000   1.0000   1.0000   1.0000   1.0000   1.0000
     1.0000   1.0000   1.0000   1.0000   1.0000   1.0000   1.0000   1.0000
     1.0000   1.0000   1.0000   1.0000   1.0000   1.0000   1.0000   1.0000
     1.0000   1.0000   1.0000   1.0000   1.0000   1.0000   1.0000   1.0000
     1.0000   1.0000   1.0000   1.0000   1.0000   1.0000   1.0000   1.0000
     1.0000   1.0000   1.0000   1.0000   1.0000   1.0000   1.0000   1.0000
     1.0000   1.0000   1.0000   1.0000   1.0000   1.0000   1.0000   1.0000
     1.0000   1.0000   1.0000   1.0000   1.0000   1.0000   1.0000   1.0000
     1.0000   1.0000   1.0000   1.0000   1.0000   1.0000   1.0000   1.0000
     0.0000   0.0000   0.0000   0.0000   0.0000   0.0000   0.0000   0.0000
     0.0000   0.0000

          k = 0.0000 0.0000 0.4441 ( 34664 PWs)   bands (ev):

   -84.5309 -84.5235 -84.2501 -84.0874 -50.6407 -50.6113 -50.5134 -50.4800
   -50.4594 -50.4483 -50.4366 -50.3502 -50.2281 -50.0995 -50.0552 -49.8972
   -44.0187 -16.3091 -16.0984 -16.0337 -16.0223 -15.7908 -15.7390 -15.4833
   -13.8046 -13.5644 -13.4513 -13.3483 -13.2449 -13.2145 -13.1219 -13.0802
   -13.0302 -12.9854 -12.8980 -12.8634  -3.7311  -3.3607  -3.1286  -2.8404
    -1.8849  -1.7350  -1.6323  -1.3866  -1.2896  -1.0364  -0.9643  -0.7913
    -0.7613  -0.6319  -0.5805  -0.4534   0.2749   0.3976   0.6029   0.6869
     0.8801   0.9131   0.9449   1.0134   1.0568   1.1757   1.2333   1.4148
     1.5653   1.6194   1.8351   1.9205   2.0076   2.0587   2.2193   2.3110
     2.3515   2.4770   2.5717   2.6383   2.7428   2.8839   2.9688   3.0354
     3.1630   3.2910   3.3583   3.5223   3.5720   3.6033   3.6757   3.7847
     3.9360   3.9509   4.0020   4.1292   4.2699   4.4316   4.4748   4.5487
     4.6088   4.7602   4.8389   4.9586   5.1611   5.3728   5.7222   5.8176
    10.6580  12.3217  12.6145  13.0951  13.3402  13.7060  13.8452  13.9478
    14.0969  14.2722

     occupation numbers 
     1.0000   1.0000   1.0000   1.0000   1.0000   1.0000   1.0000   1.0000
     1.0000   1.0000   1.0000   1.0000   1.0000   1.0000   1.0000   1.0000
     1.0000   1.0000   1.0000   1.0000   1.0000   1.0000   1.0000   1.0000
     1.0000   1.0000   1.0000   1.0000   1.0000   1.0000   1.0000   1.0000
     1.0000   1.0000   1.0000   1.0000   1.0000   1.0000   1.0000   1.0000
     1.0000   1.0000   1.0000   1.0000   1.0000   1.0000   1.0000   1.0000
     1.0000   1.0000   1.0000   1.0000   1.0000   1.0000   1.0000   1.0000
     1.0000   1.0000   1.0000   1.0000   1.0000   1.0000   1.0000   1.0000
     1.0000   1.0000   1.0000   1.0000   1.0000   1.0000   1.0000   1.0000
     1.0000   1.0000   1.0000   1.0000   1.0000   1.0000   1.0000   1.0000
     1.0000   1.0000   1.0000   1.0000   1.0000   1.0000   1.0000   1.0000
     1.0000   1.0000   1.0000   1.0000   1.0000   1.0000   1.0000   1.0000
     1.0000   1.0000   1.0000   1.0000   1.0000   1.0000   1.0000   1.0000
     0.0000   0.0000   0.0000   0.0000   0.0000   0.0000   0.0000   0.0000
     0.0000   0.0000

          k = 0.0000 0.0000 0.6661 ( 34722 PWs)   bands (ev):

   -84.5309 -84.5235 -84.2501 -84.0874 -50.6407 -50.6113 -50.5134 -50.4800
   -50.4594 -50.4483 -50.4366 -50.3502 -50.2281 -50.0995 -50.0552 -49.8972
   -44.0187 -16.3288 -16.0950 -16.0292 -16.0071 -15.7415 -15.6929 -15.5111
   -13.7993 -13.5833 -13.4632 -13.3398 -13.2792 -13.2257 -13.1302 -13.1073
   -13.0646 -12.9853 -12.9008 -12.8672  -3.6173  -3.3394  -3.1041  -2.8919
    -1.8201  -1.7081  -1.5652  -1.3809  -1.2720  -0.9980  -0.9901  -0.8471
    -0.6713  -0.5590  -0.5357  -0.4741   0.3199   0.4417   0.6054   0.6538
     0.8739   0.9246   0.9389   1.0093   1.1291   1.2196   1.2306   1.4492
     1.5358   1.6361   1.7470   1.8711   1.9465   2.0106   2.0981   2.1902
     2.2669   2.3509   2.5518   2.6628   2.7193   2.8843   2.9603   3.0387
     3.1134   3.1859   3.3744   3.4055   3.4865   3.6525   3.7460   3.8490
     3.9142   3.9542   4.0734   4.1540   4.3276   4.4262   4.4773   4.5569
     4.6266   4.8264   4.8407   4.9797   5.1648   5.3343   5.6788   5.7688
    11.2160  12.5569  12.7075  13.2266  13.3115  13.5587  13.7073  13.8285
    13.9371  14.1517

     occupation numbers 
     1.0000   1.0000   1.0000   1.0000   1.0000   1.0000   1.0000   1.0000
     1.0000   1.0000   1.0000   1.0000   1.0000   1.0000   1.0000   1.0000
     1.0000   1.0000   1.0000   1.0000   1.0000   1.0000   1.0000   1.0000
     1.0000   1.0000   1.0000   1.0000   1.0000   1.0000   1.0000   1.0000
     1.0000   1.0000   1.0000   1.0000   1.0000   1.0000   1.0000   1.0000
     1.0000   1.0000   1.0000   1.0000   1.0000   1.0000   1.0000   1.0000
     1.0000   1.0000   1.0000   1.0000   1.0000   1.0000   1.0000   1.0000
     1.0000   1.0000   1.0000   1.0000   1.0000   1.0000   1.0000   1.0000
     1.0000   1.0000   1.0000   1.0000   1.0000   1.0000   1.0000   1.0000
     1.0000   1.0000   1.0000   1.0000   1.0000   1.0000   1.0000   1.0000
     1.0000   1.0000   1.0000   1.0000   1.0000   1.0000   1.0000   1.0000
     1.0000   1.0000   1.0000   1.0000   1.0000   1.0000   1.0000   1.0000
     1.0000   1.0000   1.0000   1.0000   1.0000   1.0000   1.0000   1.0000
     0.0000   0.0000   0.0000   0.0000   0.0000   0.0000   0.0000   0.0000
     0.0000   0.0000

          k = 0.0000 0.0000 0.8882 ( 34692 PWs)   bands (ev):

   -84.5309 -84.5235 -84.2501 -84.0874 -50.6407 -50.6113 -50.5134 -50.4800
   -50.4594 -50.4483 -50.4366 -50.3502 -50.2282 -50.0995 -50.0552 -49.8972
   -44.0186 -16.3406 -16.0932 -16.0277 -15.9941 -15.7224 -15.6226 -15.5578
   -13.7925 -13.6032 -13.4694 -13.3354 -13.2966 -13.2340 -13.1460 -13.1118
   -13.0935 -12.9821 -12.9006 -12.8719  -3.5255  -3.3339  -3.0710  -2.9580
    -1.8144  -1.6612  -1.5049  -1.3839  -1.2416  -1.0529  -0.9448  -0.8740
    -0.6260  -0.5368  -0.5220  -0.4301   0.3892   0.4880   0.5807   0.6236
     0.8430   0.9132   0.9507   1.1178   1.1833   1.2303   1.2952   1.4375
     1.4955   1.6385   1.6486   1.7577   1.8818   1.9944   2.0362   2.1042
     2.1778   2.3113   2.5095   2.6353   2.7814   2.9073   2.9194   3.0037
     3.0889   3.1708   3.3195   3.3274   3.4939   3.6679   3.7763   3.8623
     3.9243   3.9717   4.1458   4.1782   4.3479   4.4023   4.4744   4.5473
     4.6949   4.8120   4.8938   4.9915   5.1972   5.2911   5.6509   5.7258
    11.8318  12.4608  12.7734  12.9779  13.4656  13.5666  13.7089  13.8079
    13.8717  14.0102

     occupation numbers 
     1.0000   1.0000   1.0000   1.0000   1.0000   1.0000   1.0000   1.0000
     1.0000   1.0000   1.0000   1.0000   1.0000   1.0000   1.0000   1.0000
     1.0000   1.0000   1.0000   1.0000   1.0000   1.0000   1.0000   1.0000
     1.0000   1.0000   1.0000   1.0000   1.0000   1.0000   1.0000   1.0000
     1.0000   1.0000   1.0000   1.0000   1.0000   1.0000   1.0000   1.0000
     1.0000   1.0000   1.0000   1.0000   1.0000   1.0000   1.0000   1.0000
     1.0000   1.0000   1.0000   1.0000   1.0000   1.0000   1.0000   1.0000
     1.0000   1.0000   1.0000   1.0000   1.0000   1.0000   1.0000   1.0000
     1.0000   1.0000   1.0000   1.0000   1.0000   1.0000   1.0000   1.0000
     1.0000   1.0000   1.0000   1.0000   1.0000   1.0000   1.0000   1.0000
     1.0000   1.0000   1.0000   1.0000   1.0000   1.0000   1.0000   1.0000
     1.0000   1.0000   1.0000   1.0000   1.0000   1.0000   1.0000   1.0000
     1.0000   1.0000   1.0000   1.0000   1.0000   1.0000   1.0000   1.0000
     0.0000   0.0000   0.0000   0.0000   0.0000   0.0000   0.0000   0.0000
     0.0000   0.0000

          k = 0.0000 0.2271 0.0000 ( 34607 PWs)   bands (ev):

   -84.5309 -84.5235 -84.2500 -84.0874 -50.6407 -50.6113 -50.5134 -50.4800
   -50.4594 -50.4483 -50.4366 -50.3502 -50.2281 -50.0995 -50.0552 -49.8972
   -44.0187 -16.2908 -16.0918 -16.0382 -16.0237 -15.8601 -15.7719 -15.4830
   -13.8030 -13.5600 -13.4477 -13.3638 -13.1997 -13.1889 -13.1125 -13.0526
   -12.9935 -12.9761 -12.8876 -12.8618  -3.8260  -3.4113  -3.1271  -2.8224
    -1.9812  -1.7592  -1.6238  -1.4152  -1.2732  -1.0469  -0.9734  -0.8527
    -0.7576  -0.6678  -0.5864  -0.4120   0.2353   0.3331   0.5993   0.7224
     0.7689   0.8190   0.9344   1.0104   1.1007   1.1610   1.3375   1.4265
     1.5836   1.6793   1.8409   1.9491   2.0051   2.1456   2.2610   2.2931
     2.3500   2.4257   2.5745   2.7169   2.8102   2.9187   3.0878   3.1151
     3.2447   3.2823   3.3976   3.4486   3.5359   3.5870   3.6862   3.7853
     3.9015   3.9830   4.0337   4.1342   4.2368   4.3305   4.4199   4.4862
     4.6122   4.7403   4.8669   4.9442   5.1781   5.4901   5.8050   5.8761
    10.2630  12.1454  12.4933  12.9893  13.1353  13.8983  14.0457  14.1719
    14.3505  14.4803

     occupation numbers 
     1.0000   1.0000   1.0000   1.0000   1.0000   1.0000   1.0000   1.0000
     1.0000   1.0000   1.0000   1.0000   1.0000   1.0000   1.0000   1.0000
     1.0000   1.0000   1.0000   1.0000   1.0000   1.0000   1.0000   1.0000
     1.0000   1.0000   1.0000   1.0000   1.0000   1.0000   1.0000   1.0000
     1.0000   1.0000   1.0000   1.0000   1.0000   1.0000   1.0000   1.0000
     1.0000   1.0000   1.0000   1.0000   1.0000   1.0000   1.0000   1.0000
     1.0000   1.0000   1.0000   1.0000   1.0000   1.0000   1.0000   1.0000
     1.0000   1.0000   1.0000   1.0000   1.0000   1.0000   1.0000   1.0000
     1.0000   1.0000   1.0000   1.0000   1.0000   1.0000   1.0000   1.0000
     1.0000   1.0000   1.0000   1.0000   1.0000   1.0000   1.0000   1.0000
     1.0000   1.0000   1.0000   1.0000   1.0000   1.0000   1.0000   1.0000
     1.0000   1.0000   1.0000   1.0000   1.0000   1.0000   1.0000   1.0000
     1.0000   1.0000   1.0000   1.0000   1.0000   1.0000   1.0000   1.0000
     0.0000   0.0000   0.0000   0.0000   0.0000   0.0000   0.0000   0.0000
     0.0000   0.0000

          k = 0.0000 0.2271 0.2220 ( 34613 PWs)   bands (ev):

   -84.5309 -84.5235 -84.2500 -84.0874 -50.6407 -50.6113 -50.5134 -50.4800
   -50.4594 -50.4483 -50.4366 -50.3502 -50.2281 -50.0995 -50.0552 -49.8972
   -44.0187 -16.2826 -16.1078 -16.0342 -16.0245 -15.8474 -15.7665 -15.4712
   -13.8009 -13.5610 -13.4450 -13.3629 -13.2201 -13.2131 -13.1157 -13.0551
   -12.9919 -12.9714 -12.8871 -12.8726  -3.7964  -3.3969  -3.1213  -2.8227
    -1.9522  -1.7573  -1.6259  -1.4004  -1.2653  -1.0320  -0.9491  -0.8274
    -0.7296  -0.6781  -0.6100  -0.4338   0.2575   0.3291   0.5597   0.7677
     0.7876   0.8426   0.8946   0.9673   1.0948   1.1318   1.3759   1.4292
     1.5378   1.6454   1.8616   1.9129   1.9980   2.0977   2.2816   2.3411
     2.4068   2.4931   2.5701   2.7144   2.8300   2.8921   3.0352   3.0525
     3.2273   3.2635   3.3558   3.4571   3.5454   3.5888   3.6621   3.7687
     3.8888   3.9508   3.9966   4.1195   4.2787   4.3414   4.4607   4.4923
     4.6052   4.7510   4.8458   5.0025   5.1817   5.4794   5.7752   5.8715
    10.4071  12.2230  12.5762  12.9903  13.1545  13.8671  14.0259  14.1613
    14.2448  14.3698

     occupation numbers 
     1.0000   1.0000   1.0000   1.0000   1.0000   1.0000   1.0000   1.0000
     1.0000   1.0000   1.0000   1.0000   1.0000   1.0000   1.0000   1.0000
     1.0000   1.0000   1.0000   1.0000   1.0000   1.0000   1.0000   1.0000
     1.0000   1.0000   1.0000   1.0000   1.0000   1.0000   1.0000   1.0000
     1.0000   1.0000   1.0000   1.0000   1.0000   1.0000   1.0000   1.0000
     1.0000   1.0000   1.0000   1.0000   1.0000   1.0000   1.0000   1.0000
     1.0000   1.0000   1.0000   1.0000   1.0000   1.0000   1.0000   1.0000
     1.0000   1.0000   1.0000   1.0000   1.0000   1.0000   1.0000   1.0000
     1.0000   1.0000   1.0000   1.0000   1.0000   1.0000   1.0000   1.0000
     1.0000   1.0000   1.0000   1.0000   1.0000   1.0000   1.0000   1.0000
     1.0000   1.0000   1.0000   1.0000   1.0000   1.0000   1.0000   1.0000
     1.0000   1.0000   1.0000   1.0000   1.0000   1.0000   1.0000   1.0000
     1.0000   1.0000   1.0000   1.0000   1.0000   1.0000   1.0000   1.0000
     0.0000   0.0000   0.0000   0.0000   0.0000   0.0000   0.0000   0.0000
     0.0000   0.0000

          k = 0.0000 0.2271 0.4441 ( 34660 PWs)   bands (ev):

   -84.5309 -84.5235 -84.2501 -84.0874 -50.6407 -50.6113 -50.5134 -50.4800
   -50.4594 -50.4483 -50.4366 -50.3502 -50.2281 -50.0995 -50.0552 -49.8972
   -44.0187 -16.2918 -16.1136 -16.0298 -16.0160 -15.8037 -15.7490 -15.4674
   -13.7981 -13.5667 -13.4491 -13.3573 -13.2577 -13.2388 -13.1332 -13.0772
   -13.0059 -12.9664 -12.8989 -12.8709  -3.7122  -3.3664  -3.1114  -2.8347
    -1.8754  -1.7463  -1.6054  -1.3771  -1.2528  -1.0074  -0.9083  -0.7846
    -0.7514  -0.6478  -0.6041  -0.4565   0.2785   0.3604   0.5460   0.7177
     0.8221   0.8662   0.9285   0.9856   1.0088   1.1386   1.3760   1.4352
     1.5436   1.6239   1.8146   1.8877   1.9626   2.0225   2.2399   2.3408
     2.4402   2.5159   2.5488   2.6649   2.8102   2.8796   2.9421   2.9973
     3.2133   3.2690   3.3409   3.4249   3.5165   3.5418   3.6197   3.7784
     3.8741   3.9664   4.0013   4.1171   4.2457   4.4245   4.4918   4.5708
     4.5903   4.7573   4.8221   5.0322   5.2040   5.4572   5.7296   5.8437
    10.7954  12.4064  12.7329  13.0643  13.2693  13.6956  13.8764  14.0210
    14.0833  14.2575

     occupation numbers 
     1.0000   1.0000   1.0000   1.0000   1.0000   1.0000   1.0000   1.0000
     1.0000   1.0000   1.0000   1.0000   1.0000   1.0000   1.0000   1.0000
     1.0000   1.0000   1.0000   1.0000   1.0000   1.0000   1.0000   1.0000
     1.0000   1.0000   1.0000   1.0000   1.0000   1.0000   1.0000   1.0000
     1.0000   1.0000   1.0000   1.0000   1.0000   1.0000   1.0000   1.0000
     1.0000   1.0000   1.0000   1.0000   1.0000   1.0000   1.0000   1.0000
     1.0000   1.0000   1.0000   1.0000   1.0000   1.0000   1.0000   1.0000
     1.0000   1.0000   1.0000   1.0000   1.0000   1.0000   1.0000   1.0000
     1.0000   1.0000   1.0000   1.0000   1.0000   1.0000   1.0000   1.0000
     1.0000   1.0000   1.0000   1.0000   1.0000   1.0000   1.0000   1.0000
     1.0000   1.0000   1.0000   1.0000   1.0000   1.0000   1.0000   1.0000
     1.0000   1.0000   1.0000   1.0000   1.0000   1.0000   1.0000   1.0000
     1.0000   1.0000   1.0000   1.0000   1.0000   1.0000   1.0000   1.0000
     0.0000   0.0000   0.0000   0.0000   0.0000   0.0000   0.0000   0.0000
     0.0000   0.0000

          k = 0.0000 0.2271 0.6661 ( 34677 PWs)   bands (ev):

   -84.5309 -84.5235 -84.2501 -84.0874 -50.6407 -50.6113 -50.5134 -50.4800
   -50.4594 -50.4483 -50.4366 -50.3502 -50.2281 -50.0995 -50.0552 -49.8972
   -44.0186 -16.3122 -16.1088 -16.0282 -15.9972 -15.7545 -15.7198 -15.4785
   -13.7933 -13.5800 -13.4602 -13.3490 -13.2928 -13.2518 -13.1645 -13.1036
   -13.0286 -12.9638 -12.9038 -12.8688  -3.5994  -3.3383  -3.0987  -2.8766
    -1.8142  -1.7088  -1.5454  -1.3681  -1.2351  -0.9742  -0.9266  -0.8260
    -0.7005  -0.6025  -0.5442  -0.4556   0.3180   0.3832   0.5524   0.6705
     0.8441   0.8702   0.9227   0.9673   1.1450   1.1763   1.3363   1.4576
     1.5276   1.6558   1.7134   1.8222   1.8894   2.0397   2.1310   2.2459
     2.3179   2.4004   2.5352   2.6490   2.7488   2.8869   2.9377   3.0092
     3.1365   3.2386   3.2907   3.4046   3.4416   3.5817   3.6428   3.8176
     3.8832   3.9845   4.0394   4.1198   4.2630   4.4451   4.5015   4.5998
     4.6367   4.7522   4.8510   5.0263   5.2486   5.4265   5.6837   5.8040
    11.3415  12.6295  12.8118  13.2309  13.3430  13.4865  13.7382  13.8720
    13.9128  14.1311

     occupation numbers 
     1.0000   1.0000   1.0000   1.0000   1.0000   1.0000   1.0000   1.0000
     1.0000   1.0000   1.0000   1.0000   1.0000   1.0000   1.0000   1.0000
     1.0000   1.0000   1.0000   1.0000   1.0000   1.0000   1.0000   1.0000
     1.0000   1.0000   1.0000   1.0000   1.0000   1.0000   1.0000   1.0000
     1.0000   1.0000   1.0000   1.0000   1.0000   1.0000   1.0000   1.0000
     1.0000   1.0000   1.0000   1.0000   1.0000   1.0000   1.0000   1.0000
     1.0000   1.0000   1.0000   1.0000   1.0000   1.0000   1.0000   1.0000
     1.0000   1.0000   1.0000   1.0000   1.0000   1.0000   1.0000   1.0000
     1.0000   1.0000   1.0000   1.0000   1.0000   1.0000   1.0000   1.0000
     1.0000   1.0000   1.0000   1.0000   1.0000   1.0000   1.0000   1.0000
     1.0000   1.0000   1.0000   1.0000   1.0000   1.0000   1.0000   1.0000
     1.0000   1.0000   1.0000   1.0000   1.0000   1.0000   1.0000   1.0000
     1.0000   1.0000   1.0000   1.0000   1.0000   1.0000   1.0000   1.0000
     0.0000   0.0000   0.0000   0.0000   0.0000   0.0000   0.0000   0.0000
     0.0000   0.0000

          k = 0.0000 0.2271 0.8882 ( 34672 PWs)   bands (ev):

   -84.5309 -84.5235 -84.2501 -84.0874 -50.6407 -50.6113 -50.5134 -50.4800
   -50.4594 -50.4483 -50.4366 -50.3502 -50.2282 -50.0995 -50.0552 -49.8972
   -44.0186 -16.3303 -16.1010 -16.0274 -15.9834 -15.7306 -15.6670 -15.5124
   -13.7872 -13.5972 -13.4700 -13.3478 -13.3034 -13.2516 -13.1847 -13.1236
   -13.0511 -12.9683 -12.8981 -12.8678  -3.5073  -3.3271  -3.0768  -2.9390
    -1.7992  -1.6563  -1.4951  -1.3664  -1.2044  -1.0218  -0.9151  -0.8557
    -0.6861  -0.5520  -0.4905  -0.4271   0.3695   0.4002   0.5601   0.6329
     0.7938   0.8896   0.9263   1.0598   1.2270   1.2967   1.3037   1.4576
     1.4973   1.6047   1.6955   1.7474   1.8296   2.0080   2.0749   2.1109
     2.2060   2.3178   2.5239   2.6129   2.7715   2.8532   2.9070   3.0328
     3.0980   3.1425   3.2991   3.3341   3.4700   3.6499   3.6862   3.8239
     3.9124   3.9888   4.0775   4.1466   4.3091   4.4177   4.4989   4.6135
     4.6566   4.7830   4.8836   4.9979   5.2508   5.4217   5.6632   5.7665
    11.9461  12.5619  12.8094  13.0755  13.4441  13.5689  13.7322  13.7838
    13.8758  14.0515

     occupation numbers 
     1.0000   1.0000   1.0000   1.0000   1.0000   1.0000   1.0000   1.0000
     1.0000   1.0000   1.0000   1.0000   1.0000   1.0000   1.0000   1.0000
     1.0000   1.0000   1.0000   1.0000   1.0000   1.0000   1.0000   1.0000
     1.0000   1.0000   1.0000   1.0000   1.0000   1.0000   1.0000   1.0000
     1.0000   1.0000   1.0000   1.0000   1.0000   1.0000   1.0000   1.0000
     1.0000   1.0000   1.0000   1.0000   1.0000   1.0000   1.0000   1.0000
     1.0000   1.0000   1.0000   1.0000   1.0000   1.0000   1.0000   1.0000
     1.0000   1.0000   1.0000   1.0000   1.0000   1.0000   1.0000   1.0000
     1.0000   1.0000   1.0000   1.0000   1.0000   1.0000   1.0000   1.0000
     1.0000   1.0000   1.0000   1.0000   1.0000   1.0000   1.0000   1.0000
     1.0000   1.0000   1.0000   1.0000   1.0000   1.0000   1.0000   1.0000
     1.0000   1.0000   1.0000   1.0000   1.0000   1.0000   1.0000   1.0000
     1.0000   1.0000   1.0000   1.0000   1.0000   1.0000   1.0000   1.0000
     0.0000   0.0000   0.0000   0.0000   0.0000   0.0000   0.0000   0.0000
     0.0000   0.0000

          k = 0.0000 0.4542 0.0000 ( 34657 PWs)   bands (ev):

   -84.5309 -84.5235 -84.2501 -84.0874 -50.6407 -50.6113 -50.5134 -50.4800
   -50.4594 -50.4483 -50.4366 -50.3502 -50.2281 -50.0995 -50.0552 -49.8972
   -44.0187 -16.3085 -16.0579 -16.0287 -16.0172 -15.8354 -15.7819 -15.5242
   -13.7907 -13.5866 -13.4699 -13.3681 -13.1963 -13.1770 -13.1038 -13.0608
   -12.9923 -12.9799 -12.8881 -12.8556  -3.7667  -3.4564  -3.0738  -2.8323
    -1.9338  -1.7633  -1.5779  -1.3939  -1.1959  -1.0197  -0.9348  -0.8186
    -0.7978  -0.6186  -0.5548  -0.3995   0.2098   0.3388   0.5197   0.6348
     0.6645   0.7993   0.8789   1.0225   1.0740   1.2188   1.3035   1.5458
     1.6031   1.6995   1.7388   1.9673   1.9989   2.0507   2.1437   2.1989
     2.3198   2.4413   2.6384   2.6786   2.8502   2.8895   3.0688   3.1479
     3.1924   3.3379   3.3795   3.4487   3.5033   3.5511   3.5801   3.7485
     3.9081   3.9881   4.0270   4.1272   4.2346   4.3360   4.4093   4.5048
     4.5482   4.6909   4.8673   5.0101   5.2617   5.5897   5.8476   5.9218
    10.6778  12.3551  12.5480  12.8002  13.1677  13.8747  14.0288  14.1345
    14.2258  14.5337

     occupation numbers 
     1.0000   1.0000   1.0000   1.0000   1.0000   1.0000   1.0000   1.0000
     1.0000   1.0000   1.0000   1.0000   1.0000   1.0000   1.0000   1.0000
     1.0000   1.0000   1.0000   1.0000   1.0000   1.0000   1.0000   1.0000
     1.0000   1.0000   1.0000   1.0000   1.0000   1.0000   1.0000   1.0000
     1.0000   1.0000   1.0000   1.0000   1.0000   1.0000   1.0000   1.0000
     1.0000   1.0000   1.0000   1.0000   1.0000   1.0000   1.0000   1.0000
     1.0000   1.0000   1.0000   1.0000   1.0000   1.0000   1.0000   1.0000
     1.0000   1.0000   1.0000   1.0000   1.0000   1.0000   1.0000   1.0000
     1.0000   1.0000   1.0000   1.0000   1.0000   1.0000   1.0000   1.0000
     1.0000   1.0000   1.0000   1.0000   1.0000   1.0000   1.0000   1.0000
     1.0000   1.0000   1.0000   1.0000   1.0000   1.0000   1.0000   1.0000
     1.0000   1.0000   1.0000   1.0000   1.0000   1.0000   1.0000   1.0000
     1.0000   1.0000   1.0000   1.0000   1.0000   1.0000   1.0000   1.0000
     0.0000   0.0000   0.0000   0.0000   0.0000   0.0000   0.0000   0.0000
     0.0000   0.0000

          k = 0.0000 0.4542 0.2220 ( 34661 PWs)   bands (ev):

   -84.5309 -84.5235 -84.2501 -84.0874 -50.6407 -50.6113 -50.5134 -50.4800
   -50.4594 -50.4483 -50.4366 -50.3502 -50.2281 -50.0995 -50.0552 -49.8972
   -44.0187 -16.2947 -16.0847 -16.0281 -16.0101 -15.8316 -15.7769 -15.5016
   -13.7869 -13.5847 -13.4669 -13.3669 -13.2239 -13.2056 -13.1171 -13.0637
   -12.9847 -12.9640 -12.8896 -12.8656  -3.7399  -3.4357  -3.0675  -2.8339
    -1.9085  -1.7640  -1.5714  -1.3842  -1.1845  -0.9835  -0.9239  -0.8014
    -0.7547  -0.6397  -0.5812  -0.4264   0.2449   0.3002   0.4826   0.6512
     0.7179   0.8094   0.8656   0.9473   1.0848   1.1709   1.3516   1.4906
     1.5871   1.6651   1.7903   1.9148   1.9623   2.0657   2.2051   2.2956
     2.3514   2.4993   2.6128   2.6995   2.8325   2.8794   3.0409   3.0779
     3.1772   3.2844   3.3266   3.4394   3.4928   3.5455   3.5857   3.7460
     3.8818   3.9311   3.9949   4.1229   4.2928   4.3520   4.4404   4.5080
     4.5442   4.7030   4.8655   5.0318   5.2820   5.5859   5.8334   5.9099
    10.8081  12.4336  12.6173  12.8717  13.1541  13.8545  13.9850  14.1702
    14.2290  14.3905

     occupation numbers 
     1.0000   1.0000   1.0000   1.0000   1.0000   1.0000   1.0000   1.0000
     1.0000   1.0000   1.0000   1.0000   1.0000   1.0000   1.0000   1.0000
[...]
     atom    8 type  4   force =    -0.08526040    0.03470782   -0.01039732
     atom    9 type  4   force =     0.12508281   -0.00029077   -0.01159170
     atom   10 type  3   force =    -0.00986397    0.00263316    0.00194151
     atom   11 type  3   force =     0.01193703   -0.00519890   -0.00517807
     atom   12 type  3   force =     0.00433347    0.00121109    0.00131266
     atom   13 type  3   force =    -0.01182220    0.00430603    0.00492114
     atom   14 type  3   force =    -0.13650042   -0.00258822    0.02544450
     atom   15 type  3   force =     0.10659793   -0.03122744    0.01594395
     atom   16 type  3   force =     0.13448873    0.00113064   -0.03007147
     atom   17 type  3   force =    -0.10620880    0.03533382   -0.01757267
     atom   18 type  3   force =     0.02659388    0.01559794   -0.00001997
     atom   19 type  3   force =    -0.01047459   -0.00895164   -0.00432482
     atom   20 type  3   force =     0.00142386   -0.00978986    0.00146516
     atom   21 type  3   force =     0.00867640   -0.00540175    0.00295846
     atom   22 type  3   force =    -0.02163989   -0.01806714    0.00126730
     atom   23 type  3   force =     0.00851997    0.00698572    0.00489764
     atom   24 type  3   force =    -0.00381078    0.01068010   -0.00165498
     atom   25 type  3   force =    -0.00668821    0.00539881   -0.00047679
     The non-local contrib.  to forces
     atom    1 type  2   force =     0.06038557    0.04473307   -0.00846518
     atom    2 type  1   force =     0.06789304   -0.13441240   -0.02993852
     atom    3 type  1   force =    -0.01915072   -0.16667624    0.12076179
     atom    4 type  1   force =    -0.02251934    0.14571925    0.01152191
     atom    5 type  1   force =     0.00470751    0.19084422   -0.11885700
     atom    6 type  4   force =     0.05308470   -0.01394521    0.00832805
     atom    7 type  4   force =    -0.12292616    0.01271416   -0.02632117
     atom    8 type  4   force =    -0.04374812   -0.00562177   -0.02448926
     atom    9 type  4   force =     0.12602460   -0.00740876    0.02842504
     atom   10 type  3   force =     0.07673745   -0.07367552   -1.40251025
     atom   11 type  3   force =    -0.14348211    0.12789561   -1.41490440
     atom   12 type  3   force =    -0.00873024    0.08060629    1.33551789
     atom   13 type  3   force =     0.14864095   -0.12085524    1.40082152
     atom   14 type  3   force =     1.28428742   -0.00544929   -0.60132377
     atom   15 type  3   force =    -1.11887310    0.57568217   -0.40268404
     atom   16 type  3   force =    -1.25342806    0.01422401    0.64531121
     atom   17 type  3   force =     1.12504824   -0.57374014    0.49880193
     atom   18 type  3   force =    -0.64319238   -1.26110684    0.45626350
     atom   19 type  3   force =     0.44305671    0.91973342    0.93323709
     atom   20 type  3   force =     0.09610901   -1.28307579   -1.05236734
     atom   21 type  3   force =    -0.40190336    1.08980127   -0.70172977
     atom   22 type  3   force =     0.56370914    1.35040597   -0.54955703
     atom   23 type  3   force =    -0.40189530   -0.93606705   -0.92497080
     atom   24 type  3   force =    -0.03304790    1.23952625    1.07559225
     atom   25 type  3   force =     0.33208261   -1.11175540    0.65595592
     The ionic contribution  to forces
     atom    1 type  2   force =     1.41578691   -0.60958566   -1.89816274
     atom    2 type  1   force =    10.48914727   -2.17963547   -2.16084691
     atom    3 type  1   force =     6.52430739   -2.64568249   -1.64341976
     atom    4 type  1   force =   -11.63713893    3.43972670    1.33674126
     atom    5 type  1   force =    -4.43487298    2.94582086    2.85246049
     atom    6 type  4   force =     0.06244539   -0.36195497    0.19198154
     atom    7 type  4   force =     3.20386056    0.15886939    1.10010468
     atom    8 type  4   force =    -0.93516877    0.62663196   -0.00646716
     atom    9 type  4   force =    -2.81855851   -0.41294260   -0.87861229
     atom   10 type  3   force =    -5.74903439    0.17873416    1.30719702
     atom   11 type  3   force =     9.91392156   -1.27172864    1.82525218
     atom   12 type  3   force =     3.06966869    1.39463236    0.31224768
     atom   13 type  3   force =    -9.48528195    0.79745630   -1.69982980
     atom   14 type  3   force =     1.46897276   -0.57530200    7.47001056
     atom   15 type  3   force =    -0.53839757   -2.96148183    3.82800497
     atom   16 type  3   force =    -1.55825871    0.57752373   -7.71886905
     atom   17 type  3   force =     0.35827847    1.60213494   -4.65612350
     atom   18 type  3   force =     1.90990749    4.72374768    3.63098791
     atom   19 type  3   force =     5.69892669   -2.15241094   -4.20992459
     atom   20 type  3   force =     2.67547139    1.82893764    8.06718404
     atom   21 type  3   force =    -5.81704428   -2.87309414    1.68061092
     atom   22 type  3   force =    -1.38596506   -6.69711557   -3.28521702
     atom   23 type  3   force =    -5.99218219    1.58352449    4.15880323
     atom   24 type  3   force =    -3.31094639   -0.36839686   -8.47488804
     atom   25 type  3   force =     6.87215518    3.25159095   -1.12922561
     The local contribution  to forces
     atom    1 type  2   force =    -1.47249892    0.56448331    1.89967471
     atom    2 type  1   force =   -10.56418132    2.31040129    2.18049933
     atom    3 type  1   force =    -6.49052659    2.80844913    1.52739400
     atom    4 type  1   force =    11.67015701   -3.58100163   -1.33822157
     atom    5 type  1   force =     4.41538212   -3.13318017   -2.73727788
     atom    6 type  4   force =    -0.02547753    0.33424977   -0.18728001
     atom    7 type  4   force =    -3.21851280   -0.16806949   -1.05943978
     atom    8 type  4   force =     0.88885506   -0.58508930    0.01821739
     atom    9 type  4   force =     2.82871331    0.41913859    0.83990774
     atom   10 type  3   force =     5.66358871   -0.10307526    0.08516238
     atom   11 type  3   force =    -9.76035443    1.13980098   -0.42769191
     atom   12 type  3   force =    -3.05728450   -1.47322759   -1.63496556
     atom   13 type  3   force =     9.32669593   -0.67338227    0.31601066
     atom   14 type  3   force =    -2.88080855    0.57804731   -6.84857384
     atom   15 type  3   force =     1.75601401    2.35949942   -3.41313365
     atom   16 type  3   force =     2.93748051   -0.59045537    7.04911933
     atom   17 type  3   force =    -1.58160382   -0.99787186    4.14434126
     atom   18 type  3   force =    -1.24513059   -3.45826918   -4.08365105
     atom   19 type  3   force =    -6.14882066    1.23128129    3.28077338
     atom   20 type  3   force =    -2.76954150   -0.56658026   -7.02308138
     atom   21 type  3   force =     6.22433828    1.78720140   -0.98215895
     atom   22 type  3   force =     0.80493755    5.34062871    3.83153662
     atom   23 type  3   force =     6.39931645   -0.64823545   -3.23729442
     atom   24 type  3   force =     3.34009584   -0.84984860    7.40759543
     atom   25 type  3   force =    -7.20824117   -2.14394167    0.47861491
     The core correction contribution to forces
     atom    1 type  2   force =     0.00000000    0.00000000    0.00000000
     atom    2 type  1   force =    -0.00106225    0.00219186    0.00195965
     atom    3 type  1   force =     0.00056038    0.00190817   -0.00037350
     atom    4 type  1   force =     0.00041607   -0.00211838   -0.00148570
     atom    5 type  1   force =    -0.00045773   -0.00208696    0.00018711
     atom    6 type  4   force =    -0.00499474    0.00292167   -0.00124184
     atom    7 type  4   force =     0.01079915   -0.00115654    0.00085897
     atom    8 type  4   force =     0.00480125   -0.00121216    0.00234172
     atom    9 type  4   force =    -0.01109322    0.00092127   -0.00131110
     atom   10 type  3   force =    -0.00116058    0.00064915    0.01209112
     atom   11 type  3   force =     0.00185294   -0.00116708    0.01216549
     atom   12 type  3   force =     0.00068296   -0.00079903   -0.01148306
     atom   13 type  3   force =    -0.00187031    0.00108620   -0.01208467
     atom   14 type  3   force =    -0.00894803    0.00011504    0.00533286
     atom   15 type  3   force =     0.00785097   -0.00492733    0.00375708
     atom   16 type  3   force =     0.00869249   -0.00016151   -0.00563428
     atom   17 type  3   force =    -0.00793768    0.00480890   -0.00458898
     atom   18 type  3   force =     0.00500586    0.01122580   -0.00361814
     atom   19 type  3   force =    -0.00363653   -0.00755428   -0.00840991
     atom   20 type  3   force =    -0.00061645    0.01093379    0.00972645
     atom   21 type  3   force =     0.00329009   -0.00930373    0.00624096
     atom   22 type  3   force =    -0.00431838   -0.01198991    0.00450105
     atom   23 type  3   force =     0.00328485    0.00775603    0.00836411
     atom   24 type  3   force =     0.00008403   -0.01059976   -0.00995387
     atom   25 type  3   force =    -0.00268387    0.00950341   -0.00582106
     The Hubbard contrib.    to forces
     atom    1 type  2   force =     0.00000000    0.00000000    0.00000000
     atom    2 type  1   force =     0.00000000    0.00000000    0.00000000
     atom    3 type  1   force =     0.00000000    0.00000000    0.00000000
     atom    4 type  1   force =     0.00000000    0.00000000    0.00000000
     atom    5 type  1   force =     0.00000000    0.00000000    0.00000000
     atom    6 type  4   force =     0.00000000    0.00000000    0.00000000
     atom    7 type  4   force =     0.00000000    0.00000000    0.00000000
     atom    8 type  4   force =     0.00000000    0.00000000    0.00000000
     atom    9 type  4   force =     0.00000000    0.00000000    0.00000000
     atom   10 type  3   force =     0.00000000    0.00000000    0.00000000
     atom   11 type  3   force =     0.00000000    0.00000000    0.00000000
     atom   12 type  3   force =     0.00000000    0.00000000    0.00000000
     atom   13 type  3   force =     0.00000000    0.00000000    0.00000000
     atom   14 type  3   force =     0.00000000    0.00000000    0.00000000
     atom   15 type  3   force =     0.00000000    0.00000000    0.00000000
     atom   16 type  3   force =     0.00000000    0.00000000    0.00000000
     atom   17 type  3   force =     0.00000000    0.00000000    0.00000000
     atom   18 type  3   force =     0.00000000    0.00000000    0.00000000
     atom   19 type  3   force =     0.00000000    0.00000000    0.00000000
     atom   20 type  3   force =     0.00000000    0.00000000    0.00000000
     atom   21 type  3   force =     0.00000000    0.00000000    0.00000000
     atom   22 type  3   force =     0.00000000    0.00000000    0.00000000
     atom   23 type  3   force =     0.00000000    0.00000000    0.00000000
     atom   24 type  3   force =     0.00000000    0.00000000    0.00000000
     atom   25 type  3   force =     0.00000000    0.00000000    0.00000000
     The SCF correction term to forces
     atom    1 type  2   force =     0.00000292    0.00000126   -0.00000020
     atom    2 type  1   force =     0.00000072    0.00000089    0.00000000
     atom    3 type  1   force =     0.00000456   -0.00000004   -0.00000079
     atom    4 type  1   force =    -0.00000533   -0.00000078   -0.00000046
     atom    5 type  1   force =    -0.00000312    0.00000018   -0.00000079
     atom    6 type  4   force =     0.00000353    0.00000005   -0.00000041
     atom    7 type  4   force =    -0.00000027   -0.00000024    0.00000006
     atom    8 type  4   force =     0.00000031   -0.00000120    0.00000054
     atom    9 type  4   force =    -0.00000324    0.00000043   -0.00000054
     atom   10 type  3   force =     0.00000497    0.00000034    0.00000178
     atom   11 type  3   force =    -0.00000079   -0.00000007    0.00000112
     atom   12 type  3   force =    -0.00000330   -0.00000123   -0.00000374
     atom   13 type  3   force =    -0.00000669    0.00000075    0.00000397
     atom   14 type  3   force =    -0.00000388    0.00000043   -0.00000077
     atom   15 type  3   force =     0.00000375   -0.00000017    0.00000013
     atom   16 type  3   force =     0.00000264   -0.00000051    0.00000186
     atom   17 type  3   force =     0.00000612    0.00000168   -0.00000283
     atom   18 type  3   force =     0.00000363    0.00000018   -0.00000164
     atom   19 type  3   force =    -0.00000067   -0.00000142   -0.00000023
     atom   20 type  3   force =     0.00000154   -0.00000553    0.00000392
     atom   21 type  3   force =    -0.00000421   -0.00000684   -0.00000415
     atom   22 type  3   force =    -0.00000301    0.00000336    0.00000422
     atom   23 type  3   force =    -0.00000370    0.00000742   -0.00000393
     atom   24 type  3   force =     0.00000377   -0.00000123   -0.00000020
     atom   25 type  3   force =    -0.00000083    0.00000122   -0.00000040

     Total force =     0.342319     Total SCF correction =     0.000024


     Computing stress (Cartesian axis) and pressure


     negative rho (up, down):  0.000E+00 9.306E-04
          total   stress  (Ry/bohr**3)                   (kbar)     P=      107.54
   0.00127120  -0.00006060   0.00000387          187.00       -8.91        0.57
  -0.00006060   0.00044056  -0.00016414           -8.91       64.81      -24.15
   0.00000387  -0.00016414   0.00048133            0.57      -24.15       70.81

     kinetic stress (kbar)  28218.49     33.80    -46.34
                               33.80  28296.39    -18.89
                              -46.34    -18.89  28158.35

     local   stress (kbar)  -8295.53   4206.96  -5166.01
                             4206.96 -12589.97   2275.87
                            -5166.01   2275.87  -6072.26

     nonloc. stress (kbar)  -7253.52      6.46     -2.69
                                6.46  -7189.72      2.90
                               -2.69      2.90  -7233.36

     hartree stress (kbar)  14804.88  -1634.17   2124.52
                            -1634.17  17809.56   -881.20
                             2124.52   -881.20  14461.33

     exc-cor stress (kbar)  -2967.86     -3.34      2.45
                               -3.34  -2975.73     -1.44
                                2.45     -1.44  -2972.23

     corecor stress (kbar)  -3282.46      1.12     -0.61
                                1.12  -3281.25      0.25
                               -0.61      0.25  -3281.45

     ewald   stress (kbar) -21037.01  -2619.74   3089.25
                            -2619.74 -20004.46  -1401.64
                             3089.25  -1401.64 -22989.58

     hubbard stress (kbar)      0.00      0.00      0.00
                                0.00      0.00      0.00
                                0.00      0.00      0.00

     DFT-D   stress (kbar)      0.00      0.00      0.00
                                0.00      0.00      0.00
                                0.00      0.00      0.00

     XDM     stress (kbar)      0.00      0.00      0.00
                                0.00      0.00      0.00
                                0.00      0.00      0.00

     dft-nl  stress (kbar)      0.00      0.00      0.00
                                0.00      0.00      0.00
                                0.00      0.00      0.00

     TS-vdW  stress (kbar)      0.00      0.00      0.00
                                0.00      0.00      0.00
                                0.00      0.00      0.00



     init_run     :    275.99s CPU    289.08s WALL (       1 calls)
     electrons    :  21025.50s CPU  21798.17s WALL (       1 calls)
     forces       :    174.69s CPU    176.39s WALL (       1 calls)
     stress       :    787.99s CPU    793.47s WALL (       1 calls)

     Called by init_run:
     wfcinit      :    262.27s CPU    274.17s WALL (       1 calls)
     wfcinit:atom :      4.05s CPU      4.11s WALL (     316 calls)
     wfcinit:wfcr :    245.97s CPU    257.63s WALL (     316 calls)
     potinit      :      5.31s CPU      5.58s WALL (       1 calls)
     hinit0       :      5.59s CPU      5.97s WALL (       1 calls)

     Called by electrons:
     c_bands      :  18720.24s CPU  19344.30s WALL (      30 calls)
     sum_band     :   2184.36s CPU   2313.36s WALL (      30 calls)
     v_of_rho     :     32.91s CPU     33.94s WALL (      31 calls)
     v_h          :      1.47s CPU      1.54s WALL (      31 calls)
     v_xc         :     33.47s CPU     34.48s WALL (      33 calls)
     newd         :     56.56s CPU     75.22s WALL (      31 calls)
     PAW_pot      :     25.27s CPU     25.43s WALL (      31 calls)
     mix_rho      :      6.83s CPU      7.07s WALL (      30 calls)

     Called by c_bands:
     init_us_2    :    243.05s CPU    246.62s WALL (   19908 calls)
     cegterg      :  18235.45s CPU  18854.02s WALL (    9480 calls)

     Called by sum_band:
     sum_band:wei :      0.47s CPU      0.47s WALL (      30 calls)
     sum_band:loo :   1993.72s CPU   2101.78s WALL (      30 calls)
     sum_band:buf :     66.45s CPU     67.22s WALL (    9480 calls)
     sum_band:ini :    117.13s CPU    118.65s WALL (    9480 calls)
     sum_band:cal :   1056.22s CPU   1061.12s WALL (    9480 calls)
     sum_band:bec :      3.92s CPU      3.99s WALL (    9480 calls)
     addusdens    :    183.84s CPU    204.58s WALL (      30 calls)
     addusd:skk   :      0.77s CPU      0.81s WALL (      90 calls)
     addusd:dgemm :     61.23s CPU     78.41s WALL (     180 calls)
     addusd:qvan2 :    119.70s CPU    120.50s WALL (     180 calls)

     Called by *egterg:
     cdiaghg      :    783.97s CPU    797.34s WALL (   35926 calls)
     cegterg:over :   1986.84s CPU   2003.15s WALL (   26446 calls)
     cegterg:upda :   1234.01s CPU   1238.15s WALL (   26446 calls)
     cegterg:last :   2291.18s CPU   2298.86s WALL (   15503 calls)
     h_psi        :   8504.01s CPU   9074.90s WALL (   36242 calls)
     s_psi        :   2439.37s CPU   2448.08s WALL (   36242 calls)
     g_psi        :     29.46s CPU     29.75s WALL (   26446 calls)

     Called by h_psi:
     h_psi:calbec :   2563.66s CPU   2578.66s WALL (   36242 calls)
     vloc_psi     :   3282.74s CPU   3827.64s WALL (   36242 calls)
     add_vuspsi   :   2506.92s CPU   2515.40s WALL (   36242 calls)

     General routines
     calbec       :   3800.40s CPU   3821.24s WALL (   47302 calls)
     fft          :     28.27s CPU     29.86s WALL (     813 calls)
     ffts         :      0.25s CPU      0.31s WALL (     122 calls)
     fftw         :   3733.52s CPU   4344.58s WALL ( 5924104 calls)
     interpolate  :      2.22s CPU      2.38s WALL (      62 calls)

     Parallel routines
     fft_scatt_xy :    348.46s CPU    413.54s WALL ( 5925039 calls)
     fft_scatt_yz :   1224.06s CPU   1459.91s WALL ( 5925039 calls)

     PAW routines
     PAW_pot      :     25.27s CPU     25.43s WALL (      31 calls)

     PWSCF        :      6h11m CPU      6h24m WALL


   This run was terminated on:  14:39:43  24Dec2022            

=------------------------------------------------------------------------------=
   JOB DONE.
=------------------------------------------------------------------------------=
Note: The following floating-point exceptions are signalling: IEEE_UNDERFLOW_FLAG IEEE_DENORMAL
Note: The following floating-point exceptions are signalling: IEEE_DENORMAL
Note: The following floating-point exceptions are signalling: IEEE_DENORMAL
Note: The following floating-point exceptions are signalling: IEEE_DENORMAL
Note: The following floating-point exceptions are signalling: IEEE_DENORMAL
Note: The following floating-point exceptions are signalling: IEEE_DENORMAL
Note: The following floating-point exceptions are signalling: IEEE_DENORMAL
Note: The following floating-point exceptions are signalling: IEEE_INVALID_FLAG IEEE_DENORMAL
