
     Program PWSCF v.6.7MaX starts on 24Dec2022 at  0:39:29 

     This program is part of the open-source Quantum ESPRESSO suite
     for quantum simulation of materials; please cite
         "P. Giannozzi et al., J. Phys.:Condens. Matter 21 395502 (2009);
         "P. Giannozzi et al., J. Phys.:Condens. Matter 29 465901 (2017);
          URL http://www.quantum-espresso.org", 
     in publications or presentations arising from this work. More details at
     http://www.quantum-espresso.org/quote

     Parallel version (MPI), running on    12 processors

     MPI processes distributed on     1 nodes
     R & G space division:  proc/nbgrp/npool/nimage =      12
     Reading input from scale_2dab-02.in

     Current dimensions of program PWSCF are:
     Max number of different atomic species (ntypx) = 10
     Max number of k-points (npk) =  40000
     Max angular momentum in pseudopotentials (lmaxx) =  3
     Message from routine read_pp_mesh:
     mesh size missing, using the one in header
     file Fe.pbe-spn-kjpaw_psl.0.2.1.UPF: wavefunction(s)  3D renormalized
     file O.pbe-n-kjpaw_psl.0.1.UPF: wavefunction(s)  2P renormalized

     Subspace diagonalization in iterative solution of the eigenvalue problem:
     a serial algorithm will be used


     Parallelization info
     --------------------
     sticks:   dense  smooth     PW     G-vecs:    dense   smooth      PW
     Min        1600     592    159               104339    23526    3313
     Max        1602     593    160               104340    23528    3316
     Sum       19211    7107   1919              1252071   282325   39769



     bravais-lattice index     =            0
     lattice parameter (alat)  =      19.3373  a.u.
     unit-cell volume          =    2088.9460 (a.u.)^3
     number of atoms/cell      =           25
     number of atomic types    =            4
     number of electrons       =       189.00
     number of Kohn-Sham states=          114
     kinetic-energy cutoff     =     100.0000  Ry
     charge density cutoff     =    1080.0000  Ry
     scf convergence threshold =      2.0E-10
     mixing beta               =       0.4000
     number of iterations used =            8  plain     mixing
     Exchange-correlation= PBE
                           (   1   4   3   4   0   0   0)

     celldm(1)=  19.337306  celldm(2)=   0.000000  celldm(3)=   0.000000
     celldm(4)=   0.000000  celldm(5)=   0.000000  celldm(6)=   0.000000

     crystal axes: (cart. coord. in units of alat)
               a(1) = (   1.000000   0.000000   0.000000 )  
               a(2) = (   0.000000   0.597590   0.000000 )  
               a(3) = (   0.000000   0.000000   0.483433 )  

     reciprocal axes: (cart. coord. in units 2 pi/alat)
               b(1) = (  1.000000  0.000000  0.000000 )  
               b(2) = (  0.000000  1.673388  0.000000 )  
               b(3) = (  0.000000  0.000000  2.068540 )  


     PseudoPot. # 1 for Fe read from file:
     /opt/QEpot/SSSP_precision_pseudos/Fe.pbe-spn-kjpaw_psl.0.2.1.UPF
     MD5 check sum: e86618425769142926afa95317d90200
     Pseudo is Projector augmented-wave + core cor, Zval = 16.0
     Generated using "atomic" code by A. Dal Corso  v.5.0.99 svn rev. 10869
     Shape of augmentation charge: PSQ
     Using radial grid of 1191 points,  6 beta functions with: 
                l(1) =   0
                l(2) =   0
                l(3) =   1
                l(4) =   1
                l(5) =   2
                l(6) =   2
     Q(r) pseudized with 0 coefficients 


     PseudoPot. # 2 for Na read from file:
     /opt/QEpot/SSSP_precision_pseudos/Na_ONCV_PBE-1.0.oncvpsp.upf
     MD5 check sum: 24a298df0a6742ae313db96548fdb2a4
     Pseudo is Norm-conserving, Zval =  9.0
     Generated using ONCVPSP code by D. R. Hamann
     Using radial grid of 1992 points,  4 beta functions with: 
                l(1) =   0
                l(2) =   0
                l(3) =   1
                l(4) =   1

     PseudoPot. # 3 for O  read from file:
     /opt/QEpot/SSSP_precision_pseudos/O.pbe-n-kjpaw_psl.0.1.UPF
     MD5 check sum: 0234752ac141de4415c5fc33072bef88
     Pseudo is Projector augmented-wave + core cor, Zval =  6.0
     Generated using "atomic" code by A. Dal Corso  v.5.0.99 svn rev. 10869
     Shape of augmentation charge: BESSEL
     Using radial grid of 1095 points,  4 beta functions with: 
                l(1) =   0
                l(2) =   0
                l(3) =   1
                l(4) =   1
     Q(r) pseudized with 0 coefficients 


     PseudoPot. # 4 for P  read from file:
     /opt/QEpot/SSSP_precision_pseudos/P.pbe-n-rrkjus_psl.1.0.0.UPF
     MD5 check sum: 8b930f418f0a4573dca56cd030ffe088
     Pseudo is Ultrasoft + core correction, Zval =  5.0
     Generated using "atomic" code by A. Dal Corso  v.5.1
     Using radial grid of 1147 points,  6 beta functions with: 
                l(1) =   0
                l(2) =   0
                l(3) =   1
                l(4) =   1
                l(5) =   2
                l(6) =   2
     Q(r) pseudized with 0 coefficients 


     atomic species   valence    mass     pseudopotential
        Fe            16.00    55.84500     Fe( 1.00)
        Na             9.00    22.98977     Na( 1.00)
        O              6.00    15.99940     O ( 1.00)
        P              5.00    30.97376     P ( 1.00)

     Starting magnetic structure 
     atomic species   magnetization
        Fe           0.312
        Na           0.000
        O            0.000
        P            0.000

     No symmetry found


                                    s                        frac. trans.

      isym =  1     identity                                     

 cryst.   s( 1) = (     1          0          0      )
                  (     0          1          0      )
                  (     0          0          1      )

 cart.    s( 1) = (  1.0000000  0.0000000  0.0000000 )
                  (  0.0000000  1.0000000  0.0000000 )
                  (  0.0000000  0.0000000  1.0000000 )


   Cartesian axes

     site n.     atom                  positions (alat units)
         1           Na  tau(   1) = (   0.0115800   0.0456726   0.0424028  )
         2           Fe  tau(   2) = (   0.2913450   0.4565557   0.4509306  )
         3           Fe  tau(   3) = (   0.2201160   0.1701249   0.2527928  )
         4           Fe  tau(   4) = (   0.7060870   0.1381024   0.0466730  )
         5           Fe  tau(   5) = (   0.7822730   0.4331541   0.2522465  )
         6           P   tau(   6) = (   0.0983660   0.4262256   0.1923724  )
         7           P   tau(   7) = (   0.3920650   0.1500871   0.4636738  )
         8           P   tau(   8) = (   0.8987800   0.1640050   0.3052032  )
         9           P   tau(   9) = (   0.6075130   0.4445597   0.0391726  )
        10           O   tau(  10) = (   0.1414110   0.4366106   0.3363681  )
        11           O   tau(  11) = (   0.3553680   0.1477290   0.1254049  )
        12           O   tau(  12) = (   0.8583390   0.1502281   0.1608410  )
        13           O   tau(  13) = (   0.6447440   0.4487153   0.3773724  )
        14           O   tau(  14) = (   0.4604880   0.4456162   0.0548208  )
        15           O   tau(  15) = (   0.0440330   0.1281012   0.3216157  )
        16           O   tau(  16) = (   0.5386000   0.1480720   0.4453421  )
        17           O   tau(  17) = (   0.9551650   0.4673183   0.1749398  )
        18           O   tau(  18) = (   0.1816090   0.5229868   0.1093051  )
        19           O   tau(  19) = (   0.3245340   0.0377498   0.3848588  )
        20           O   tau(  20) = (   0.8658190   0.2991631   0.3585625  )
        21           O   tau(  21) = (   0.6737520   0.3275671   0.1131663  )
        22           O   tau(  22) = (   0.8208630   0.0659942   0.3913117  )
        23           O   tau(  23) = (   0.6725030   0.5584645   0.1183424  )
        24           O   tau(  24) = (   0.1268440   0.2902936   0.1361438  )
        25           O   tau(  25) = (   0.3278730   0.2680173   0.3892508  )

   Crystallographic axes

     site n.     atom                  positions (cryst. coord.)
         1           Na  tau(   1) = (  0.0115800  0.0764280  0.0877120  )
         2           Fe  tau(   2) = (  0.2913450  0.7639950  0.9327680  )
         3           Fe  tau(   3) = (  0.2201160  0.2846850  0.5229120  )
         4           Fe  tau(   4) = (  0.7060870  0.2310990  0.0965450  )
         5           Fe  tau(   5) = (  0.7822730  0.7248350  0.5217820  )
         6           P   tau(   6) = (  0.0983660  0.7132410  0.3979300  )
         7           P   tau(   7) = (  0.3920650  0.2511540  0.9591280  )
         8           P   tau(   8) = (  0.8987800  0.2744440  0.6313250  )
         9           P   tau(   9) = (  0.6075130  0.7439210  0.0810300  )
        10           O   tau(  10) = (  0.1414110  0.7306190  0.6957910  )
        11           O   tau(  11) = (  0.3553680  0.2472080  0.2594050  )
        12           O   tau(  12) = (  0.8583390  0.2513900  0.3327060  )
        13           O   tau(  13) = (  0.6447440  0.7508750  0.7806100  )
        14           O   tau(  14) = (  0.4604880  0.7456890  0.1133990  )
        15           O   tau(  15) = (  0.0440330  0.2143630  0.6652750  )
        16           O   tau(  16) = (  0.5386000  0.2477820  0.9212080  )
        17           O   tau(  17) = (  0.9551650  0.7820050  0.3618700  )
        18           O   tau(  18) = (  0.1816090  0.8751600  0.2261020  )
        19           O   tau(  19) = (  0.3245340  0.0631700  0.7960960  )
        20           O   tau(  20) = (  0.8658190  0.5006160  0.7417010  )
        21           O   tau(  21) = (  0.6737520  0.5481470  0.2340890  )
        22           O   tau(  22) = (  0.8208630  0.1104340  0.8094440  )
        23           O   tau(  23) = (  0.6725030  0.9345280  0.2447960  )
        24           O   tau(  24) = (  0.1268440  0.4857740  0.2816190  )
        25           O   tau(  25) = (  0.3278730  0.4484970  0.8051810  )

     number of k points=   158  Marzari-Vanderbilt smearing, width (Ry)=  0.0073
                       cart. coord. in units 2pi/alat
        k(    1) = (   0.0000000   0.0000000   0.0000000), wk =   0.0031746
        k(    2) = (   0.0000000   0.0000000   0.2298378), wk =   0.0063492
        k(    3) = (   0.0000000   0.0000000   0.4596756), wk =   0.0063492
        k(    4) = (   0.0000000   0.0000000   0.6895134), wk =   0.0063492
        k(    5) = (   0.0000000   0.0000000   0.9193512), wk =   0.0063492
        k(    6) = (   0.0000000   0.2390555   0.0000000), wk =   0.0063492
        k(    7) = (   0.0000000   0.2390555   0.2298378), wk =   0.0063492
        k(    8) = (   0.0000000   0.2390555   0.4596756), wk =   0.0063492
        k(    9) = (   0.0000000   0.2390555   0.6895134), wk =   0.0063492
        k(   10) = (   0.0000000   0.2390555   0.9193512), wk =   0.0063492
        k(   11) = (   0.0000000   0.4781110   0.0000000), wk =   0.0063492
        k(   12) = (   0.0000000   0.4781110   0.2298378), wk =   0.0063492
        k(   13) = (   0.0000000   0.4781110   0.4596756), wk =   0.0063492
        k(   14) = (   0.0000000   0.4781110   0.6895134), wk =   0.0063492
        k(   15) = (   0.0000000   0.4781110   0.9193512), wk =   0.0063492
        k(   16) = (   0.0000000   0.7171664   0.0000000), wk =   0.0063492
        k(   17) = (   0.0000000   0.7171664   0.2298378), wk =   0.0063492
        k(   18) = (   0.0000000   0.7171664   0.4596756), wk =   0.0063492
        k(   19) = (   0.0000000   0.7171664   0.6895134), wk =   0.0063492
        k(   20) = (   0.0000000   0.7171664   0.9193512), wk =   0.0063492
        k(   21) = (   0.2000000   0.0000000   0.0000000), wk =   0.0063492
        k(   22) = (   0.2000000   0.0000000   0.2298378), wk =   0.0063492
        k(   23) = (   0.2000000   0.0000000   0.4596756), wk =   0.0063492
        k(   24) = (   0.2000000   0.0000000   0.6895134), wk =   0.0063492
        k(   25) = (   0.2000000   0.0000000   0.9193512), wk =   0.0063492
        k(   26) = (   0.2000000   0.2390555   0.0000000), wk =   0.0063492
        k(   27) = (   0.2000000   0.2390555   0.2298378), wk =   0.0063492
        k(   28) = (   0.2000000   0.2390555   0.4596756), wk =   0.0063492
        k(   29) = (   0.2000000   0.2390555   0.6895134), wk =   0.0063492
        k(   30) = (   0.2000000   0.2390555   0.9193512), wk =   0.0063492
        k(   31) = (   0.2000000   0.4781110   0.0000000), wk =   0.0063492
        k(   32) = (   0.2000000   0.4781110   0.2298378), wk =   0.0063492
        k(   33) = (   0.2000000   0.4781110   0.4596756), wk =   0.0063492
        k(   34) = (   0.2000000   0.4781110   0.6895134), wk =   0.0063492
        k(   35) = (   0.2000000   0.4781110   0.9193512), wk =   0.0063492
        k(   36) = (   0.2000000   0.7171664   0.0000000), wk =   0.0063492
        k(   37) = (   0.2000000   0.7171664   0.2298378), wk =   0.0063492
        k(   38) = (   0.2000000   0.7171664   0.4596756), wk =   0.0063492
        k(   39) = (   0.2000000   0.7171664   0.6895134), wk =   0.0063492
        k(   40) = (   0.2000000   0.7171664   0.9193512), wk =   0.0063492
        k(   41) = (   0.4000000   0.0000000   0.0000000), wk =   0.0063492
        k(   42) = (   0.4000000   0.0000000   0.2298378), wk =   0.0063492
        k(   43) = (   0.4000000   0.0000000   0.4596756), wk =   0.0063492
        k(   44) = (   0.4000000   0.0000000   0.6895134), wk =   0.0063492
        k(   45) = (   0.4000000   0.0000000   0.9193512), wk =   0.0063492
        k(   46) = (   0.4000000   0.2390555   0.0000000), wk =   0.0063492
        k(   47) = (   0.4000000   0.2390555   0.2298378), wk =   0.0063492
        k(   48) = (   0.4000000   0.2390555   0.4596756), wk =   0.0063492
        k(   49) = (   0.4000000   0.2390555   0.6895134), wk =   0.0063492
        k(   50) = (   0.4000000   0.2390555   0.9193512), wk =   0.0063492
        k(   51) = (   0.4000000   0.4781110   0.0000000), wk =   0.0063492
        k(   52) = (   0.4000000   0.4781110   0.2298378), wk =   0.0063492
        k(   53) = (   0.4000000   0.4781110   0.4596756), wk =   0.0063492
        k(   54) = (   0.4000000   0.4781110   0.6895134), wk =   0.0063492
        k(   55) = (   0.4000000   0.4781110   0.9193512), wk =   0.0063492
        k(   56) = (   0.4000000   0.7171664   0.0000000), wk =   0.0063492
        k(   57) = (   0.4000000   0.7171664   0.2298378), wk =   0.0063492
        k(   58) = (   0.4000000   0.7171664   0.4596756), wk =   0.0063492
        k(   59) = (   0.4000000   0.7171664   0.6895134), wk =   0.0063492
        k(   60) = (   0.4000000   0.7171664   0.9193512), wk =   0.0063492
        k(   61) = (   0.0000000  -0.2390555   0.2298378), wk =   0.0063492
        k(   62) = (   0.0000000  -0.2390555   0.4596756), wk =   0.0063492
        k(   63) = (   0.0000000  -0.2390555   0.6895134), wk =   0.0063492
        k(   64) = (   0.0000000  -0.2390555   0.9193512), wk =   0.0063492
        k(   65) = (   0.0000000  -0.4781110   0.2298378), wk =   0.0063492
        k(   66) = (   0.0000000  -0.4781110   0.4596756), wk =   0.0063492
        k(   67) = (   0.0000000  -0.4781110   0.6895134), wk =   0.0063492
        k(   68) = (   0.0000000  -0.4781110   0.9193512), wk =   0.0063492
        k(   69) = (   0.0000000  -0.7171664   0.2298378), wk =   0.0063492
        k(   70) = (   0.0000000  -0.7171664   0.4596756), wk =   0.0063492
        k(   71) = (   0.0000000  -0.7171664   0.6895134), wk =   0.0063492
        k(   72) = (   0.0000000  -0.7171664   0.9193512), wk =   0.0063492
        k(   73) = (  -0.2000000   0.0000000   0.2298378), wk =   0.0063492
        k(   74) = (  -0.2000000   0.0000000   0.4596756), wk =   0.0063492
        k(   75) = (  -0.2000000   0.0000000   0.6895134), wk =   0.0063492
        k(   76) = (  -0.2000000   0.0000000   0.9193512), wk =   0.0063492
        k(   77) = (  -0.2000000   0.2390555   0.0000000), wk =   0.0063492
        k(   78) = (  -0.2000000  -0.2390555   0.2298378), wk =   0.0063492
        k(   79) = (  -0.2000000   0.2390555  -0.2298378), wk =   0.0063492
        k(   80) = (   0.2000000  -0.2390555  -0.2298378), wk =   0.0063492
        k(   81) = (  -0.2000000  -0.2390555   0.4596756), wk =   0.0063492
        k(   82) = (  -0.2000000   0.2390555  -0.4596756), wk =   0.0063492
        k(   83) = (   0.2000000  -0.2390555  -0.4596756), wk =   0.0063492
        k(   84) = (  -0.2000000  -0.2390555   0.6895134), wk =   0.0063492
        k(   85) = (  -0.2000000   0.2390555  -0.6895134), wk =   0.0063492
        k(   86) = (   0.2000000  -0.2390555  -0.6895134), wk =   0.0063492
        k(   87) = (  -0.2000000  -0.2390555   0.9193512), wk =   0.0063492
        k(   88) = (  -0.2000000   0.2390555  -0.9193512), wk =   0.0063492
        k(   89) = (   0.2000000  -0.2390555  -0.9193512), wk =   0.0063492
        k(   90) = (  -0.2000000   0.4781110   0.0000000), wk =   0.0063492
        k(   91) = (  -0.2000000  -0.4781110   0.2298378), wk =   0.0063492
        k(   92) = (  -0.2000000   0.4781110  -0.2298378), wk =   0.0063492
        k(   93) = (   0.2000000  -0.4781110  -0.2298378), wk =   0.0063492
        k(   94) = (  -0.2000000  -0.4781110   0.4596756), wk =   0.0063492
        k(   95) = (  -0.2000000   0.4781110  -0.4596756), wk =   0.0063492
        k(   96) = (   0.2000000  -0.4781110  -0.4596756), wk =   0.0063492
        k(   97) = (  -0.2000000  -0.4781110   0.6895134), wk =   0.0063492
        k(   98) = (  -0.2000000   0.4781110  -0.6895134), wk =   0.0063492
        k(   99) = (   0.2000000  -0.4781110  -0.6895134), wk =   0.0063492
        k(  100) = (  -0.2000000  -0.4781110   0.9193512), wk =   0.0063492
        k(  101) = (  -0.2000000   0.4781110  -0.9193512), wk =   0.0063492
        k(  102) = (   0.2000000  -0.4781110  -0.9193512), wk =   0.0063492
        k(  103) = (  -0.2000000   0.7171664   0.0000000), wk =   0.0063492
        k(  104) = (  -0.2000000  -0.7171664   0.2298378), wk =   0.0063492
        k(  105) = (  -0.2000000   0.7171664  -0.2298378), wk =   0.0063492
        k(  106) = (   0.2000000  -0.7171664  -0.2298378), wk =   0.0063492
        k(  107) = (  -0.2000000  -0.7171664   0.4596756), wk =   0.0063492
        k(  108) = (  -0.2000000   0.7171664  -0.4596756), wk =   0.0063492
        k(  109) = (   0.2000000  -0.7171664  -0.4596756), wk =   0.0063492
        k(  110) = (  -0.2000000  -0.7171664   0.6895134), wk =   0.0063492
        k(  111) = (  -0.2000000   0.7171664  -0.6895134), wk =   0.0063492
        k(  112) = (   0.2000000  -0.7171664  -0.6895134), wk =   0.0063492
        k(  113) = (  -0.2000000  -0.7171664   0.9193512), wk =   0.0063492
        k(  114) = (  -0.2000000   0.7171664  -0.9193512), wk =   0.0063492
        k(  115) = (   0.2000000  -0.7171664  -0.9193512), wk =   0.0063492
        k(  116) = (  -0.4000000   0.0000000   0.2298378), wk =   0.0063492
        k(  117) = (  -0.4000000   0.0000000   0.4596756), wk =   0.0063492
        k(  118) = (  -0.4000000   0.0000000   0.6895134), wk =   0.0063492
        k(  119) = (  -0.4000000   0.0000000   0.9193512), wk =   0.0063492
        k(  120) = (  -0.4000000   0.2390555   0.0000000), wk =   0.0063492
        k(  121) = (  -0.4000000  -0.2390555   0.2298378), wk =   0.0063492
        k(  122) = (  -0.4000000   0.2390555  -0.2298378), wk =   0.0063492
        k(  123) = (   0.4000000  -0.2390555  -0.2298378), wk =   0.0063492
        k(  124) = (  -0.4000000  -0.2390555   0.4596756), wk =   0.0063492
        k(  125) = (  -0.4000000   0.2390555  -0.4596756), wk =   0.0063492
        k(  126) = (   0.4000000  -0.2390555  -0.4596756), wk =   0.0063492
        k(  127) = (  -0.4000000  -0.2390555   0.6895134), wk =   0.0063492
        k(  128) = (  -0.4000000   0.2390555  -0.6895134), wk =   0.0063492
        k(  129) = (   0.4000000  -0.2390555  -0.6895134), wk =   0.0063492
        k(  130) = (  -0.4000000  -0.2390555   0.9193512), wk =   0.0063492
        k(  131) = (  -0.4000000   0.2390555  -0.9193512), wk =   0.0063492
        k(  132) = (   0.4000000  -0.2390555  -0.9193512), wk =   0.0063492
        k(  133) = (  -0.4000000   0.4781110   0.0000000), wk =   0.0063492
        k(  134) = (  -0.4000000  -0.4781110   0.2298378), wk =   0.0063492
        k(  135) = (  -0.4000000   0.4781110  -0.2298378), wk =   0.0063492
        k(  136) = (   0.4000000  -0.4781110  -0.2298378), wk =   0.0063492
        k(  137) = (  -0.4000000  -0.4781110   0.4596756), wk =   0.0063492
        k(  138) = (  -0.4000000   0.4781110  -0.4596756), wk =   0.0063492
        k(  139) = (   0.4000000  -0.4781110  -0.4596756), wk =   0.0063492
        k(  140) = (  -0.4000000  -0.4781110   0.6895134), wk =   0.0063492
        k(  141) = (  -0.4000000   0.4781110  -0.6895134), wk =   0.0063492
        k(  142) = (   0.4000000  -0.4781110  -0.6895134), wk =   0.0063492
        k(  143) = (  -0.4000000  -0.4781110   0.9193512), wk =   0.0063492
        k(  144) = (  -0.4000000   0.4781110  -0.9193512), wk =   0.0063492
        k(  145) = (   0.4000000  -0.4781110  -0.9193512), wk =   0.0063492
        k(  146) = (  -0.4000000   0.7171664   0.0000000), wk =   0.0063492
        k(  147) = (  -0.4000000  -0.7171664   0.2298378), wk =   0.0063492
        k(  148) = (  -0.4000000   0.7171664  -0.2298378), wk =   0.0063492
        k(  149) = (   0.4000000  -0.7171664  -0.2298378), wk =   0.0063492
        k(  150) = (  -0.4000000  -0.7171664   0.4596756), wk =   0.0063492
        k(  151) = (  -0.4000000   0.7171664  -0.4596756), wk =   0.0063492
        k(  152) = (   0.4000000  -0.7171664  -0.4596756), wk =   0.0063492
        k(  153) = (  -0.4000000  -0.7171664   0.6895134), wk =   0.0063492
        k(  154) = (  -0.4000000   0.7171664  -0.6895134), wk =   0.0063492
        k(  155) = (   0.4000000  -0.7171664  -0.6895134), wk =   0.0063492
        k(  156) = (  -0.4000000  -0.7171664   0.9193512), wk =   0.0063492
        k(  157) = (  -0.4000000   0.7171664  -0.9193512), wk =   0.0063492
        k(  158) = (   0.4000000  -0.7171664  -0.9193512), wk =   0.0063492

                       cryst. coord.
        k(    1) = (   0.0000000   0.0000000   0.0000000), wk =   0.0031746
        k(    2) = (   0.0000000   0.0000000   0.1111111), wk =   0.0063492
        k(    3) = (   0.0000000   0.0000000   0.2222222), wk =   0.0063492
        k(    4) = (   0.0000000   0.0000000   0.3333333), wk =   0.0063492
        k(    5) = (   0.0000000   0.0000000   0.4444444), wk =   0.0063492
        k(    6) = (   0.0000000   0.1428571   0.0000000), wk =   0.0063492
        k(    7) = (   0.0000000   0.1428571   0.1111111), wk =   0.0063492
        k(    8) = (   0.0000000   0.1428571   0.2222222), wk =   0.0063492
        k(    9) = (   0.0000000   0.1428571   0.3333333), wk =   0.0063492
        k(   10) = (   0.0000000   0.1428571   0.4444444), wk =   0.0063492
        k(   11) = (   0.0000000   0.2857143   0.0000000), wk =   0.0063492
        k(   12) = (   0.0000000   0.2857143   0.1111111), wk =   0.0063492
        k(   13) = (   0.0000000   0.2857143   0.2222222), wk =   0.0063492
        k(   14) = (   0.0000000   0.2857143   0.3333333), wk =   0.0063492
        k(   15) = (   0.0000000   0.2857143   0.4444444), wk =   0.0063492
        k(   16) = (   0.0000000   0.4285714   0.0000000), wk =   0.0063492
        k(   17) = (   0.0000000   0.4285714   0.1111111), wk =   0.0063492
        k(   18) = (   0.0000000   0.4285714   0.2222222), wk =   0.0063492
        k(   19) = (   0.0000000   0.4285714   0.3333333), wk =   0.0063492
        k(   20) = (   0.0000000   0.4285714   0.4444444), wk =   0.0063492
        k(   21) = (   0.2000000   0.0000000   0.0000000), wk =   0.0063492
        k(   22) = (   0.2000000   0.0000000   0.1111111), wk =   0.0063492
        k(   23) = (   0.2000000   0.0000000   0.2222222), wk =   0.0063492
        k(   24) = (   0.2000000   0.0000000   0.3333333), wk =   0.0063492
        k(   25) = (   0.2000000   0.0000000   0.4444444), wk =   0.0063492
        k(   26) = (   0.2000000   0.1428571   0.0000000), wk =   0.0063492
        k(   27) = (   0.2000000   0.1428571   0.1111111), wk =   0.0063492
        k(   28) = (   0.2000000   0.1428571   0.2222222), wk =   0.0063492
        k(   29) = (   0.2000000   0.1428571   0.3333333), wk =   0.0063492
        k(   30) = (   0.2000000   0.1428571   0.4444444), wk =   0.0063492
        k(   31) = (   0.2000000   0.2857143   0.0000000), wk =   0.0063492
        k(   32) = (   0.2000000   0.2857143   0.1111111), wk =   0.0063492
        k(   33) = (   0.2000000   0.2857143   0.2222222), wk =   0.0063492
        k(   34) = (   0.2000000   0.2857143   0.3333333), wk =   0.0063492
        k(   35) = (   0.2000000   0.2857143   0.4444444), wk =   0.0063492
        k(   36) = (   0.2000000   0.4285714   0.0000000), wk =   0.0063492
        k(   37) = (   0.2000000   0.4285714   0.1111111), wk =   0.0063492
        k(   38) = (   0.2000000   0.4285714   0.2222222), wk =   0.0063492
        k(   39) = (   0.2000000   0.4285714   0.3333333), wk =   0.0063492
        k(   40) = (   0.2000000   0.4285714   0.4444444), wk =   0.0063492
        k(   41) = (   0.4000000   0.0000000   0.0000000), wk =   0.0063492
        k(   42) = (   0.4000000   0.0000000   0.1111111), wk =   0.0063492
        k(   43) = (   0.4000000   0.0000000   0.2222222), wk =   0.0063492
        k(   44) = (   0.4000000   0.0000000   0.3333333), wk =   0.0063492
        k(   45) = (   0.4000000   0.0000000   0.4444444), wk =   0.0063492
        k(   46) = (   0.4000000   0.1428571   0.0000000), wk =   0.0063492
        k(   47) = (   0.4000000   0.1428571   0.1111111), wk =   0.0063492
        k(   48) = (   0.4000000   0.1428571   0.2222222), wk =   0.0063492
        k(   49) = (   0.4000000   0.1428571   0.3333333), wk =   0.0063492
        k(   50) = (   0.4000000   0.1428571   0.4444444), wk =   0.0063492
        k(   51) = (   0.4000000   0.2857143   0.0000000), wk =   0.0063492
        k(   52) = (   0.4000000   0.2857143   0.1111111), wk =   0.0063492
        k(   53) = (   0.4000000   0.2857143   0.2222222), wk =   0.0063492
        k(   54) = (   0.4000000   0.2857143   0.3333333), wk =   0.0063492
        k(   55) = (   0.4000000   0.2857143   0.4444444), wk =   0.0063492
        k(   56) = (   0.4000000   0.4285714   0.0000000), wk =   0.0063492
        k(   57) = (   0.4000000   0.4285714   0.1111111), wk =   0.0063492
        k(   58) = (   0.4000000   0.4285714   0.2222222), wk =   0.0063492
        k(   59) = (   0.4000000   0.4285714   0.3333333), wk =   0.0063492
        k(   60) = (   0.4000000   0.4285714   0.4444444), wk =   0.0063492
        k(   61) = (   0.0000000  -0.1428571   0.1111111), wk =   0.0063492
        k(   62) = (   0.0000000  -0.1428571   0.2222222), wk =   0.0063492
        k(   63) = (   0.0000000  -0.1428571   0.3333333), wk =   0.0063492
        k(   64) = (   0.0000000  -0.1428571   0.4444444), wk =   0.0063492
        k(   65) = (   0.0000000  -0.2857143   0.1111111), wk =   0.0063492
        k(   66) = (   0.0000000  -0.2857143   0.2222222), wk =   0.0063492
        k(   67) = (   0.0000000  -0.2857143   0.3333333), wk =   0.0063492
        k(   68) = (   0.0000000  -0.2857143   0.4444444), wk =   0.0063492
        k(   69) = (   0.0000000  -0.4285714   0.1111111), wk =   0.0063492
        k(   70) = (   0.0000000  -0.4285714   0.2222222), wk =   0.0063492
        k(   71) = (   0.0000000  -0.4285714   0.3333333), wk =   0.0063492
        k(   72) = (   0.0000000  -0.4285714   0.4444444), wk =   0.0063492
        k(   73) = (  -0.2000000   0.0000000   0.1111111), wk =   0.0063492
        k(   74) = (  -0.2000000   0.0000000   0.2222222), wk =   0.0063492
        k(   75) = (  -0.2000000   0.0000000   0.3333333), wk =   0.0063492
        k(   76) = (  -0.2000000   0.0000000   0.4444444), wk =   0.0063492
        k(   77) = (  -0.2000000   0.1428571   0.0000000), wk =   0.0063492
        k(   78) = (  -0.2000000  -0.1428571   0.1111111), wk =   0.0063492
        k(   79) = (  -0.2000000   0.1428571  -0.1111111), wk =   0.0063492
        k(   80) = (   0.2000000  -0.1428571  -0.1111111), wk =   0.0063492
        k(   81) = (  -0.2000000  -0.1428571   0.2222222), wk =   0.0063492
        k(   82) = (  -0.2000000   0.1428571  -0.2222222), wk =   0.0063492
        k(   83) = (   0.2000000  -0.1428571  -0.2222222), wk =   0.0063492
        k(   84) = (  -0.2000000  -0.1428571   0.3333333), wk =   0.0063492
        k(   85) = (  -0.2000000   0.1428571  -0.3333333), wk =   0.0063492
        k(   86) = (   0.2000000  -0.1428571  -0.3333333), wk =   0.0063492
        k(   87) = (  -0.2000000  -0.1428571   0.4444444), wk =   0.0063492
        k(   88) = (  -0.2000000   0.1428571  -0.4444444), wk =   0.0063492
        k(   89) = (   0.2000000  -0.1428571  -0.4444444), wk =   0.0063492
        k(   90) = (  -0.2000000   0.2857143   0.0000000), wk =   0.0063492
        k(   91) = (  -0.2000000  -0.2857143   0.1111111), wk =   0.0063492
        k(   92) = (  -0.2000000   0.2857143  -0.1111111), wk =   0.0063492
        k(   93) = (   0.2000000  -0.2857143  -0.1111111), wk =   0.0063492
        k(   94) = (  -0.2000000  -0.2857143   0.2222222), wk =   0.0063492
        k(   95) = (  -0.2000000   0.2857143  -0.2222222), wk =   0.0063492
        k(   96) = (   0.2000000  -0.2857143  -0.2222222), wk =   0.0063492
        k(   97) = (  -0.2000000  -0.2857143   0.3333333), wk =   0.0063492
        k(   98) = (  -0.2000000   0.2857143  -0.3333333), wk =   0.0063492
        k(   99) = (   0.2000000  -0.2857143  -0.3333333), wk =   0.0063492
        k(  100) = (  -0.2000000  -0.2857143   0.4444444), wk =   0.0063492
        k(  101) = (  -0.2000000   0.2857143  -0.4444444), wk =   0.0063492
        k(  102) = (   0.2000000  -0.2857143  -0.4444444), wk =   0.0063492
        k(  103) = (  -0.2000000   0.4285714   0.0000000), wk =   0.0063492
        k(  104) = (  -0.2000000  -0.4285714   0.1111111), wk =   0.0063492
        k(  105) = (  -0.2000000   0.4285714  -0.1111111), wk =   0.0063492
        k(  106) = (   0.2000000  -0.4285714  -0.1111111), wk =   0.0063492
        k(  107) = (  -0.2000000  -0.4285714   0.2222222), wk =   0.0063492
        k(  108) = (  -0.2000000   0.4285714  -0.2222222), wk =   0.0063492
        k(  109) = (   0.2000000  -0.4285714  -0.2222222), wk =   0.0063492
        k(  110) = (  -0.2000000  -0.4285714   0.3333333), wk =   0.0063492
        k(  111) = (  -0.2000000   0.4285714  -0.3333333), wk =   0.0063492
        k(  112) = (   0.2000000  -0.4285714  -0.3333333), wk =   0.0063492
        k(  113) = (  -0.2000000  -0.4285714   0.4444444), wk =   0.0063492
        k(  114) = (  -0.2000000   0.4285714  -0.4444444), wk =   0.0063492
        k(  115) = (   0.2000000  -0.4285714  -0.4444444), wk =   0.0063492
        k(  116) = (  -0.4000000   0.0000000   0.1111111), wk =   0.0063492
        k(  117) = (  -0.4000000   0.0000000   0.2222222), wk =   0.0063492
        k(  118) = (  -0.4000000   0.0000000   0.3333333), wk =   0.0063492
        k(  119) = (  -0.4000000   0.0000000   0.4444444), wk =   0.0063492
        k(  120) = (  -0.4000000   0.1428571   0.0000000), wk =   0.0063492
        k(  121) = (  -0.4000000  -0.1428571   0.1111111), wk =   0.0063492
        k(  122) = (  -0.4000000   0.1428571  -0.1111111), wk =   0.0063492
        k(  123) = (   0.4000000  -0.1428571  -0.1111111), wk =   0.0063492
        k(  124) = (  -0.4000000  -0.1428571   0.2222222), wk =   0.0063492
        k(  125) = (  -0.4000000   0.1428571  -0.2222222), wk =   0.0063492
        k(  126) = (   0.4000000  -0.1428571  -0.2222222), wk =   0.0063492
        k(  127) = (  -0.4000000  -0.1428571   0.3333333), wk =   0.0063492
        k(  128) = (  -0.4000000   0.1428571  -0.3333333), wk =   0.0063492
        k(  129) = (   0.4000000  -0.1428571  -0.3333333), wk =   0.0063492
        k(  130) = (  -0.4000000  -0.1428571   0.4444444), wk =   0.0063492
        k(  131) = (  -0.4000000   0.1428571  -0.4444444), wk =   0.0063492
        k(  132) = (   0.4000000  -0.1428571  -0.4444444), wk =   0.0063492
        k(  133) = (  -0.4000000   0.2857143   0.0000000), wk =   0.0063492
        k(  134) = (  -0.4000000  -0.2857143   0.1111111), wk =   0.0063492
        k(  135) = (  -0.4000000   0.2857143  -0.1111111), wk =   0.0063492
        k(  136) = (   0.4000000  -0.2857143  -0.1111111), wk =   0.0063492
        k(  137) = (  -0.4000000  -0.2857143   0.2222222), wk =   0.0063492
        k(  138) = (  -0.4000000   0.2857143  -0.2222222), wk =   0.0063492
        k(  139) = (   0.4000000  -0.2857143  -0.2222222), wk =   0.0063492
        k(  140) = (  -0.4000000  -0.2857143   0.3333333), wk =   0.0063492
        k(  141) = (  -0.4000000   0.2857143  -0.3333333), wk =   0.0063492
        k(  142) = (   0.4000000  -0.2857143  -0.3333333), wk =   0.0063492
        k(  143) = (  -0.4000000  -0.2857143   0.4444444), wk =   0.0063492
        k(  144) = (  -0.4000000   0.2857143  -0.4444444), wk =   0.0063492
        k(  145) = (   0.4000000  -0.2857143  -0.4444444), wk =   0.0063492
        k(  146) = (  -0.4000000   0.4285714   0.0000000), wk =   0.0063492
        k(  147) = (  -0.4000000  -0.4285714   0.1111111), wk =   0.0063492
        k(  148) = (  -0.4000000   0.4285714  -0.1111111), wk =   0.0063492
        k(  149) = (   0.4000000  -0.4285714  -0.1111111), wk =   0.0063492
        k(  150) = (  -0.4000000  -0.4285714   0.2222222), wk =   0.0063492
        k(  151) = (  -0.4000000   0.4285714  -0.2222222), wk =   0.0063492
        k(  152) = (   0.4000000  -0.4285714  -0.2222222), wk =   0.0063492
        k(  153) = (  -0.4000000  -0.4285714   0.3333333), wk =   0.0063492
        k(  154) = (  -0.4000000   0.4285714  -0.3333333), wk =   0.0063492
        k(  155) = (   0.4000000  -0.4285714  -0.3333333), wk =   0.0063492
        k(  156) = (  -0.4000000  -0.4285714   0.4444444), wk =   0.0063492
        k(  157) = (  -0.4000000   0.4285714  -0.4444444), wk =   0.0063492
        k(  158) = (   0.4000000  -0.4285714  -0.4444444), wk =   0.0063492

     Dense  grid:  1252071 G-vectors     FFT dimensions: ( 216, 125, 100)

     Smooth grid:   282325 G-vectors     FFT dimensions: ( 125,  75,  60)

     Dynamical RAM for                 wfc:       5.11 MB

     Dynamical RAM for     wfc (w. buffer):    1620.63 MB

     Dynamical RAM for           str. fact:       6.37 MB

     Dynamical RAM for           local pot:       0.00 MB

     Dynamical RAM for          nlocal pot:      12.56 MB

     Dynamical RAM for                qrad:      10.54 MB

     Dynamical RAM for          rho,v,vnew:      20.68 MB

     Dynamical RAM for               rhoin:       6.89 MB

     Dynamical RAM for            rho*nmix:      50.95 MB

     Dynamical RAM for           G-vectors:       6.15 MB

     Dynamical RAM for          h,s,v(r/c):       2.38 MB

     Dynamical RAM for          <psi|beta>:       0.49 MB

     Dynamical RAM for                 psi:      10.22 MB

     Dynamical RAM for                hpsi:      10.22 MB

     Dynamical RAM for                spsi:      10.22 MB

     Dynamical RAM for      wfcinit/wfcrot:      12.72 MB

     Dynamical RAM for           addusdens:     323.20 MB

     Dynamical RAM for          addusforce:     371.09 MB

     Dynamical RAM for         addusstress:     322.40 MB

     Estimated static dynamical RAM per process >       1.71 GB

     Estimated max dynamical RAM per process >       2.08 GB

     Estimated total dynamical RAM >      24.90 GB

     Check: negative core charge=   -0.000003
     Generating pointlists ...
     new r_m :   0.0770 (alat units)  1.4883 (a.u.) for type    1
     new r_m :   0.0902 (alat units)  1.7449 (a.u.) for type    2
     new r_m :   0.0609 (alat units)  1.1781 (a.u.) for type    3
     new r_m :   0.0609 (alat units)  1.1781 (a.u.) for type    4

     Initial potential from superposition of free atoms

     starting charge  188.99132, renormalised to  189.00000
     Starting wfcs are  137 randomized atomic wfcs
     Checking if some PAW data can be deallocated... 
       PAW data deallocated on   10 nodes for type:  1
       PAW data deallocated on    4 nodes for type:  3

     total cpu time spent up to now is      343.8 secs

     Self-consistent Calculation

     iteration #  1     ecut=   100.00 Ry     beta= 0.40
     Davidson diagonalization with overlap
     ethr =  1.00E-02,  avg # of iterations =  3.0

     negative rho (up, down):  0.000E+00 7.062E-05

     total cpu time spent up to now is     1471.6 secs

     total energy              =   -2123.99899674 Ry
     estimated scf accuracy    <       6.83003498 Ry

     total magnetization       =    19.00 Bohr mag/cell
     absolute magnetization    =    19.00 Bohr mag/cell

     iteration #  2     ecut=   100.00 Ry     beta= 0.40
     Davidson diagonalization with overlap
     ethr =  3.61E-03,  avg # of iterations =  2.0

     negative rho (up, down):  0.000E+00 1.447E-05

     total cpu time spent up to now is     2471.1 secs

     total energy              =   -2121.83282813 Ry
     estimated scf accuracy    <      26.26492340 Ry

     total magnetization       =     9.47 Bohr mag/cell
     absolute magnetization    =    10.94 Bohr mag/cell

     iteration #  3     ecut=   100.00 Ry     beta= 0.40
     Davidson diagonalization with overlap
     ethr =  3.61E-03,  avg # of iterations =  2.7

     negative rho (up, down):  0.000E+00 7.419E-06

     total cpu time spent up to now is     3342.5 secs

     total energy              =   -2123.51188558 Ry
     estimated scf accuracy    <      66.27387415 Ry

     total magnetization       =     3.00 Bohr mag/cell
     absolute magnetization    =     5.62 Bohr mag/cell

     iteration #  4     ecut=   100.00 Ry     beta= 0.40
     Davidson diagonalization with overlap
     ethr =  3.61E-03,  avg # of iterations =  1.5

     negative rho (up, down):  0.000E+00 3.667E-06

     total cpu time spent up to now is     4162.8 secs

     total energy              =   -2124.68992340 Ry
     estimated scf accuracy    <      23.21058143 Ry

     total magnetization       =    10.30 Bohr mag/cell
     absolute magnetization    =    10.65 Bohr mag/cell

     iteration #  5     ecut=   100.00 Ry     beta= 0.40
     Davidson diagonalization with overlap
     ethr =  3.61E-03,  avg # of iterations =  1.8

     negative rho (up, down):  0.000E+00 5.264E-05

     total cpu time spent up to now is     4966.5 secs

     total energy              =   -2125.82819180 Ry
     estimated scf accuracy    <       5.02744722 Ry

     total magnetization       =    16.35 Bohr mag/cell
     absolute magnetization    =    16.43 Bohr mag/cell

     iteration #  6     ecut=   100.00 Ry     beta= 0.40
     Davidson diagonalization with overlap
     ethr =  2.66E-03,  avg # of iterations =  1.5

     negative rho (up, down):  0.000E+00 1.022E-04

     total cpu time spent up to now is     5726.3 secs

     total energy              =   -2125.93580969 Ry
     estimated scf accuracy    <       1.58458159 Ry

     total magnetization       =    17.56 Bohr mag/cell
     absolute magnetization    =    17.59 Bohr mag/cell

     iteration #  7     ecut=   100.00 Ry     beta= 0.40
     Davidson diagonalization with overlap
     ethr =  8.38E-04,  avg # of iterations =  1.5

     negative rho (up, down):  0.000E+00 1.977E-04

     total cpu time spent up to now is     6495.2 secs

     total energy              =   -2125.97805995 Ry
     estimated scf accuracy    <       2.34090338 Ry

     total magnetization       =    17.56 Bohr mag/cell
     absolute magnetization    =    17.59 Bohr mag/cell

     iteration #  8     ecut=   100.00 Ry     beta= 0.40
     Davidson diagonalization with overlap
     ethr =  8.38E-04,  avg # of iterations =  1.0

     negative rho (up, down):  0.000E+00 3.062E-04

     total cpu time spent up to now is     7204.9 secs

     total energy              =   -2126.08886563 Ry
     estimated scf accuracy    <       0.52456014 Ry

     total magnetization       =    19.00 Bohr mag/cell
     absolute magnetization    =    19.01 Bohr mag/cell

     iteration #  9     ecut=   100.00 Ry     beta= 0.40
     Davidson diagonalization with overlap
     ethr =  2.78E-04,  avg # of iterations =  1.7

     negative rho (up, down):  0.000E+00 4.640E-04

     total cpu time spent up to now is     7973.2 secs

     total energy              =   -2126.08980069 Ry
     estimated scf accuracy    <       0.16967397 Ry

     total magnetization       =    19.00 Bohr mag/cell
     absolute magnetization    =    19.00 Bohr mag/cell

     iteration # 10     ecut=   100.00 Ry     beta= 0.40
     Davidson diagonalization with overlap
     c_bands:  1 eigenvalues not converged
     c_bands:  1 eigenvalues not converged
     c_bands:  1 eigenvalues not converged
     c_bands:  1 eigenvalues not converged
     c_bands:  1 eigenvalues not converged
     c_bands:  1 eigenvalues not converged
     c_bands:  1 eigenvalues not converged
     c_bands:  1 eigenvalues not converged
     c_bands:  1 eigenvalues not converged
     c_bands:  1 eigenvalues not converged
     ethr =  8.98E-05,  avg # of iterations = 11.7

     negative rho (up, down):  0.000E+00 6.917E-04

     total cpu time spent up to now is     9273.6 secs

     total energy              =   -2126.09809046 Ry
     estimated scf accuracy    <       0.10070996 Ry

     total magnetization       =    19.00 Bohr mag/cell
     absolute magnetization    =    19.01 Bohr mag/cell

     iteration # 11     ecut=   100.00 Ry     beta= 0.40
     Davidson diagonalization with overlap
     c_bands:  1 eigenvalues not converged
     c_bands:  1 eigenvalues not converged
     c_bands:  1 eigenvalues not converged
     ethr =  5.33E-05,  avg # of iterations =  5.6

     negative rho (up, down):  0.000E+00 8.993E-04

     total cpu time spent up to now is    10248.2 secs

     total energy              =   -2126.10378763 Ry
     estimated scf accuracy    <       0.07860487 Ry

     total magnetization       =    19.00 Bohr mag/cell
     absolute magnetization    =    19.02 Bohr mag/cell

     iteration # 12     ecut=   100.00 Ry     beta= 0.40
     Davidson diagonalization with overlap
     ethr =  4.16E-05,  avg # of iterations =  1.4

     negative rho (up, down):  0.000E+00 8.487E-04

     total cpu time spent up to now is    10990.5 secs

     total energy              =   -2126.10227949 Ry
     estimated scf accuracy    <       0.11015483 Ry

     total magnetization       =    19.00 Bohr mag/cell
     absolute magnetization    =    19.03 Bohr mag/cell

     iteration # 13     ecut=   100.00 Ry     beta= 0.40
     Davidson diagonalization with overlap
     ethr =  4.16E-05,  avg # of iterations =  1.0

     negative rho (up, down):  0.000E+00 9.310E-04

     total cpu time spent up to now is    11697.4 secs

     total energy              =   -2126.10547044 Ry
     estimated scf accuracy    <       0.02842675 Ry

     total magnetization       =    19.00 Bohr mag/cell
     absolute magnetization    =    19.03 Bohr mag/cell

     iteration # 14     ecut=   100.00 Ry     beta= 0.40
     Davidson diagonalization with overlap
     c_bands:  1 eigenvalues not converged
     c_bands:  1 eigenvalues not converged
     c_bands:  1 eigenvalues not converged
     c_bands:  1 eigenvalues not converged
     c_bands:  1 eigenvalues not converged
     ethr =  1.50E-05,  avg # of iterations =  4.0

     negative rho (up, down):  0.000E+00 9.673E-04

     total cpu time spent up to now is    12565.0 secs

     total energy              =   -2126.10652914 Ry
     estimated scf accuracy    <       0.00444638 Ry

     total magnetization       =    19.00 Bohr mag/cell
     absolute magnetization    =    19.03 Bohr mag/cell

     iteration # 15     ecut=   100.00 Ry     beta= 0.40
     Davidson diagonalization with overlap
     c_bands:  1 eigenvalues not converged
     c_bands:  1 eigenvalues not converged
     c_bands:  1 eigenvalues not converged
     c_bands:  1 eigenvalues not converged
     c_bands:  1 eigenvalues not converged
     c_bands:  1 eigenvalues not converged
     c_bands:  1 eigenvalues not converged
     c_bands:  1 eigenvalues not converged
     c_bands:  1 eigenvalues not converged
     ethr =  2.35E-06,  avg # of iterations = 13.5

     negative rho (up, down):  0.000E+00 9.531E-04

     total cpu time spent up to now is    14098.9 secs

     total energy              =   -2126.10709508 Ry
     estimated scf accuracy    <       0.00195383 Ry

     total magnetization       =    19.00 Bohr mag/cell
     absolute magnetization    =    19.04 Bohr mag/cell

     iteration # 16     ecut=   100.00 Ry     beta= 0.40
     Davidson diagonalization with overlap
     ethr =  1.03E-06,  avg # of iterations =  1.8

     negative rho (up, down):  0.000E+00 9.417E-04

     total cpu time spent up to now is    14930.5 secs

     total energy              =   -2126.10724877 Ry
     estimated scf accuracy    <       0.00011447 Ry

     total magnetization       =    19.00 Bohr mag/cell
     absolute magnetization    =    19.04 Bohr mag/cell

     iteration # 17     ecut=   100.00 Ry     beta= 0.40
     Davidson diagonalization with overlap
     ethr =  6.06E-08,  avg # of iterations =  5.5

     negative rho (up, down):  0.000E+00 9.420E-04

     total cpu time spent up to now is    16597.8 secs

     total energy              =   -2126.10731676 Ry
     estimated scf accuracy    <       0.00071686 Ry

     total magnetization       =    19.00 Bohr mag/cell
     absolute magnetization    =    19.04 Bohr mag/cell

     iteration # 18     ecut=   100.00 Ry     beta= 0.40
     Davidson diagonalization with overlap
     ethr =  6.06E-08,  avg # of iterations =  1.0

     negative rho (up, down):  0.000E+00 9.363E-04

     total cpu time spent up to now is    17305.4 secs

     total energy              =   -2126.10732959 Ry
     estimated scf accuracy    <       0.00026648 Ry

     total magnetization       =    19.00 Bohr mag/cell
     absolute magnetization    =    19.04 Bohr mag/cell

     iteration # 19     ecut=   100.00 Ry     beta= 0.40
     Davidson diagonalization with overlap
     ethr =  6.06E-08,  avg # of iterations =  1.0

     negative rho (up, down):  0.000E+00 9.346E-04

     total cpu time spent up to now is    18020.8 secs

     total energy              =   -2126.10734195 Ry
     estimated scf accuracy    <       0.00001693 Ry

     total magnetization       =    19.00 Bohr mag/cell
     absolute magnetization    =    19.04 Bohr mag/cell

     iteration # 20     ecut=   100.00 Ry     beta= 0.40
     Davidson diagonalization with overlap
     ethr =  8.96E-09,  avg # of iterations =  1.0

     negative rho (up, down):  0.000E+00 9.345E-04

     total cpu time spent up to now is    18729.9 secs

     total energy              =   -2126.10734301 Ry
     estimated scf accuracy    <       0.00000528 Ry

     total magnetization       =    19.00 Bohr mag/cell
     absolute magnetization    =    19.04 Bohr mag/cell

     iteration # 21     ecut=   100.00 Ry     beta= 0.40
     Davidson diagonalization with overlap
     ethr =  2.79E-09,  avg # of iterations =  1.2

     negative rho (up, down):  0.000E+00 9.344E-04

     total cpu time spent up to now is    19477.4 secs

     total energy              =   -2126.10734343 Ry
     estimated scf accuracy    <       0.00000346 Ry

     total magnetization       =    19.00 Bohr mag/cell
     absolute magnetization    =    19.04 Bohr mag/cell

     iteration # 22     ecut=   100.00 Ry     beta= 0.40
     Davidson diagonalization with overlap
     ethr =  1.83E-09,  avg # of iterations =  1.1

     negative rho (up, down):  0.000E+00 9.350E-04

     total cpu time spent up to now is    20237.1 secs

     total energy              =   -2126.10734369 Ry
     estimated scf accuracy    <       0.00000061 Ry

     total magnetization       =    19.00 Bohr mag/cell
     absolute magnetization    =    19.04 Bohr mag/cell

     iteration # 23     ecut=   100.00 Ry     beta= 0.40
     Davidson diagonalization with overlap
     ethr =  3.23E-10,  avg # of iterations =  4.6

     negative rho (up, down):  0.000E+00 9.351E-04

     total cpu time spent up to now is    21611.6 secs

     total energy              =   -2126.10734395 Ry
     estimated scf accuracy    <       0.00000026 Ry

     total magnetization       =    19.00 Bohr mag/cell
     absolute magnetization    =    19.04 Bohr mag/cell

     iteration # 24     ecut=   100.00 Ry     beta= 0.40
     Davidson diagonalization with overlap
     ethr =  1.36E-10,  avg # of iterations =  2.1

     negative rho (up, down):  0.000E+00 9.352E-04

     total cpu time spent up to now is    22461.7 secs

     total energy              =   -2126.10734399 Ry
     estimated scf accuracy    <       0.00000005 Ry

     total magnetization       =    19.00 Bohr mag/cell
     absolute magnetization    =    19.04 Bohr mag/cell

     iteration # 25     ecut=   100.00 Ry     beta= 0.40
     Davidson diagonalization with overlap
     ethr =  2.83E-11,  avg # of iterations =  2.7

     negative rho (up, down):  0.000E+00 9.352E-04

     total cpu time spent up to now is    23382.1 secs

     total energy              =   -2126.10734401 Ry
     estimated scf accuracy    <       0.00000004 Ry

     total magnetization       =    19.00 Bohr mag/cell
     absolute magnetization    =    19.04 Bohr mag/cell

     iteration # 26     ecut=   100.00 Ry     beta= 0.40
     Davidson diagonalization with overlap
     ethr =  2.03E-11,  avg # of iterations =  1.4

     negative rho (up, down):  0.000E+00 9.352E-04

     total cpu time spent up to now is    24134.6 secs

     total energy              =   -2126.10734401 Ry
     estimated scf accuracy    <       0.00000001 Ry

     total magnetization       =    19.00 Bohr mag/cell
     absolute magnetization    =    19.04 Bohr mag/cell

     iteration # 27     ecut=   100.00 Ry     beta= 0.40
     Davidson diagonalization with overlap
     ethr =  5.72E-12,  avg # of iterations =  2.5

     negative rho (up, down):  0.000E+00 9.352E-04

     total cpu time spent up to now is    25082.3 secs

     total energy              =   -2126.10734402 Ry
     estimated scf accuracy    <       0.00000002 Ry

     total magnetization       =    19.00 Bohr mag/cell
     absolute magnetization    =    19.04 Bohr mag/cell

     iteration # 28     ecut=   100.00 Ry     beta= 0.40
     Davidson diagonalization with overlap
     ethr =  5.72E-12,  avg # of iterations =  2.0

     negative rho (up, down):  0.000E+00 9.351E-04

     total cpu time spent up to now is    25906.0 secs

     total energy              =   -2126.10734402 Ry
     estimated scf accuracy    <          5.9E-09 Ry

     total magnetization       =    19.00 Bohr mag/cell
     absolute magnetization    =    19.04 Bohr mag/cell

     iteration # 29     ecut=   100.00 Ry     beta= 0.40
     Davidson diagonalization with overlap
     ethr =  3.14E-12,  avg # of iterations =  2.0

     negative rho (up, down):  0.000E+00 9.351E-04

     total cpu time spent up to now is    26793.6 secs

     total energy              =   -2126.10734402 Ry
     estimated scf accuracy    <          3.0E-09 Ry

     total magnetization       =    19.00 Bohr mag/cell
     absolute magnetization    =    19.04 Bohr mag/cell

     iteration # 30     ecut=   100.00 Ry     beta= 0.40
     Davidson diagonalization with overlap
     ethr =  1.60E-12,  avg # of iterations =  1.7

     negative rho (up, down):  0.000E+00 9.351E-04

     total cpu time spent up to now is    27573.7 secs

     total energy              =   -2126.10734402 Ry
     estimated scf accuracy    <          6.7E-10 Ry

     total magnetization       =    19.00 Bohr mag/cell
     absolute magnetization    =    19.04 Bohr mag/cell

     iteration # 31     ecut=   100.00 Ry     beta= 0.40
     Davidson diagonalization with overlap
     ethr =  3.54E-13,  avg # of iterations =  3.2

     negative rho (up, down):  0.000E+00 9.352E-04

     total cpu time spent up to now is    28542.3 secs

     total energy              =   -2126.10734402 Ry
     estimated scf accuracy    <          2.8E-10 Ry

     total magnetization       =    19.00 Bohr mag/cell
     absolute magnetization    =    19.04 Bohr mag/cell

     iteration # 32     ecut=   100.00 Ry     beta= 0.40
     Davidson diagonalization with overlap
     ethr =  1.47E-13,  avg # of iterations =  2.4

     negative rho (up, down):  0.000E+00 9.352E-04

     Magnetic moment per site:
     atom:    1    charge:    7.9206    magn:    0.0016    constr:    0.0000
     atom:    2    charge:   12.8397    magn:    3.6599    constr:    0.0000
     atom:    3    charge:   12.8756    magn:    3.5532    constr:    0.0000
     atom:    4    charge:   12.8419    magn:    3.6523    constr:    0.0000
     atom:    5    charge:   12.8580    magn:    3.5991    constr:    0.0000
     atom:    6    charge:    0.8133    magn:    0.0113    constr:    0.0000
     atom:    7    charge:    0.8085    magn:    0.0129    constr:    0.0000
     atom:    8    charge:    0.8167    magn:    0.0110    constr:    0.0000
     atom:    9    charge:    0.8071    magn:    0.0123    constr:    0.0000
     atom:   10    charge:    4.1799    magn:    0.1198    constr:    0.0000
     atom:   11    charge:    4.1811    magn:    0.1103    constr:    0.0000
     atom:   12    charge:    4.1961    magn:    0.1004    constr:    0.0000
     atom:   13    charge:    4.1810    magn:    0.1159    constr:    0.0000
     atom:   14    charge:    4.1903    magn:    0.1176    constr:    0.0000
     atom:   15    charge:    4.1893    magn:    0.0925    constr:    0.0000
     atom:   16    charge:    4.1945    magn:    0.1208    constr:    0.0000
     atom:   17    charge:    4.1889    magn:    0.0984    constr:    0.0000
     atom:   18    charge:    4.1824    magn:    0.1277    constr:    0.0000
     atom:   19    charge:    4.1760    magn:    0.1444    constr:    0.0000
     atom:   20    charge:    4.1869    magn:    0.1157    constr:    0.0000
     atom:   21    charge:    4.1673    magn:    0.1496    constr:    0.0000
     atom:   22    charge:    4.1736    magn:    0.1275    constr:    0.0000
     atom:   23    charge:    4.1739    magn:    0.1500    constr:    0.0000
     atom:   24    charge:    4.1826    magn:    0.1086    constr:    0.0000
     atom:   25    charge:    4.1755    magn:    0.1501    constr:    0.0000

     total cpu time spent up to now is    29417.8 secs

     End of self-consistent calculation

 ------ SPIN UP ------------


          k = 0.0000 0.0000 0.0000 ( 35257 PWs)   bands (ev):

   -84.8732 -84.8597 -84.5226 -84.3627 -50.9508 -50.9158 -50.8468 -50.8403
   -50.8100 -50.7943 -50.7206 -50.6326 -50.4943 -50.3595 -50.3321 -50.1547
   -44.1491 -16.3554 -16.1705 -16.1536 -16.1317 -15.9121 -15.8470 -15.5236
   -13.7534 -13.5691 -13.4319 -13.4181 -13.3242 -13.2944 -13.2764 -13.2382
   -13.1973 -13.1346 -13.1036 -13.0471  -3.9663  -3.5252  -3.3107  -3.0083
    -2.0746  -1.9015  -1.7263  -1.5524  -1.4568  -1.1551  -1.1392  -1.0024
    -0.8410  -0.7805  -0.7595  -0.6424   0.0387   0.0967   0.4765   0.6266
     0.6663   0.6970   0.7105   0.8567   0.9054   1.0263   1.0755   1.2013
     1.4977   1.5839   1.7361   1.7842   1.8769   2.0203   2.1531   2.1932
     2.2352   2.3007   2.3633   2.5186   2.6343   2.7547   2.8017   2.9014
     2.9886   3.0401   3.1432   3.2362   3.4004   3.4513   3.4883   3.6089
     3.6943   3.7329   3.8148   3.9043   4.0142   4.0797   4.1420   4.1889
     4.3887   4.5475   4.5881   4.6284   4.8539   5.0484   5.4012   5.5213
     9.7370  11.6975  12.0976  12.6569  12.7240  13.6234  13.6901  13.9293
    13.9820  14.0744

     occupation numbers 
     1.0000   1.0000   1.0000   1.0000   1.0000   1.0000   1.0000   1.0000
     1.0000   1.0000   1.0000   1.0000   1.0000   1.0000   1.0000   1.0000
     1.0000   1.0000   1.0000   1.0000   1.0000   1.0000   1.0000   1.0000
     1.0000   1.0000   1.0000   1.0000   1.0000   1.0000   1.0000   1.0000
     1.0000   1.0000   1.0000   1.0000   1.0000   1.0000   1.0000   1.0000
     1.0000   1.0000   1.0000   1.0000   1.0000   1.0000   1.0000   1.0000
     1.0000   1.0000   1.0000   1.0000   1.0000   1.0000   1.0000   1.0000
     1.0000   1.0000   1.0000   1.0000   1.0000   1.0000   1.0000   1.0000
     1.0000   1.0000   1.0000   1.0000   1.0000   1.0000   1.0000   1.0000
     1.0000   1.0000   1.0000   1.0000   1.0000   1.0000   1.0000   1.0000
     1.0000   1.0000   1.0000   1.0000   1.0000   1.0000   1.0000   1.0000
     1.0000   1.0000   1.0000   1.0000   1.0000   1.0000   1.0000   1.0000
     1.0000   1.0000   1.0000   1.0000   1.0000   1.0000   1.0000   1.0000
     0.0000   0.0000   0.0000   0.0000   0.0000   0.0000   0.0000   0.0000
     0.0000   0.0000

          k = 0.0000 0.0000 0.2298 ( 35253 PWs)   bands (ev):

   -84.8732 -84.8597 -84.5226 -84.3627 -50.9508 -50.9158 -50.8468 -50.8403
   -50.8100 -50.7943 -50.7206 -50.6326 -50.4943 -50.3595 -50.3321 -50.1547
   -44.1491 -16.3600 -16.1783 -16.1511 -16.1205 -15.8976 -15.8338 -15.5266
   -13.7593 -13.5794 -13.4341 -13.4158 -13.3273 -13.3028 -13.2789 -13.2439
   -13.1946 -13.1395 -13.1113 -13.0524  -3.9362  -3.5168  -3.3010  -3.0051
    -2.0361  -1.8992  -1.7172  -1.5373  -1.4540  -1.1572  -1.1385  -0.9637
    -0.8615  -0.7788  -0.7453  -0.6387   0.0430   0.1132   0.4605   0.6182
     0.6426   0.6997   0.7382   0.8568   0.9003   1.0031   1.0767   1.2248
     1.4649   1.5843   1.7307   1.7897   1.8566   2.0083   2.1263   2.1742
     2.2390   2.2866   2.3909   2.5141   2.6008   2.7320   2.7793   2.9205
     2.9550   3.0434   3.1586   3.2604   3.3993   3.4287   3.4559   3.5751
     3.6817   3.7511   3.8004   3.9053   4.0223   4.0876   4.1684   4.2267
     4.3836   4.5076   4.5841   4.6629   4.8398   5.0402   5.3924   5.5085
     9.8836  11.7727  12.1674  12.6399  12.8038  13.5498  13.6298  13.8292
    13.9082  14.0883

     occupation numbers 
     1.0000   1.0000   1.0000   1.0000   1.0000   1.0000   1.0000   1.0000
     1.0000   1.0000   1.0000   1.0000   1.0000   1.0000   1.0000   1.0000
     1.0000   1.0000   1.0000   1.0000   1.0000   1.0000   1.0000   1.0000
     1.0000   1.0000   1.0000   1.0000   1.0000   1.0000   1.0000   1.0000
     1.0000   1.0000   1.0000   1.0000   1.0000   1.0000   1.0000   1.0000
     1.0000   1.0000   1.0000   1.0000   1.0000   1.0000   1.0000   1.0000
     1.0000   1.0000   1.0000   1.0000   1.0000   1.0000   1.0000   1.0000
     1.0000   1.0000   1.0000   1.0000   1.0000   1.0000   1.0000   1.0000
     1.0000   1.0000   1.0000   1.0000   1.0000   1.0000   1.0000   1.0000
     1.0000   1.0000   1.0000   1.0000   1.0000   1.0000   1.0000   1.0000
     1.0000   1.0000   1.0000   1.0000   1.0000   1.0000   1.0000   1.0000
     1.0000   1.0000   1.0000   1.0000   1.0000   1.0000   1.0000   1.0000
     1.0000   1.0000   1.0000   1.0000   1.0000   1.0000   1.0000   1.0000
     0.0000   0.0000   0.0000   0.0000   0.0000   0.0000   0.0000   0.0000
     0.0000   0.0000

          k = 0.0000 0.0000 0.4597 ( 35284 PWs)   bands (ev):

   -84.8732 -84.8597 -84.5226 -84.3627 -50.9508 -50.9158 -50.8468 -50.8403
   -50.8100 -50.7943 -50.7206 -50.6326 -50.4943 -50.3595 -50.3321 -50.1547
   -44.1491 -16.3720 -16.1881 -16.1491 -16.0944 -15.8651 -15.7946 -15.5376
   -13.7747 -13.6065 -13.4381 -13.4108 -13.3524 -13.3114 -13.2882 -13.2481
   -13.1918 -13.1566 -13.1253 -13.0645  -3.8548  -3.4970  -3.2751  -3.0118
    -1.9467  -1.8792  -1.6757  -1.5166  -1.4473  -1.1562  -1.1300  -0.9504
    -0.8481  -0.7501  -0.7126  -0.6228   0.0588   0.1482   0.4403   0.5519
     0.6575   0.7213   0.7700   0.8030   0.9132   1.0125   1.0758   1.2684
     1.4185   1.5509   1.7067   1.7719   1.8285   1.9416   2.1074   2.1244
     2.1552   2.3038   2.3567   2.4703   2.5893   2.6769   2.7535   2.8675
     2.9777   3.0836   3.1052   3.2803   3.3022   3.3806   3.4726   3.5600
     3.6914   3.7361   3.8222   3.9126   4.0322   4.1516   4.1908   4.2861
     4.3629   4.5036   4.5630   4.7084   4.8164   5.0167   5.3668   5.4744
    10.2798  11.9745  12.3177  12.7017  12.9489  13.3684  13.5059  13.5970
    13.7729  13.9204

     occupation numbers 
     1.0000   1.0000   1.0000   1.0000   1.0000   1.0000   1.0000   1.0000
     1.0000   1.0000   1.0000   1.0000   1.0000   1.0000   1.0000   1.0000
     1.0000   1.0000   1.0000   1.0000   1.0000   1.0000   1.0000   1.0000
     1.0000   1.0000   1.0000   1.0000   1.0000   1.0000   1.0000   1.0000
     1.0000   1.0000   1.0000   1.0000   1.0000   1.0000   1.0000   1.0000
     1.0000   1.0000   1.0000   1.0000   1.0000   1.0000   1.0000   1.0000
     1.0000   1.0000   1.0000   1.0000   1.0000   1.0000   1.0000   1.0000
     1.0000   1.0000   1.0000   1.0000   1.0000   1.0000   1.0000   1.0000
     1.0000   1.0000   1.0000   1.0000   1.0000   1.0000   1.0000   1.0000
     1.0000   1.0000   1.0000   1.0000   1.0000   1.0000   1.0000   1.0000
     1.0000   1.0000   1.0000   1.0000   1.0000   1.0000   1.0000   1.0000
     1.0000   1.0000   1.0000   1.0000   1.0000   1.0000   1.0000   1.0000
     1.0000   1.0000   1.0000   1.0000   1.0000   1.0000   1.0000   1.0000
     0.0000   0.0000   0.0000   0.0000   0.0000   0.0000   0.0000   0.0000
     0.0000   0.0000

          k = 0.0000 0.0000 0.6895 ( 35308 PWs)   bands (ev):

   -84.8732 -84.8597 -84.5226 -84.3627 -50.9508 -50.9158 -50.8468 -50.8403
   -50.8100 -50.7943 -50.7206 -50.6326 -50.4943 -50.3595 -50.3321 -50.1547
   -44.1491 -16.3855 -16.1925 -16.1475 -16.0671 -15.8323 -15.7368 -15.5611
   -13.7924 -13.6389 -13.4424 -13.4056 -13.3913 -13.3180 -13.2995 -13.2487
   -13.1942 -13.1737 -13.1336 -13.0781  -3.7489  -3.4768  -3.2421  -3.0489
    -1.9273  -1.7637  -1.6058  -1.5079  -1.4372  -1.1611  -1.1145  -1.0132
    -0.8062  -0.7057  -0.6579  -0.5524   0.0885   0.1810   0.4326   0.5231
     0.6608   0.7146   0.7403   0.8268   0.9863   1.0399   1.0919   1.2657
     1.3793   1.5111   1.6253   1.7207   1.8062   1.8576   1.9726   2.0368
     2.1058   2.1900   2.3810   2.4905   2.5426   2.6523   2.7695   2.8423
     2.9035   3.0305   3.1362   3.1616   3.2482   3.3889   3.5076   3.6020
     3.6595   3.7161   3.8875   3.9428   4.0989   4.1693   4.2187   4.3245
     4.3414   4.5390   4.5666   4.7385   4.8182   4.9815   5.3326   5.4274
    10.8324  12.2351  12.3854  12.8317  13.0053  13.1897  13.3641  13.4295
    13.6215  13.7598

     occupation numbers 
     1.0000   1.0000   1.0000   1.0000   1.0000   1.0000   1.0000   1.0000
     1.0000   1.0000   1.0000   1.0000   1.0000   1.0000   1.0000   1.0000
     1.0000   1.0000   1.0000   1.0000   1.0000   1.0000   1.0000   1.0000
     1.0000   1.0000   1.0000   1.0000   1.0000   1.0000   1.0000   1.0000
     1.0000   1.0000   1.0000   1.0000   1.0000   1.0000   1.0000   1.0000
     1.0000   1.0000   1.0000   1.0000   1.0000   1.0000   1.0000   1.0000
     1.0000   1.0000   1.0000   1.0000   1.0000   1.0000   1.0000   1.0000
     1.0000   1.0000   1.0000   1.0000   1.0000   1.0000   1.0000   1.0000
     1.0000   1.0000   1.0000   1.0000   1.0000   1.0000   1.0000   1.0000
     1.0000   1.0000   1.0000   1.0000   1.0000   1.0000   1.0000   1.0000
     1.0000   1.0000   1.0000   1.0000   1.0000   1.0000   1.0000   1.0000
     1.0000   1.0000   1.0000   1.0000   1.0000   1.0000   1.0000   1.0000
     1.0000   1.0000   1.0000   1.0000   1.0000   1.0000   1.0000   1.0000
     0.0000   0.0000   0.0000   0.0000   0.0000   0.0000   0.0000   0.0000
     0.0000   0.0000

          k = 0.0000 0.0000 0.9194 ( 35336 PWs)   bands (ev):

   -84.8732 -84.8597 -84.5226 -84.3627 -50.9508 -50.9158 -50.8468 -50.8403
   -50.8100 -50.7943 -50.7206 -50.6326 -50.4943 -50.3595 -50.3321 -50.1547
   -44.1491 -16.3943 -16.1934 -16.1465 -16.0501 -15.8118 -15.6780 -15.5970
   -13.8039 -13.6611 -13.4471 -13.4164 -13.4016 -13.3300 -13.2998 -13.2550
   -13.1950 -13.1797 -13.1355 -13.0883  -3.6665  -3.4657  -3.2117  -3.1008
    -1.9287  -1.6789  -1.5453  -1.5010  -1.4220  -1.1848  -1.1098  -1.0288
    -0.8273  -0.6871  -0.5797  -0.4817   0.1361   0.1964   0.4339   0.5138
     0.6203   0.6955   0.7757   0.9288   1.0141   1.0958   1.1091   1.2418
     1.2764   1.4435   1.5325   1.6396   1.7980   1.8252   1.9268   1.9625
     2.0253   2.1818   2.3647   2.4245   2.5762   2.6924   2.7158   2.8333
     2.8937   2.9901   3.0793   3.1106   3.2468   3.4003   3.5134   3.5838
     3.6666   3.7442   3.9077   4.0052   4.1202   4.1699   4.2308   4.3094
     4.4113   4.5195   4.6114   4.7457   4.8580   4.9395   5.3121   5.3827
    11.4446  12.0617  12.4944  12.7161  13.0534  13.2469  13.3388  13.4363
    13.5284  13.6037

     occupation numbers 
     1.0000   1.0000   1.0000   1.0000   1.0000   1.0000   1.0000   1.0000
     1.0000   1.0000   1.0000   1.0000   1.0000   1.0000   1.0000   1.0000
     1.0000   1.0000   1.0000   1.0000   1.0000   1.0000   1.0000   1.0000
     1.0000   1.0000   1.0000   1.0000   1.0000   1.0000   1.0000   1.0000
     1.0000   1.0000   1.0000   1.0000   1.0000   1.0000   1.0000   1.0000
     1.0000   1.0000   1.0000   1.0000   1.0000   1.0000   1.0000   1.0000
     1.0000   1.0000   1.0000   1.0000   1.0000   1.0000   1.0000   1.0000
     1.0000   1.0000   1.0000   1.0000   1.0000   1.0000   1.0000   1.0000
     1.0000   1.0000   1.0000   1.0000   1.0000   1.0000   1.0000   1.0000
     1.0000   1.0000   1.0000   1.0000   1.0000   1.0000   1.0000   1.0000
     1.0000   1.0000   1.0000   1.0000   1.0000   1.0000   1.0000   1.0000
     1.0000   1.0000   1.0000   1.0000   1.0000   1.0000   1.0000   1.0000
     1.0000   1.0000   1.0000   1.0000   1.0000   1.0000   1.0000   1.0000
     0.0000   0.0000   0.0000   0.0000   0.0000   0.0000   0.0000   0.0000
     0.0000   0.0000

          k = 0.0000 0.2391 0.0000 ( 35275 PWs)   bands (ev):

   -84.8732 -84.8597 -84.5226 -84.3627 -50.9508 -50.9158 -50.8468 -50.8403
   -50.8100 -50.7943 -50.7206 -50.6326 -50.4943 -50.3595 -50.3321 -50.1547
   -44.1491 -16.3622 -16.1681 -16.1453 -16.1234 -15.9071 -15.8408 -15.5407
   -13.7570 -13.5793 -13.4488 -13.4246 -13.3543 -13.2852 -13.2519 -13.2350
   -13.1869 -13.1312 -13.1024 -13.0474  -3.9397  -3.5276  -3.3013  -3.0093
    -2.0426  -1.8721  -1.7309  -1.5552  -1.4200  -1.1579  -1.1148  -0.9908
    -0.8655  -0.7867  -0.7189  -0.6268   0.0329   0.0952   0.4543   0.5275
     0.5921   0.6476   0.7558   0.8383   0.9424   0.9992   1.1835   1.2752
     1.4832   1.5751   1.7054   1.7960   1.8406   1.9593   2.0683   2.1401
     2.2485   2.3128   2.3379   2.4941   2.6778   2.7873   2.8370   2.9137
     3.0173   3.0411   3.1549   3.2211   3.3282   3.3686   3.4835   3.5895
     3.7007   3.7396   3.7724   3.9106   4.0111   4.1042   4.1592   4.1870
     4.3688   4.4813   4.6041   4.6828   4.8121   5.1423   5.4377   5.5258
     9.8939  11.7746  12.1847  12.5736  12.7488  13.5986  13.7298  13.8619
    13.9285  14.0978

     occupation numbers 
     1.0000   1.0000   1.0000   1.0000   1.0000   1.0000   1.0000   1.0000
     1.0000   1.0000   1.0000   1.0000   1.0000   1.0000   1.0000   1.0000
     1.0000   1.0000   1.0000   1.0000   1.0000   1.0000   1.0000   1.0000
     1.0000   1.0000   1.0000   1.0000   1.0000   1.0000   1.0000   1.0000
     1.0000   1.0000   1.0000   1.0000   1.0000   1.0000   1.0000   1.0000
     1.0000   1.0000   1.0000   1.0000   1.0000   1.0000   1.0000   1.0000
     1.0000   1.0000   1.0000   1.0000   1.0000   1.0000   1.0000   1.0000
     1.0000   1.0000   1.0000   1.0000   1.0000   1.0000   1.0000   1.0000
     1.0000   1.0000   1.0000   1.0000   1.0000   1.0000   1.0000   1.0000
     1.0000   1.0000   1.0000   1.0000   1.0000   1.0000   1.0000   1.0000
     1.0000   1.0000   1.0000   1.0000   1.0000   1.0000   1.0000   1.0000
     1.0000   1.0000   1.0000   1.0000   1.0000   1.0000   1.0000   1.0000
     1.0000   1.0000   1.0000   1.0000   1.0000   1.0000   1.0000   1.0000
     0.0000   0.0000   0.0000   0.0000   0.0000   0.0000   0.0000   0.0000
     0.0000   0.0000

          k = 0.0000 0.2391 0.2298 ( 35285 PWs)   bands (ev):

   -84.8732 -84.8597 -84.5226 -84.3627 -50.9508 -50.9158 -50.8468 -50.8403
   -50.8100 -50.7943 -50.7206 -50.6326 -50.4943 -50.3595 -50.3321 -50.1547
   -44.1491 -16.3556 -16.1832 -16.1462 -16.1119 -15.8977 -15.8365 -15.5293
   -13.7619 -13.5883 -13.4404 -13.4289 -13.3678 -13.2903 -13.2585 -13.2350
   -13.1865 -13.1458 -13.0973 -13.0551  -3.9111  -3.5169  -3.2898  -3.0048
    -2.0105  -1.8710  -1.7312  -1.5305  -1.4126  -1.1522  -1.0898  -0.9583
    -0.8561  -0.7943  -0.7319  -0.6428   0.0296   0.1001   0.4191   0.5506
     0.6217   0.6786   0.7377   0.8098   0.9074   0.9671   1.2317   1.2624
     1.4264   1.5584   1.7224   1.7712   1.7997   1.9533   2.1124   2.2103
     2.2519   2.3314   2.3923   2.4949   2.6379   2.7446   2.7876   2.8947
     2.9952   3.0498   3.1029   3.2204   3.3083   3.3843   3.4470   3.5776
     3.6529   3.7498   3.7763   3.8985   4.0271   4.0909   4.1895   4.2124
     4.3682   4.4783   4.5938   4.7309   4.8167   5.1360   5.4082   5.5245
    10.0356  11.8569  12.2633  12.5888  12.7633  13.5529  13.7456  13.7873
    13.8797  14.0149

     occupation numbers 
     1.0000   1.0000   1.0000   1.0000   1.0000   1.0000   1.0000   1.0000
     1.0000   1.0000   1.0000   1.0000   1.0000   1.0000   1.0000   1.0000
     1.0000   1.0000   1.0000   1.0000   1.0000   1.0000   1.0000   1.0000
     1.0000   1.0000   1.0000   1.0000   1.0000   1.0000   1.0000   1.0000
     1.0000   1.0000   1.0000   1.0000   1.0000   1.0000   1.0000   1.0000
     1.0000   1.0000   1.0000   1.0000   1.0000   1.0000   1.0000   1.0000
     1.0000   1.0000   1.0000   1.0000   1.0000   1.0000   1.0000   1.0000
     1.0000   1.0000   1.0000   1.0000   1.0000   1.0000   1.0000   1.0000
     1.0000   1.0000   1.0000   1.0000   1.0000   1.0000   1.0000   1.0000
     1.0000   1.0000   1.0000   1.0000   1.0000   1.0000   1.0000   1.0000
     1.0000   1.0000   1.0000   1.0000   1.0000   1.0000   1.0000   1.0000
     1.0000   1.0000   1.0000   1.0000   1.0000   1.0000   1.0000   1.0000
     1.0000   1.0000   1.0000   1.0000   1.0000   1.0000   1.0000   1.0000
     0.0000   0.0000   0.0000   0.0000   0.0000   0.0000   0.0000   0.0000
     0.0000   0.0000

          k = 0.0000 0.2391 0.4597 ( 35280 PWs)   bands (ev):

   -84.8732 -84.8597 -84.5226 -84.3627 -50.9508 -50.9158 -50.8468 -50.8403
   -50.8100 -50.7943 -50.7206 -50.6326 -50.4943 -50.3595 -50.3321 -50.1547
   -44.1491 -16.3593 -16.1976 -16.1472 -16.0852 -15.8690 -15.8089 -15.5245
   -13.7769 -13.6119 -13.4404 -13.4320 -13.3896 -13.3043 -13.2661 -13.2421
   -13.1842 -13.1684 -13.1048 -13.0659  -3.8310  -3.4926  -3.2673  -3.0046
    -1.9300  -1.8582  -1.6862  -1.5030  -1.4051  -1.1394  -1.0642  -0.9313
    -0.8617  -0.7769  -0.7224  -0.6214   0.0322   0.1239   0.3960   0.5641
     0.6200   0.6786   0.7611   0.8131   0.8467   0.9826   1.2328   1.2787
     1.3649   1.5494   1.6616   1.7596   1.7814   1.8980   2.1048   2.1716
     2.2587   2.3483   2.3884   2.4659   2.6080   2.6662   2.7357   2.8521
     2.9932   3.0563   3.0888   3.1993   3.2486   3.3373   3.4109   3.5544
     3.6516   3.7471   3.8061   3.8944   3.9916   4.1528   4.2224   4.2941
     4.3628   4.4643   4.5657   4.7644   4.8489   5.1146   5.3692   5.5021
    10.4189  12.0555  12.4190  12.6538  12.8966  13.3890  13.5689  13.6494
    13.7575  13.8531

     occupation numbers 
     1.0000   1.0000   1.0000   1.0000   1.0000   1.0000   1.0000   1.0000
     1.0000   1.0000   1.0000   1.0000   1.0000   1.0000   1.0000   1.0000
     1.0000   1.0000   1.0000   1.0000   1.0000   1.0000   1.0000   1.0000
     1.0000   1.0000   1.0000   1.0000   1.0000   1.0000   1.0000   1.0000
     1.0000   1.0000   1.0000   1.0000   1.0000   1.0000   1.0000   1.0000
     1.0000   1.0000   1.0000   1.0000   1.0000   1.0000   1.0000   1.0000
     1.0000   1.0000   1.0000   1.0000   1.0000   1.0000   1.0000   1.0000
     1.0000   1.0000   1.0000   1.0000   1.0000   1.0000   1.0000   1.0000
     1.0000   1.0000   1.0000   1.0000   1.0000   1.0000   1.0000   1.0000
     1.0000   1.0000   1.0000   1.0000   1.0000   1.0000   1.0000   1.0000
     1.0000   1.0000   1.0000   1.0000   1.0000   1.0000   1.0000   1.0000
     1.0000   1.0000   1.0000   1.0000   1.0000   1.0000   1.0000   1.0000
     1.0000   1.0000   1.0000   1.0000   1.0000   1.0000   1.0000   1.0000
     0.0000   0.0000   0.0000   0.0000   0.0000   0.0000   0.0000   0.0000
     0.0000   0.0000

          k = 0.0000 0.2391 0.6895 ( 35285 PWs)   bands (ev):

   -84.8732 -84.8597 -84.5226 -84.3627 -50.9508 -50.9158 -50.8468 -50.8403
   -50.8100 -50.7943 -50.7206 -50.6326 -50.4943 -50.3595 -50.3321 -50.1547
   -44.1491 -16.3724 -16.2014 -16.1467 -16.0571 -15.8374 -15.7643 -15.5333
   -13.7951 -13.6410 -13.4524 -13.4358 -13.4111 -13.3193 -13.2720 -13.2444
   -13.1960 -13.1776 -13.1176 -13.0737  -3.7255  -3.4678  -3.2442  -3.0301
    -1.9103  -1.7526  -1.6082  -1.4935  -1.3981  -1.1270  -1.0610  -0.9991
    -0.8457  -0.7158  -0.6712  -0.5471   0.0554   0.1376   0.3991   0.5447
     0.6424   0.6618   0.7387   0.7846   0.9737   1.0378   1.1970   1.2665
     1.3433   1.5159   1.5866   1.7059   1.7560   1.8672   2.0210   2.0611
     2.1422   2.2337   2.3838   2.4936   2.5387   2.6691   2.7330   2.7937
     2.9627   3.0281   3.0782   3.1752   3.2205   3.3076   3.4127   3.5877
     3.6474   3.7252   3.8239   3.9201   4.0222   4.1860   4.2599   4.3324
     4.3854   4.4450   4.5840   4.7583   4.9082   5.0804   5.3319   5.4670
    10.9571  12.3035  12.4728  12.7903  13.0422  13.1999  13.3851  13.4634
    13.6071  13.7145

     occupation numbers 
     1.0000   1.0000   1.0000   1.0000   1.0000   1.0000   1.0000   1.0000
     1.0000   1.0000   1.0000   1.0000   1.0000   1.0000   1.0000   1.0000
     1.0000   1.0000   1.0000   1.0000   1.0000   1.0000   1.0000   1.0000
     1.0000   1.0000   1.0000   1.0000   1.0000   1.0000   1.0000   1.0000
     1.0000   1.0000   1.0000   1.0000   1.0000   1.0000   1.0000   1.0000
     1.0000   1.0000   1.0000   1.0000   1.0000   1.0000   1.0000   1.0000
     1.0000   1.0000   1.0000   1.0000   1.0000   1.0000   1.0000   1.0000
     1.0000   1.0000   1.0000   1.0000   1.0000   1.0000   1.0000   1.0000
     1.0000   1.0000   1.0000   1.0000   1.0000   1.0000   1.0000   1.0000
     1.0000   1.0000   1.0000   1.0000   1.0000   1.0000   1.0000   1.0000
     1.0000   1.0000   1.0000   1.0000   1.0000   1.0000   1.0000   1.0000
     1.0000   1.0000   1.0000   1.0000   1.0000   1.0000   1.0000   1.0000
     1.0000   1.0000   1.0000   1.0000   1.0000   1.0000   1.0000   1.0000
     0.0000   0.0000   0.0000   0.0000   0.0000   0.0000   0.0000   0.0000
     0.0000   0.0000

          k = 0.0000 0.2391 0.9194 ( 35271 PWs)   bands (ev):

   -84.8732 -84.8597 -84.5226 -84.3627 -50.9508 -50.9158 -50.8468 -50.8403
   -50.8100 -50.7943 -50.7206 -50.6326 -50.4943 -50.3595 -50.3321 -50.1547
   -44.1491 -16.3858 -16.1987 -16.1462 -16.0392 -15.8165 -15.7118 -15.5624
   -13.8069 -13.6623 -13.4644 -13.4432 -13.4186 -13.3268 -13.2824 -13.2450
   -13.2025 -13.1790 -13.1226 -13.0794  -3.6427  -3.4537  -3.2202  -3.0785
    -1.9048  -1.6664  -1.5423  -1.4945  -1.3860  -1.1572  -1.0819  -1.0108
    -0.8688  -0.6711  -0.5864  -0.4825   0.0928   0.1449   0.4146   0.5283
     0.5697   0.6645   0.7537   0.8884   1.0490   1.1139   1.1734   1.2399
     1.3070   1.4538   1.5339   1.6316   1.7272   1.8401   1.9392   1.9704
     2.0492   2.1732   2.3697   2.4213   2.5537   2.6568   2.7086   2.8142
     2.9035   2.9845   3.0893   3.1208   3.2200   3.3695   3.4240   3.6171
     3.6542   3.7007   3.8438   3.9656   4.0754   4.1687   4.2745   4.3431
     4.3915   4.4854   4.6075   4.7351   4.9154   5.0744   5.3173   5.4297
    11.5561  12.1601  12.5155  12.8096  13.0428  13.2426  13.3586  13.4301
    13.5388  13.6359

     occupation numbers 
     1.0000   1.0000   1.0000   1.0000   1.0000   1.0000   1.0000   1.0000
     1.0000   1.0000   1.0000   1.0000   1.0000   1.0000   1.0000   1.0000
     1.0000   1.0000   1.0000   1.0000   1.0000   1.0000   1.0000   1.0000
     1.0000   1.0000   1.0000   1.0000   1.0000   1.0000   1.0000   1.0000
     1.0000   1.0000   1.0000   1.0000   1.0000   1.0000   1.0000   1.0000
     1.0000   1.0000   1.0000   1.0000   1.0000   1.0000   1.0000   1.0000
     1.0000   1.0000   1.0000   1.0000   1.0000   1.0000   1.0000   1.0000
     1.0000   1.0000   1.0000   1.0000   1.0000   1.0000   1.0000   1.0000
     1.0000   1.0000   1.0000   1.0000   1.0000   1.0000   1.0000   1.0000
     1.0000   1.0000   1.0000   1.0000   1.0000   1.0000   1.0000   1.0000
     1.0000   1.0000   1.0000   1.0000   1.0000   1.0000   1.0000   1.0000
     1.0000   1.0000   1.0000   1.0000   1.0000   1.0000   1.0000   1.0000
     1.0000   1.0000   1.0000   1.0000   1.0000   1.0000   1.0000   1.0000
     0.0000   0.0000   0.0000   0.0000   0.0000   0.0000   0.0000   0.0000
     0.0000   0.0000

          k = 0.0000 0.4781 0.0000 ( 35227 PWs)   bands (ev):

   -84.8732 -84.8597 -84.5226 -84.3627 -50.9508 -50.9158 -50.8468 -50.8403
   -50.8100 -50.7943 -50.7206 -50.6326 -50.4943 -50.3595 -50.3321 -50.1547
   -44.1491 -16.3751 -16.1675 -16.1393 -16.0849 -15.9011 -15.8208 -15.5847
   -13.7622 -13.6131 -13.4787 -13.4374 -13.3651 -13.2901 -13.2414 -13.2137
   -13.1721 -13.1277 -13.0888 -13.0480  -3.8715  -3.5533  -3.2604  -3.0221
    -1.9603  -1.8049  -1.7361  -1.5607  -1.3380  -1.1610  -1.0547  -0.9562
    -0.8950  -0.7713  -0.6843  -0.5950   0.0023   0.0800   0.3473   0.4283
     0.5078   0.6001   0.7464   0.8371   0.9289   1.0292   1.2017   1.4000
     1.4892   1.5725   1.6140   1.7782   1.8371   1.8926   2.0089   2.0410
     2.2055   2.3255   2.3799   2.5094   2.6702   2.7994   2.8419   2.9026
     2.9537   3.1001   3.1660   3.2027   3.2685   3.3106   3.3652   3.5520
     3.6874   3.7548   3.7673   3.8915   3.9949   4.1161   4.1647   4.2358
     4.2939   4.4228   4.5884   4.7162   4.9151   5.2372   5.4847   5.5611
    10.3193  11.9680  12.1714  12.4904  12.7792  13.5358  13.7406  13.7779
    13.9369  14.1369

     occupation numbers 
     1.0000   1.0000   1.0000   1.0000   1.0000   1.0000   1.0000   1.0000
     1.0000   1.0000   1.0000   1.0000   1.0000   1.0000   1.0000   1.0000
     1.0000   1.0000   1.0000   1.0000   1.0000   1.0000   1.0000   1.0000
     1.0000   1.0000   1.0000   1.0000   1.0000   1.0000   1.0000   1.0000
     1.0000   1.0000   1.0000   1.0000   1.0000   1.0000   1.0000   1.0000
     1.0000   1.0000   1.0000   1.0000   1.0000   1.0000   1.0000   1.0000
     1.0000   1.0000   1.0000   1.0000   1.0000   1.0000   1.0000   1.0000
     1.0000   1.0000   1.0000   1.0000   1.0000   1.0000   1.0000   1.0000
     1.0000   1.0000   1.0000   1.0000   1.0000   1.0000   1.0000   1.0000
     1.0000   1.0000   1.0000   1.0000   1.0000   1.0000   1.0000   1.0000
     1.0000   1.0000   1.0000   1.0000   1.0000   1.0000   1.0000   1.0000
     1.0000   1.0000   1.0000   1.0000   1.0000   1.0000   1.0000   1.0000
     1.0000   1.0000   1.0000   1.0000   1.0000   1.0000   1.0000   1.0000
     0.0000   0.0000   0.0000   0.0000   0.0000   0.0000   0.0000   0.0000
     0.0000   0.0000

          k = 0.0000 0.4781 0.2298 ( 35266 PWs)   bands (ev):

   -84.8732 -84.8597 -84.5226 -84.3627 -50.9508 -50.9158 -50.8468 -50.8403
   -50.8100 -50.7943 -50.7206 -50.6326 -50.4943 -50.3595 -50.3321 -50.1547
   -44.1491 -16.3643 -16.1796 -16.1425 -16.0783 -15.8952 -15.8234 -15.5619
   -13.7657 -13.6194 -13.4724 -13.4424 -13.3811 -13.3034 -13.2453 -13.2106
   -13.1743 -13.1365 -13.0857 -13.0547  -3.8451  -3.5364  -3.2486  -3.0184
    -1.9335  -1.7998  -1.7430  -1.5336  -1.3265  -1.1426  -1.0256  -0.9195
    -0.8769  -0.8047  -0.6850  -0.6310   0.0047   0.0658   0.3220   0.4473
     0.5412   0.6068   0.7415   0.7802   0.9232   1.0138   1.2189   1.3487
[...]
     atom    9 type  4   force =     0.01974333   -0.00104668   -0.02037943
     atom   10 type  3   force =    -0.00527535    0.00302830    0.00505647
     atom   11 type  3   force =     0.00731199   -0.00141422   -0.00340506
     atom   12 type  3   force =     0.00193689   -0.00062005   -0.00309815
     atom   13 type  3   force =    -0.00691474    0.00099919    0.00304169
     atom   14 type  3   force =    -0.03814130   -0.00071178    0.00817382
     atom   15 type  3   force =     0.03081017   -0.01105377    0.00448669
     atom   16 type  3   force =     0.03923003    0.00009737   -0.00933713
     atom   17 type  3   force =    -0.03260154    0.01216602   -0.00461998
     atom   18 type  3   force =     0.01628697    0.02158955   -0.00259049
     atom   19 type  3   force =    -0.00781240   -0.02049675   -0.01145132
     atom   20 type  3   force =    -0.00407599    0.02754699    0.01415332
     atom   21 type  3   force =     0.00869292   -0.02236033    0.00825133
     atom   22 type  3   force =    -0.01423974   -0.02415068    0.00423725
     atom   23 type  3   force =     0.00704938    0.02015661    0.01193249
     atom   24 type  3   force =     0.00149819   -0.02657200   -0.01406453
     atom   25 type  3   force =    -0.00704094    0.02192682   -0.00713040
     The non-local contrib.  to forces
     atom    1 type  2   force =     0.05914728    0.04139583   -0.00710171
     atom    2 type  1   force =     0.06084520   -0.13592255   -0.00585680
     atom    3 type  1   force =    -0.02189426   -0.16981976    0.13100546
     atom    4 type  1   force =    -0.01890424    0.14537485   -0.01525410
     atom    5 type  1   force =     0.00219969    0.19875074   -0.13408135
     atom    6 type  4   force =    -0.01536496    0.03541998    0.00882174
     atom    7 type  4   force =    -0.03157640    0.00928366   -0.03343488
     atom    8 type  4   force =     0.02967470   -0.05031518   -0.02388002
     atom    9 type  4   force =     0.03465295   -0.00649157    0.03361964
     atom   10 type  3   force =     0.04522385   -0.07778140   -1.42508756
     atom   11 type  3   force =    -0.11941665    0.13026119   -1.44546315
     atom   12 type  3   force =     0.02554985    0.08382771    1.36227864
     atom   13 type  3   force =     0.12499249   -0.12402160    1.43308648
     atom   14 type  3   force =     1.32384039    0.00000144   -0.57975001
     atom   15 type  3   force =    -1.15824865    0.53050063   -0.37380845
     atom   16 type  3   force =    -1.29120379    0.00845512    0.62428637
     atom   17 type  3   force =     1.16959987   -0.52528002    0.46808393
     atom   18 type  3   force =    -0.69016242   -1.20661073    0.46093297
     atom   19 type  3   force =     0.48281066    0.85216401    0.93941858
     atom   20 type  3   force =     0.10572632   -1.26168007   -1.06157043
     atom   21 type  3   force =    -0.43899220    1.00864627   -0.72613407
     atom   22 type  3   force =     0.60335072    1.29315058   -0.56633298
     atom   23 type  3   force =    -0.44058671   -0.86914559   -0.93859881
     atom   24 type  3   force =    -0.04107908    1.22574451    1.08221346
     atom   25 type  3   force =     0.36736908   -1.03292789    0.68187411
     The ionic contribution  to forces
     atom    1 type  2   force =     1.11805704   -0.41806770   -1.99383532
     atom    2 type  1   force =    11.26558685   -2.13965121   -1.37400268
     atom    3 type  1   force =     5.97686664   -2.97768758   -1.58442359
     atom    4 type  1   force =   -12.14449035    3.32043674    0.58979516
     atom    5 type  1   force =    -4.03370293    3.16139416    2.59693257
     atom    6 type  4   force =    -0.83769659    0.09528728    0.22736485
     atom    7 type  4   force =     4.38732778    0.12864075    1.10746074
     atom    8 type  4   force =     0.01230580    0.17791240   -0.00145642
     atom    9 type  4   force =    -4.02409855   -0.40077511   -0.89166487
     atom   10 type  3   force =    -5.70001326    0.30089057    1.79825822
     atom   11 type  3   force =    10.08794229   -1.13337693    2.25521169
     atom   12 type  3   force =     3.05387327    1.21195821   -0.30481427
     atom   13 type  3   force =    -9.69546871    0.67280089   -2.17049234
     atom   14 type  3   force =     1.71337019   -0.47879025    6.98297876
     atom   15 type  3   force =    -0.54389955   -2.49864821    3.47839099
     atom   16 type  3   force =    -1.75967981    0.49690720   -7.20166192
     atom   17 type  3   force =     0.29141233    1.10364667   -4.19868540
     atom   18 type  3   force =     1.74437364    4.60277045    3.24201513
     atom   19 type  3   force =     6.10205914   -1.77085382   -4.36004222
     atom   20 type  3   force =     2.98783594    2.10664324    8.23929220
     atom   21 type  3   force =    -6.21800605   -2.54827092    1.96595889
     atom   22 type  3   force =    -1.14517138   -6.38968342   -2.77336544
     atom   23 type  3   force =    -6.36835526    1.29107853    4.37570766
     atom   24 type  3   force =    -3.55568877   -0.77394686   -8.57340567
     atom   25 type  3   force =     7.28526033    2.85938492   -1.43151674
     The local contribution  to forces
     atom    1 type  2   force =    -1.17597554    0.37884239    1.99510068
     atom    2 type  1   force =   -11.32926518    2.26853351    1.37954766
     atom    3 type  1   force =    -5.95171121    3.13748713    1.45603766
     atom    4 type  1   force =    12.16742059   -3.45863530   -0.57454480
     atom    5 type  1   force =     4.02772456   -3.34937025   -2.46516892
     atom    6 type  4   force =     0.86480580   -0.12309386   -0.21626556
     atom    7 type  4   force =    -4.37976303   -0.13544299   -1.05346477
     atom    8 type  4   force =    -0.04913560   -0.14016015    0.00486112
     atom    9 type  4   force =     4.01170423    0.40541555    0.83924431
     atom   10 type  3   force =     5.65045832   -0.22074151   -0.38044426
     atom   11 type  3   force =    -9.96289967    1.00293777   -0.82563919
     atom   12 type  3   force =    -3.07788631   -1.29561417   -1.04882131
     atom   13 type  3   force =     9.56526539   -0.54894079    0.75286716
     atom   14 type  3   force =    -3.06469855    0.47803910   -6.40052799
     atom   15 type  3   force =     1.72369788    1.96194630   -3.10380786
     atom   16 type  3   force =     3.07974253   -0.50517159    6.57386089
     atom   17 type  3   force =    -1.48423140   -0.57093827    3.73054569
     atom   18 type  3   force =    -1.04351030   -3.38529262   -3.70189633
     atom   19 type  3   force =    -6.58863033    0.90500891    3.41754370
     atom   20 type  3   force =    -3.09698722   -0.82767917   -7.17318645
     atom   21 type  3   force =     6.66202006    1.52561992   -1.23797904
     atom   22 type  3   force =     0.53238619    5.08383064    3.33930058
     atom   23 type  3   force =     6.81229903   -0.40878347   -3.43356810
     atom   24 type  3   force =     3.59818222   -0.46837180    7.48695945
     atom   25 type  3   force =    -7.65664259   -1.81310928    0.74849696
     The core correction contribution to forces
     atom    1 type  2   force =     0.00000000    0.00000000    0.00000000
     atom    2 type  1   force =    -0.00127062    0.00214117    0.00122926
     atom    3 type  1   force =     0.00102576    0.00213285   -0.00059809
     atom    4 type  1   force =     0.00061097   -0.00207699   -0.00083804
     atom    5 type  1   force =    -0.00084161   -0.00234014    0.00045939
     atom    6 type  4   force =     0.00154981   -0.00193320   -0.00141161
     atom    7 type  4   force =     0.00226002   -0.00079429    0.00130995
     atom    8 type  4   force =    -0.00225767    0.00319454    0.00243760
     atom    9 type  4   force =    -0.00252072    0.00080422   -0.00157826
     atom   10 type  3   force =    -0.00093674    0.00066040    0.01233151
     atom   11 type  3   force =     0.00167622   -0.00123559    0.01248896
     atom   12 type  3   force =     0.00040935   -0.00079152   -0.01173864
     atom   13 type  3   force =    -0.00170981    0.00116066   -0.01241795
     atom   14 type  3   force =    -0.01066479    0.00003809    0.00547200
     atom   15 type  3   force =     0.00927126   -0.00485134    0.00371041
     atom   16 type  3   force =     0.01036030   -0.00009297   -0.00582379
     atom   17 type  3   force =    -0.00937207    0.00473816   -0.00456481
     atom   18 type  3   force =     0.00559022    0.01072222   -0.00364327
     atom   19 type  3   force =    -0.00405910   -0.00681647   -0.00837236
     atom   20 type  3   force =    -0.00064310    0.01026112    0.00961871
     atom   21 type  3   force =     0.00366682   -0.00835375    0.00640560
     atom   22 type  3   force =    -0.00479765   -0.01144889    0.00463287
     atom   23 type  3   force =     0.00368849    0.00700445    0.00839208
     atom   24 type  3   force =     0.00009102   -0.00999989   -0.00982858
     atom   25 type  3   force =    -0.00303565    0.00857977   -0.00598676
     The Hubbard contrib.    to forces
     atom    1 type  2   force =     0.00000000    0.00000000    0.00000000
     atom    2 type  1   force =     0.00000000    0.00000000    0.00000000
     atom    3 type  1   force =     0.00000000    0.00000000    0.00000000
     atom    4 type  1   force =     0.00000000    0.00000000    0.00000000
     atom    5 type  1   force =     0.00000000    0.00000000    0.00000000
     atom    6 type  4   force =     0.00000000    0.00000000    0.00000000
     atom    7 type  4   force =     0.00000000    0.00000000    0.00000000
     atom    8 type  4   force =     0.00000000    0.00000000    0.00000000
     atom    9 type  4   force =     0.00000000    0.00000000    0.00000000
     atom   10 type  3   force =     0.00000000    0.00000000    0.00000000
     atom   11 type  3   force =     0.00000000    0.00000000    0.00000000
     atom   12 type  3   force =     0.00000000    0.00000000    0.00000000
     atom   13 type  3   force =     0.00000000    0.00000000    0.00000000
     atom   14 type  3   force =     0.00000000    0.00000000    0.00000000
     atom   15 type  3   force =     0.00000000    0.00000000    0.00000000
     atom   16 type  3   force =     0.00000000    0.00000000    0.00000000
     atom   17 type  3   force =     0.00000000    0.00000000    0.00000000
     atom   18 type  3   force =     0.00000000    0.00000000    0.00000000
     atom   19 type  3   force =     0.00000000    0.00000000    0.00000000
     atom   20 type  3   force =     0.00000000    0.00000000    0.00000000
     atom   21 type  3   force =     0.00000000    0.00000000    0.00000000
     atom   22 type  3   force =     0.00000000    0.00000000    0.00000000
     atom   23 type  3   force =     0.00000000    0.00000000    0.00000000
     atom   24 type  3   force =     0.00000000    0.00000000    0.00000000
     atom   25 type  3   force =     0.00000000    0.00000000    0.00000000
     The SCF correction term to forces
     atom    1 type  2   force =    -0.00001280   -0.00000046   -0.00000046
     atom    2 type  1   force =     0.00000968   -0.00000045    0.00000114
     atom    3 type  1   force =    -0.00000023   -0.00000114   -0.00000092
     atom    4 type  1   force =     0.00000038    0.00000045   -0.00000051
     atom    5 type  1   force =    -0.00000823    0.00000032   -0.00000016
     atom    6 type  4   force =    -0.00000604    0.00000051    0.00000000
     atom    7 type  4   force =     0.00000756   -0.00000000    0.00000119
     atom    8 type  4   force =    -0.00000698    0.00000060    0.00000069
     atom    9 type  4   force =     0.00000537    0.00000038    0.00000008
     atom   10 type  3   force =    -0.00000758    0.00000041   -0.00000111
     atom   11 type  3   force =     0.00000974   -0.00000050   -0.00000303
     atom   12 type  3   force =    -0.00000933   -0.00000013   -0.00000223
     atom   13 type  3   force =     0.00000584    0.00000019   -0.00000132
     atom   14 type  3   force =     0.00001139   -0.00000001    0.00000138
     atom   15 type  3   force =    -0.00001083   -0.00000100    0.00000195
     atom   16 type  3   force =     0.00001075   -0.00000023    0.00000166
     atom   17 type  3   force =    -0.00001032   -0.00000036    0.00000097
     atom   18 type  3   force =    -0.00000423    0.00000039    0.00000135
     atom   19 type  3   force =     0.00000716    0.00000077    0.00000131
     atom   20 type  3   force =    -0.00000799    0.00000202   -0.00000037
     atom   21 type  3   force =     0.00000423   -0.00000171    0.00000028
     atom   22 type  3   force =    -0.00000766    0.00000057    0.00000256
     atom   23 type  3   force =     0.00000377    0.00000283   -0.00000000
     atom   24 type  3   force =    -0.00000726    0.00000221   -0.00000284
     atom   25 type  3   force =     0.00000783   -0.00000055    0.00000237

     Total force =     0.121067     Total SCF correction =     0.000041


     Computing stress (Cartesian axis) and pressure


     negative rho (up, down):  0.000E+00 9.352E-04
          total   stress  (Ry/bohr**3)                   (kbar)     P=       60.25
   0.00032392   0.00000444   0.00001767           47.65        0.65        2.60
   0.00000444   0.00057645  -0.00014236            0.65       84.80      -20.94
   0.00001767  -0.00014236   0.00032824            2.60      -20.94       48.29

     kinetic stress (kbar)  27546.35     39.45    -46.41
                               39.45  27750.19    -25.12
                              -46.41    -25.12  27572.16

     local   stress (kbar)  -6822.51   4042.29  -5175.54
                             4042.29 -14253.68   2149.37
                            -5175.54   2149.37  -6039.03

     nonloc. stress (kbar)  -7075.53      8.93      0.45
                                8.93  -7022.86      8.41
                                0.45      8.41  -7043.77

     hartree stress (kbar)  14002.63  -1571.96   2128.40
                            -1571.96  18219.26   -835.82
                             2128.40   -835.82  14258.35

     exc-cor stress (kbar)  -2909.29     -3.15      2.54
                               -3.15  -2915.61     -1.31
                                2.54     -1.31  -2913.53

     corecor stress (kbar)  -3222.61      0.84     -0.86
                                0.84  -3223.66      0.08
                               -0.86      0.08  -3223.41

     ewald   stress (kbar) -21471.39  -2515.75   3094.03
                            -2515.75 -18468.84  -1316.56
                             3094.03  -1316.56 -22562.49

     hubbard stress (kbar)      0.00      0.00      0.00
                                0.00      0.00      0.00
                                0.00      0.00      0.00

     DFT-D   stress (kbar)      0.00      0.00      0.00
                                0.00      0.00      0.00
                                0.00      0.00      0.00

     XDM     stress (kbar)      0.00      0.00      0.00
                                0.00      0.00      0.00
                                0.00      0.00      0.00

     dft-nl  stress (kbar)      0.00      0.00      0.00
                                0.00      0.00      0.00
                                0.00      0.00      0.00

     TS-vdW  stress (kbar)      0.00      0.00      0.00
                                0.00      0.00      0.00
                                0.00      0.00      0.00



     init_run     :    324.09s CPU    343.25s WALL (       1 calls)
     electrons    :  27812.06s CPU  29074.10s WALL (       1 calls)
     forces       :    211.79s CPU    214.22s WALL (       1 calls)
     stress       :   1545.80s CPU   1558.07s WALL (       1 calls)

     Called by init_run:
     wfcinit      :    307.55s CPU    325.36s WALL (       1 calls)
     wfcinit:atom :      6.66s CPU      6.79s WALL (     316 calls)
     wfcinit:wfcr :    284.46s CPU    301.84s WALL (     316 calls)
     potinit      :      6.05s CPU      6.29s WALL (       1 calls)
     hinit0       :      5.76s CPU      5.92s WALL (       1 calls)

     Called by electrons:
     c_bands      :  24695.60s CPU  25694.57s WALL (      32 calls)
     sum_band     :   2909.35s CPU   3137.35s WALL (      32 calls)
     v_of_rho     :     55.33s CPU     58.17s WALL (      33 calls)
     v_h          :      2.79s CPU      2.94s WALL (      33 calls)
     v_xc         :     55.71s CPU     58.53s WALL (      35 calls)
     newd         :    111.73s CPU    143.99s WALL (      33 calls)
     PAW_pot      :     27.12s CPU     27.28s WALL (      33 calls)
     mix_rho      :     12.99s CPU     13.56s WALL (      32 calls)

     Called by c_bands:
     init_us_2    :    439.23s CPU    446.87s WALL (   21172 calls)
     cegterg      :  23973.08s CPU  24961.79s WALL (   10112 calls)

     Called by sum_band:
     sum_band:wei :      0.51s CPU      0.52s WALL (      32 calls)
     sum_band:loo :   2571.48s CPU   2762.60s WALL (      32 calls)
     sum_band:buf :    117.62s CPU    119.27s WALL (   10112 calls)
     sum_band:ini :    211.15s CPU    214.41s WALL (   10112 calls)
     sum_band:cal :   1272.02s CPU   1280.07s WALL (   10112 calls)
     sum_band:bec :      5.37s CPU      5.51s WALL (   10112 calls)
     addusdens    :    328.56s CPU    365.11s WALL (      32 calls)
     addusd:skk   :      1.36s CPU      1.43s WALL (      96 calls)
     addusd:dgemm :    102.49s CPU    132.81s WALL (     192 calls)
     addusd:qvan2 :    222.29s CPU    224.94s WALL (     192 calls)

     Called by *egterg:
     cdiaghg      :    839.67s CPU    860.13s WALL (   38911 calls)
     cegterg:over :   2495.36s CPU   2524.22s WALL (   28799 calls)
     cegterg:upda :   1580.22s CPU   1587.13s WALL (   28799 calls)
     cegterg:last :   3144.48s CPU   3158.00s WALL (   17526 calls)
     h_psi        :  11308.09s CPU  12211.99s WALL (   39227 calls)
     s_psi        :   3119.44s CPU   3132.72s WALL (   39227 calls)
     g_psi        :     48.72s CPU     49.24s WALL (   28799 calls)

     Called by h_psi:
     h_psi:calbec :   3226.97s CPU   3252.82s WALL (   39227 calls)
     vloc_psi     :   4596.36s CPU   5453.41s WALL (   39227 calls)
     add_vuspsi   :   3208.02s CPU   3222.72s WALL (   39227 calls)

     General routines
     calbec       :   4743.43s CPU   4778.92s WALL (   50919 calls)
     fft          :     50.19s CPU     53.46s WALL (     863 calls)
     ffts         :      0.44s CPU      0.52s WALL (     130 calls)
     fftw         :   5181.98s CPU   6152.43s WALL ( 6310506 calls)
     interpolate  :      4.14s CPU      4.40s WALL (      66 calls)

     Parallel routines
     fft_scatt_xy :    391.10s CPU    465.48s WALL ( 6311499 calls)
     fft_scatt_yz :   2136.76s CPU   2654.66s WALL ( 6311499 calls)

     PAW routines
     PAW_pot      :     27.12s CPU     27.28s WALL (      33 calls)

     PWSCF        :      8h18m CPU      8h39m WALL


   This run was terminated on:   9:19:19  24Dec2022            

=------------------------------------------------------------------------------=
   JOB DONE.
=------------------------------------------------------------------------------=
Note: The following floating-point exceptions are signalling: IEEE_UNDERFLOW_FLAG IEEE_DENORMAL
Note: The following floating-point exceptions are signalling: IEEE_INVALID_FLAG IEEE_DENORMAL
Note: The following floating-point exceptions are signalling: IEEE_DENORMAL
Note: The following floating-point exceptions are signalling: IEEE_DENORMAL
Note: The following floating-point exceptions are signalling: IEEE_DENORMAL
Note: The following floating-point exceptions are signalling: IEEE_DENORMAL
Note: The following floating-point exceptions are signalling: IEEE_DENORMAL
Note: The following floating-point exceptions are signalling: IEEE_DENORMAL
Note: The following floating-point exceptions are signalling: IEEE_DENORMAL
