
     Program PWSCF v.6.7MaX starts on 24Dec2022 at  6:44:27 

     This program is part of the open-source Quantum ESPRESSO suite
     for quantum simulation of materials; please cite
         "P. Giannozzi et al., J. Phys.:Condens. Matter 21 395502 (2009);
         "P. Giannozzi et al., J. Phys.:Condens. Matter 29 465901 (2017);
          URL http://www.quantum-espresso.org", 
     in publications or presentations arising from this work. More details at
     http://www.quantum-espresso.org/quote

     Parallel version (MPI), running on    12 processors

     MPI processes distributed on     1 nodes
     R & G space division:  proc/nbgrp/npool/nimage =      12
     Reading input from scale_2dab-03.in

     Current dimensions of program PWSCF are:
     Max number of different atomic species (ntypx) = 10
     Max number of k-points (npk) =  40000
     Max angular momentum in pseudopotentials (lmaxx) =  3
     Message from routine read_pp_mesh:
     mesh size missing, using the one in header
     file Fe.pbe-spn-kjpaw_psl.0.2.1.UPF: wavefunction(s)  3D renormalized
     file O.pbe-n-kjpaw_psl.0.1.UPF: wavefunction(s)  2P renormalized

     Subspace diagonalization in iterative solution of the eigenvalue problem:
     a serial algorithm will be used


     Parallelization info
     --------------------
     sticks:   dense  smooth     PW     G-vecs:    dense   smooth      PW
     Min        1710     633    170               111526    25140    3532
     Max        1711     634    171               111528    25141    3535
     Sum       20521    7599   2049              1338317   301689   42399



     bravais-lattice index     =            0
     lattice parameter (alat)  =      19.9928  a.u.
     unit-cell volume          =    2232.9698 (a.u.)^3
     number of atoms/cell      =           25
     number of atomic types    =            4
     number of electrons       =       189.00
     number of Kohn-Sham states=          114
     kinetic-energy cutoff     =     100.0000  Ry
     charge density cutoff     =    1080.0000  Ry
     scf convergence threshold =      2.0E-10
     mixing beta               =       0.4000
     number of iterations used =            8  plain     mixing
     Exchange-correlation= PBE
                           (   1   4   3   4   0   0   0)

     celldm(1)=  19.992808  celldm(2)=   0.000000  celldm(3)=   0.000000
     celldm(4)=   0.000000  celldm(5)=   0.000000  celldm(6)=   0.000000

     crystal axes: (cart. coord. in units of alat)
               a(1) = (   1.000000   0.000000   0.000000 )  
               a(2) = (   0.000000   0.597590   0.000000 )  
               a(3) = (   0.000000   0.000000   0.467582 )  

     reciprocal axes: (cart. coord. in units 2 pi/alat)
               b(1) = (  1.000000  0.000000  0.000000 )  
               b(2) = (  0.000000  1.673388  0.000000 )  
               b(3) = (  0.000000  0.000000  2.138660 )  


     PseudoPot. # 1 for Fe read from file:
     /opt/QEpot/SSSP_precision_pseudos/Fe.pbe-spn-kjpaw_psl.0.2.1.UPF
     MD5 check sum: e86618425769142926afa95317d90200
     Pseudo is Projector augmented-wave + core cor, Zval = 16.0
     Generated using "atomic" code by A. Dal Corso  v.5.0.99 svn rev. 10869
     Shape of augmentation charge: PSQ
     Using radial grid of 1191 points,  6 beta functions with: 
                l(1) =   0
                l(2) =   0
                l(3) =   1
                l(4) =   1
                l(5) =   2
                l(6) =   2
     Q(r) pseudized with 0 coefficients 


     PseudoPot. # 2 for Na read from file:
     /opt/QEpot/SSSP_precision_pseudos/Na_ONCV_PBE-1.0.oncvpsp.upf
     MD5 check sum: 24a298df0a6742ae313db96548fdb2a4
     Pseudo is Norm-conserving, Zval =  9.0
     Generated using ONCVPSP code by D. R. Hamann
     Using radial grid of 1992 points,  4 beta functions with: 
                l(1) =   0
                l(2) =   0
                l(3) =   1
                l(4) =   1

     PseudoPot. # 3 for O  read from file:
     /opt/QEpot/SSSP_precision_pseudos/O.pbe-n-kjpaw_psl.0.1.UPF
     MD5 check sum: 0234752ac141de4415c5fc33072bef88
     Pseudo is Projector augmented-wave + core cor, Zval =  6.0
     Generated using "atomic" code by A. Dal Corso  v.5.0.99 svn rev. 10869
     Shape of augmentation charge: BESSEL
     Using radial grid of 1095 points,  4 beta functions with: 
                l(1) =   0
                l(2) =   0
                l(3) =   1
                l(4) =   1
     Q(r) pseudized with 0 coefficients 


     PseudoPot. # 4 for P  read from file:
     /opt/QEpot/SSSP_precision_pseudos/P.pbe-n-rrkjus_psl.1.0.0.UPF
     MD5 check sum: 8b930f418f0a4573dca56cd030ffe088
     Pseudo is Ultrasoft + core correction, Zval =  5.0
     Generated using "atomic" code by A. Dal Corso  v.5.1
     Using radial grid of 1147 points,  6 beta functions with: 
                l(1) =   0
                l(2) =   0
                l(3) =   1
                l(4) =   1
                l(5) =   2
                l(6) =   2
     Q(r) pseudized with 0 coefficients 


     atomic species   valence    mass     pseudopotential
        Fe            16.00    55.84500     Fe( 1.00)
        Na             9.00    22.98977     Na( 1.00)
        O              6.00    15.99940     O ( 1.00)
        P              5.00    30.97376     P ( 1.00)

     Starting magnetic structure 
     atomic species   magnetization
        Fe           0.312
        Na           0.000
        O            0.000
        P            0.000

     No symmetry found


                                    s                        frac. trans.

      isym =  1     identity                                     

 cryst.   s( 1) = (     1          0          0      )
                  (     0          1          0      )
                  (     0          0          1      )

 cart.    s( 1) = (  1.0000000  0.0000000  0.0000000 )
                  (  0.0000000  1.0000000  0.0000000 )
                  (  0.0000000  0.0000000  1.0000000 )


   Cartesian axes

     site n.     atom                  positions (alat units)
         1           Na  tau(   1) = (   0.0115800   0.0456726   0.0410126  )
         2           Fe  tau(   2) = (   0.2913450   0.4565557   0.4361459  )
         3           Fe  tau(   3) = (   0.2201160   0.1701249   0.2445045  )
         4           Fe  tau(   4) = (   0.7060870   0.1381024   0.0451427  )
         5           Fe  tau(   5) = (   0.7822730   0.4331541   0.2439761  )
         6           P   tau(   6) = (   0.0983660   0.4262256   0.1860651  )
         7           P   tau(   7) = (   0.3920650   0.1500871   0.4484714  )
         8           P   tau(   8) = (   0.8987800   0.1640050   0.2951965  )
         9           P   tau(   9) = (   0.6075130   0.4445597   0.0378882  )
        10           O   tau(  10) = (   0.1414110   0.4366106   0.3253397  )
        11           O   tau(  11) = (   0.3553680   0.1477290   0.1212932  )
        12           O   tau(  12) = (   0.8583390   0.1502281   0.1555675  )
        13           O   tau(  13) = (   0.6447440   0.4487153   0.3649995  )
        14           O   tau(  14) = (   0.4604880   0.4456162   0.0530234  )
        15           O   tau(  15) = (   0.0440330   0.1281012   0.3110709  )
        16           O   tau(  16) = (   0.5386000   0.1480720   0.4307407  )
        17           O   tau(  17) = (   0.9551650   0.4673183   0.1692041  )
        18           O   tau(  18) = (   0.1816090   0.5229868   0.1057213  )
        19           O   tau(  19) = (   0.3245340   0.0377498   0.3722405  )
        20           O   tau(  20) = (   0.8658190   0.2991631   0.3468064  )
        21           O   tau(  21) = (   0.6737520   0.3275671   0.1094559  )
        22           O   tau(  22) = (   0.8208630   0.0659942   0.3784818  )
        23           O   tau(  23) = (   0.6725030   0.5584645   0.1144623  )
        24           O   tau(  24) = (   0.1268440   0.2902936   0.1316801  )
        25           O   tau(  25) = (   0.3278730   0.2680173   0.3764885  )

   Crystallographic axes

     site n.     atom                  positions (cryst. coord.)
         1           Na  tau(   1) = (  0.0115800  0.0764280  0.0877120  )
         2           Fe  tau(   2) = (  0.2913450  0.7639950  0.9327680  )
         3           Fe  tau(   3) = (  0.2201160  0.2846850  0.5229120  )
         4           Fe  tau(   4) = (  0.7060870  0.2310990  0.0965450  )
         5           Fe  tau(   5) = (  0.7822730  0.7248350  0.5217820  )
         6           P   tau(   6) = (  0.0983660  0.7132410  0.3979300  )
         7           P   tau(   7) = (  0.3920650  0.2511540  0.9591280  )
         8           P   tau(   8) = (  0.8987800  0.2744440  0.6313250  )
         9           P   tau(   9) = (  0.6075130  0.7439210  0.0810300  )
        10           O   tau(  10) = (  0.1414110  0.7306190  0.6957910  )
        11           O   tau(  11) = (  0.3553680  0.2472080  0.2594050  )
        12           O   tau(  12) = (  0.8583390  0.2513900  0.3327060  )
        13           O   tau(  13) = (  0.6447440  0.7508750  0.7806100  )
        14           O   tau(  14) = (  0.4604880  0.7456890  0.1133990  )
        15           O   tau(  15) = (  0.0440330  0.2143630  0.6652750  )
        16           O   tau(  16) = (  0.5386000  0.2477820  0.9212080  )
        17           O   tau(  17) = (  0.9551650  0.7820050  0.3618700  )
        18           O   tau(  18) = (  0.1816090  0.8751600  0.2261020  )
        19           O   tau(  19) = (  0.3245340  0.0631700  0.7960960  )
        20           O   tau(  20) = (  0.8658190  0.5006160  0.7417010  )
        21           O   tau(  21) = (  0.6737520  0.5481470  0.2340890  )
        22           O   tau(  22) = (  0.8208630  0.1104340  0.8094440  )
        23           O   tau(  23) = (  0.6725030  0.9345280  0.2447960  )
        24           O   tau(  24) = (  0.1268440  0.4857740  0.2816190  )
        25           O   tau(  25) = (  0.3278730  0.4484970  0.8051810  )

     number of k points=   158  Marzari-Vanderbilt smearing, width (Ry)=  0.0073
                       cart. coord. in units 2pi/alat
        k(    1) = (   0.0000000   0.0000000   0.0000000), wk =   0.0031746
        k(    2) = (   0.0000000   0.0000000   0.2376289), wk =   0.0063492
        k(    3) = (   0.0000000   0.0000000   0.4752578), wk =   0.0063492
        k(    4) = (   0.0000000   0.0000000   0.7128867), wk =   0.0063492
        k(    5) = (   0.0000000   0.0000000   0.9505157), wk =   0.0063492
        k(    6) = (   0.0000000   0.2390555   0.0000000), wk =   0.0063492
        k(    7) = (   0.0000000   0.2390555   0.2376289), wk =   0.0063492
        k(    8) = (   0.0000000   0.2390555   0.4752578), wk =   0.0063492
        k(    9) = (   0.0000000   0.2390555   0.7128867), wk =   0.0063492
        k(   10) = (   0.0000000   0.2390555   0.9505157), wk =   0.0063492
        k(   11) = (   0.0000000   0.4781110   0.0000000), wk =   0.0063492
        k(   12) = (   0.0000000   0.4781110   0.2376289), wk =   0.0063492
        k(   13) = (   0.0000000   0.4781110   0.4752578), wk =   0.0063492
        k(   14) = (   0.0000000   0.4781110   0.7128867), wk =   0.0063492
        k(   15) = (   0.0000000   0.4781110   0.9505157), wk =   0.0063492
        k(   16) = (   0.0000000   0.7171664   0.0000000), wk =   0.0063492
        k(   17) = (   0.0000000   0.7171664   0.2376289), wk =   0.0063492
        k(   18) = (   0.0000000   0.7171664   0.4752578), wk =   0.0063492
        k(   19) = (   0.0000000   0.7171664   0.7128867), wk =   0.0063492
        k(   20) = (   0.0000000   0.7171664   0.9505157), wk =   0.0063492
        k(   21) = (   0.2000000   0.0000000   0.0000000), wk =   0.0063492
        k(   22) = (   0.2000000   0.0000000   0.2376289), wk =   0.0063492
        k(   23) = (   0.2000000   0.0000000   0.4752578), wk =   0.0063492
        k(   24) = (   0.2000000   0.0000000   0.7128867), wk =   0.0063492
        k(   25) = (   0.2000000   0.0000000   0.9505157), wk =   0.0063492
        k(   26) = (   0.2000000   0.2390555   0.0000000), wk =   0.0063492
        k(   27) = (   0.2000000   0.2390555   0.2376289), wk =   0.0063492
        k(   28) = (   0.2000000   0.2390555   0.4752578), wk =   0.0063492
        k(   29) = (   0.2000000   0.2390555   0.7128867), wk =   0.0063492
        k(   30) = (   0.2000000   0.2390555   0.9505157), wk =   0.0063492
        k(   31) = (   0.2000000   0.4781110   0.0000000), wk =   0.0063492
        k(   32) = (   0.2000000   0.4781110   0.2376289), wk =   0.0063492
        k(   33) = (   0.2000000   0.4781110   0.4752578), wk =   0.0063492
        k(   34) = (   0.2000000   0.4781110   0.7128867), wk =   0.0063492
        k(   35) = (   0.2000000   0.4781110   0.9505157), wk =   0.0063492
        k(   36) = (   0.2000000   0.7171664   0.0000000), wk =   0.0063492
        k(   37) = (   0.2000000   0.7171664   0.2376289), wk =   0.0063492
        k(   38) = (   0.2000000   0.7171664   0.4752578), wk =   0.0063492
        k(   39) = (   0.2000000   0.7171664   0.7128867), wk =   0.0063492
        k(   40) = (   0.2000000   0.7171664   0.9505157), wk =   0.0063492
        k(   41) = (   0.4000000   0.0000000   0.0000000), wk =   0.0063492
        k(   42) = (   0.4000000   0.0000000   0.2376289), wk =   0.0063492
        k(   43) = (   0.4000000   0.0000000   0.4752578), wk =   0.0063492
        k(   44) = (   0.4000000   0.0000000   0.7128867), wk =   0.0063492
        k(   45) = (   0.4000000   0.0000000   0.9505157), wk =   0.0063492
        k(   46) = (   0.4000000   0.2390555   0.0000000), wk =   0.0063492
        k(   47) = (   0.4000000   0.2390555   0.2376289), wk =   0.0063492
        k(   48) = (   0.4000000   0.2390555   0.4752578), wk =   0.0063492
        k(   49) = (   0.4000000   0.2390555   0.7128867), wk =   0.0063492
        k(   50) = (   0.4000000   0.2390555   0.9505157), wk =   0.0063492
        k(   51) = (   0.4000000   0.4781110   0.0000000), wk =   0.0063492
        k(   52) = (   0.4000000   0.4781110   0.2376289), wk =   0.0063492
        k(   53) = (   0.4000000   0.4781110   0.4752578), wk =   0.0063492
        k(   54) = (   0.4000000   0.4781110   0.7128867), wk =   0.0063492
        k(   55) = (   0.4000000   0.4781110   0.9505157), wk =   0.0063492
        k(   56) = (   0.4000000   0.7171664   0.0000000), wk =   0.0063492
        k(   57) = (   0.4000000   0.7171664   0.2376289), wk =   0.0063492
        k(   58) = (   0.4000000   0.7171664   0.4752578), wk =   0.0063492
        k(   59) = (   0.4000000   0.7171664   0.7128867), wk =   0.0063492
        k(   60) = (   0.4000000   0.7171664   0.9505157), wk =   0.0063492
        k(   61) = (   0.0000000  -0.2390555   0.2376289), wk =   0.0063492
        k(   62) = (   0.0000000  -0.2390555   0.4752578), wk =   0.0063492
        k(   63) = (   0.0000000  -0.2390555   0.7128867), wk =   0.0063492
        k(   64) = (   0.0000000  -0.2390555   0.9505157), wk =   0.0063492
        k(   65) = (   0.0000000  -0.4781110   0.2376289), wk =   0.0063492
        k(   66) = (   0.0000000  -0.4781110   0.4752578), wk =   0.0063492
        k(   67) = (   0.0000000  -0.4781110   0.7128867), wk =   0.0063492
        k(   68) = (   0.0000000  -0.4781110   0.9505157), wk =   0.0063492
        k(   69) = (   0.0000000  -0.7171664   0.2376289), wk =   0.0063492
        k(   70) = (   0.0000000  -0.7171664   0.4752578), wk =   0.0063492
        k(   71) = (   0.0000000  -0.7171664   0.7128867), wk =   0.0063492
        k(   72) = (   0.0000000  -0.7171664   0.9505157), wk =   0.0063492
        k(   73) = (  -0.2000000   0.0000000   0.2376289), wk =   0.0063492
        k(   74) = (  -0.2000000   0.0000000   0.4752578), wk =   0.0063492
        k(   75) = (  -0.2000000   0.0000000   0.7128867), wk =   0.0063492
        k(   76) = (  -0.2000000   0.0000000   0.9505157), wk =   0.0063492
        k(   77) = (  -0.2000000   0.2390555   0.0000000), wk =   0.0063492
        k(   78) = (  -0.2000000  -0.2390555   0.2376289), wk =   0.0063492
        k(   79) = (  -0.2000000   0.2390555  -0.2376289), wk =   0.0063492
        k(   80) = (   0.2000000  -0.2390555  -0.2376289), wk =   0.0063492
        k(   81) = (  -0.2000000  -0.2390555   0.4752578), wk =   0.0063492
        k(   82) = (  -0.2000000   0.2390555  -0.4752578), wk =   0.0063492
        k(   83) = (   0.2000000  -0.2390555  -0.4752578), wk =   0.0063492
        k(   84) = (  -0.2000000  -0.2390555   0.7128867), wk =   0.0063492
        k(   85) = (  -0.2000000   0.2390555  -0.7128867), wk =   0.0063492
        k(   86) = (   0.2000000  -0.2390555  -0.7128867), wk =   0.0063492
        k(   87) = (  -0.2000000  -0.2390555   0.9505157), wk =   0.0063492
        k(   88) = (  -0.2000000   0.2390555  -0.9505157), wk =   0.0063492
        k(   89) = (   0.2000000  -0.2390555  -0.9505157), wk =   0.0063492
        k(   90) = (  -0.2000000   0.4781110   0.0000000), wk =   0.0063492
        k(   91) = (  -0.2000000  -0.4781110   0.2376289), wk =   0.0063492
        k(   92) = (  -0.2000000   0.4781110  -0.2376289), wk =   0.0063492
        k(   93) = (   0.2000000  -0.4781110  -0.2376289), wk =   0.0063492
        k(   94) = (  -0.2000000  -0.4781110   0.4752578), wk =   0.0063492
        k(   95) = (  -0.2000000   0.4781110  -0.4752578), wk =   0.0063492
        k(   96) = (   0.2000000  -0.4781110  -0.4752578), wk =   0.0063492
        k(   97) = (  -0.2000000  -0.4781110   0.7128867), wk =   0.0063492
        k(   98) = (  -0.2000000   0.4781110  -0.7128867), wk =   0.0063492
        k(   99) = (   0.2000000  -0.4781110  -0.7128867), wk =   0.0063492
        k(  100) = (  -0.2000000  -0.4781110   0.9505157), wk =   0.0063492
        k(  101) = (  -0.2000000   0.4781110  -0.9505157), wk =   0.0063492
        k(  102) = (   0.2000000  -0.4781110  -0.9505157), wk =   0.0063492
        k(  103) = (  -0.2000000   0.7171664   0.0000000), wk =   0.0063492
        k(  104) = (  -0.2000000  -0.7171664   0.2376289), wk =   0.0063492
        k(  105) = (  -0.2000000   0.7171664  -0.2376289), wk =   0.0063492
        k(  106) = (   0.2000000  -0.7171664  -0.2376289), wk =   0.0063492
        k(  107) = (  -0.2000000  -0.7171664   0.4752578), wk =   0.0063492
        k(  108) = (  -0.2000000   0.7171664  -0.4752578), wk =   0.0063492
        k(  109) = (   0.2000000  -0.7171664  -0.4752578), wk =   0.0063492
        k(  110) = (  -0.2000000  -0.7171664   0.7128867), wk =   0.0063492
        k(  111) = (  -0.2000000   0.7171664  -0.7128867), wk =   0.0063492
        k(  112) = (   0.2000000  -0.7171664  -0.7128867), wk =   0.0063492
        k(  113) = (  -0.2000000  -0.7171664   0.9505157), wk =   0.0063492
        k(  114) = (  -0.2000000   0.7171664  -0.9505157), wk =   0.0063492
        k(  115) = (   0.2000000  -0.7171664  -0.9505157), wk =   0.0063492
        k(  116) = (  -0.4000000   0.0000000   0.2376289), wk =   0.0063492
        k(  117) = (  -0.4000000   0.0000000   0.4752578), wk =   0.0063492
        k(  118) = (  -0.4000000   0.0000000   0.7128867), wk =   0.0063492
        k(  119) = (  -0.4000000   0.0000000   0.9505157), wk =   0.0063492
        k(  120) = (  -0.4000000   0.2390555   0.0000000), wk =   0.0063492
        k(  121) = (  -0.4000000  -0.2390555   0.2376289), wk =   0.0063492
        k(  122) = (  -0.4000000   0.2390555  -0.2376289), wk =   0.0063492
        k(  123) = (   0.4000000  -0.2390555  -0.2376289), wk =   0.0063492
        k(  124) = (  -0.4000000  -0.2390555   0.4752578), wk =   0.0063492
        k(  125) = (  -0.4000000   0.2390555  -0.4752578), wk =   0.0063492
        k(  126) = (   0.4000000  -0.2390555  -0.4752578), wk =   0.0063492
        k(  127) = (  -0.4000000  -0.2390555   0.7128867), wk =   0.0063492
        k(  128) = (  -0.4000000   0.2390555  -0.7128867), wk =   0.0063492
        k(  129) = (   0.4000000  -0.2390555  -0.7128867), wk =   0.0063492
        k(  130) = (  -0.4000000  -0.2390555   0.9505157), wk =   0.0063492
        k(  131) = (  -0.4000000   0.2390555  -0.9505157), wk =   0.0063492
        k(  132) = (   0.4000000  -0.2390555  -0.9505157), wk =   0.0063492
        k(  133) = (  -0.4000000   0.4781110   0.0000000), wk =   0.0063492
        k(  134) = (  -0.4000000  -0.4781110   0.2376289), wk =   0.0063492
        k(  135) = (  -0.4000000   0.4781110  -0.2376289), wk =   0.0063492
        k(  136) = (   0.4000000  -0.4781110  -0.2376289), wk =   0.0063492
        k(  137) = (  -0.4000000  -0.4781110   0.4752578), wk =   0.0063492
        k(  138) = (  -0.4000000   0.4781110  -0.4752578), wk =   0.0063492
        k(  139) = (   0.4000000  -0.4781110  -0.4752578), wk =   0.0063492
        k(  140) = (  -0.4000000  -0.4781110   0.7128867), wk =   0.0063492
        k(  141) = (  -0.4000000   0.4781110  -0.7128867), wk =   0.0063492
        k(  142) = (   0.4000000  -0.4781110  -0.7128867), wk =   0.0063492
        k(  143) = (  -0.4000000  -0.4781110   0.9505157), wk =   0.0063492
        k(  144) = (  -0.4000000   0.4781110  -0.9505157), wk =   0.0063492
        k(  145) = (   0.4000000  -0.4781110  -0.9505157), wk =   0.0063492
        k(  146) = (  -0.4000000   0.7171664   0.0000000), wk =   0.0063492
        k(  147) = (  -0.4000000  -0.7171664   0.2376289), wk =   0.0063492
        k(  148) = (  -0.4000000   0.7171664  -0.2376289), wk =   0.0063492
        k(  149) = (   0.4000000  -0.7171664  -0.2376289), wk =   0.0063492
        k(  150) = (  -0.4000000  -0.7171664   0.4752578), wk =   0.0063492
        k(  151) = (  -0.4000000   0.7171664  -0.4752578), wk =   0.0063492
        k(  152) = (   0.4000000  -0.7171664  -0.4752578), wk =   0.0063492
        k(  153) = (  -0.4000000  -0.7171664   0.7128867), wk =   0.0063492
        k(  154) = (  -0.4000000   0.7171664  -0.7128867), wk =   0.0063492
        k(  155) = (   0.4000000  -0.7171664  -0.7128867), wk =   0.0063492
        k(  156) = (  -0.4000000  -0.7171664   0.9505157), wk =   0.0063492
        k(  157) = (  -0.4000000   0.7171664  -0.9505157), wk =   0.0063492
        k(  158) = (   0.4000000  -0.7171664  -0.9505157), wk =   0.0063492

                       cryst. coord.
        k(    1) = (   0.0000000   0.0000000   0.0000000), wk =   0.0031746
        k(    2) = (   0.0000000   0.0000000   0.1111111), wk =   0.0063492
        k(    3) = (   0.0000000   0.0000000   0.2222222), wk =   0.0063492
        k(    4) = (   0.0000000   0.0000000   0.3333333), wk =   0.0063492
        k(    5) = (   0.0000000   0.0000000   0.4444444), wk =   0.0063492
        k(    6) = (   0.0000000   0.1428571   0.0000000), wk =   0.0063492
        k(    7) = (   0.0000000   0.1428571   0.1111111), wk =   0.0063492
        k(    8) = (   0.0000000   0.1428571   0.2222222), wk =   0.0063492
        k(    9) = (   0.0000000   0.1428571   0.3333333), wk =   0.0063492
        k(   10) = (   0.0000000   0.1428571   0.4444444), wk =   0.0063492
        k(   11) = (   0.0000000   0.2857143   0.0000000), wk =   0.0063492
        k(   12) = (   0.0000000   0.2857143   0.1111111), wk =   0.0063492
        k(   13) = (   0.0000000   0.2857143   0.2222222), wk =   0.0063492
        k(   14) = (   0.0000000   0.2857143   0.3333333), wk =   0.0063492
        k(   15) = (   0.0000000   0.2857143   0.4444444), wk =   0.0063492
        k(   16) = (   0.0000000   0.4285714   0.0000000), wk =   0.0063492
        k(   17) = (   0.0000000   0.4285714   0.1111111), wk =   0.0063492
        k(   18) = (   0.0000000   0.4285714   0.2222222), wk =   0.0063492
        k(   19) = (   0.0000000   0.4285714   0.3333333), wk =   0.0063492
        k(   20) = (   0.0000000   0.4285714   0.4444444), wk =   0.0063492
        k(   21) = (   0.2000000   0.0000000   0.0000000), wk =   0.0063492
        k(   22) = (   0.2000000   0.0000000   0.1111111), wk =   0.0063492
        k(   23) = (   0.2000000   0.0000000   0.2222222), wk =   0.0063492
        k(   24) = (   0.2000000   0.0000000   0.3333333), wk =   0.0063492
        k(   25) = (   0.2000000   0.0000000   0.4444444), wk =   0.0063492
        k(   26) = (   0.2000000   0.1428571   0.0000000), wk =   0.0063492
        k(   27) = (   0.2000000   0.1428571   0.1111111), wk =   0.0063492
        k(   28) = (   0.2000000   0.1428571   0.2222222), wk =   0.0063492
        k(   29) = (   0.2000000   0.1428571   0.3333333), wk =   0.0063492
        k(   30) = (   0.2000000   0.1428571   0.4444444), wk =   0.0063492
        k(   31) = (   0.2000000   0.2857143   0.0000000), wk =   0.0063492
        k(   32) = (   0.2000000   0.2857143   0.1111111), wk =   0.0063492
        k(   33) = (   0.2000000   0.2857143   0.2222222), wk =   0.0063492
        k(   34) = (   0.2000000   0.2857143   0.3333333), wk =   0.0063492
        k(   35) = (   0.2000000   0.2857143   0.4444444), wk =   0.0063492
        k(   36) = (   0.2000000   0.4285714   0.0000000), wk =   0.0063492
        k(   37) = (   0.2000000   0.4285714   0.1111111), wk =   0.0063492
        k(   38) = (   0.2000000   0.4285714   0.2222222), wk =   0.0063492
        k(   39) = (   0.2000000   0.4285714   0.3333333), wk =   0.0063492
        k(   40) = (   0.2000000   0.4285714   0.4444444), wk =   0.0063492
        k(   41) = (   0.4000000   0.0000000   0.0000000), wk =   0.0063492
        k(   42) = (   0.4000000   0.0000000   0.1111111), wk =   0.0063492
        k(   43) = (   0.4000000   0.0000000   0.2222222), wk =   0.0063492
        k(   44) = (   0.4000000   0.0000000   0.3333333), wk =   0.0063492
        k(   45) = (   0.4000000   0.0000000   0.4444444), wk =   0.0063492
        k(   46) = (   0.4000000   0.1428571   0.0000000), wk =   0.0063492
        k(   47) = (   0.4000000   0.1428571   0.1111111), wk =   0.0063492
        k(   48) = (   0.4000000   0.1428571   0.2222222), wk =   0.0063492
        k(   49) = (   0.4000000   0.1428571   0.3333333), wk =   0.0063492
        k(   50) = (   0.4000000   0.1428571   0.4444444), wk =   0.0063492
        k(   51) = (   0.4000000   0.2857143   0.0000000), wk =   0.0063492
        k(   52) = (   0.4000000   0.2857143   0.1111111), wk =   0.0063492
        k(   53) = (   0.4000000   0.2857143   0.2222222), wk =   0.0063492
        k(   54) = (   0.4000000   0.2857143   0.3333333), wk =   0.0063492
        k(   55) = (   0.4000000   0.2857143   0.4444444), wk =   0.0063492
        k(   56) = (   0.4000000   0.4285714   0.0000000), wk =   0.0063492
        k(   57) = (   0.4000000   0.4285714   0.1111111), wk =   0.0063492
        k(   58) = (   0.4000000   0.4285714   0.2222222), wk =   0.0063492
        k(   59) = (   0.4000000   0.4285714   0.3333333), wk =   0.0063492
        k(   60) = (   0.4000000   0.4285714   0.4444444), wk =   0.0063492
        k(   61) = (   0.0000000  -0.1428571   0.1111111), wk =   0.0063492
        k(   62) = (   0.0000000  -0.1428571   0.2222222), wk =   0.0063492
        k(   63) = (   0.0000000  -0.1428571   0.3333333), wk =   0.0063492
        k(   64) = (   0.0000000  -0.1428571   0.4444444), wk =   0.0063492
        k(   65) = (   0.0000000  -0.2857143   0.1111111), wk =   0.0063492
        k(   66) = (   0.0000000  -0.2857143   0.2222222), wk =   0.0063492
        k(   67) = (   0.0000000  -0.2857143   0.3333333), wk =   0.0063492
        k(   68) = (   0.0000000  -0.2857143   0.4444444), wk =   0.0063492
        k(   69) = (   0.0000000  -0.4285714   0.1111111), wk =   0.0063492
        k(   70) = (   0.0000000  -0.4285714   0.2222222), wk =   0.0063492
        k(   71) = (   0.0000000  -0.4285714   0.3333333), wk =   0.0063492
        k(   72) = (   0.0000000  -0.4285714   0.4444444), wk =   0.0063492
        k(   73) = (  -0.2000000   0.0000000   0.1111111), wk =   0.0063492
        k(   74) = (  -0.2000000   0.0000000   0.2222222), wk =   0.0063492
        k(   75) = (  -0.2000000   0.0000000   0.3333333), wk =   0.0063492
        k(   76) = (  -0.2000000   0.0000000   0.4444444), wk =   0.0063492
        k(   77) = (  -0.2000000   0.1428571   0.0000000), wk =   0.0063492
        k(   78) = (  -0.2000000  -0.1428571   0.1111111), wk =   0.0063492
        k(   79) = (  -0.2000000   0.1428571  -0.1111111), wk =   0.0063492
        k(   80) = (   0.2000000  -0.1428571  -0.1111111), wk =   0.0063492
        k(   81) = (  -0.2000000  -0.1428571   0.2222222), wk =   0.0063492
        k(   82) = (  -0.2000000   0.1428571  -0.2222222), wk =   0.0063492
        k(   83) = (   0.2000000  -0.1428571  -0.2222222), wk =   0.0063492
        k(   84) = (  -0.2000000  -0.1428571   0.3333333), wk =   0.0063492
        k(   85) = (  -0.2000000   0.1428571  -0.3333333), wk =   0.0063492
        k(   86) = (   0.2000000  -0.1428571  -0.3333333), wk =   0.0063492
        k(   87) = (  -0.2000000  -0.1428571   0.4444444), wk =   0.0063492
        k(   88) = (  -0.2000000   0.1428571  -0.4444444), wk =   0.0063492
        k(   89) = (   0.2000000  -0.1428571  -0.4444444), wk =   0.0063492
        k(   90) = (  -0.2000000   0.2857143   0.0000000), wk =   0.0063492
        k(   91) = (  -0.2000000  -0.2857143   0.1111111), wk =   0.0063492
        k(   92) = (  -0.2000000   0.2857143  -0.1111111), wk =   0.0063492
        k(   93) = (   0.2000000  -0.2857143  -0.1111111), wk =   0.0063492
        k(   94) = (  -0.2000000  -0.2857143   0.2222222), wk =   0.0063492
        k(   95) = (  -0.2000000   0.2857143  -0.2222222), wk =   0.0063492
        k(   96) = (   0.2000000  -0.2857143  -0.2222222), wk =   0.0063492
        k(   97) = (  -0.2000000  -0.2857143   0.3333333), wk =   0.0063492
        k(   98) = (  -0.2000000   0.2857143  -0.3333333), wk =   0.0063492
        k(   99) = (   0.2000000  -0.2857143  -0.3333333), wk =   0.0063492
        k(  100) = (  -0.2000000  -0.2857143   0.4444444), wk =   0.0063492
        k(  101) = (  -0.2000000   0.2857143  -0.4444444), wk =   0.0063492
        k(  102) = (   0.2000000  -0.2857143  -0.4444444), wk =   0.0063492
        k(  103) = (  -0.2000000   0.4285714   0.0000000), wk =   0.0063492
        k(  104) = (  -0.2000000  -0.4285714   0.1111111), wk =   0.0063492
        k(  105) = (  -0.2000000   0.4285714  -0.1111111), wk =   0.0063492
        k(  106) = (   0.2000000  -0.4285714  -0.1111111), wk =   0.0063492
        k(  107) = (  -0.2000000  -0.4285714   0.2222222), wk =   0.0063492
        k(  108) = (  -0.2000000   0.4285714  -0.2222222), wk =   0.0063492
        k(  109) = (   0.2000000  -0.4285714  -0.2222222), wk =   0.0063492
        k(  110) = (  -0.2000000  -0.4285714   0.3333333), wk =   0.0063492
        k(  111) = (  -0.2000000   0.4285714  -0.3333333), wk =   0.0063492
        k(  112) = (   0.2000000  -0.4285714  -0.3333333), wk =   0.0063492
        k(  113) = (  -0.2000000  -0.4285714   0.4444444), wk =   0.0063492
        k(  114) = (  -0.2000000   0.4285714  -0.4444444), wk =   0.0063492
        k(  115) = (   0.2000000  -0.4285714  -0.4444444), wk =   0.0063492
        k(  116) = (  -0.4000000   0.0000000   0.1111111), wk =   0.0063492
        k(  117) = (  -0.4000000   0.0000000   0.2222222), wk =   0.0063492
        k(  118) = (  -0.4000000   0.0000000   0.3333333), wk =   0.0063492
        k(  119) = (  -0.4000000   0.0000000   0.4444444), wk =   0.0063492
        k(  120) = (  -0.4000000   0.1428571   0.0000000), wk =   0.0063492
        k(  121) = (  -0.4000000  -0.1428571   0.1111111), wk =   0.0063492
        k(  122) = (  -0.4000000   0.1428571  -0.1111111), wk =   0.0063492
        k(  123) = (   0.4000000  -0.1428571  -0.1111111), wk =   0.0063492
        k(  124) = (  -0.4000000  -0.1428571   0.2222222), wk =   0.0063492
        k(  125) = (  -0.4000000   0.1428571  -0.2222222), wk =   0.0063492
        k(  126) = (   0.4000000  -0.1428571  -0.2222222), wk =   0.0063492
        k(  127) = (  -0.4000000  -0.1428571   0.3333333), wk =   0.0063492
        k(  128) = (  -0.4000000   0.1428571  -0.3333333), wk =   0.0063492
        k(  129) = (   0.4000000  -0.1428571  -0.3333333), wk =   0.0063492
        k(  130) = (  -0.4000000  -0.1428571   0.4444444), wk =   0.0063492
        k(  131) = (  -0.4000000   0.1428571  -0.4444444), wk =   0.0063492
        k(  132) = (   0.4000000  -0.1428571  -0.4444444), wk =   0.0063492
        k(  133) = (  -0.4000000   0.2857143   0.0000000), wk =   0.0063492
        k(  134) = (  -0.4000000  -0.2857143   0.1111111), wk =   0.0063492
        k(  135) = (  -0.4000000   0.2857143  -0.1111111), wk =   0.0063492
        k(  136) = (   0.4000000  -0.2857143  -0.1111111), wk =   0.0063492
        k(  137) = (  -0.4000000  -0.2857143   0.2222222), wk =   0.0063492
        k(  138) = (  -0.4000000   0.2857143  -0.2222222), wk =   0.0063492
        k(  139) = (   0.4000000  -0.2857143  -0.2222222), wk =   0.0063492
        k(  140) = (  -0.4000000  -0.2857143   0.3333333), wk =   0.0063492
        k(  141) = (  -0.4000000   0.2857143  -0.3333333), wk =   0.0063492
        k(  142) = (   0.4000000  -0.2857143  -0.3333333), wk =   0.0063492
        k(  143) = (  -0.4000000  -0.2857143   0.4444444), wk =   0.0063492
        k(  144) = (  -0.4000000   0.2857143  -0.4444444), wk =   0.0063492
        k(  145) = (   0.4000000  -0.2857143  -0.4444444), wk =   0.0063492
        k(  146) = (  -0.4000000   0.4285714   0.0000000), wk =   0.0063492
        k(  147) = (  -0.4000000  -0.4285714   0.1111111), wk =   0.0063492
        k(  148) = (  -0.4000000   0.4285714  -0.1111111), wk =   0.0063492
        k(  149) = (   0.4000000  -0.4285714  -0.1111111), wk =   0.0063492
        k(  150) = (  -0.4000000  -0.4285714   0.2222222), wk =   0.0063492
        k(  151) = (  -0.4000000   0.4285714  -0.2222222), wk =   0.0063492
        k(  152) = (   0.4000000  -0.4285714  -0.2222222), wk =   0.0063492
        k(  153) = (  -0.4000000  -0.4285714   0.3333333), wk =   0.0063492
        k(  154) = (  -0.4000000   0.4285714  -0.3333333), wk =   0.0063492
        k(  155) = (   0.4000000  -0.4285714  -0.3333333), wk =   0.0063492
        k(  156) = (  -0.4000000  -0.4285714   0.4444444), wk =   0.0063492
        k(  157) = (  -0.4000000   0.4285714  -0.4444444), wk =   0.0063492
        k(  158) = (   0.4000000  -0.4285714  -0.4444444), wk =   0.0063492

     Dense  grid:  1338317 G-vectors     FFT dimensions: ( 216, 125, 100)

     Smooth grid:   301689 G-vectors     FFT dimensions: ( 128,  80,  60)

     Dynamical RAM for                 wfc:       5.47 MB

     Dynamical RAM for     wfc (w. buffer):    1732.57 MB

     Dynamical RAM for           str. fact:       6.81 MB

     Dynamical RAM for           local pot:       0.00 MB

     Dynamical RAM for          nlocal pot:      13.42 MB

     Dynamical RAM for                qrad:      10.54 MB

     Dynamical RAM for          rho,v,vnew:      21.33 MB

     Dynamical RAM for               rhoin:       7.11 MB

     Dynamical RAM for            rho*nmix:      54.46 MB

     Dynamical RAM for           G-vectors:       6.57 MB

     Dynamical RAM for          h,s,v(r/c):       2.38 MB

     Dynamical RAM for          <psi|beta>:       0.49 MB

     Dynamical RAM for                 psi:      10.93 MB

     Dynamical RAM for                hpsi:      10.93 MB

     Dynamical RAM for                spsi:      10.93 MB

     Dynamical RAM for      wfcinit/wfcrot:      13.57 MB

     Dynamical RAM for           addusdens:     345.46 MB

     Dynamical RAM for          addusforce:     396.64 MB

     Dynamical RAM for         addusstress:     344.61 MB

     Estimated static dynamical RAM per process >       1.83 GB

     Estimated max dynamical RAM per process >       2.22 GB

     Estimated total dynamical RAM >      26.59 GB

     Check: negative core charge=   -0.000003
     Generating pointlists ...
     new r_m :   0.0758 (alat units)  1.5163 (a.u.) for type    1
     new r_m :   0.0893 (alat units)  1.7853 (a.u.) for type    2
     new r_m :   0.0599 (alat units)  1.1970 (a.u.) for type    3
     new r_m :   0.0599 (alat units)  1.1970 (a.u.) for type    4

     Initial potential from superposition of free atoms

     starting charge  188.99132, renormalised to  189.00000
     Starting wfcs are  137 randomized atomic wfcs
     Checking if some PAW data can be deallocated... 
       PAW data deallocated on   10 nodes for type:  1
       PAW data deallocated on    4 nodes for type:  3

     total cpu time spent up to now is      317.8 secs

     Self-consistent Calculation

     iteration #  1     ecut=   100.00 Ry     beta= 0.40
     Davidson diagonalization with overlap
     ethr =  1.00E-02,  avg # of iterations =  3.0

     negative rho (up, down):  0.000E+00 7.151E-05

     total cpu time spent up to now is     1305.8 secs

     total energy              =   -2123.90149753 Ry
     estimated scf accuracy    <       6.96865948 Ry

     total magnetization       =    19.00 Bohr mag/cell
     absolute magnetization    =    19.00 Bohr mag/cell

     iteration #  2     ecut=   100.00 Ry     beta= 0.40
     Davidson diagonalization with overlap
     ethr =  3.69E-03,  avg # of iterations =  2.0

     negative rho (up, down):  0.000E+00 5.783E-06

     total cpu time spent up to now is     2216.5 secs

     total energy              =   -2121.15234030 Ry
     estimated scf accuracy    <      34.13911228 Ry

     total magnetization       =     8.16 Bohr mag/cell
     absolute magnetization    =     9.67 Bohr mag/cell

     iteration #  3     ecut=   100.00 Ry     beta= 0.40
     Davidson diagonalization with overlap
     ethr =  3.69E-03,  avg # of iterations =  2.4

     negative rho (up, down):  0.000E+00 7.576E-06

     total cpu time spent up to now is     2994.5 secs

     total energy              =   -2123.57656435 Ry
     estimated scf accuracy    <      56.91262270 Ry

     total magnetization       =     4.29 Bohr mag/cell
     absolute magnetization    =     7.06 Bohr mag/cell

     iteration #  4     ecut=   100.00 Ry     beta= 0.40
     Davidson diagonalization with overlap
     ethr =  3.69E-03,  avg # of iterations =  1.9

     negative rho (up, down):  0.000E+00 3.252E-06

     total cpu time spent up to now is     3729.3 secs

     total energy              =   -2124.59453975 Ry
     estimated scf accuracy    <      32.36330069 Ry

     total magnetization       =     9.08 Bohr mag/cell
     absolute magnetization    =     9.45 Bohr mag/cell

     iteration #  5     ecut=   100.00 Ry     beta= 0.40
     Davidson diagonalization with overlap
     ethr =  3.69E-03,  avg # of iterations =  1.9

     negative rho (up, down):  0.000E+00 2.516E-05

     total cpu time spent up to now is     4470.0 secs

     total energy              =   -2125.74790308 Ry
     estimated scf accuracy    <       7.08315100 Ry

     total magnetization       =    15.63 Bohr mag/cell
     absolute magnetization    =    15.78 Bohr mag/cell

     iteration #  6     ecut=   100.00 Ry     beta= 0.40
     Davidson diagonalization with overlap
     ethr =  3.69E-03,  avg # of iterations =  1.5

     negative rho (up, down):  0.000E+00 1.663E-04

     total cpu time spent up to now is     5170.0 secs

     total energy              =   -2126.10098134 Ry
     estimated scf accuracy    <       1.08940403 Ry

     total magnetization       =    19.08 Bohr mag/cell
     absolute magnetization    =    19.08 Bohr mag/cell

     iteration #  7     ecut=   100.00 Ry     beta= 0.40
     Davidson diagonalization with overlap
     ethr =  5.76E-04,  avg # of iterations =  1.0

     negative rho (up, down):  0.000E+00 4.382E-04

     total cpu time spent up to now is     5814.1 secs

     total energy              =   -2126.07447781 Ry
     estimated scf accuracy    <       0.66676270 Ry

     total magnetization       =    19.00 Bohr mag/cell
     absolute magnetization    =    19.01 Bohr mag/cell

     iteration #  8     ecut=   100.00 Ry     beta= 0.40
     Davidson diagonalization with overlap
     ethr =  3.53E-04,  avg # of iterations =  2.0

     negative rho (up, down):  0.000E+00 5.914E-04

     total cpu time spent up to now is     6535.6 secs

     total energy              =   -2126.07111677 Ry
     estimated scf accuracy    <       0.56643135 Ry

     total magnetization       =    19.00 Bohr mag/cell
     absolute magnetization    =    19.01 Bohr mag/cell

     iteration #  9     ecut=   100.00 Ry     beta= 0.40
     Davidson diagonalization with overlap
     ethr =  3.00E-04,  avg # of iterations =  1.1

     negative rho (up, down):  0.000E+00 5.912E-04

     total cpu time spent up to now is     7214.0 secs

     total energy              =   -2126.10008756 Ry
     estimated scf accuracy    <       0.79545777 Ry

     total magnetization       =    19.00 Bohr mag/cell
     absolute magnetization    =    19.02 Bohr mag/cell

     iteration # 10     ecut=   100.00 Ry     beta= 0.40
     Davidson diagonalization with overlap
     ethr =  3.00E-04,  avg # of iterations =  1.0

     negative rho (up, down):  0.000E+00 7.003E-04

     total cpu time spent up to now is     7856.7 secs

     total energy              =   -2126.08713639 Ry
     estimated scf accuracy    <       0.38995689 Ry

     total magnetization       =    19.00 Bohr mag/cell
     absolute magnetization    =    19.01 Bohr mag/cell

     iteration # 11     ecut=   100.00 Ry     beta= 0.40
     Davidson diagonalization with overlap
     ethr =  2.06E-04,  avg # of iterations =  1.5

     negative rho (up, down):  0.000E+00 9.600E-04

     total cpu time spent up to now is     8534.7 secs

     total energy              =   -2126.09462547 Ry
     estimated scf accuracy    <       0.06477518 Ry

     total magnetization       =    19.00 Bohr mag/cell
     absolute magnetization    =    19.02 Bohr mag/cell

     iteration # 12     ecut=   100.00 Ry     beta= 0.40
     Davidson diagonalization with overlap
     c_bands:  1 eigenvalues not converged
     c_bands:  1 eigenvalues not converged
     c_bands:  1 eigenvalues not converged
     c_bands:  1 eigenvalues not converged
     c_bands:  1 eigenvalues not converged
     c_bands:  1 eigenvalues not converged
     c_bands:  1 eigenvalues not converged
     c_bands:  1 eigenvalues not converged
     c_bands:  1 eigenvalues not converged
     c_bands:  1 eigenvalues not converged
     c_bands:  1 eigenvalues not converged
     c_bands:  1 eigenvalues not converged
     ethr =  3.43E-05,  avg # of iterations = 14.7

     negative rho (up, down):  0.000E+00 9.351E-04

     total cpu time spent up to now is     9821.6 secs

     total energy              =   -2126.10005686 Ry
     estimated scf accuracy    <       0.19988727 Ry

     total magnetization       =    19.00 Bohr mag/cell
     absolute magnetization    =    19.03 Bohr mag/cell

     iteration # 13     ecut=   100.00 Ry     beta= 0.40
     Davidson diagonalization with overlap
     ethr =  3.43E-05,  avg # of iterations =  1.0

     negative rho (up, down):  0.000E+00 9.628E-04

     total cpu time spent up to now is    10464.1 secs

     total energy              =   -2126.10212230 Ry
     estimated scf accuracy    <       0.02707373 Ry

     total magnetization       =    19.00 Bohr mag/cell
     absolute magnetization    =    19.03 Bohr mag/cell

     iteration # 14     ecut=   100.00 Ry     beta= 0.40
     Davidson diagonalization with overlap
     c_bands:  1 eigenvalues not converged
     ethr =  1.43E-05,  avg # of iterations =  1.1

     negative rho (up, down):  0.000E+00 9.823E-04

     total cpu time spent up to now is    11112.8 secs

     total energy              =   -2126.10328885 Ry
     estimated scf accuracy    <       0.00236962 Ry

     total magnetization       =    19.00 Bohr mag/cell
     absolute magnetization    =    19.04 Bohr mag/cell

     iteration # 15     ecut=   100.00 Ry     beta= 0.40
     Davidson diagonalization with overlap
     c_bands:  1 eigenvalues not converged
     c_bands:  1 eigenvalues not converged
     c_bands:  1 eigenvalues not converged
     c_bands:  1 eigenvalues not converged
     c_bands:  1 eigenvalues not converged
     c_bands:  1 eigenvalues not converged
     c_bands:  1 eigenvalues not converged
     c_bands:  3 eigenvalues not converged
     c_bands:  1 eigenvalues not converged
     c_bands:  1 eigenvalues not converged
     c_bands:  1 eigenvalues not converged
     c_bands:  1 eigenvalues not converged
     c_bands:  1 eigenvalues not converged
     c_bands:  1 eigenvalues not converged
     c_bands:  1 eigenvalues not converged
     c_bands:  1 eigenvalues not converged
     c_bands:  1 eigenvalues not converged
     c_bands:  1 eigenvalues not converged
     c_bands:  1 eigenvalues not converged
     c_bands:  1 eigenvalues not converged
     c_bands:  1 eigenvalues not converged
     c_bands:  1 eigenvalues not converged
     c_bands:  1 eigenvalues not converged
     c_bands:  1 eigenvalues not converged
     c_bands:  1 eigenvalues not converged
     c_bands:  1 eigenvalues not converged
     c_bands:  1 eigenvalues not converged
     c_bands:  1 eigenvalues not converged
     ethr =  1.25E-06,  avg # of iterations = 11.3

     negative rho (up, down):  0.000E+00 9.733E-04

     total cpu time spent up to now is    12394.0 secs

     total energy              =   -2126.10387431 Ry
     estimated scf accuracy    <       0.00172475 Ry

     total magnetization       =    19.00 Bohr mag/cell
     absolute magnetization    =    19.04 Bohr mag/cell

     iteration # 16     ecut=   100.00 Ry     beta= 0.40
     Davidson diagonalization with overlap
     ethr =  9.13E-07,  avg # of iterations =  1.4

     negative rho (up, down):  0.000E+00 9.696E-04

     total cpu time spent up to now is    13047.7 secs

     total energy              =   -2126.10391048 Ry
     estimated scf accuracy    <       0.00269842 Ry

     total magnetization       =    19.00 Bohr mag/cell
     absolute magnetization    =    19.04 Bohr mag/cell

     iteration # 17     ecut=   100.00 Ry     beta= 0.40
     Davidson diagonalization with overlap
     ethr =  9.13E-07,  avg # of iterations =  1.0

     negative rho (up, down):  0.000E+00 9.662E-04

     total cpu time spent up to now is    13689.9 secs

     total energy              =   -2126.10395001 Ry
     estimated scf accuracy    <       0.00075170 Ry

     total magnetization       =    19.00 Bohr mag/cell
     absolute magnetization    =    19.04 Bohr mag/cell

     iteration # 18     ecut=   100.00 Ry     beta= 0.40
     Davidson diagonalization with overlap
     ethr =  3.98E-07,  avg # of iterations =  1.0

     negative rho (up, down):  0.000E+00 9.658E-04

     total cpu time spent up to now is    14333.9 secs

     total energy              =   -2126.10396943 Ry
     estimated scf accuracy    <       0.00026037 Ry

     total magnetization       =    19.00 Bohr mag/cell
     absolute magnetization    =    19.05 Bohr mag/cell

     iteration # 19     ecut=   100.00 Ry     beta= 0.40
     Davidson diagonalization with overlap
     ethr =  1.38E-07,  avg # of iterations =  1.5

     negative rho (up, down):  0.000E+00 9.640E-04

     total cpu time spent up to now is    15032.4 secs

     total energy              =   -2126.10398534 Ry
     estimated scf accuracy    <       0.00012062 Ry

     total magnetization       =    19.00 Bohr mag/cell
     absolute magnetization    =    19.05 Bohr mag/cell

     iteration # 20     ecut=   100.00 Ry     beta= 0.40
     Davidson diagonalization with overlap
     ethr =  6.38E-08,  avg # of iterations =  1.9

     negative rho (up, down):  0.000E+00 9.626E-04

     total cpu time spent up to now is    15746.4 secs

     total energy              =   -2126.10399311 Ry
     estimated scf accuracy    <       0.00001712 Ry

     total magnetization       =    19.00 Bohr mag/cell
     absolute magnetization    =    19.05 Bohr mag/cell

     iteration # 21     ecut=   100.00 Ry     beta= 0.40
     Davidson diagonalization with overlap
     ethr =  9.06E-09,  avg # of iterations =  4.8

     negative rho (up, down):  0.000E+00 9.614E-04

     total cpu time spent up to now is    16992.4 secs

     total energy              =   -2126.10400156 Ry
     estimated scf accuracy    <       0.00001625 Ry

     total magnetization       =    19.00 Bohr mag/cell
     absolute magnetization    =    19.05 Bohr mag/cell

     iteration # 22     ecut=   100.00 Ry     beta= 0.40
     Davidson diagonalization with overlap
     ethr =  8.60E-09,  avg # of iterations =  1.0

     negative rho (up, down):  0.000E+00 9.611E-04

     total cpu time spent up to now is    17634.1 secs

     total energy              =   -2126.10400197 Ry
     estimated scf accuracy    <       0.00000124 Ry

     total magnetization       =    19.00 Bohr mag/cell
     absolute magnetization    =    19.05 Bohr mag/cell

     iteration # 23     ecut=   100.00 Ry     beta= 0.40
     Davidson diagonalization with overlap
     ethr =  6.57E-10,  avg # of iterations =  1.1

     negative rho (up, down):  0.000E+00 9.611E-04

     total cpu time spent up to now is    18289.6 secs

     total energy              =   -2126.10400211 Ry
     estimated scf accuracy    <       0.00000025 Ry

     total magnetization       =    19.00 Bohr mag/cell
     absolute magnetization    =    19.05 Bohr mag/cell

     iteration # 24     ecut=   100.00 Ry     beta= 0.40
     Davidson diagonalization with overlap
     ethr =  1.30E-10,  avg # of iterations =  3.0

     negative rho (up, down):  0.000E+00 9.611E-04

     total cpu time spent up to now is    19153.5 secs

     total energy              =   -2126.10400219 Ry
     estimated scf accuracy    <       0.00000006 Ry

     total magnetization       =    19.00 Bohr mag/cell
     absolute magnetization    =    19.05 Bohr mag/cell

     iteration # 25     ecut=   100.00 Ry     beta= 0.40
     Davidson diagonalization with overlap
     ethr =  3.18E-11,  avg # of iterations =  2.8

     negative rho (up, down):  0.000E+00 9.613E-04

     total cpu time spent up to now is    20038.2 secs

     total energy              =   -2126.10400222 Ry
     estimated scf accuracy    <       0.00000004 Ry

     total magnetization       =    19.00 Bohr mag/cell
     absolute magnetization    =    19.05 Bohr mag/cell

     iteration # 26     ecut=   100.00 Ry     beta= 0.40
     Davidson diagonalization with overlap
     ethr =  2.00E-11,  avg # of iterations =  2.0

     negative rho (up, down):  0.000E+00 9.613E-04

     total cpu time spent up to now is    20838.6 secs

     total energy              =   -2126.10400223 Ry
     estimated scf accuracy    <       0.00000004 Ry

     total magnetization       =    19.00 Bohr mag/cell
     absolute magnetization    =    19.05 Bohr mag/cell

     iteration # 27     ecut=   100.00 Ry     beta= 0.40
     Davidson diagonalization with overlap
     ethr =  2.00E-11,  avg # of iterations =  1.6

     negative rho (up, down):  0.000E+00 9.613E-04

     total cpu time spent up to now is    21723.6 secs

     total energy              =   -2126.10400223 Ry
     estimated scf accuracy    <       0.00000003 Ry

     total magnetization       =    19.00 Bohr mag/cell
     absolute magnetization    =    19.05 Bohr mag/cell

     iteration # 28     ecut=   100.00 Ry     beta= 0.40
     Davidson diagonalization with overlap
     ethr =  1.67E-11,  avg # of iterations =  1.0

     negative rho (up, down):  0.000E+00 9.613E-04

     total cpu time spent up to now is    22376.5 secs

     total energy              =   -2126.10400224 Ry
     estimated scf accuracy    <       0.00000002 Ry

     total magnetization       =    19.00 Bohr mag/cell
     absolute magnetization    =    19.05 Bohr mag/cell

     iteration # 29     ecut=   100.00 Ry     beta= 0.40
     Davidson diagonalization with overlap
     ethr =  8.25E-12,  avg # of iterations =  1.0

     negative rho (up, down):  0.000E+00 9.613E-04

     total cpu time spent up to now is    23022.8 secs

     total energy              =   -2126.10400224 Ry
     estimated scf accuracy    <       0.00000001 Ry

     total magnetization       =    19.00 Bohr mag/cell
     absolute magnetization    =    19.05 Bohr mag/cell

     iteration # 30     ecut=   100.00 Ry     beta= 0.40
     Davidson diagonalization with overlap
     ethr =  5.58E-12,  avg # of iterations =  1.0

     negative rho (up, down):  0.000E+00 9.613E-04

     total cpu time spent up to now is    23664.6 secs

     total energy              =   -2126.10400224 Ry
     estimated scf accuracy    <          2.8E-09 Ry

     total magnetization       =    19.00 Bohr mag/cell
     absolute magnetization    =    19.05 Bohr mag/cell

     iteration # 31     ecut=   100.00 Ry     beta= 0.40
     Davidson diagonalization with overlap
     ethr =  1.51E-12,  avg # of iterations =  2.9

     negative rho (up, down):  0.000E+00 9.613E-04

     total cpu time spent up to now is    24458.4 secs

     total energy              =   -2126.10400224 Ry
     estimated scf accuracy    <          2.7E-09 Ry

     total magnetization       =    19.00 Bohr mag/cell
     absolute magnetization    =    19.05 Bohr mag/cell

     iteration # 32     ecut=   100.00 Ry     beta= 0.40
     Davidson diagonalization with overlap
     ethr =  1.43E-12,  avg # of iterations =  2.0

     negative rho (up, down):  0.000E+00 9.613E-04

     total cpu time spent up to now is    25238.2 secs

     total energy              =   -2126.10400224 Ry
     estimated scf accuracy    <          3.0E-09 Ry

     total magnetization       =    19.00 Bohr mag/cell
     absolute magnetization    =    19.05 Bohr mag/cell

     iteration # 33     ecut=   100.00 Ry     beta= 0.40
     Davidson diagonalization with overlap
     ethr =  1.43E-12,  avg # of iterations =  1.0

     negative rho (up, down):  0.000E+00 9.613E-04

     total cpu time spent up to now is    25880.1 secs

     total energy              =   -2126.10400224 Ry
     estimated scf accuracy    <          2.8E-10 Ry

     total magnetization       =    19.00 Bohr mag/cell
     absolute magnetization    =    19.05 Bohr mag/cell

     iteration # 34     ecut=   100.00 Ry     beta= 0.40
     Davidson diagonalization with overlap
     ethr =  1.50E-13,  avg # of iterations =  4.2

     negative rho (up, down):  0.000E+00 9.613E-04

     Magnetic moment per site:
     atom:    1    charge:    7.9388    magn:    0.0015    constr:    0.0000
     atom:    2    charge:   12.9158    magn:    3.6817    constr:    0.0000
     atom:    3    charge:   12.9489    magn:    3.5899    constr:    0.0000
     atom:    4    charge:   12.9181    magn:    3.6727    constr:    0.0000
     atom:    5    charge:   12.9308    magn:    3.6352    constr:    0.0000
     atom:    6    charge:    0.8306    magn:    0.0105    constr:    0.0000
     atom:    7    charge:    0.8268    magn:    0.0122    constr:    0.0000
     atom:    8    charge:    0.8341    magn:    0.0102    constr:    0.0000
     atom:    9    charge:    0.8255    magn:    0.0115    constr:    0.0000
     atom:   10    charge:    4.2518    magn:    0.1168    constr:    0.0000
     atom:   11    charge:    4.2554    magn:    0.1105    constr:    0.0000
     atom:   12    charge:    4.2669    magn:    0.0972    constr:    0.0000
     atom:   13    charge:    4.2547    magn:    0.1164    constr:    0.0000
     atom:   14    charge:    4.2288    magn:    0.1223    constr:    0.0000
     atom:   15    charge:    4.2309    magn:    0.0924    constr:    0.0000
     atom:   16    charge:    4.2327    magn:    0.1251    constr:    0.0000
     atom:   17    charge:    4.2281    magn:    0.1012    constr:    0.0000
     atom:   18    charge:    4.2330    magn:    0.1308    constr:    0.0000
     atom:   19    charge:    4.2229    magn:    0.1427    constr:    0.0000
     atom:   20    charge:    4.2300    magn:    0.1198    constr:    0.0000
     atom:   21    charge:    4.2142    magn:    0.1507    constr:    0.0000
     atom:   22    charge:    4.2258    magn:    0.1284    constr:    0.0000
     atom:   23    charge:    4.2212    magn:    0.1490    constr:    0.0000
     atom:   24    charge:    4.2273    magn:    0.1124    constr:    0.0000
     atom:   25    charge:    4.2221    magn:    0.1509    constr:    0.0000

     total cpu time spent up to now is    26811.1 secs

     End of self-consistent calculation

 ------ SPIN UP ------------


          k = 0.0000 0.0000 0.0000 ( 37649 PWs)   bands (ev):

   -85.7402 -85.7396 -85.4772 -85.3142 -51.8306 -51.7942 -51.7077 -51.6871
   -51.6786 -51.6655 -51.6558 -51.5751 -51.4445 -51.3143 -51.2696 -51.1056
   -44.9381 -17.0237 -16.9353 -16.8971 -16.3903 -16.2097 -16.1278 -15.9285
   -14.1063 -13.9680 -13.8590 -13.8484 -13.8318 -13.7761 -13.7511 -13.7119
   -13.6715 -13.6507 -13.5847 -13.5769  -4.5422  -4.1370  -3.9553  -3.6966
    -2.5264  -2.3634  -2.2014  -2.0246  -1.8621  -1.6424  -1.6137  -1.4861
    -1.3400  -1.3091  -1.2541  -1.1432  -0.4696  -0.4140  -0.0693   0.0531
     0.0584   0.1095   0.1238   0.2850   0.3221   0.4214   0.4746   0.5605
     0.8813   0.9228   1.0158   1.1407   1.1991   1.3076   1.4671   1.4892
     1.6370   1.6674   1.7138   1.8040   1.9177   2.0365   2.0605   2.1873
     2.2576   2.3138   2.3553   2.4082   2.5687   2.6038   2.7295   2.8767
     2.9809   2.9906   3.0510   3.0801   3.2418   3.2760   3.3659   3.4065
     3.6045   3.6799   3.7453   3.7876   3.9291   4.0342   4.3998   4.5131
     8.4824  10.4228  10.8338  11.3172  11.6138  12.4716  12.5826  12.6808
    12.7960  12.8914

     occupation numbers 
     1.0000   1.0000   1.0000   1.0000   1.0000   1.0000   1.0000   1.0000
     1.0000   1.0000   1.0000   1.0000   1.0000   1.0000   1.0000   1.0000
     1.0000   1.0000   1.0000   1.0000   1.0000   1.0000   1.0000   1.0000
     1.0000   1.0000   1.0000   1.0000   1.0000   1.0000   1.0000   1.0000
     1.0000   1.0000   1.0000   1.0000   1.0000   1.0000   1.0000   1.0000
     1.0000   1.0000   1.0000   1.0000   1.0000   1.0000   1.0000   1.0000
     1.0000   1.0000   1.0000   1.0000   1.0000   1.0000   1.0000   1.0000
     1.0000   1.0000   1.0000   1.0000   1.0000   1.0000   1.0000   1.0000
     1.0000   1.0000   1.0000   1.0000   1.0000   1.0000   1.0000   1.0000
     1.0000   1.0000   1.0000   1.0000   1.0000   1.0000   1.0000   1.0000
     1.0000   1.0000   1.0000   1.0000   1.0000   1.0000   1.0000   1.0000
     1.0000   1.0000   1.0000   1.0000   1.0000   1.0000   1.0000   1.0000
     1.0000   1.0000   1.0000   1.0000   1.0000   1.0000   1.0000   1.0000
     0.0000   0.0000   0.0000   0.0000   0.0000   0.0000   0.0000   0.0000
     0.0000   0.0000

          k = 0.0000 0.0000 0.2376 ( 37659 PWs)   bands (ev):

   -85.7402 -85.7396 -85.4772 -85.3142 -51.8306 -51.7942 -51.7077 -51.6871
   -51.6786 -51.6655 -51.6558 -51.5751 -51.4445 -51.3143 -51.2696 -51.1056
   -44.9381 -17.0247 -16.9359 -16.8997 -16.3765 -16.1984 -16.1193 -15.9270
   -14.1185 -13.9853 -13.8721 -13.8513 -13.8351 -13.7747 -13.7519 -13.7161
   -13.6749 -13.6534 -13.5848 -13.5737  -4.5150  -4.1300  -3.9465  -3.6915
    -2.4931  -2.3537  -2.1939  -2.0068  -1.8586  -1.6447  -1.6126  -1.4525
    -1.3576  -1.3001  -1.2485  -1.1410  -0.4603  -0.3988  -0.0922   0.0542
     0.0723   0.0941   0.1374   0.2752   0.3309   0.4130   0.4575   0.5763
     0.8384   0.9353   1.0210   1.1355   1.1863   1.2955   1.4426   1.4704
     1.6138   1.6716   1.7131   1.7995   1.9312   1.9747   2.0612   2.2062
     2.2588   2.3013   2.3363   2.4462   2.5438   2.5830   2.7397   2.8645
     2.9487   2.9804   3.0386   3.1039   3.2176   3.3030   3.3658   3.4487
     3.5976   3.6564   3.7343   3.8128   3.9210   4.0288   4.3949   4.5037
     8.6247  10.4943  10.8758  11.3396  11.6668  12.3679  12.4904  12.6514
    12.7670  12.8991

     occupation numbers 
     1.0000   1.0000   1.0000   1.0000   1.0000   1.0000   1.0000   1.0000
     1.0000   1.0000   1.0000   1.0000   1.0000   1.0000   1.0000   1.0000
     1.0000   1.0000   1.0000   1.0000   1.0000   1.0000   1.0000   1.0000
     1.0000   1.0000   1.0000   1.0000   1.0000   1.0000   1.0000   1.0000
     1.0000   1.0000   1.0000   1.0000   1.0000   1.0000   1.0000   1.0000
     1.0000   1.0000   1.0000   1.0000   1.0000   1.0000   1.0000   1.0000
     1.0000   1.0000   1.0000   1.0000   1.0000   1.0000   1.0000   1.0000
     1.0000   1.0000   1.0000   1.0000   1.0000   1.0000   1.0000   1.0000
     1.0000   1.0000   1.0000   1.0000   1.0000   1.0000   1.0000   1.0000
     1.0000   1.0000   1.0000   1.0000   1.0000   1.0000   1.0000   1.0000
     1.0000   1.0000   1.0000   1.0000   1.0000   1.0000   1.0000   1.0000
     1.0000   1.0000   1.0000   1.0000   1.0000   1.0000   1.0000   1.0000
     1.0000   1.0000   1.0000   1.0000   1.0000   1.0000   1.0000   1.0000
     0.0000   0.0000   0.0000   0.0000   0.0000   0.0000   0.0000   0.0000
     0.0000   0.0000

          k = 0.0000 0.0000 0.4753 ( 37654 PWs)   bands (ev):

   -85.7402 -85.7396 -85.4772 -85.3142 -51.8306 -51.7942 -51.7078 -51.6871
   -51.6786 -51.6655 -51.6558 -51.5751 -51.4445 -51.3143 -51.2697 -51.1056
   -44.9381 -17.0280 -16.9374 -16.9046 -16.3422 -16.1670 -16.0975 -15.9249
   -14.1495 -14.0283 -13.9122 -13.8602 -13.8366 -13.7763 -13.7549 -13.7275
   -13.6801 -13.6547 -13.5819 -13.5710  -4.4411  -4.1133  -3.9232  -3.6909
    -2.4090  -2.3277  -2.1573  -1.9783  -1.8514  -1.6440  -1.6048  -1.4331
    -1.3490  -1.2746  -1.2212  -1.1285  -0.4343  -0.3615  -0.1126   0.0121
     0.0724   0.1125   0.1853   0.2342   0.3425   0.4223   0.4415   0.6021
     0.7950   0.9115   1.0105   1.1232   1.1401   1.2562   1.3832   1.4580
     1.5105   1.6303   1.7146   1.7667   1.9136   1.9759   2.0358   2.1432
     2.2429   2.2931   2.3471   2.4614   2.5027   2.5204   2.7550   2.8208
     2.9036   2.9797   3.0542   3.1265   3.2445   3.3341   3.3946   3.4890
     3.5768   3.6650   3.7106   3.8462   3.9114   4.0165   4.3748   4.4798
     9.0066  10.6842  10.9557  11.4268  11.8062  12.1654  12.3082  12.4430
    12.6891  12.7613

     occupation numbers 
     1.0000   1.0000   1.0000   1.0000   1.0000   1.0000   1.0000   1.0000
     1.0000   1.0000   1.0000   1.0000   1.0000   1.0000   1.0000   1.0000
     1.0000   1.0000   1.0000   1.0000   1.0000   1.0000   1.0000   1.0000
     1.0000   1.0000   1.0000   1.0000   1.0000   1.0000   1.0000   1.0000
     1.0000   1.0000   1.0000   1.0000   1.0000   1.0000   1.0000   1.0000
     1.0000   1.0000   1.0000   1.0000   1.0000   1.0000   1.0000   1.0000
     1.0000   1.0000   1.0000   1.0000   1.0000   1.0000   1.0000   1.0000
     1.0000   1.0000   1.0000   1.0000   1.0000   1.0000   1.0000   1.0000
     1.0000   1.0000   1.0000   1.0000   1.0000   1.0000   1.0000   1.0000
     1.0000   1.0000   1.0000   1.0000   1.0000   1.0000   1.0000   1.0000
     1.0000   1.0000   1.0000   1.0000   1.0000   1.0000   1.0000   1.0000
     1.0000   1.0000   1.0000   1.0000   1.0000   1.0000   1.0000   1.0000
     1.0000   1.0000   1.0000   1.0000   1.0000   1.0000   1.0000   1.0000
     0.0000   0.0000   0.0000   0.0000   0.0000   0.0000   0.0000   0.0000
     0.0000   0.0000

          k = 0.0000 0.0000 0.7129 ( 37702 PWs)   bands (ev):

   -85.7402 -85.7396 -85.4772 -85.3142 -51.8306 -51.7942 -51.7078 -51.6871
   -51.6786 -51.6655 -51.6558 -51.5751 -51.4446 -51.3143 -51.2697 -51.1056
   -44.9381 -17.0330 -16.9388 -16.9080 -16.3041 -16.1238 -16.0727 -15.9276
   -14.1847 -14.0764 -13.9629 -13.8709 -13.8389 -13.7910 -13.7551 -13.7332
   -13.6794 -13.6532 -13.5794 -13.5707  -4.3445  -4.0967  -3.8939  -3.7163
    -2.3570  -2.2518  -2.0925  -1.9632  -1.8409  -1.6395  -1.5954  -1.4897
    -1.3064  -1.2433  -1.1699  -1.0641  -0.3940  -0.3185  -0.1101  -0.0107
     0.0871   0.1131   0.1466   0.2736   0.4010   0.4336   0.4740   0.5928
     0.7637   0.8558   0.9649   1.0546   1.0990   1.1861   1.2949   1.3639
     1.4625   1.5278   1.7181   1.7792   1.8946   1.9480   2.0254   2.0588
     2.1740   2.2939   2.3533   2.3613   2.4463   2.5720   2.7196   2.7992
     2.8626   2.9598   3.1044   3.1950   3.3269   3.3750   3.4351   3.4895
     3.5545   3.6902   3.7320   3.8737   3.9082   4.0035   4.3399   4.4457
     9.5330  10.8668  11.0209  11.5708  11.7766  12.0439  12.1509  12.3315
    12.5122  12.6416

     occupation numbers 
     1.0000   1.0000   1.0000   1.0000   1.0000   1.0000   1.0000   1.0000
     1.0000   1.0000   1.0000   1.0000   1.0000   1.0000   1.0000   1.0000
     1.0000   1.0000   1.0000   1.0000   1.0000   1.0000   1.0000   1.0000
     1.0000   1.0000   1.0000   1.0000   1.0000   1.0000   1.0000   1.0000
     1.0000   1.0000   1.0000   1.0000   1.0000   1.0000   1.0000   1.0000
     1.0000   1.0000   1.0000   1.0000   1.0000   1.0000   1.0000   1.0000
     1.0000   1.0000   1.0000   1.0000   1.0000   1.0000   1.0000   1.0000
     1.0000   1.0000   1.0000   1.0000   1.0000   1.0000   1.0000   1.0000
     1.0000   1.0000   1.0000   1.0000   1.0000   1.0000   1.0000   1.0000
     1.0000   1.0000   1.0000   1.0000   1.0000   1.0000   1.0000   1.0000
     1.0000   1.0000   1.0000   1.0000   1.0000   1.0000   1.0000   1.0000
     1.0000   1.0000   1.0000   1.0000   1.0000   1.0000   1.0000   1.0000
     1.0000   1.0000   1.0000   1.0000   1.0000   1.0000   1.0000   1.0000
     0.0000   0.0000   0.0000   0.0000   0.0000   0.0000   0.0000   0.0000
     0.0000   0.0000

          k = 0.0000 0.0000 0.9505 ( 37742 PWs)   bands (ev):

   -85.7402 -85.7396 -85.4772 -85.3142 -51.8306 -51.7942 -51.7078 -51.6871
   -51.6786 -51.6655 -51.6558 -51.5751 -51.4446 -51.3143 -51.2697 -51.1056
   -44.9381 -17.0369 -16.9394 -16.9092 -16.2799 -16.0867 -16.0583 -15.9349
   -14.2072 -14.1074 -13.9979 -13.8817 -13.8415 -13.8017 -13.7536 -13.7335
   -13.6774 -13.6511 -13.5807 -13.5694  -4.2683  -4.0892  -3.8671  -3.7571
    -2.3464  -2.1820  -2.0354  -1.9593  -1.8229  -1.6571  -1.5867  -1.5132
    -1.3198  -1.2333  -1.1011  -0.9952  -0.3385  -0.2903  -0.1053  -0.0055
     0.0341   0.1166   0.1673   0.3797   0.4228   0.4861   0.5362   0.5793
     0.6583   0.7458   0.8729   0.9672   1.0780   1.1586   1.2443   1.3255
     1.3935   1.5639   1.6853   1.7615   1.8197   1.9266   1.9932   2.0991
     2.1290   2.2603   2.3082   2.3440   2.4300   2.6004   2.6886   2.7464
     2.8556   2.9712   3.1473   3.2641   3.3046   3.4316   3.4625   3.5184
     3.5639   3.6824   3.7761   3.8892   3.9231   3.9849   4.3140   4.4109
    10.1060  10.6303  11.2400  11.4948  11.7344  11.9840  12.1957  12.3379
    12.4303  12.4921

     occupation numbers 
     1.0000   1.0000   1.0000   1.0000   1.0000   1.0000   1.0000   1.0000
     1.0000   1.0000   1.0000   1.0000   1.0000   1.0000   1.0000   1.0000
     1.0000   1.0000   1.0000   1.0000   1.0000   1.0000   1.0000   1.0000
     1.0000   1.0000   1.0000   1.0000   1.0000   1.0000   1.0000   1.0000
     1.0000   1.0000   1.0000   1.0000   1.0000   1.0000   1.0000   1.0000
     1.0000   1.0000   1.0000   1.0000   1.0000   1.0000   1.0000   1.0000
     1.0000   1.0000   1.0000   1.0000   1.0000   1.0000   1.0000   1.0000
     1.0000   1.0000   1.0000   1.0000   1.0000   1.0000   1.0000   1.0000
     1.0000   1.0000   1.0000   1.0000   1.0000   1.0000   1.0000   1.0000
     1.0000   1.0000   1.0000   1.0000   1.0000   1.0000   1.0000   1.0000
     1.0000   1.0000   1.0000   1.0000   1.0000   1.0000   1.0000   1.0000
     1.0000   1.0000   1.0000   1.0000   1.0000   1.0000   1.0000   1.0000
     1.0000   1.0000   1.0000   1.0000   1.0000   1.0000   1.0000   1.0000
     0.0000   0.0000   0.0000   0.0000   0.0000   0.0000   0.0000   0.0000
     0.0000   0.0000

          k = 0.0000 0.2391 0.0000 ( 37676 PWs)   bands (ev):

   -85.7402 -85.7396 -85.4772 -85.3142 -51.8306 -51.7942 -51.7077 -51.6871
   -51.6786 -51.6655 -51.6558 -51.5751 -51.4445 -51.3143 -51.2696 -51.1056
   -44.9381 -17.0250 -16.9358 -16.8970 -16.3759 -16.2056 -16.1259 -15.9428
   -14.1065 -13.9668 -13.8891 -13.8554 -13.8302 -13.7811 -13.7535 -13.7050
   -13.6609 -13.6486 -13.5851 -13.5653  -4.5173  -4.1366  -3.9512  -3.6994
    -2.4970  -2.3363  -2.2032  -2.0257  -1.8375  -1.6318  -1.6027  -1.4796
    -1.3651  -1.3001  -1.2335  -1.1304  -0.4704  -0.4171  -0.0843  -0.0454
     0.0351   0.0641   0.1468   0.2457   0.3418   0.3824   0.5633   0.6616
     0.8561   0.9232   1.0149   1.1110   1.1924   1.2594   1.4228   1.4590
     1.5888   1.6393   1.7377   1.7875   1.9227   2.0528   2.1098   2.1828
     2.2649   2.3149   2.3412   2.4162   2.5068   2.5939   2.7412   2.8524
     2.9330   2.9880   3.0333   3.1472   3.2634   3.2724   3.3518   3.4156
     3.5815   3.6632   3.7736   3.7926   3.8542   4.1388   4.4279   4.5151
     8.6361  10.5011  10.9223  11.2214  11.6393  12.4121  12.5761  12.7053
    12.7527  12.9270

     occupation numbers 
     1.0000   1.0000   1.0000   1.0000   1.0000   1.0000   1.0000   1.0000
     1.0000   1.0000   1.0000   1.0000   1.0000   1.0000   1.0000   1.0000
     1.0000   1.0000   1.0000   1.0000   1.0000   1.0000   1.0000   1.0000
     1.0000   1.0000   1.0000   1.0000   1.0000   1.0000   1.0000   1.0000
     1.0000   1.0000   1.0000   1.0000   1.0000   1.0000   1.0000   1.0000
     1.0000   1.0000   1.0000   1.0000   1.0000   1.0000   1.0000   1.0000
     1.0000   1.0000   1.0000   1.0000   1.0000   1.0000   1.0000   1.0000
     1.0000   1.0000   1.0000   1.0000   1.0000   1.0000   1.0000   1.0000
     1.0000   1.0000   1.0000   1.0000   1.0000   1.0000   1.0000   1.0000
     1.0000   1.0000   1.0000   1.0000   1.0000   1.0000   1.0000   1.0000
     1.0000   1.0000   1.0000   1.0000   1.0000   1.0000   1.0000   1.0000
     1.0000   1.0000   1.0000   1.0000   1.0000   1.0000   1.0000   1.0000
     1.0000   1.0000   1.0000   1.0000   1.0000   1.0000   1.0000   1.0000
     0.0000   0.0000   0.0000   0.0000   0.0000   0.0000   0.0000   0.0000
     0.0000   0.0000

          k = 0.0000 0.2391 0.2376 ( 37671 PWs)   bands (ev):

   -85.7402 -85.7396 -85.4772 -85.3142 -51.8306 -51.7942 -51.7077 -51.6871
   -51.6786 -51.6655 -51.6558 -51.5751 -51.4445 -51.3143 -51.2696 -51.1056
   -44.9381 -17.0240 -16.9368 -16.8995 -16.3659 -16.1971 -16.1207 -15.9322
   -14.1181 -13.9846 -13.9022 -13.8609 -13.8413 -13.7696 -13.7457 -13.7041
   -13.6761 -13.6516 -13.5807 -13.5689  -4.4915  -4.1280  -3.9418  -3.6916
    -2.4685  -2.3263  -2.2058  -2.0010  -1.8279  -1.6279  -1.5810  -1.4499
    -1.3597  -1.3052  -1.2449  -1.1461  -0.4738  -0.4067  -0.1214  -0.0178
     0.0442   0.1037   0.1279   0.2375   0.3219   0.3524   0.5939   0.6459
     0.8003   0.9162   1.0302   1.1182   1.1624   1.2435   1.4077   1.5355
     1.6167   1.6418   1.7361   1.8057   1.8826   2.0282   2.0988   2.1425
     2.2634   2.2825   2.3074   2.4145   2.4893   2.5973   2.7222   2.8578
     2.9193   2.9769   3.0521   3.1096   3.2228   3.2903   3.3727   3.4512
     3.5841   3.6602   3.7275   3.8526   3.8727   4.1352   4.4017   4.5183
     8.7722  10.5826  10.9709  11.2427  11.6698  12.3266  12.5323  12.6434
    12.7834  12.8600

     occupation numbers 
     1.0000   1.0000   1.0000   1.0000   1.0000   1.0000   1.0000   1.0000
     1.0000   1.0000   1.0000   1.0000   1.0000   1.0000   1.0000   1.0000
     1.0000   1.0000   1.0000   1.0000   1.0000   1.0000   1.0000   1.0000
     1.0000   1.0000   1.0000   1.0000   1.0000   1.0000   1.0000   1.0000
     1.0000   1.0000   1.0000   1.0000   1.0000   1.0000   1.0000   1.0000
     1.0000   1.0000   1.0000   1.0000   1.0000   1.0000   1.0000   1.0000
     1.0000   1.0000   1.0000   1.0000   1.0000   1.0000   1.0000   1.0000
     1.0000   1.0000   1.0000   1.0000   1.0000   1.0000   1.0000   1.0000
     1.0000   1.0000   1.0000   1.0000   1.0000   1.0000   1.0000   1.0000
     1.0000   1.0000   1.0000   1.0000   1.0000   1.0000   1.0000   1.0000
     1.0000   1.0000   1.0000   1.0000   1.0000   1.0000   1.0000   1.0000
     1.0000   1.0000   1.0000   1.0000   1.0000   1.0000   1.0000   1.0000
     1.0000   1.0000   1.0000   1.0000   1.0000   1.0000   1.0000   1.0000
     0.0000   0.0000   0.0000   0.0000   0.0000   0.0000   0.0000   0.0000
     0.0000   0.0000

          k = 0.0000 0.2391 0.4753 ( 37686 PWs)   bands (ev):

   -85.7402 -85.7396 -85.4772 -85.3142 -51.8306 -51.7942 -51.7078 -51.6871
   -51.6786 -51.6655 -51.6558 -51.5751 -51.4445 -51.3143 -51.2697 -51.1056
   -44.9381 -17.0255 -16.9386 -16.9044 -16.3345 -16.1694 -16.1022 -15.9204
   -14.1489 -14.0271 -13.9351 -13.8829 -13.8462 -13.7610 -13.7391 -13.7152
   -13.6899 -13.6550 -13.5773 -13.5686  -4.4193  -4.1080  -3.9211  -3.6842
    -2.3910  -2.3062  -2.1688  -1.9660  -1.8183  -1.6217  -1.5514  -1.4254
    -1.3673  -1.2923  -1.2320  -1.1281  -0.4641  -0.3792  -0.1467   0.0051
     0.0420   0.0950   0.1807   0.2410   0.2605   0.3649   0.6127   0.6293
     0.7488   0.9091   0.9965   1.1050   1.1248   1.2135   1.3566   1.5015
     1.5875   1.6734   1.7491   1.8032   1.8444   1.9670   2.0314   2.0960
     2.2238   2.2900   2.3241   2.3767   2.4520   2.5486   2.7086   2.8163
     2.8969   2.9892   3.0457   3.1168   3.1942   3.3411   3.4213   3.4904
     3.5858   3.6311   3.7218   3.8820   3.9211   4.1142   4.3718   4.5053
     9.1402  10.7778  11.0460  11.3350  11.8102  12.1876  12.3181  12.4956
    12.6049  12.7591

     occupation numbers 
     1.0000   1.0000   1.0000   1.0000   1.0000   1.0000   1.0000   1.0000
     1.0000   1.0000   1.0000   1.0000   1.0000   1.0000   1.0000   1.0000
     1.0000   1.0000   1.0000   1.0000   1.0000   1.0000   1.0000   1.0000
     1.0000   1.0000   1.0000   1.0000   1.0000   1.0000   1.0000   1.0000
     1.0000   1.0000   1.0000   1.0000   1.0000   1.0000   1.0000   1.0000
     1.0000   1.0000   1.0000   1.0000   1.0000   1.0000   1.0000   1.0000
     1.0000   1.0000   1.0000   1.0000   1.0000   1.0000   1.0000   1.0000
     1.0000   1.0000   1.0000   1.0000   1.0000   1.0000   1.0000   1.0000
     1.0000   1.0000   1.0000   1.0000   1.0000   1.0000   1.0000   1.0000
     1.0000   1.0000   1.0000   1.0000   1.0000   1.0000   1.0000   1.0000
     1.0000   1.0000   1.0000   1.0000   1.0000   1.0000   1.0000   1.0000
     1.0000   1.0000   1.0000   1.0000   1.0000   1.0000   1.0000   1.0000
     1.0000   1.0000   1.0000   1.0000   1.0000   1.0000   1.0000   1.0000
     0.0000   0.0000   0.0000   0.0000   0.0000   0.0000   0.0000   0.0000
     0.0000   0.0000

          k = 0.0000 0.2391 0.7129 ( 37698 PWs)   bands (ev):

   -85.7402 -85.7396 -85.4772 -85.3142 -51.8306 -51.7942 -51.7078 -51.6871
   -51.6786 -51.6655 -51.6558 -51.5751 -51.4446 -51.3143 -51.2697 -51.1056
   -44.9381 -17.0300 -16.9401 -16.9078 -16.2971 -16.1301 -16.0798 -15.9155
   -14.1846 -14.0746 -13.9798 -13.9059 -13.8473 -13.7618 -13.7441 -13.7267
   -13.6863 -13.6565 -13.5751 -13.5673  -4.3240  -4.0879  -3.8984  -3.6994
    -2.3401  -2.2390  -2.0974  -1.9490  -1.8093  -1.6111  -1.5444  -1.4840
    -1.3604  -1.2366  -1.1813  -1.0600  -0.4345  -0.3572  -0.1432   0.0004
     0.0564   0.1010   0.1678   0.2110   0.3711   0.4158   0.5816   0.6245
     0.7169   0.8788   0.9291   1.0629   1.0922   1.1593   1.2952   1.4016
     1.5261   1.5876   1.6915   1.7633   1.8717   1.9338   1.9967   2.0341
     2.1793   2.2554   2.3262   2.3786   2.4590   2.4953   2.6665   2.8120
     2.8691   2.9415   3.0425   3.1799   3.2641   3.3868   3.4594   3.5033
     3.5839   3.6276   3.7543   3.8964   3.9829   4.0748   4.3409   4.4803
     9.6526  10.9954  11.0563  11.4949  11.8459  12.0681  12.1843  12.3286
    12.4525  12.6075

     occupation numbers 
     1.0000   1.0000   1.0000   1.0000   1.0000   1.0000   1.0000   1.0000
     1.0000   1.0000   1.0000   1.0000   1.0000   1.0000   1.0000   1.0000
     1.0000   1.0000   1.0000   1.0000   1.0000   1.0000   1.0000   1.0000
     1.0000   1.0000   1.0000   1.0000   1.0000   1.0000   1.0000   1.0000
     1.0000   1.0000   1.0000   1.0000   1.0000   1.0000   1.0000   1.0000
     1.0000   1.0000   1.0000   1.0000   1.0000   1.0000   1.0000   1.0000
     1.0000   1.0000   1.0000   1.0000   1.0000   1.0000   1.0000   1.0000
     1.0000   1.0000   1.0000   1.0000   1.0000   1.0000   1.0000   1.0000
     1.0000   1.0000   1.0000   1.0000   1.0000   1.0000   1.0000   1.0000
     1.0000   1.0000   1.0000   1.0000   1.0000   1.0000   1.0000   1.0000
     1.0000   1.0000   1.0000   1.0000   1.0000   1.0000   1.0000   1.0000
     1.0000   1.0000   1.0000   1.0000   1.0000   1.0000   1.0000   1.0000
     1.0000   1.0000   1.0000   1.0000   1.0000   1.0000   1.0000   1.0000
     0.0000   0.0000   0.0000   0.0000   0.0000   0.0000   0.0000   0.0000
     0.0000   0.0000

          k = 0.0000 0.2391 0.9505 ( 37713 PWs)   bands (ev):

   -85.7402 -85.7396 -85.4772 -85.3142 -51.8306 -51.7942 -51.7078 -51.6871
   -51.6786 -51.6655 -51.6558 -51.5751 -51.4446 -51.3143 -51.2697 -51.1056
   -44.9381 -17.0348 -16.9404 -16.9091 -16.2721 -16.0927 -16.0641 -15.9243
   -14.2074 -14.1063 -14.0110 -13.9165 -13.8496 -13.7753 -13.7535 -13.7252
   -13.6789 -13.6547 -13.5750 -13.5643  -4.2483  -4.0784  -3.8741  -3.7379
    -2.3247  -2.1696  -2.0356  -1.9503  -1.7947  -1.6357  -1.5655  -1.4959
    -1.3738  -1.2024  -1.1061  -0.9971  -0.3950  -0.3395  -0.1228  -0.0114
     0.0203   0.0839   0.1733   0.3043   0.4730   0.5052   0.5485   0.5926
     0.6715   0.7942   0.8890   0.9736   1.0604   1.1347   1.2489   1.3655
     1.3978   1.5568   1.6633   1.7353   1.7829   1.9058   1.9855   2.0674
     2.1475   2.2322   2.3102   2.3718   2.4363   2.5388   2.6295   2.8149
     2.8573   2.8964   3.0973   3.2144   3.3240   3.3737   3.4879   3.5303
     3.5859   3.6589   3.7774   3.8969   3.9794   4.0796   4.3251   4.4475
    10.2138  10.7324  11.2800  11.5695  11.7179  12.0023  12.2156  12.3326
    12.4088  12.4858

     occupation numbers 
     1.0000   1.0000   1.0000   1.0000   1.0000   1.0000   1.0000   1.0000
     1.0000   1.0000   1.0000   1.0000   1.0000   1.0000   1.0000   1.0000
     1.0000   1.0000   1.0000   1.0000   1.0000   1.0000   1.0000   1.0000
     1.0000   1.0000   1.0000   1.0000   1.0000   1.0000   1.0000   1.0000
     1.0000   1.0000   1.0000   1.0000   1.0000   1.0000   1.0000   1.0000
     1.0000   1.0000   1.0000   1.0000   1.0000   1.0000   1.0000   1.0000
     1.0000   1.0000   1.0000   1.0000   1.0000   1.0000   1.0000   1.0000
     1.0000   1.0000   1.0000   1.0000   1.0000   1.0000   1.0000   1.0000
     1.0000   1.0000   1.0000   1.0000   1.0000   1.0000   1.0000   1.0000
     1.0000   1.0000   1.0000   1.0000   1.0000   1.0000   1.0000   1.0000
     1.0000   1.0000   1.0000   1.0000   1.0000   1.0000   1.0000   1.0000
     1.0000   1.0000   1.0000   1.0000   1.0000   1.0000   1.0000   1.0000
     1.0000   1.0000   1.0000   1.0000   1.0000   1.0000   1.0000   1.0000
     0.0000   0.0000   0.0000   0.0000   0.0000   0.0000   0.0000   0.0000
     0.0000   0.0000

          k = 0.0000 0.4781 0.0000 ( 37720 PWs)   bands (ev):

   -85.7402 -85.7396 -85.4772 -85.3142 -51.8306 -51.7942 -51.7077 -51.6871
   -51.6786 -51.6655 -51.6558 -51.5751 -51.4445 -51.3143 -51.2696 -51.1056
   -44.9381 -17.0279 -16.9368 -16.8968 -16.3397 -16.1945 -16.1234 -15.9785
   -14.1053 -13.9729 -13.9318 -13.8730 -13.8305 -13.7899 -13.7525 -13.6979
   -13.6593 -13.6392 -13.5797 -13.5405  -4.4524  -4.1571  -3.9228  -3.7142
    -2.4234  -2.2775  -2.2006  -2.0270  -1.7852  -1.6224  -1.5543  -1.4584
    -1.3895  -1.2887  -1.2060  -1.1115  -0.4932  -0.4221  -0.1855  -0.1179
    -0.0474   0.0246   0.1318   0.2325   0.3134   0.3896   0.6097   0.7623
     0.8417   0.9044   0.9936   1.1067   1.1881   1.2199   1.3631   1.4046
     1.5299   1.6258   1.7490   1.8044   1.9016   2.0338   2.0829   2.2015
     2.2115   2.3155   2.3824   2.4221   2.4937   2.5276   2.6488   2.8073
     2.9135   3.0091   3.0501   3.1614   3.2303   3.3424   3.3577   3.4354
     3.5126   3.6392   3.7454   3.8235   3.9112   4.2273   4.4610   4.5425
     9.0521  10.6814  10.8750  11.2128  11.6159  12.2488  12.5881  12.7370
    12.8466  12.9621

     occupation numbers 
     1.0000   1.0000   1.0000   1.0000   1.0000   1.0000   1.0000   1.0000
     1.0000   1.0000   1.0000   1.0000   1.0000   1.0000   1.0000   1.0000
[...]
     atom    8 type  4   force =     0.00810203    0.00835312    0.01579907
     atom    9 type  4   force =    -0.01113268   -0.00003217    0.01576418
     atom   10 type  3   force =     0.00454912    0.00288174    0.00552956
     atom   11 type  3   force =    -0.00269487    0.00102156    0.00010443
     atom   12 type  3   force =    -0.00386145   -0.00220588   -0.00621469
     atom   13 type  3   force =     0.00392715   -0.00092119   -0.00061703
     atom   14 type  3   force =     0.02854879   -0.00007209   -0.00651553
     atom   15 type  3   force =    -0.02890225    0.00811402   -0.00464300
     atom   16 type  3   force =    -0.02612004    0.00015968    0.00749430
     atom   17 type  3   force =     0.02781955   -0.00813826    0.00493759
     atom   18 type  3   force =    -0.01106289   -0.01735569    0.00743431
     atom   19 type  3   force =     0.00822777    0.01617360    0.00948703
     atom   20 type  3   force =     0.00178777   -0.02742977   -0.01479204
     atom   21 type  3   force =    -0.00600861    0.02001607   -0.00676187
     atom   22 type  3   force =     0.00939489    0.01901387   -0.00901492
     atom   23 type  3   force =    -0.00698088   -0.01664176   -0.00855467
     atom   24 type  3   force =    -0.00074988    0.02754910    0.01581158
     atom   25 type  3   force =     0.00453828   -0.01974785    0.00613961
     The non-local contrib.  to forces
     atom    1 type  2   force =     0.05930373    0.03860273    0.00911661
     atom    2 type  1   force =     0.08004146   -0.14642452   -0.02952996
     atom    3 type  1   force =    -0.04421351   -0.19745609    0.11646150
     atom    4 type  1   force =    -0.03610269    0.15582378    0.00795411
     atom    5 type  1   force =     0.02242409    0.21954314   -0.11427754
     atom    6 type  4   force =    -0.04447497    0.02632587   -0.03831708
     atom    7 type  4   force =     0.00369982    0.01064624   -0.08009548
     atom    8 type  4   force =     0.05686767   -0.03451963    0.02296507
     atom    9 type  4   force =    -0.00101786   -0.00788478    0.07843217
     atom   10 type  3   force =     0.03913351   -0.08051177   -1.45266890
     atom   11 type  3   force =    -0.11865081    0.13676391   -1.46811580
     atom   12 type  3   force =     0.03820851    0.08901310    1.39012658
     atom   13 type  3   force =     0.12602015   -0.13023666    1.45673568
     atom   14 type  3   force =     1.33632428    0.00233294   -0.57140240
     atom   15 type  3   force =    -1.17537597    0.53514642   -0.35217967
     atom   16 type  3   force =    -1.30520032    0.00724963    0.61442384
     atom   17 type  3   force =     1.18568900   -0.53490576    0.45184943
     atom   18 type  3   force =    -0.69979562   -1.24878002    0.41577850
     atom   19 type  3   force =     0.49012185    0.89897786    0.90195693
     atom   20 type  3   force =     0.09295981   -1.27960029   -1.03638305
     atom   21 type  3   force =    -0.43757609    1.05446281   -0.68437052
     atom   22 type  3   force =     0.61520355    1.34000208   -0.52832526
     atom   23 type  3   force =    -0.44375169   -0.91588419   -0.90095151
     atom   24 type  3   force =    -0.02181470    1.24710457    1.05910222
     atom   25 type  3   force =     0.36260682   -1.07813173    0.63853210
     The ionic contribution  to forces
     atom    1 type  2   force =     1.07325255   -0.63946021   -1.61859555
     atom    2 type  1   force =    11.85919065   -2.05108351   -1.46774693
     atom    3 type  1   force =     4.87919124   -2.85364667   -1.31961314
     atom    4 type  1   force =   -12.63554762    3.21153101    0.73648015
     atom    5 type  1   force =    -2.91829526    3.01302730    2.24821579
     atom    6 type  4   force =    -1.29576079   -0.06349036   -0.15466484
     atom    7 type  4   force =     4.76006687    0.10548992    0.63919545
     atom    8 type  4   force =     0.42525216    0.41236775    0.33080531
     atom    9 type  4   force =    -4.40934818   -0.38612263   -0.44155993
     atom   10 type  3   force =    -5.47365187    0.21757385    2.04557180
     atom   11 type  3   force =     9.87344826   -1.13544168    2.33519033
     atom   12 type  3   force =     2.92276634    1.18195249   -0.68326845
     atom   13 type  3   force =    -9.49908731    0.67715421   -2.26849621
     atom   14 type  3   force =     1.83823436   -0.44346106    6.36785258
     atom   15 type  3   force =    -0.50380095   -2.17926073    3.01189369
     atom   16 type  3   force =    -1.87180653    0.46614328   -6.56475803
     atom   17 type  3   force =     0.34378202    0.94544746   -3.82127432
     atom   18 type  3   force =     1.37309821    4.60148712    3.16382590
     atom   19 type  3   force =     6.00541136   -1.94284902   -3.90666114
     atom   20 type  3   force =     3.05192379    1.92087379    7.61520352
     atom   21 type  3   force =    -6.19101373   -2.71154091    1.64552161
     atom   22 type  3   force =    -0.95551189   -6.26962258   -2.70885101
     atom   23 type  3   force =    -6.24490157    1.46341395    3.92144015
     atom   24 type  3   force =    -3.64740657   -0.57745862   -7.97712543
     atom   25 type  3   force =     7.24051447    3.03697586   -1.12858129
     The local contribution  to forces
     atom    1 type  2   force =    -1.13250742    0.59820485    1.60924057
     atom    2 type  1   force =   -11.93538706    2.19883263    1.49823734
     atom    3 type  1   force =    -4.83790339    3.05369907    1.20425132
     atom    4 type  1   force =    12.66693270   -3.36901814   -0.74618387
     atom    5 type  1   force =     2.90004818   -3.23682524   -2.13537542
     atom    6 type  4   force =     1.32691358    0.03263384    0.17529355
     atom    7 type  4   force =    -4.75340564   -0.11566368   -0.58136806
     atom    8 type  4   force =    -0.46906454   -0.37137948   -0.33564089
     atom    9 type  4   force =     4.39860253    0.39301977    0.38519661
     atom   10 type  3   force =     5.44009957   -0.13486474   -0.60005662
     atom   11 type  3   force =    -9.75929911    1.00104007   -0.87970846
     atom   12 type  3   force =    -2.96521914   -1.27235044   -0.70101867
     atom   13 type  3   force =     9.37885965   -0.54909367    0.82382397
     atom   14 type  3   force =    -3.13413123    0.44104640   -5.80867675
     atom   15 type  3   force =     1.63988628    1.65751284   -2.66806339
     atom   16 type  3   force =     3.13931417   -0.47314781    5.96391150
     atom   17 type  3   force =    -1.49114528   -0.42390795    3.37900621
     atom   18 type  3   force =    -0.69050671   -3.38180628   -3.56873940
     atom   19 type  3   force =    -6.48287905    1.06787107    3.02265488
     atom   20 type  3   force =    -3.14246536   -0.68004595   -6.60354039
     atom   21 type  3   force =     6.61864616    1.68653124   -0.97427498
     atom   22 type  3   force =     0.35500382    4.96120029    3.22362836
     atom   23 type  3   force =     6.67768720   -0.57218816   -3.03752239
     atom   24 type  3   force =     3.66850897   -0.63100089    6.94398901
     atom   25 type  3   force =    -7.59535177   -1.98824984    0.50209757
     The core correction contribution to forces
     atom    1 type  2   force =     0.00000000    0.00000000    0.00000000
     atom    2 type  1   force =    -0.00154326    0.00181131    0.00102900
     atom    3 type  1   force =     0.00142049    0.00201071   -0.00072096
     atom    4 type  1   force =     0.00101457   -0.00173019   -0.00057993
     atom    5 type  1   force =    -0.00120663   -0.00200355    0.00061556
     atom    6 type  4   force =     0.00431354   -0.00117855    0.00338285
     atom    7 type  4   force =    -0.00084369   -0.00094102    0.00621212
     atom    8 type  4   force =    -0.00495031    0.00188395   -0.00232957
     atom    9 type  4   force =     0.00063081    0.00095502   -0.00630397
     atom   10 type  3   force =    -0.00103277    0.00068334    0.01268202
     atom   11 type  3   force =     0.00180206   -0.00134005    0.01274173
     atom   12 type  3   force =     0.00038616   -0.00082087   -0.01205352
     atom   13 type  3   force =    -0.00186494    0.00125480   -0.01267998
     atom   14 type  3   force =    -0.01187928    0.00000905    0.00571259
     atom   15 type  3   force =     0.01039409   -0.00528392    0.00370553
     atom   16 type  3   force =     0.01157032   -0.00008539   -0.00608257
     atom   17 type  3   force =    -0.01050293    0.00522746   -0.00464303
     atom   18 type  3   force =     0.00614000    0.01174456   -0.00342780
     atom   19 type  3   force =    -0.00442922   -0.00782197   -0.00846519
     atom   20 type  3   force =    -0.00062750    0.01134209    0.00992860
     atom   21 type  3   force =     0.00393546   -0.00943808    0.00636225
     atom   22 type  3   force =    -0.00529824   -0.01256584    0.00453410
     atom   23 type  3   force =     0.00398531    0.00801726    0.00847950
     atom   24 type  3   force =    -0.00003512   -0.01109976   -0.01015107
     atom   25 type  3   force =    -0.00323453    0.00965384   -0.00591128
     The Hubbard contrib.    to forces
     atom    1 type  2   force =     0.00000000    0.00000000    0.00000000
     atom    2 type  1   force =     0.00000000    0.00000000    0.00000000
     atom    3 type  1   force =     0.00000000    0.00000000    0.00000000
     atom    4 type  1   force =     0.00000000    0.00000000    0.00000000
     atom    5 type  1   force =     0.00000000    0.00000000    0.00000000
     atom    6 type  4   force =     0.00000000    0.00000000    0.00000000
     atom    7 type  4   force =     0.00000000    0.00000000    0.00000000
     atom    8 type  4   force =     0.00000000    0.00000000    0.00000000
     atom    9 type  4   force =     0.00000000    0.00000000    0.00000000
     atom   10 type  3   force =     0.00000000    0.00000000    0.00000000
     atom   11 type  3   force =     0.00000000    0.00000000    0.00000000
     atom   12 type  3   force =     0.00000000    0.00000000    0.00000000
     atom   13 type  3   force =     0.00000000    0.00000000    0.00000000
     atom   14 type  3   force =     0.00000000    0.00000000    0.00000000
     atom   15 type  3   force =     0.00000000    0.00000000    0.00000000
     atom   16 type  3   force =     0.00000000    0.00000000    0.00000000
     atom   17 type  3   force =     0.00000000    0.00000000    0.00000000
     atom   18 type  3   force =     0.00000000    0.00000000    0.00000000
     atom   19 type  3   force =     0.00000000    0.00000000    0.00000000
     atom   20 type  3   force =     0.00000000    0.00000000    0.00000000
     atom   21 type  3   force =     0.00000000    0.00000000    0.00000000
     atom   22 type  3   force =     0.00000000    0.00000000    0.00000000
     atom   23 type  3   force =     0.00000000    0.00000000    0.00000000
     atom   24 type  3   force =     0.00000000    0.00000000    0.00000000
     atom   25 type  3   force =     0.00000000    0.00000000    0.00000000
     The SCF correction term to forces
     atom    1 type  2   force =    -0.00000300   -0.00000107   -0.00000004
     atom    2 type  1   force =     0.00000363    0.00000222    0.00000051
     atom    3 type  1   force =     0.00000216    0.00000228   -0.00000130
     atom    4 type  1   force =    -0.00000090   -0.00000226   -0.00000021
     atom    5 type  1   force =    -0.00000358   -0.00000126   -0.00000010
     atom    6 type  4   force =    -0.00000089    0.00000084   -0.00000052
     atom    7 type  4   force =     0.00000249   -0.00000053    0.00000076
     atom    8 type  4   force =    -0.00000249    0.00000037   -0.00000026
     atom    9 type  4   force =     0.00000050    0.00000031   -0.00000011
     atom   10 type  3   force =     0.00000114    0.00000091    0.00000186
     atom   11 type  3   force =     0.00000519   -0.00000083   -0.00000278
     atom   12 type  3   force =    -0.00000286   -0.00000031   -0.00000004
     atom   13 type  3   force =     0.00000006   -0.00000001    0.00000011
     atom   14 type  3   force =     0.00000113    0.00000043   -0.00000095
     atom   15 type  3   force =    -0.00000524   -0.00000073    0.00000143
     atom   16 type  3   force =     0.00000279   -0.00000017    0.00000017
     atom   17 type  3   force =    -0.00000279    0.00000039   -0.00000010
     atom   18 type  3   force =     0.00000171   -0.00000121   -0.00000229
     atom   19 type  3   force =     0.00000329   -0.00000448    0.00000214
     atom   20 type  3   force =    -0.00000252    0.00000046   -0.00000013
     atom   21 type  3   force =     0.00000006    0.00000086    0.00000037
     atom   22 type  3   force =    -0.00000188   -0.00000021   -0.00000052
     atom   23 type  3   force =     0.00000033   -0.00000077    0.00000017
     atom   24 type  3   force =    -0.00000199    0.00000366   -0.00000257
     atom   25 type  3   force =     0.00000375    0.00000387    0.00000311

     Total force =     0.099109     Total SCF correction =     0.000017


     Computing stress (Cartesian axis) and pressure


     negative rho (up, down):  0.000E+00 9.613E-04
          total   stress  (Ry/bohr**3)                   (kbar)     P=      -45.34
  -0.00065551   0.00007952  -0.00002169          -96.43       11.70       -3.19
   0.00007952  -0.00023191  -0.00010244           11.70      -34.12      -15.07
  -0.00002169  -0.00010244  -0.00003725           -3.19      -15.07       -5.48

     kinetic stress (kbar)  25507.01     41.20    -49.77
                               41.20  25716.94    -19.58
                              -49.77    -19.58  25618.54

     local   stress (kbar)  -7044.23   3668.29  -4457.47
                             3668.29 -13609.27   1898.89
                            -4457.47   1898.89  -6539.85

     nonloc. stress (kbar)  -6530.73      9.16      1.19
                                9.16  -6480.96      4.07
                                1.19      4.07  -6490.26

     hartree stress (kbar)  13332.26  -1442.84   1840.51
                            -1442.84  17121.39   -750.28
                             1840.51   -750.28  13655.99

     exc-cor stress (kbar)  -2702.26     -2.78      2.13
                               -2.78  -2708.33     -1.13
                                2.13     -1.13  -2706.35

     corecor stress (kbar)  -3011.71      0.58     -0.61
                                0.58  -3013.34      0.17
                               -0.61      0.17  -3014.05

     ewald   stress (kbar) -19646.78  -2261.92   2660.82
                            -2261.92 -17060.55  -1147.20
                             2660.82  -1147.20 -20529.50

     hubbard stress (kbar)      0.00      0.00      0.00
                                0.00      0.00      0.00
                                0.00      0.00      0.00

     DFT-D   stress (kbar)      0.00      0.00      0.00
                                0.00      0.00      0.00
                                0.00      0.00      0.00

     XDM     stress (kbar)      0.00      0.00      0.00
                                0.00      0.00      0.00
                                0.00      0.00      0.00

     dft-nl  stress (kbar)      0.00      0.00      0.00
                                0.00      0.00      0.00
                                0.00      0.00      0.00

     TS-vdW  stress (kbar)      0.00      0.00      0.00
                                0.00      0.00      0.00
                                0.00      0.00      0.00



     init_run     :    301.62s CPU    316.54s WALL (       1 calls)
     electrons    :  25480.94s CPU  26493.31s WALL (       1 calls)
     forces       :    191.67s CPU    193.39s WALL (       1 calls)
     stress       :    892.17s CPU    936.03s WALL (       1 calls)

     Called by init_run:
     wfcinit      :    286.44s CPU    299.74s WALL (       1 calls)
     wfcinit:atom :      4.48s CPU      4.54s WALL (     316 calls)
     wfcinit:wfcr :    268.53s CPU    281.57s WALL (     316 calls)
     potinit      :      5.70s CPU      6.04s WALL (       1 calls)
     hinit0       :      6.11s CPU      6.75s WALL (       1 calls)

     Called by electrons:
     c_bands      :  22563.04s CPU  23358.71s WALL (      34 calls)
     sum_band     :   2760.74s CPU   2950.49s WALL (      34 calls)
     v_of_rho     :     42.59s CPU     43.98s WALL (      35 calls)
     v_h          :      2.03s CPU      2.12s WALL (      35 calls)
     v_xc         :     42.83s CPU     44.21s WALL (      37 calls)
     newd         :     75.55s CPU    101.05s WALL (      35 calls)
     PAW_pot      :     28.46s CPU     28.61s WALL (      35 calls)
     mix_rho      :     10.45s CPU     10.80s WALL (      34 calls)

     Called by c_bands:
     init_us_2    :    307.15s CPU    311.61s WALL (   22436 calls)
     cegterg      :  21945.66s CPU  22734.22s WALL (   10744 calls)

     Called by sum_band:
     sum_band:wei :      0.54s CPU      0.54s WALL (      34 calls)
     sum_band:loo :   2502.55s CPU   2665.71s WALL (      34 calls)
     sum_band:buf :     85.69s CPU     86.65s WALL (   10744 calls)
     sum_band:ini :    148.68s CPU    150.52s WALL (   10744 calls)
     sum_band:cal :   1314.66s CPU   1320.89s WALL (   10744 calls)
     sum_band:bec :      4.63s CPU      4.73s WALL (   10744 calls)
     addusdens    :    249.13s CPU    275.48s WALL (      34 calls)
     addusd:skk   :      0.79s CPU      0.82s WALL (     102 calls)
     addusd:dgemm :     73.13s CPU     94.14s WALL (     204 calls)
     addusd:qvan2 :    173.18s CPU    174.55s WALL (     204 calls)

     Called by *egterg:
     cdiaghg      :    816.74s CPU    832.52s WALL (   37161 calls)
     cegterg:over :   2375.64s CPU   2393.90s WALL (   26417 calls)
     cegterg:upda :   1476.87s CPU   1481.95s WALL (   26417 calls)
     cegterg:last :   2619.89s CPU   2628.58s WALL (   16781 calls)
     h_psi        :  10365.93s CPU  11098.93s WALL (   37477 calls)
     s_psi        :   2986.98s CPU   2996.73s WALL (   37477 calls)
     g_psi        :     38.75s CPU     39.12s WALL (   26417 calls)

     Called by h_psi:
     h_psi:calbec :   3116.77s CPU   3134.15s WALL (   37477 calls)
     vloc_psi     :   3986.78s CPU   4688.95s WALL (   37477 calls)
     add_vuspsi   :   3069.18s CPU   3079.33s WALL (   37477 calls)

     General routines
     calbec       :   4635.76s CPU   4663.87s WALL (   49801 calls)
     fft          :     38.69s CPU     40.91s WALL (     913 calls)
     ffts         :      0.48s CPU      0.62s WALL (     138 calls)
     fftw         :   4553.97s CPU   5355.46s WALL ( 6623170 calls)
     interpolate  :      3.12s CPU      3.38s WALL (      70 calls)

     Parallel routines
     fft_scatt_xy :    523.65s CPU    631.83s WALL ( 6624221 calls)
     fft_scatt_yz :   1772.11s CPU   2122.49s WALL ( 6624221 calls)

     PAW routines
     PAW_pot      :     28.46s CPU     28.61s WALL (      35 calls)

     PWSCF        :      7h27m CPU      7h45m WALL


   This run was terminated on:  14:30: 7  24Dec2022            

=------------------------------------------------------------------------------=
   JOB DONE.
=------------------------------------------------------------------------------=
Note: The following floating-point exceptions are signalling: IEEE_UNDERFLOW_FLAG IEEE_DENORMAL
Note: The following floating-point exceptions are signalling: IEEE_DENORMAL
Note: The following floating-point exceptions are signalling: IEEE_DENORMAL
Note: The following floating-point exceptions are signalling: IEEE_DENORMAL
Note: The following floating-point exceptions are signalling: IEEE_DENORMAL
Note: The following floating-point exceptions are signalling: IEEE_DENORMAL
Note: The following floating-point exceptions are signalling: IEEE_DENORMAL
Note: The following floating-point exceptions are signalling: IEEE_DENORMAL
Note: The following floating-point exceptions are signalling: IEEE_DENORMAL
