4.99383798 0 0 -3.911645291508 3.104424082485 0 0.392676942164 1.126449816983 4.181742997785
4.74411 0 0 0.832494704000 3.104400782131 0 0.392681142409 1.126461722399 4.181770853163
4.82734 0 0 0.915724704000 3.104400782131 0 0.392681142409 1.126461722399 4.181770853163
4.91057 0 0 0.998954704000 3.104400782131 0 0.392681142409 1.126461722399 4.181770853163
5.07703 0 0 1.165414704000 3.104400782131 0 0.392681142409 1.126461722399 4.181770853163
5.16026 0 0 1.248644704000 3.104400782131 0 0.392681142409 1.126461722399 4.181770853163
5.24349 0 0 1.331874704000 3.104400782131 0 0.392681142409 1.126461722399 4.181770853163
4.74411 0 0 1.028075468800 2.949180743024 0 0.392681142409 1.126461722399 4.181770853163
4.82734 0 0 1.046111880533 3.00092075606 0 0.392681142409 1.126461722399 4.181770853163
4.91057 0 0 1.064148292266 3.052660769095 0 0.392681142409 1.126461722399 4.181770853163
5.07703 0 0 1.100221115733 3.156140795167 0 0.392681142409 1.126461722399 4.181770853163
5.16026 0 0 1.118257527466 3.207880808202 0 0.392681142409 1.126461722399 4.181770853163
5.24349 0 0 1.136293939200 3.259620821238 0 0.392681142409 1.126461722399 4.181770853163
4.74411 0 0 1.028075468800 2.949180743024 0 0.373047085288 1.070138636279 3.972682310505
4.82734 0 0 1.046111880533 3.00092075606 0 0.379591770995 1.088912998319 4.042378491391
4.91057 0 0 1.064148292266 3.052660769095 0 0.386136456702 1.107687360359 4.112074672277
5.07703 0 0 1.100221115733 3.156140795167 0 0.399225828115 1.145236084439 4.251467034049
5.16026 0 0 1.118257527466 3.207880808202 0 0.405770513822 1.164010446479 4.321163214935
5.24349 0 0 1.136293939200 3.259620821238 0 0.412315199529 1.182784808519 4.390859395821