1.522022786935 2.474781842652 4.180889922214 0.149920075965 2.321424732499 2.090018423321 2.324726246833 1.12191809972 2.125073974872 -1.319842063427 1.76073550924 0.034202475979 2.44054164947 1.376850506088 0.665804574878 -0.859403706359 3.15886920494 2.756676073771 1.336314966929 1.944144001379 2.839014593397 -0.034487543483 1.79033364531 0.748143094505
1.379642707736 2.476900553913 4.174549863871 0.035253227183 2.315780814154 2.098535409328 2.182892026604 1.124036955611 2.118720222351 -1.370230812081 1.755085789833 0.042705767808 2.245236224354 1.378960343701 0.65944110189 -0.956652299926 3.160975847565 2.750326528471 1.20757704217 1.946260162052 2.83266559657 -0.130289236796 1.792440780401 0.741780169989
1.426362442723 2.479870436484 4.171992044165 0.081128166934 2.324664791514 2.083030835425 2.229426574842 1.127006838182 2.116162402645 -1.34577935756 1.763969767194 0.027201193905 2.309593395102 1.381930226273 0.656883282184 -0.924971143948 3.163945730137 2.747768708765 1.249749089957 1.949230044624 2.830107776864 -0.099093644639 1.795410662972 0.739222350283
1.088744971689 1.355956349427 0.00840495712 0.116784134096 2.325762950248 2.091710485366 2.284305059466 1.129554473524 2.134346168763 -1.331546875628 1.765067925927 0.035880843846 2.382294502236 1.384477861615 0.675067048302 -0.884946051584 3.166493365479 2.765952474883 1.300265074131 1.951777679966 2.848291542982 -0.059554116095 1.797958298314 0.7574061164
1.18554823591 1.344562401226 0.005641018325 0.187166965578 2.313024675327 2.098657282341 2.380737950187 1.118160525323 2.131582229969 -1.304011014606 1.752329651006 0.042827640822 2.514372637977 1.373083913414 0.672303109507 -0.818219945383 3.155099417278 2.763188536089 1.387972963953 1.940383731765 2.845527604188 0.006200862466 1.786564350113 0.754642177606
1.215667338252 1.345387909158 0.00751825976 0.213224198194 2.329390528947 2.092579528351 2.410671865779 1.118986033255 2.133459471404 -1.29937726722 1.768695504626 0.036749886832 2.562129176079 1.373909421346 0.674180350942 -0.803139422051 3.155924925209 2.765065777524 1.413544379095 1.941209239697 2.847404845623 0.020795821979 1.787389858045 0.756519419041
1.662410801855 2.481793380339 4.172868300131 0.251579206682 2.32680144517 2.083569810561 2.464549000224 1.128929782037 2.117038658612 -1.282445743962 1.766106420849 0.027740169041 2.633828933034 1.383853170128 0.65775953815 -0.764115679866 3.165868673992 2.748644964732 1.463059013089 1.951152988479 2.83098403283 0.059334000343 1.797333606828 0.740098606249
1.063717317422 1.27295596007 0.009564737821 0.162426448907 2.227478641575 2.083801758033 2.209305094258 1.086507877453 2.135505949465 -1.243492757559 1.667128981841 0.027972116513 2.312475016434 1.309030479361 0.676226829004 -0.812628695166 3.030106751091 2.767112255585 1.273674816067 1.87723585142 2.849451323684 -0.038398076056 1.702945895791 0.758565897102
1.480527751722 2.439146535634 4.177764635036 0.150129833881 2.261266714531 2.087765115856 2.250030094214 1.112918799523 2.121934993516 -1.277067802081 1.700801933268 0.031935474336 2.357414064091 1.346241663491 0.662655873055 -0.825960599839 3.087631012599 2.753541299636 1.296809080158 1.914145184314 2.835880367735 -0.034838063209 1.746678753345 0.744994941154
1.113086047689 1.332225960473 0.00739448547 0.156911977867 2.284305346903 2.08210253564 2.291865240652 1.119142015665 2.133335697114 -1.291564087591 1.723725444111 0.02627289412 2.403463258231 1.363265141695 0.674056576652 -0.838182358029 3.124967568181 2.764942003234 1.321053490732 1.930866811282 2.847281071333 -0.03016790388 1.770223904972 0.756395644751
1.531561706042 2.50483891251 4.178557121048 0.157474420989 2.348808733338 2.085729345175 2.350851172724 1.138657383113 2.122727479528 -1.333558503461 1.787998587488 0.029899703655 2.470877285706 1.404381033265 0.663448359066 -0.887310235214 3.206709614506 2.754333785648 1.344857951075 1.971379000379 2.836672853747 -0.045511946026 1.824383143387 0.745787427165
1.553798261709 2.521622080133 4.175221637835 0.139403797714 2.380711037762 2.098674512321 2.389683436454 1.14212261964 2.119391996316 -1.372907556232 1.819785770383 0.042844870801 2.513923597138 1.418646531853 0.660112875854 -0.902534876112 3.241288190472 2.750998302436 1.366099478941 1.985342647732 2.833337370534 -0.043844669404 1.845170315399 0.742451943953
1.180586865011 1.411992983805 0.000694588317 0.152082999351 2.410989103216 2.080140330667 2.425748890229 1.145637314616 2.12663579996 -1.381506784092 1.849948714308 0.024310689147 2.554203098614 1.43296148889 0.667356679499 -0.920526326966 3.275916224886 2.75824210608 1.384574196851 1.999355753532 2.840581174179 -0.044944202738 1.866006945858 0.749695747597
1.441319185073 2.358248556245 3.969054429383 0.134913044426 2.207999073207 1.983199918491 2.203878255761 1.073028137858 2.016016269939 -1.26135372578 1.675338800102 0.030161759048 2.313899717777 1.315205356544 0.6297011055 -0.821021022383 3.008120085215 2.616042260753 1.264895894266 1.854140183977 2.694264375447 -0.037359969298 1.708011771409 0.707923220194
1.083558785344 1.298721968692 0.001412743009 0.1494253613 2.244723381126 2.023238699527 2.239087856337 1.079866821986 2.056489247598 -1.271337317155 1.702718190949 0.035936712725 2.351039519441 1.326292763807 0.645852764485 -0.838879830196 3.048907750875 2.667042010181 1.283632120078 1.874682588213 2.746636442676 -0.041470337583 1.725990519283 0.725447196981
1.501380153341 2.431026704442 4.101359256342 0.143724388652 2.289443573771 2.05059450522 2.290695682649 1.100710832778 2.079793442181 -1.301534198053 1.738093466522 0.029028691059 2.404577546841 1.351385497734 0.644835640394 -0.840340412273 3.1037007432 2.700872976532 1.318766571627 1.909230319112 2.781839726829 -0.029182480131 1.757974593822 0.725802390691
1.149183236995 1.367628752478 0.006268025696 0.158353089003 2.363411915684 2.129357684201 2.364481053039 1.137453511977 2.167641590867 -1.3358973142 1.793371974292 0.039264215323 2.482223319407 1.396625623203 0.684041151732 -0.87269185866 3.208341385464 2.809774668756 1.359605192491 1.973380438526 2.893486054657 -0.034037047462 1.816997400514 0.767752537632
1.563770603938 2.555788207084 4.319500091531 0.150765111964 2.395216140015 2.167526000853 2.393220821177 1.157829155505 2.195142795294 -1.367981199489 1.81583128155 0.043168704616 2.512893288633 1.421249989866 0.687221037484 -0.89702049891 3.262666010524 2.847802644951 1.371871585866 2.007459802161 2.932886348653 -0.044617248185 1.848513107788 0.772304741186
1.195660036442 1.417519737976 0.004440797634 0.155234340894 2.435712937195 2.194409566462 2.45080368252 1.179797768278 2.23667906986 -1.388007878807 1.846983161658 0.035788442866 2.572406351065 1.447467325773 0.704435993376 -0.892506045955 3.31858360483 2.899865691286 1.412981072447 2.043132135042 2.98632171279 -0.026354355702 1.881621784308 0.790892014879