-1491.55811816931
-1491.15705972024
-1491.40844611078
-1491.52380327127
-1491.51812439443
-1491.40143387681
-1491.24909768911
-1490.96792205953
-1491.30816527374
-1491.49510833747
-1491.47370156092
-1491.31011673713
-1491.01760757197
-1490.25458688169
-1491.01235237616
-1491.43308859132
-1491.40991552476
-1491.03224307123
-1490.448313876