-0.00740811570890539 -0.00271559775509175 0.0036185687185345 0.00416287097639562 -0.00681881916898205 0.00366844809407775 -0.00430479579752899 -9.02456743076317e-05 -0.000693940384490877 0.00328303992944202 -0.00289634621389023 -0.000674914230933143 -0.0130115750418414 0.00831777153711166 0.00564562540298284 0.0152970274604184 -0.00159228336463579 0.0056386834280361 -0.00502933229382217 0.00504295913353244 -0.00861627645982152 0.00701062336565867 0.000752561506263356 -0.00858619456838564
-0.431050621469815 -0.224765722164478 -0.364133068305431 -0.206633026493407 0.0926599389279982 -0.664442133170893 0.297360268174196 -0.424090391700066 0.419046918346167 1.7691304335142 0.943678447420248 -2.00358175339048 -1.73807666558578 -1.25555078566551 1.85407321029307 -0.190170775682669 0.638621585911581 -0.21025468053414 0.135398850463067 -0.339574417825327 0.33305924578272 0.364041537080207 0.569021345095557 0.636232003868803
-0.16715067253891 -0.146462301646706 -0.215080638673041 -0.365449729553663 0.156328390707124 -0.197863769474574 0.237935677079178 -0.280109203321362 0.248268164011944 0.483860024660955 0.409471363792779 -0.867327778743976 -0.69071776545449 -0.652266680444859 0.909374806776019 0.0277159635299546 0.392981345082254 -0.348388926236406 0.135558772997025 -0.217482562004613 0.174723595875255 0.338247472169767 0.337539904945566 0.296294289354596
-0.113135936808869 -0.0878730615369456 -0.133641759470991 0.063702647433493 0.11740653695203 0.257060046726899 0.0822526329319176 -0.113795938649175 0.132763985305504 0.465198967563383 0.187187526226853 -0.107085877087692 -0.352263062477054 -0.311252445593541 0.382969731658138 -0.0293172457510029 0.199147520619355 -0.357949568399167 -0.0527055306771226 -0.0797242113902046 -0.0275218453416291 -0.0637327293249289 0.0889043304818114 -0.146594456280877
-0.00475885238108249 0.0506067402515579 0.0665917945622533 0.293520070477732 -0.0586265210863262 0.0404611724219877 -0.134415404012278 0.138069196825913 -0.107050395882409 0.0889220710844531 -0.0536838349242466 0.176890520499371 0.105962819807419 0.227177158572829 -0.265582477969848 -0.0520223889203267 -0.233539607166608 0.274574649517527 -0.107796529634092 0.0955647697779345 -0.0770741767318321 -0.189411786421825 -0.16556764514087 -0.108810572196683
0.0938873829426553 0.098010401840653 0.130433538604864 0.323943404236916 -0.314012523410328 0.241308448462561 -0.262515410594305 0.358862566659755 -0.308014914166527 -0.345126969341987 -0.404751592159545 0.714013747824837 0.42801466442644 0.507506962431387 -0.639918192565523 0.0636242288276132 -0.324765899713013 0.276490634602827 -0.150128435749135 0.24870962219652 -0.19873820120768 -0.151698607638014 -0.169559537845429 -0.215575318665542
0.0929808124366476 0.134392778316156 0.170080443076618 0.37212251013858 -0.194442404266564 0.145492996255994 -0.332855357407432 0.453085478391503 -0.410823506246294 -0.295035992117954 -0.274359962514544 0.566507578834287 0.448868871386816 0.639630743380691 -0.759882461620152 0.0802232622558203 -0.683042255155044 0.659306614371404 -0.174081591747773 0.280403080260774 -0.192614607974105 -0.192222514944706 -0.355667972633338 -0.178067056697751
0.198160474626001 -0.333404801868957 -0.686650796576433 -0.899974858477765 0.173417476144534 -0.098919800558676 0.0226987154147435 0.575757374785545 -0.870736288442825 -0.724363975360244 0.198849529917011 -0.119478845028724 0.183281251213304 -0.317745506160392 0.418702133590479 0.508390650131089 -0.843745118519347 0.255482418642707 0.438923335279785 0.248628375378625 0.64159300829897 0.27288466428327 0.298242670322982 0.460008170074503
0.0240315746045177 -0.188182285525703 -0.40127546248251 -0.385862478329463 0.133620676435968 -0.350261716810927 0.0123675140328937 0.303030576154767 -0.451087732267941 0.178238549189954 0.392307459292054 -0.572774896660278 -0.28566406882967 -0.316754346404108 0.498285705710466 0.146868021515815 -0.565450855981283 0.458082929022607 0.261688544245093 0.108662476731152 0.447891081360059 0.048332343570859 0.132766556407336 0.371140349238708
0.0787891016538603 -0.123923251655737 -0.222874419656765 -0.271371570855064 0.420516303043227 0.568407108867862 0.0465796234518986 0.137388111950583 -0.20734316481944 -0.0711485583393307 0.217586434518631 0.293756868956471 -0.0103664254769499 -0.131845844841251 0.0657718701879882 0.255679107932864 -0.421692582131425 -0.217246020636058 0.0574145036826618 0.038252338838008 0.043639311396679 -0.0855757820499408 -0.136281252611852 -0.324111554296737
0.159722245125531 0.0559584887151287 0.170867971567798 -0.629810934153251 0.426946371615192 0.226765525169505 0.1439536775891 -0.221131983945133 0.123888541781004 -0.768175293469492 0.0114732848156802 0.137000904014664 0.24981005378067 0.142476579586544 -0.209470494475342 0.335795412352468 -0.0632429344259089 -0.219854146334567 0.135467241771801 -0.14023457878893 -0.0863339999802348 0.373237854113357 -0.212245227572572 -0.142864301742828
-0.0732527480787428 0.134154951396684 0.26202201615272 0.106724380170095 -0.0152366065673634 -0.233491527562348 0.0109896605610573 -0.285859986789278 0.277971332147949 -0.0140392444441422 -0.109716114261957 -0.191754317301076 0.059355428455734 0.202727522810407 -0.121587919861617 -0.0709909497970213 0.282086380630267 0.0604805426174724 -0.0986161534323019 -0.112881911947854 -0.119950385104736 0.0798296265653218 -0.0952744923810874 0.0663100018014523
0.053223607696296 0.130082068984413 0.28337193154633 -0.0595179220915243 0.114924138133112 0.611770798148137 0.0363427815072879 -0.304029192106365 0.250081305023959 -0.530260185204971 -0.373718650155964 0.663643291831651 0.334910696212034 0.346937025031804 -0.404071021504581 0.161866286943341 0.411744732032745 -0.566664158935864 -0.150031762320247 -0.104935407515302 -0.362997669736364 0.153466754367967 -0.221004971514626 -0.475133962152902
0.196009490833245 0.0547305304801052 -0.031768534237752 -0.0836083749279977 0.236438781592514 0.0377548306334916 0.0452215674641695 0.245935403319655 -0.116921627146491 0.340318494695545 0.310337133341304 -0.209333197637506 -0.0636620240245454 -0.277562012736274 0.0538494138822356 -0.210766329798733 -0.193128314120164 0.0255469820243729 0.180736631730048 -0.261461258843133 0.151780368676276 -0.404249713081914 -0.115290263034007 0.0890917638053734
0.255049445094177 0.0398045130140627 0.0270233086963798 -0.585228799714732 0.187762938816883 -0.171067489069971 0.0866720998711594 0.142701550996855 -0.122203955860595 -0.644081834872468 0.0258606564478923 -0.074527500367111 0.301155471588598 -0.0629315739940384 -0.121607460235541 0.0915669635391614 -0.144948951108316 -0.0453246686476377 0.331311667867423 -0.199317727560641 0.194757621351182 0.163554986626681 0.0110683362771203 0.31294988702311
-0.0464724085054989 0.0287644588570957 -0.00427779922829167 0.415821985318131 -0.345826051930142 -0.295225739433165 -0.0818088607556926 0.127896118206739 -0.0302703532001721 0.450127939954008 -0.00685250060298291 -0.180296459096388 -0.133233211389867 -0.0852495092274439 0.0903413192957868 -0.30992627126853 0.170524729473209 0.20186260415408 -0.0550233789787844 -0.00983652138934864 0.0327535233496396 -0.23948605148395 0.120579533723057 0.185112647048327
-0.0265515115101847 -0.0144045980144874 0.0181530073755442 -0.0435503512732874 -0.124543401417646 0.0456149460444848 -0.012401709687261 -0.0451745163006416 0.00817841781781042 -0.22502360367824 -0.16762606926767 0.144368653424805 0.0634722767093345 0.1068560205839 -0.0466868383982982 0.119315837172567 0.0844241855393314 -0.0542312225043063 -0.0401840076444845 0.0933016859452969 -0.0662668072906726 0.164923069911556 0.0671669500421 -0.0491301564693678
-0.0917194298778064 -0.0125269223464856 0.0479729035347278 -0.115765145542401 -0.0447423140826611 -0.215209450874831 0.0184705384518118 -0.167126504181688 0.0687669467122321 -0.195595543438272 -0.0588759179640424 -0.162323685959276 -0.0384778244686855 0.118473287102179 0.0650023394096329 0.162553285352885 0.0305207785186212 0.142365765097579 -0.0382127438697933 0.10332744042949 -0.0114933394099708 0.298747120502445 0.0309501525245863 0.0649187786000888
-0.242259499030265 -0.0524155103904588 -0.0226879167870485 0.403816739533384 -0.126882075644148 0.15983023140248 -0.0847579145571414 -0.142224611606995 0.121828317882921 0.236260347125364 -0.119123518755524 0.203116787627791 -0.138461546965495 0.144276607979215 -0.00118527794461021 0.015733086331147 0.10352670082148 -0.0594649573937825 -0.232657205017823 0.178949973066904 -0.165891861081901 0.0423259925808289 0.0138924345295278 -0.235545837926217