
     Program PWSCF v.6.7MaX starts on 13Dec2022 at 22:50: 3 

     This program is part of the open-source Quantum ESPRESSO suite
     for quantum simulation of materials; please cite
         "P. Giannozzi et al., J. Phys.:Condens. Matter 21 395502 (2009);
         "P. Giannozzi et al., J. Phys.:Condens. Matter 29 465901 (2017);
          URL http://www.quantum-espresso.org", 
     in publications or presentations arising from this work. More details at
     http://www.quantum-espresso.org/quote

     Parallel version (MPI), running on    24 processors

     MPI processes distributed on     1 nodes
     R & G space division:  proc/nbgrp/npool/nimage =      24
     Reading input from path1_cod-1.in

     Current dimensions of program PWSCF are:
     Max number of different atomic species (ntypx) = 10
     Max number of k-points (npk) =  40000
     Max angular momentum in pseudopotentials (lmaxx) =  3
     Message from routine read_pp_mesh:
     mesh size missing, using the one in header
     file Fe.pbe-spn-kjpaw_psl.0.2.1.UPF: wavefunction(s)  3D renormalized
     file O.pbe-n-kjpaw_psl.0.1.UPF: wavefunction(s)  2P renormalized

     Subspace diagonalization in iterative solution of the eigenvalue problem:
     a serial algorithm will be used

     Message from routine setup:
     using ibrav=0 with symmetry is DISCOURAGED, use correct ibrav instead

     Parallelization info
     --------------------
     sticks:   dense  smooth     PW     G-vecs:    dense   smooth      PW
     Min         827     306     82                53951    12161    1706
     Max         828     309     83                53954    12162    1709
     Sum       19863    7371   1983              1294859   291873   40977



     bravais-lattice index     =            0
     lattice parameter (alat)  =      19.6651  a.u.
     unit-cell volume          =    2160.3578 (a.u.)^3
     number of atoms/cell      =           25
     number of atomic types    =            4
     number of electrons       =       189.00
     number of Kohn-Sham states=          114
     kinetic-energy cutoff     =     100.0000  Ry
     charge density cutoff     =    1080.0000  Ry
     scf convergence threshold =      2.0E-10
     mixing beta               =       0.4000
     number of iterations used =            8  plain     mixing
     Exchange-correlation= PBE
                           (   1   4   3   4   0   0   0)

     celldm(1)=  19.665057  celldm(2)=   0.000000  celldm(3)=   0.000000
     celldm(4)=   0.000000  celldm(5)=   0.000000  celldm(6)=   0.000000

     crystal axes: (cart. coord. in units of alat)
               a(1) = (   1.000000   0.000000   0.000000 )  
               a(2) = (   0.000000   0.597590   0.000000 )  
               a(3) = (   0.000000   0.000000   0.475375 )  

     reciprocal axes: (cart. coord. in units 2 pi/alat)
               b(1) = (  1.000000  0.000000  0.000000 )  
               b(2) = (  0.000000  1.673388  0.000000 )  
               b(3) = (  0.000000  0.000000  2.103600 )  


     PseudoPot. # 1 for Fe read from file:
     /opt/QEpot/SSSP_precision_pseudos/Fe.pbe-spn-kjpaw_psl.0.2.1.UPF
     MD5 check sum: e86618425769142926afa95317d90200
     Pseudo is Projector augmented-wave + core cor, Zval = 16.0
     Generated using "atomic" code by A. Dal Corso  v.5.0.99 svn rev. 10869
     Shape of augmentation charge: PSQ
     Using radial grid of 1191 points,  6 beta functions with: 
                l(1) =   0
                l(2) =   0
                l(3) =   1
                l(4) =   1
                l(5) =   2
                l(6) =   2
     Q(r) pseudized with 0 coefficients 


     PseudoPot. # 2 for Na read from file:
     /opt/QEpot/SSSP_precision_pseudos/Na_ONCV_PBE-1.0.oncvpsp.upf
     MD5 check sum: 24a298df0a6742ae313db96548fdb2a4
     Pseudo is Norm-conserving, Zval =  9.0
     Generated using ONCVPSP code by D. R. Hamann
     Using radial grid of 1992 points,  4 beta functions with: 
                l(1) =   0
                l(2) =   0
                l(3) =   1
                l(4) =   1

     PseudoPot. # 3 for O  read from file:
     /opt/QEpot/SSSP_precision_pseudos/O.pbe-n-kjpaw_psl.0.1.UPF
     MD5 check sum: 0234752ac141de4415c5fc33072bef88
     Pseudo is Projector augmented-wave + core cor, Zval =  6.0
     Generated using "atomic" code by A. Dal Corso  v.5.0.99 svn rev. 10869
     Shape of augmentation charge: BESSEL
     Using radial grid of 1095 points,  4 beta functions with: 
                l(1) =   0
                l(2) =   0
                l(3) =   1
                l(4) =   1
     Q(r) pseudized with 0 coefficients 


     PseudoPot. # 4 for P  read from file:
     /opt/QEpot/SSSP_precision_pseudos/P.pbe-n-rrkjus_psl.1.0.0.UPF
     MD5 check sum: 8b930f418f0a4573dca56cd030ffe088
     Pseudo is Ultrasoft + core correction, Zval =  5.0
     Generated using "atomic" code by A. Dal Corso  v.5.1
     Using radial grid of 1147 points,  6 beta functions with: 
                l(1) =   0
                l(2) =   0
                l(3) =   1
                l(4) =   1
                l(5) =   2
                l(6) =   2
     Q(r) pseudized with 0 coefficients 


     atomic species   valence    mass     pseudopotential
        Fe            16.00    55.84500     Fe( 1.00)
        Na             9.00    22.98977     Na( 1.00)
        O              6.00    15.99940     O ( 1.00)
        P              5.00    30.97376     P ( 1.00)

     Starting magnetic structure 
     atomic species   magnetization
        Fe           0.312
        Na           0.000
        O            0.000
        P            0.000

      2 Sym. Ops., with inversion, found


                                    s                        frac. trans.

      isym =  1     identity                                     

 cryst.   s( 1) = (     1          0          0      )
                  (     0          1          0      )
                  (     0          0          1      )

 cart.    s( 1) = (  1.0000000  0.0000000  0.0000000 )
                  (  0.0000000  1.0000000  0.0000000 )
                  (  0.0000000  0.0000000  1.0000000 )


      isym =  2     inversion                                    

 cryst.   s( 2) = (    -1          0          0      )
                  (     0         -1          0      )
                  (     0          0         -1      )

 cart.    s( 2) = ( -1.0000000  0.0000000  0.0000000 )
                  (  0.0000000 -1.0000000  0.0000000 )
                  (  0.0000000  0.0000000 -1.0000000 )


   Cartesian axes

     site n.     atom                  positions (alat units)
         1           Na  tau(   1) = (   0.5000029   0.0000000   0.2376892  )
         2           Fe  tau(   2) = (   0.2766344   0.4454840   0.4732560  )
         3           Fe  tau(   3) = (   0.2132450   0.1515135   0.2329594  )
         4           Fe  tau(   4) = (   0.7233714   0.1521089   0.0021224  )
         5           Fe  tau(   5) = (   0.7867608   0.4460793   0.2424191  )
         6           P   tau(   6) = (   0.1084050   0.4488832   0.2115878  )
         7           P   tau(   7) = (   0.3918993   0.1518218   0.4493885  )
         8           P   tau(   8) = (   0.8916005   0.1487097   0.2637906  )
         9           P   tau(   9) = (   0.6081067   0.4457711   0.0259892  )
        10           O   tau(  10) = (   0.1318767   0.4492072   0.3577390  )
        11           O   tau(  11) = (   0.3711480   0.1470870   0.1209169  )
        12           O   tau(  12) = (   0.8681291   0.1483857   0.1176394  )
        13           O   tau(  13) = (   0.6288577   0.4505058   0.3544620  )
        14           O   tau(  14) = (   0.4620275   0.4511879   0.0583650  )
        15           O   tau(  15) = (   0.0373154   0.1484508   0.2927600  )
        16           O   tau(  16) = (   0.5379781   0.1464050   0.4170134  )
        17           O   tau(  17) = (   0.9626906   0.4491420   0.1826184  )
        18           O   tau(  18) = (   0.1805980   0.5639735   0.1435242  )
        19           O   tau(  19) = (   0.3233672   0.0356570   0.3780715  )
        20           O   tau(  20) = (   0.8213289   0.2658951   0.3310389  )
        21           O   tau(  21) = (   0.6776839   0.3286020   0.0910120  )
        22           O   tau(  22) = (   0.8194078   0.0336194   0.3318541  )
        23           O   tau(  23) = (   0.6766386   0.5619359   0.0973070  )
        24           O   tau(  24) = (   0.1786769   0.3316977   0.1443395  )
        25           O   tau(  25) = (   0.3223219   0.2689908   0.3843665  )

   Crystallographic axes

     site n.     atom                  positions (cryst. coord.)
         1           Na  tau(   1) = (  0.5000029  0.0000000  0.5000031  )
         2           Fe  tau(   2) = (  0.2766344  0.7454677  0.9955413  )
         3           Fe  tau(   3) = (  0.2132450  0.2535410  0.4900534  )
         4           Fe  tau(   4) = (  0.7233714  0.2545372  0.0044646  )
         5           Fe  tau(   5) = (  0.7867608  0.7464639  0.5099528  )
         6           P   tau(   6) = (  0.1084050  0.7511559  0.4450962  )
         7           P   tau(   7) = (  0.3918993  0.2540568  0.9453338  )
         8           P   tau(   8) = (  0.8916005  0.2488490  0.5549099  )
         9           P   tau(   9) = (  0.6081067  0.7459481  0.0546708  )
        10           O   tau(  10) = (  0.1318767  0.7516981  0.7525398  )
        11           O   tau(  11) = (  0.3711480  0.2461337  0.2543607  )
        12           O   tau(  12) = (  0.8681291  0.2483068  0.2474663  )
        13           O   tau(  13) = (  0.6288577  0.7538712  0.7456463  )
        14           O   tau(  14) = (  0.4620275  0.7550126  0.1227767  )
        15           O   tau(  15) = (  0.0373154  0.2484159  0.6158499  )
        16           O   tau(  16) = (  0.5379781  0.2449923  0.8772295  )
        17           O   tau(  17) = (  0.9626906  0.7515890  0.3841562  )
        18           O   tau(  18) = (  0.1805980  0.9437467  0.3019176  )
        19           O   tau(  19) = (  0.3233672  0.0596681  0.7953113  )
        20           O   tau(  20) = (  0.8213289  0.4449458  0.6963735  )
        21           O   tau(  21) = (  0.6776839  0.5498787  0.1914528  )
        22           O   tau(  22) = (  0.8194078  0.0562583  0.6980884  )
        23           O   tau(  23) = (  0.6766386  0.9403369  0.2046949  )
        24           O   tau(  24) = (  0.1786769  0.5550591  0.3036326  )
        25           O   tau(  25) = (  0.3223219  0.4501261  0.8085534  )

     number of k points=   158  Marzari-Vanderbilt smearing, width (Ry)=  0.0073
                       cart. coord. in units 2pi/alat
        k(    1) = (   0.0000000   0.0000000   0.0000000), wk =   0.0031746
        k(    2) = (   0.0000000   0.0000000   0.2337334), wk =   0.0063492
        k(    3) = (   0.0000000   0.0000000   0.4674667), wk =   0.0063492
        k(    4) = (   0.0000000   0.0000000   0.7012001), wk =   0.0063492
        k(    5) = (   0.0000000   0.0000000   0.9349334), wk =   0.0063492
        k(    6) = (   0.0000000   0.2390555   0.0000000), wk =   0.0063492
        k(    7) = (   0.0000000   0.2390555   0.2337334), wk =   0.0063492
        k(    8) = (   0.0000000   0.2390555   0.4674667), wk =   0.0063492
        k(    9) = (   0.0000000   0.2390555   0.7012001), wk =   0.0063492
        k(   10) = (   0.0000000   0.2390555   0.9349334), wk =   0.0063492
        k(   11) = (   0.0000000   0.4781110   0.0000000), wk =   0.0063492
        k(   12) = (   0.0000000   0.4781110   0.2337334), wk =   0.0063492
        k(   13) = (   0.0000000   0.4781110   0.4674667), wk =   0.0063492
        k(   14) = (   0.0000000   0.4781110   0.7012001), wk =   0.0063492
        k(   15) = (   0.0000000   0.4781110   0.9349334), wk =   0.0063492
        k(   16) = (   0.0000000   0.7171664   0.0000000), wk =   0.0063492
        k(   17) = (   0.0000000   0.7171664   0.2337334), wk =   0.0063492
        k(   18) = (   0.0000000   0.7171664   0.4674667), wk =   0.0063492
        k(   19) = (   0.0000000   0.7171664   0.7012001), wk =   0.0063492
        k(   20) = (   0.0000000   0.7171664   0.9349334), wk =   0.0063492
        k(   21) = (   0.2000000   0.0000000   0.0000000), wk =   0.0063492
        k(   22) = (   0.2000000   0.0000000   0.2337334), wk =   0.0063492
        k(   23) = (   0.2000000   0.0000000   0.4674667), wk =   0.0063492
        k(   24) = (   0.2000000   0.0000000   0.7012001), wk =   0.0063492
        k(   25) = (   0.2000000   0.0000000   0.9349334), wk =   0.0063492
        k(   26) = (   0.2000000   0.2390555   0.0000000), wk =   0.0063492
        k(   27) = (   0.2000000   0.2390555   0.2337334), wk =   0.0063492
        k(   28) = (   0.2000000   0.2390555   0.4674667), wk =   0.0063492
        k(   29) = (   0.2000000   0.2390555   0.7012001), wk =   0.0063492
        k(   30) = (   0.2000000   0.2390555   0.9349334), wk =   0.0063492
        k(   31) = (   0.2000000   0.4781110   0.0000000), wk =   0.0063492
        k(   32) = (   0.2000000   0.4781110   0.2337334), wk =   0.0063492
        k(   33) = (   0.2000000   0.4781110   0.4674667), wk =   0.0063492
        k(   34) = (   0.2000000   0.4781110   0.7012001), wk =   0.0063492
        k(   35) = (   0.2000000   0.4781110   0.9349334), wk =   0.0063492
        k(   36) = (   0.2000000   0.7171664   0.0000000), wk =   0.0063492
        k(   37) = (   0.2000000   0.7171664   0.2337334), wk =   0.0063492
        k(   38) = (   0.2000000   0.7171664   0.4674667), wk =   0.0063492
        k(   39) = (   0.2000000   0.7171664   0.7012001), wk =   0.0063492
        k(   40) = (   0.2000000   0.7171664   0.9349334), wk =   0.0063492
        k(   41) = (   0.4000000   0.0000000   0.0000000), wk =   0.0063492
        k(   42) = (   0.4000000   0.0000000   0.2337334), wk =   0.0063492
        k(   43) = (   0.4000000   0.0000000   0.4674667), wk =   0.0063492
        k(   44) = (   0.4000000   0.0000000   0.7012001), wk =   0.0063492
        k(   45) = (   0.4000000   0.0000000   0.9349334), wk =   0.0063492
        k(   46) = (   0.4000000   0.2390555   0.0000000), wk =   0.0063492
        k(   47) = (   0.4000000   0.2390555   0.2337334), wk =   0.0063492
        k(   48) = (   0.4000000   0.2390555   0.4674667), wk =   0.0063492
        k(   49) = (   0.4000000   0.2390555   0.7012001), wk =   0.0063492
        k(   50) = (   0.4000000   0.2390555   0.9349334), wk =   0.0063492
        k(   51) = (   0.4000000   0.4781110   0.0000000), wk =   0.0063492
        k(   52) = (   0.4000000   0.4781110   0.2337334), wk =   0.0063492
        k(   53) = (   0.4000000   0.4781110   0.4674667), wk =   0.0063492
        k(   54) = (   0.4000000   0.4781110   0.7012001), wk =   0.0063492
        k(   55) = (   0.4000000   0.4781110   0.9349334), wk =   0.0063492
        k(   56) = (   0.4000000   0.7171664   0.0000000), wk =   0.0063492
        k(   57) = (   0.4000000   0.7171664   0.2337334), wk =   0.0063492
        k(   58) = (   0.4000000   0.7171664   0.4674667), wk =   0.0063492
        k(   59) = (   0.4000000   0.7171664   0.7012001), wk =   0.0063492
        k(   60) = (   0.4000000   0.7171664   0.9349334), wk =   0.0063492
        k(   61) = (   0.0000000   0.2390555  -0.2337334), wk =   0.0063492
        k(   62) = (   0.0000000   0.2390555  -0.4674667), wk =   0.0063492
        k(   63) = (   0.0000000   0.2390555  -0.7012001), wk =   0.0063492
        k(   64) = (   0.0000000   0.2390555  -0.9349334), wk =   0.0063492
        k(   65) = (   0.0000000   0.4781110  -0.2337334), wk =   0.0063492
        k(   66) = (   0.0000000   0.4781110  -0.4674667), wk =   0.0063492
        k(   67) = (   0.0000000   0.4781110  -0.7012001), wk =   0.0063492
        k(   68) = (   0.0000000   0.4781110  -0.9349334), wk =   0.0063492
        k(   69) = (   0.0000000   0.7171664  -0.2337334), wk =   0.0063492
        k(   70) = (   0.0000000   0.7171664  -0.4674667), wk =   0.0063492
        k(   71) = (   0.0000000   0.7171664  -0.7012001), wk =   0.0063492
        k(   72) = (   0.0000000   0.7171664  -0.9349334), wk =   0.0063492
        k(   73) = (   0.2000000   0.0000000  -0.2337334), wk =   0.0063492
        k(   74) = (   0.2000000   0.0000000  -0.4674667), wk =   0.0063492
        k(   75) = (   0.2000000   0.0000000  -0.7012001), wk =   0.0063492
        k(   76) = (   0.2000000   0.0000000  -0.9349334), wk =   0.0063492
        k(   77) = (  -0.2000000   0.2390555   0.0000000), wk =   0.0063492
        k(   78) = (  -0.2000000   0.2390555  -0.2337334), wk =   0.0063492
        k(   79) = (   0.2000000  -0.2390555  -0.2337334), wk =   0.0063492
        k(   80) = (  -0.2000000  -0.2390555   0.2337334), wk =   0.0063492
        k(   81) = (  -0.2000000   0.2390555  -0.4674667), wk =   0.0063492
        k(   82) = (   0.2000000  -0.2390555  -0.4674667), wk =   0.0063492
        k(   83) = (  -0.2000000  -0.2390555   0.4674667), wk =   0.0063492
        k(   84) = (  -0.2000000   0.2390555  -0.7012001), wk =   0.0063492
        k(   85) = (   0.2000000  -0.2390555  -0.7012001), wk =   0.0063492
        k(   86) = (  -0.2000000  -0.2390555   0.7012001), wk =   0.0063492
        k(   87) = (  -0.2000000   0.2390555  -0.9349334), wk =   0.0063492
        k(   88) = (   0.2000000  -0.2390555  -0.9349334), wk =   0.0063492
        k(   89) = (  -0.2000000  -0.2390555   0.9349334), wk =   0.0063492
        k(   90) = (  -0.2000000   0.4781110   0.0000000), wk =   0.0063492
        k(   91) = (  -0.2000000   0.4781110  -0.2337334), wk =   0.0063492
        k(   92) = (   0.2000000  -0.4781110  -0.2337334), wk =   0.0063492
        k(   93) = (  -0.2000000  -0.4781110   0.2337334), wk =   0.0063492
        k(   94) = (  -0.2000000   0.4781110  -0.4674667), wk =   0.0063492
        k(   95) = (   0.2000000  -0.4781110  -0.4674667), wk =   0.0063492
        k(   96) = (  -0.2000000  -0.4781110   0.4674667), wk =   0.0063492
        k(   97) = (  -0.2000000   0.4781110  -0.7012001), wk =   0.0063492
        k(   98) = (   0.2000000  -0.4781110  -0.7012001), wk =   0.0063492
        k(   99) = (  -0.2000000  -0.4781110   0.7012001), wk =   0.0063492
        k(  100) = (  -0.2000000   0.4781110  -0.9349334), wk =   0.0063492
        k(  101) = (   0.2000000  -0.4781110  -0.9349334), wk =   0.0063492
        k(  102) = (  -0.2000000  -0.4781110   0.9349334), wk =   0.0063492
        k(  103) = (  -0.2000000   0.7171664   0.0000000), wk =   0.0063492
        k(  104) = (  -0.2000000   0.7171664  -0.2337334), wk =   0.0063492
        k(  105) = (   0.2000000  -0.7171664  -0.2337334), wk =   0.0063492
        k(  106) = (  -0.2000000  -0.7171664   0.2337334), wk =   0.0063492
        k(  107) = (  -0.2000000   0.7171664  -0.4674667), wk =   0.0063492
        k(  108) = (   0.2000000  -0.7171664  -0.4674667), wk =   0.0063492
        k(  109) = (  -0.2000000  -0.7171664   0.4674667), wk =   0.0063492
        k(  110) = (  -0.2000000   0.7171664  -0.7012001), wk =   0.0063492
        k(  111) = (   0.2000000  -0.7171664  -0.7012001), wk =   0.0063492
        k(  112) = (  -0.2000000  -0.7171664   0.7012001), wk =   0.0063492
        k(  113) = (  -0.2000000   0.7171664  -0.9349334), wk =   0.0063492
        k(  114) = (   0.2000000  -0.7171664  -0.9349334), wk =   0.0063492
        k(  115) = (  -0.2000000  -0.7171664   0.9349334), wk =   0.0063492
        k(  116) = (   0.4000000   0.0000000  -0.2337334), wk =   0.0063492
        k(  117) = (   0.4000000   0.0000000  -0.4674667), wk =   0.0063492
        k(  118) = (   0.4000000   0.0000000  -0.7012001), wk =   0.0063492
        k(  119) = (   0.4000000   0.0000000  -0.9349334), wk =   0.0063492
        k(  120) = (  -0.4000000   0.2390555   0.0000000), wk =   0.0063492
        k(  121) = (  -0.4000000   0.2390555  -0.2337334), wk =   0.0063492
        k(  122) = (   0.4000000  -0.2390555  -0.2337334), wk =   0.0063492
        k(  123) = (  -0.4000000  -0.2390555   0.2337334), wk =   0.0063492
        k(  124) = (  -0.4000000   0.2390555  -0.4674667), wk =   0.0063492
        k(  125) = (   0.4000000  -0.2390555  -0.4674667), wk =   0.0063492
        k(  126) = (  -0.4000000  -0.2390555   0.4674667), wk =   0.0063492
        k(  127) = (  -0.4000000   0.2390555  -0.7012001), wk =   0.0063492
        k(  128) = (   0.4000000  -0.2390555  -0.7012001), wk =   0.0063492
        k(  129) = (  -0.4000000  -0.2390555   0.7012001), wk =   0.0063492
        k(  130) = (  -0.4000000   0.2390555  -0.9349334), wk =   0.0063492
        k(  131) = (   0.4000000  -0.2390555  -0.9349334), wk =   0.0063492
        k(  132) = (  -0.4000000  -0.2390555   0.9349334), wk =   0.0063492
        k(  133) = (  -0.4000000   0.4781110   0.0000000), wk =   0.0063492
        k(  134) = (  -0.4000000   0.4781110  -0.2337334), wk =   0.0063492
        k(  135) = (   0.4000000  -0.4781110  -0.2337334), wk =   0.0063492
        k(  136) = (  -0.4000000  -0.4781110   0.2337334), wk =   0.0063492
        k(  137) = (  -0.4000000   0.4781110  -0.4674667), wk =   0.0063492
        k(  138) = (   0.4000000  -0.4781110  -0.4674667), wk =   0.0063492
        k(  139) = (  -0.4000000  -0.4781110   0.4674667), wk =   0.0063492
        k(  140) = (  -0.4000000   0.4781110  -0.7012001), wk =   0.0063492
        k(  141) = (   0.4000000  -0.4781110  -0.7012001), wk =   0.0063492
        k(  142) = (  -0.4000000  -0.4781110   0.7012001), wk =   0.0063492
        k(  143) = (  -0.4000000   0.4781110  -0.9349334), wk =   0.0063492
        k(  144) = (   0.4000000  -0.4781110  -0.9349334), wk =   0.0063492
        k(  145) = (  -0.4000000  -0.4781110   0.9349334), wk =   0.0063492
        k(  146) = (  -0.4000000   0.7171664   0.0000000), wk =   0.0063492
        k(  147) = (  -0.4000000   0.7171664  -0.2337334), wk =   0.0063492
        k(  148) = (   0.4000000  -0.7171664  -0.2337334), wk =   0.0063492
        k(  149) = (  -0.4000000  -0.7171664   0.2337334), wk =   0.0063492
        k(  150) = (  -0.4000000   0.7171664  -0.4674667), wk =   0.0063492
        k(  151) = (   0.4000000  -0.7171664  -0.4674667), wk =   0.0063492
        k(  152) = (  -0.4000000  -0.7171664   0.4674667), wk =   0.0063492
        k(  153) = (  -0.4000000   0.7171664  -0.7012001), wk =   0.0063492
        k(  154) = (   0.4000000  -0.7171664  -0.7012001), wk =   0.0063492
        k(  155) = (  -0.4000000  -0.7171664   0.7012001), wk =   0.0063492
        k(  156) = (  -0.4000000   0.7171664  -0.9349334), wk =   0.0063492
        k(  157) = (   0.4000000  -0.7171664  -0.9349334), wk =   0.0063492
        k(  158) = (  -0.4000000  -0.7171664   0.9349334), wk =   0.0063492

                       cryst. coord.
        k(    1) = (   0.0000000   0.0000000   0.0000000), wk =   0.0031746
        k(    2) = (   0.0000000   0.0000000   0.1111111), wk =   0.0063492
        k(    3) = (   0.0000000   0.0000000   0.2222222), wk =   0.0063492
        k(    4) = (   0.0000000   0.0000000   0.3333333), wk =   0.0063492
        k(    5) = (   0.0000000   0.0000000   0.4444444), wk =   0.0063492
        k(    6) = (   0.0000000   0.1428571   0.0000000), wk =   0.0063492
        k(    7) = (   0.0000000   0.1428571   0.1111111), wk =   0.0063492
        k(    8) = (   0.0000000   0.1428571   0.2222222), wk =   0.0063492
        k(    9) = (   0.0000000   0.1428571   0.3333333), wk =   0.0063492
        k(   10) = (   0.0000000   0.1428571   0.4444444), wk =   0.0063492
        k(   11) = (   0.0000000   0.2857143   0.0000000), wk =   0.0063492
        k(   12) = (   0.0000000   0.2857143   0.1111111), wk =   0.0063492
        k(   13) = (   0.0000000   0.2857143   0.2222222), wk =   0.0063492
        k(   14) = (   0.0000000   0.2857143   0.3333333), wk =   0.0063492
        k(   15) = (   0.0000000   0.2857143   0.4444444), wk =   0.0063492
        k(   16) = (   0.0000000   0.4285714   0.0000000), wk =   0.0063492
        k(   17) = (   0.0000000   0.4285714   0.1111111), wk =   0.0063492
        k(   18) = (   0.0000000   0.4285714   0.2222222), wk =   0.0063492
        k(   19) = (   0.0000000   0.4285714   0.3333333), wk =   0.0063492
        k(   20) = (   0.0000000   0.4285714   0.4444444), wk =   0.0063492
        k(   21) = (   0.2000000   0.0000000   0.0000000), wk =   0.0063492
        k(   22) = (   0.2000000   0.0000000   0.1111111), wk =   0.0063492
        k(   23) = (   0.2000000   0.0000000   0.2222222), wk =   0.0063492
        k(   24) = (   0.2000000   0.0000000   0.3333333), wk =   0.0063492
        k(   25) = (   0.2000000   0.0000000   0.4444444), wk =   0.0063492
        k(   26) = (   0.2000000   0.1428571   0.0000000), wk =   0.0063492
        k(   27) = (   0.2000000   0.1428571   0.1111111), wk =   0.0063492
        k(   28) = (   0.2000000   0.1428571   0.2222222), wk =   0.0063492
        k(   29) = (   0.2000000   0.1428571   0.3333333), wk =   0.0063492
        k(   30) = (   0.2000000   0.1428571   0.4444444), wk =   0.0063492
        k(   31) = (   0.2000000   0.2857143   0.0000000), wk =   0.0063492
        k(   32) = (   0.2000000   0.2857143   0.1111111), wk =   0.0063492
        k(   33) = (   0.2000000   0.2857143   0.2222222), wk =   0.0063492
        k(   34) = (   0.2000000   0.2857143   0.3333333), wk =   0.0063492
        k(   35) = (   0.2000000   0.2857143   0.4444444), wk =   0.0063492
        k(   36) = (   0.2000000   0.4285714   0.0000000), wk =   0.0063492
        k(   37) = (   0.2000000   0.4285714   0.1111111), wk =   0.0063492
        k(   38) = (   0.2000000   0.4285714   0.2222222), wk =   0.0063492
        k(   39) = (   0.2000000   0.4285714   0.3333333), wk =   0.0063492
        k(   40) = (   0.2000000   0.4285714   0.4444444), wk =   0.0063492
        k(   41) = (   0.4000000   0.0000000   0.0000000), wk =   0.0063492
        k(   42) = (   0.4000000   0.0000000   0.1111111), wk =   0.0063492
        k(   43) = (   0.4000000   0.0000000   0.2222222), wk =   0.0063492
        k(   44) = (   0.4000000   0.0000000   0.3333333), wk =   0.0063492
        k(   45) = (   0.4000000   0.0000000   0.4444444), wk =   0.0063492
        k(   46) = (   0.4000000   0.1428571   0.0000000), wk =   0.0063492
        k(   47) = (   0.4000000   0.1428571   0.1111111), wk =   0.0063492
        k(   48) = (   0.4000000   0.1428571   0.2222222), wk =   0.0063492
        k(   49) = (   0.4000000   0.1428571   0.3333333), wk =   0.0063492
        k(   50) = (   0.4000000   0.1428571   0.4444444), wk =   0.0063492
        k(   51) = (   0.4000000   0.2857143   0.0000000), wk =   0.0063492
        k(   52) = (   0.4000000   0.2857143   0.1111111), wk =   0.0063492
        k(   53) = (   0.4000000   0.2857143   0.2222222), wk =   0.0063492
        k(   54) = (   0.4000000   0.2857143   0.3333333), wk =   0.0063492
        k(   55) = (   0.4000000   0.2857143   0.4444444), wk =   0.0063492
        k(   56) = (   0.4000000   0.4285714   0.0000000), wk =   0.0063492
        k(   57) = (   0.4000000   0.4285714   0.1111111), wk =   0.0063492
        k(   58) = (   0.4000000   0.4285714   0.2222222), wk =   0.0063492
        k(   59) = (   0.4000000   0.4285714   0.3333333), wk =   0.0063492
        k(   60) = (   0.4000000   0.4285714   0.4444444), wk =   0.0063492
        k(   61) = (   0.0000000   0.1428571  -0.1111111), wk =   0.0063492
        k(   62) = (   0.0000000   0.1428571  -0.2222222), wk =   0.0063492
        k(   63) = (   0.0000000   0.1428571  -0.3333333), wk =   0.0063492
        k(   64) = (   0.0000000   0.1428571  -0.4444444), wk =   0.0063492
        k(   65) = (   0.0000000   0.2857143  -0.1111111), wk =   0.0063492
        k(   66) = (   0.0000000   0.2857143  -0.2222222), wk =   0.0063492
        k(   67) = (   0.0000000   0.2857143  -0.3333333), wk =   0.0063492
        k(   68) = (   0.0000000   0.2857143  -0.4444444), wk =   0.0063492
        k(   69) = (   0.0000000   0.4285714  -0.1111111), wk =   0.0063492
        k(   70) = (   0.0000000   0.4285714  -0.2222222), wk =   0.0063492
        k(   71) = (   0.0000000   0.4285714  -0.3333333), wk =   0.0063492
        k(   72) = (   0.0000000   0.4285714  -0.4444444), wk =   0.0063492
        k(   73) = (   0.2000000   0.0000000  -0.1111111), wk =   0.0063492
        k(   74) = (   0.2000000   0.0000000  -0.2222222), wk =   0.0063492
        k(   75) = (   0.2000000   0.0000000  -0.3333333), wk =   0.0063492
        k(   76) = (   0.2000000   0.0000000  -0.4444444), wk =   0.0063492
        k(   77) = (  -0.2000000   0.1428571   0.0000000), wk =   0.0063492
        k(   78) = (  -0.2000000   0.1428571  -0.1111111), wk =   0.0063492
        k(   79) = (   0.2000000  -0.1428571  -0.1111111), wk =   0.0063492
        k(   80) = (  -0.2000000  -0.1428571   0.1111111), wk =   0.0063492
        k(   81) = (  -0.2000000   0.1428571  -0.2222222), wk =   0.0063492
        k(   82) = (   0.2000000  -0.1428571  -0.2222222), wk =   0.0063492
        k(   83) = (  -0.2000000  -0.1428571   0.2222222), wk =   0.0063492
        k(   84) = (  -0.2000000   0.1428571  -0.3333333), wk =   0.0063492
        k(   85) = (   0.2000000  -0.1428571  -0.3333333), wk =   0.0063492
        k(   86) = (  -0.2000000  -0.1428571   0.3333333), wk =   0.0063492
        k(   87) = (  -0.2000000   0.1428571  -0.4444444), wk =   0.0063492
        k(   88) = (   0.2000000  -0.1428571  -0.4444444), wk =   0.0063492
        k(   89) = (  -0.2000000  -0.1428571   0.4444444), wk =   0.0063492
        k(   90) = (  -0.2000000   0.2857143   0.0000000), wk =   0.0063492
        k(   91) = (  -0.2000000   0.2857143  -0.1111111), wk =   0.0063492
        k(   92) = (   0.2000000  -0.2857143  -0.1111111), wk =   0.0063492
        k(   93) = (  -0.2000000  -0.2857143   0.1111111), wk =   0.0063492
        k(   94) = (  -0.2000000   0.2857143  -0.2222222), wk =   0.0063492
        k(   95) = (   0.2000000  -0.2857143  -0.2222222), wk =   0.0063492
        k(   96) = (  -0.2000000  -0.2857143   0.2222222), wk =   0.0063492
        k(   97) = (  -0.2000000   0.2857143  -0.3333333), wk =   0.0063492
        k(   98) = (   0.2000000  -0.2857143  -0.3333333), wk =   0.0063492
        k(   99) = (  -0.2000000  -0.2857143   0.3333333), wk =   0.0063492
        k(  100) = (  -0.2000000   0.2857143  -0.4444444), wk =   0.0063492
        k(  101) = (   0.2000000  -0.2857143  -0.4444444), wk =   0.0063492
        k(  102) = (  -0.2000000  -0.2857143   0.4444444), wk =   0.0063492
        k(  103) = (  -0.2000000   0.4285714   0.0000000), wk =   0.0063492
        k(  104) = (  -0.2000000   0.4285714  -0.1111111), wk =   0.0063492
        k(  105) = (   0.2000000  -0.4285714  -0.1111111), wk =   0.0063492
        k(  106) = (  -0.2000000  -0.4285714   0.1111111), wk =   0.0063492
        k(  107) = (  -0.2000000   0.4285714  -0.2222222), wk =   0.0063492
        k(  108) = (   0.2000000  -0.4285714  -0.2222222), wk =   0.0063492
        k(  109) = (  -0.2000000  -0.4285714   0.2222222), wk =   0.0063492
        k(  110) = (  -0.2000000   0.4285714  -0.3333333), wk =   0.0063492
        k(  111) = (   0.2000000  -0.4285714  -0.3333333), wk =   0.0063492
        k(  112) = (  -0.2000000  -0.4285714   0.3333333), wk =   0.0063492
        k(  113) = (  -0.2000000   0.4285714  -0.4444444), wk =   0.0063492
        k(  114) = (   0.2000000  -0.4285714  -0.4444444), wk =   0.0063492
        k(  115) = (  -0.2000000  -0.4285714   0.4444444), wk =   0.0063492
        k(  116) = (   0.4000000   0.0000000  -0.1111111), wk =   0.0063492
        k(  117) = (   0.4000000   0.0000000  -0.2222222), wk =   0.0063492
        k(  118) = (   0.4000000   0.0000000  -0.3333333), wk =   0.0063492
        k(  119) = (   0.4000000   0.0000000  -0.4444444), wk =   0.0063492
        k(  120) = (  -0.4000000   0.1428571   0.0000000), wk =   0.0063492
        k(  121) = (  -0.4000000   0.1428571  -0.1111111), wk =   0.0063492
        k(  122) = (   0.4000000  -0.1428571  -0.1111111), wk =   0.0063492
        k(  123) = (  -0.4000000  -0.1428571   0.1111111), wk =   0.0063492
        k(  124) = (  -0.4000000   0.1428571  -0.2222222), wk =   0.0063492
        k(  125) = (   0.4000000  -0.1428571  -0.2222222), wk =   0.0063492
        k(  126) = (  -0.4000000  -0.1428571   0.2222222), wk =   0.0063492
        k(  127) = (  -0.4000000   0.1428571  -0.3333333), wk =   0.0063492
        k(  128) = (   0.4000000  -0.1428571  -0.3333333), wk =   0.0063492
        k(  129) = (  -0.4000000  -0.1428571   0.3333333), wk =   0.0063492
        k(  130) = (  -0.4000000   0.1428571  -0.4444444), wk =   0.0063492
        k(  131) = (   0.4000000  -0.1428571  -0.4444444), wk =   0.0063492
        k(  132) = (  -0.4000000  -0.1428571   0.4444444), wk =   0.0063492
        k(  133) = (  -0.4000000   0.2857143   0.0000000), wk =   0.0063492
        k(  134) = (  -0.4000000   0.2857143  -0.1111111), wk =   0.0063492
        k(  135) = (   0.4000000  -0.2857143  -0.1111111), wk =   0.0063492
        k(  136) = (  -0.4000000  -0.2857143   0.1111111), wk =   0.0063492
        k(  137) = (  -0.4000000   0.2857143  -0.2222222), wk =   0.0063492
        k(  138) = (   0.4000000  -0.2857143  -0.2222222), wk =   0.0063492
        k(  139) = (  -0.4000000  -0.2857143   0.2222222), wk =   0.0063492
        k(  140) = (  -0.4000000   0.2857143  -0.3333333), wk =   0.0063492
        k(  141) = (   0.4000000  -0.2857143  -0.3333333), wk =   0.0063492
        k(  142) = (  -0.4000000  -0.2857143   0.3333333), wk =   0.0063492
        k(  143) = (  -0.4000000   0.2857143  -0.4444444), wk =   0.0063492
        k(  144) = (   0.4000000  -0.2857143  -0.4444444), wk =   0.0063492
        k(  145) = (  -0.4000000  -0.2857143   0.4444444), wk =   0.0063492
        k(  146) = (  -0.4000000   0.4285714   0.0000000), wk =   0.0063492
        k(  147) = (  -0.4000000   0.4285714  -0.1111111), wk =   0.0063492
        k(  148) = (   0.4000000  -0.4285714  -0.1111111), wk =   0.0063492
        k(  149) = (  -0.4000000  -0.4285714   0.1111111), wk =   0.0063492
        k(  150) = (  -0.4000000   0.4285714  -0.2222222), wk =   0.0063492
        k(  151) = (   0.4000000  -0.4285714  -0.2222222), wk =   0.0063492
        k(  152) = (  -0.4000000  -0.4285714   0.2222222), wk =   0.0063492
        k(  153) = (  -0.4000000   0.4285714  -0.3333333), wk =   0.0063492
        k(  154) = (   0.4000000  -0.4285714  -0.3333333), wk =   0.0063492
        k(  155) = (  -0.4000000  -0.4285714   0.3333333), wk =   0.0063492
        k(  156) = (  -0.4000000   0.4285714  -0.4444444), wk =   0.0063492
        k(  157) = (   0.4000000  -0.4285714  -0.4444444), wk =   0.0063492
        k(  158) = (  -0.4000000  -0.4285714   0.4444444), wk =   0.0063492

     Dense  grid:  1294859 G-vectors     FFT dimensions: ( 216, 125, 100)

     Smooth grid:   291873 G-vectors     FFT dimensions: ( 125,  75,  60)

     Dynamical RAM for                 wfc:       2.64 MB

     Dynamical RAM for     wfc (w. buffer):     838.16 MB

     Dynamical RAM for           str. fact:       3.29 MB

     Dynamical RAM for           local pot:       0.00 MB

     Dynamical RAM for          nlocal pot:       6.49 MB

     Dynamical RAM for                qrad:      10.54 MB

     Dynamical RAM for          rho,v,vnew:      11.12 MB

     Dynamical RAM for               rhoin:       3.71 MB

     Dynamical RAM for            rho*nmix:      26.34 MB

     Dynamical RAM for           G-vectors:       3.18 MB

     Dynamical RAM for          h,s,v(r/c):       2.38 MB

     Dynamical RAM for          <psi|beta>:       0.49 MB

     Dynamical RAM for                 psi:       5.29 MB

     Dynamical RAM for                hpsi:       5.29 MB

     Dynamical RAM for                spsi:       5.29 MB

     Dynamical RAM for      wfcinit/wfcrot:       6.79 MB

     Dynamical RAM for           addusdens:     167.12 MB

     Dynamical RAM for          addusforce:     191.95 MB

     Dynamical RAM for         addusstress:     166.71 MB

     Estimated static dynamical RAM per process >     913.14 MB

     Estimated max dynamical RAM per process >       1.08 GB

     Estimated total dynamical RAM >      25.90 GB

     Check: negative core charge=   -0.000003
     Generating pointlists ...
     new r_m :   0.0764 (alat units)  1.5026 (a.u.) for type    1
     new r_m :   0.0939 (alat units)  1.8475 (a.u.) for type    2
     new r_m :   0.0611 (alat units)  1.2007 (a.u.) for type    3
     new r_m :   0.0611 (alat units)  1.2007 (a.u.) for type    4

     Initial potential from superposition of free atoms

     starting charge  188.99132, renormalised to  189.00000
     Starting wfcs are  137 randomized atomic wfcs
     Checking if some PAW data can be deallocated... 
       PAW data deallocated on   20 nodes for type:  1
       PAW data deallocated on    8 nodes for type:  3

     total cpu time spent up to now is      194.5 secs

     Self-consistent Calculation

     iteration #  1     ecut=   100.00 Ry     beta= 0.40
     Davidson diagonalization with overlap
     ethr =  1.00E-02,  avg # of iterations =  3.1

     negative rho (up, down):  0.000E+00 9.181E-05

     total cpu time spent up to now is      808.7 secs

     total energy              =   -2124.07422678 Ry
     estimated scf accuracy    <       6.69109824 Ry

     total magnetization       =    19.00 Bohr mag/cell
     absolute magnetization    =    19.00 Bohr mag/cell

     iteration #  2     ecut=   100.00 Ry     beta= 0.40
     Davidson diagonalization with overlap
     ethr =  3.54E-03,  avg # of iterations =  2.0

     negative rho (up, down):  0.000E+00 4.708E-05

     total cpu time spent up to now is     1362.2 secs

     total energy              =   -2123.05537390 Ry
     estimated scf accuracy    <      15.07241760 Ry

     total magnetization       =    11.29 Bohr mag/cell
     absolute magnetization    =    11.39 Bohr mag/cell

     iteration #  3     ecut=   100.00 Ry     beta= 0.40
     Davidson diagonalization with overlap
     ethr =  3.54E-03,  avg # of iterations =  2.0

     negative rho (up, down):  0.000E+00 1.918E-04

     total cpu time spent up to now is     1846.9 secs

     total energy              =   -2126.14437912 Ry
     estimated scf accuracy    <       1.93682385 Ry

     total magnetization       =    19.00 Bohr mag/cell
     absolute magnetization    =    19.00 Bohr mag/cell

     iteration #  4     ecut=   100.00 Ry     beta= 0.40
     Davidson diagonalization with overlap
     ethr =  1.02E-03,  avg # of iterations =  1.9

     negative rho (up, down):  0.000E+00 2.569E-04

     total cpu time spent up to now is     2311.8 secs

     total energy              =   -2126.15329818 Ry
     estimated scf accuracy    <       1.06042809 Ry

     total magnetization       =    19.00 Bohr mag/cell
     absolute magnetization    =    19.00 Bohr mag/cell

     iteration #  5     ecut=   100.00 Ry     beta= 0.40
     Davidson diagonalization with overlap
     ethr =  5.61E-04,  avg # of iterations =  1.8

     negative rho (up, down):  0.000E+00 6.514E-04

     total cpu time spent up to now is     2782.3 secs

     total energy              =   -2126.03731619 Ry
     estimated scf accuracy    <       0.64844931 Ry

     total magnetization       =    19.00 Bohr mag/cell
     absolute magnetization    =    19.00 Bohr mag/cell

     iteration #  6     ecut=   100.00 Ry     beta= 0.40
     Davidson diagonalization with overlap
     ethr =  3.43E-04,  avg # of iterations =  3.4

     negative rho (up, down):  0.000E+00 7.622E-04

     total cpu time spent up to now is     3289.4 secs

     total energy              =   -2126.13255465 Ry
     estimated scf accuracy    <       0.19169696 Ry

     total magnetization       =    19.00 Bohr mag/cell
     absolute magnetization    =    19.01 Bohr mag/cell

     iteration #  7     ecut=   100.00 Ry     beta= 0.40
     Davidson diagonalization with overlap
     c_bands:  1 eigenvalues not converged
     c_bands:  1 eigenvalues not converged
     c_bands:  1 eigenvalues not converged
     c_bands:  1 eigenvalues not converged
     c_bands:  1 eigenvalues not converged
     c_bands:  1 eigenvalues not converged
     c_bands:  1 eigenvalues not converged
     c_bands:  2 eigenvalues not converged
     c_bands:  1 eigenvalues not converged
     c_bands:  1 eigenvalues not converged
     c_bands:  1 eigenvalues not converged
     c_bands:  1 eigenvalues not converged
     c_bands:  1 eigenvalues not converged
     c_bands:  1 eigenvalues not converged
     c_bands:  1 eigenvalues not converged
     ethr =  1.01E-04,  avg # of iterations = 12.3

     negative rho (up, down):  0.000E+00 9.163E-04

     total cpu time spent up to now is     4053.9 secs

     total energy              =   -2126.14464779 Ry
     estimated scf accuracy    <       0.02444154 Ry

     total magnetization       =    19.00 Bohr mag/cell
     absolute magnetization    =    19.02 Bohr mag/cell

     iteration #  8     ecut=   100.00 Ry     beta= 0.40
     Davidson diagonalization with overlap
     c_bands:  1 eigenvalues not converged
     c_bands:  1 eigenvalues not converged
     c_bands:  1 eigenvalues not converged
     c_bands:  1 eigenvalues not converged
     c_bands:  1 eigenvalues not converged
     c_bands:  1 eigenvalues not converged
     c_bands:  1 eigenvalues not converged
     c_bands:  1 eigenvalues not converged
     c_bands:  1 eigenvalues not converged
     c_bands:  1 eigenvalues not converged
     c_bands:  1 eigenvalues not converged
     c_bands:  1 eigenvalues not converged
     c_bands:  1 eigenvalues not converged
     ethr =  1.29E-05,  avg # of iterations = 10.7

     negative rho (up, down):  0.000E+00 9.469E-04

     total cpu time spent up to now is     4961.2 secs

     total energy              =   -2126.15221057 Ry
     estimated scf accuracy    <       0.02563670 Ry

     total magnetization       =    19.00 Bohr mag/cell
     absolute magnetization    =    19.03 Bohr mag/cell

     iteration #  9     ecut=   100.00 Ry     beta= 0.40
     Davidson diagonalization with overlap
     ethr =  1.29E-05,  avg # of iterations =  1.0

     negative rho (up, down):  0.000E+00 9.415E-04

     total cpu time spent up to now is     5376.1 secs

     total energy              =   -2126.15311790 Ry
     estimated scf accuracy    <       0.00171022 Ry

     total magnetization       =    19.00 Bohr mag/cell
     absolute magnetization    =    19.04 Bohr mag/cell

     iteration # 10     ecut=   100.00 Ry     beta= 0.40
     Davidson diagonalization with overlap
     c_bands:  1 eigenvalues not converged
     c_bands:  1 eigenvalues not converged
     c_bands:  1 eigenvalues not converged
     c_bands:  1 eigenvalues not converged
     c_bands:  1 eigenvalues not converged
     c_bands:  1 eigenvalues not converged
     c_bands:  1 eigenvalues not converged
     c_bands:  1 eigenvalues not converged
     c_bands:  1 eigenvalues not converged
     c_bands:  1 eigenvalues not converged
     c_bands:  1 eigenvalues not converged
     ethr =  9.05E-07,  avg # of iterations =  7.3

     negative rho (up, down):  0.000E+00 9.313E-04

     total cpu time spent up to now is     6094.4 secs

     total energy              =   -2126.15356881 Ry
     estimated scf accuracy    <       0.00128850 Ry

     total magnetization       =    19.00 Bohr mag/cell
     absolute magnetization    =    19.04 Bohr mag/cell

     iteration # 11     ecut=   100.00 Ry     beta= 0.40
     Davidson diagonalization with overlap
     ethr =  6.82E-07,  avg # of iterations =  1.2

     negative rho (up, down):  0.000E+00 9.322E-04

     total cpu time spent up to now is     6491.9 secs

     total energy              =   -2126.15365904 Ry
     estimated scf accuracy    <       0.00004809 Ry

     total magnetization       =    19.00 Bohr mag/cell
     absolute magnetization    =    19.05 Bohr mag/cell

     iteration # 12     ecut=   100.00 Ry     beta= 0.40
     Davidson diagonalization with overlap
     ethr =  2.54E-08,  avg # of iterations =  4.3

     negative rho (up, down):  0.000E+00 9.289E-04

     total cpu time spent up to now is     7216.5 secs

     total energy              =   -2126.15369987 Ry
     estimated scf accuracy    <       0.00001533 Ry

     total magnetization       =    19.00 Bohr mag/cell
     absolute magnetization    =    19.05 Bohr mag/cell

     iteration # 13     ecut=   100.00 Ry     beta= 0.40
     Davidson diagonalization with overlap
     ethr =  8.11E-09,  avg # of iterations =  2.7

     negative rho (up, down):  0.000E+00 9.288E-04

     total cpu time spent up to now is     7772.7 secs

     total energy              =   -2126.15370948 Ry
     estimated scf accuracy    <       0.00001014 Ry

     total magnetization       =    19.00 Bohr mag/cell
     absolute magnetization    =    19.05 Bohr mag/cell

     iteration # 14     ecut=   100.00 Ry     beta= 0.40
     Davidson diagonalization with overlap
     ethr =  5.36E-09,  avg # of iterations =  2.0

     negative rho (up, down):  0.000E+00 9.303E-04

     total cpu time spent up to now is     8243.7 secs

     total energy              =   -2126.15371318 Ry
     estimated scf accuracy    <       0.00000598 Ry

     total magnetization       =    19.00 Bohr mag/cell
     absolute magnetization    =    19.05 Bohr mag/cell

     iteration # 15     ecut=   100.00 Ry     beta= 0.40
     Davidson diagonalization with overlap
     ethr =  3.17E-09,  avg # of iterations =  2.0

     negative rho (up, down):  0.000E+00 9.309E-04

     total cpu time spent up to now is     8713.8 secs

     total energy              =   -2126.15371474 Ry
     estimated scf accuracy    <       0.00000055 Ry

     total magnetization       =    19.00 Bohr mag/cell
     absolute magnetization    =    19.05 Bohr mag/cell

     iteration # 16     ecut=   100.00 Ry     beta= 0.40
     Davidson diagonalization with overlap
     ethr =  2.91E-10,  avg # of iterations =  4.2

     negative rho (up, down):  0.000E+00 9.310E-04

     total cpu time spent up to now is     9432.4 secs

     total energy              =   -2126.15371535 Ry
     estimated scf accuracy    <       0.00000034 Ry

     total magnetization       =    19.00 Bohr mag/cell
     absolute magnetization    =    19.05 Bohr mag/cell

     iteration # 17     ecut=   100.00 Ry     beta= 0.40
     Davidson diagonalization with overlap
     ethr =  1.80E-10,  avg # of iterations =  2.0

     negative rho (up, down):  0.000E+00 9.312E-04

     total cpu time spent up to now is     9899.1 secs

     total energy              =   -2126.15371549 Ry
     estimated scf accuracy    <       0.00000013 Ry

     total magnetization       =    19.00 Bohr mag/cell
     absolute magnetization    =    19.05 Bohr mag/cell

     iteration # 18     ecut=   100.00 Ry     beta= 0.40
     Davidson diagonalization with overlap
     ethr =  7.13E-11,  avg # of iterations =  2.1

     negative rho (up, down):  0.000E+00 9.313E-04

     total cpu time spent up to now is    10380.4 secs

     total energy              =   -2126.15371556 Ry
     estimated scf accuracy    <       0.00000006 Ry

     total magnetization       =    19.00 Bohr mag/cell
     absolute magnetization    =    19.05 Bohr mag/cell

     iteration # 19     ecut=   100.00 Ry     beta= 0.40
     Davidson diagonalization with overlap
     ethr =  3.01E-11,  avg # of iterations =  2.4

     negative rho (up, down):  0.000E+00 9.312E-04

     total cpu time spent up to now is    10865.9 secs

     total energy              =   -2126.15371558 Ry
     estimated scf accuracy    <       0.00000001 Ry

     total magnetization       =    19.00 Bohr mag/cell
     absolute magnetization    =    19.05 Bohr mag/cell

     iteration # 20     ecut=   100.00 Ry     beta= 0.40
     Davidson diagonalization with overlap
     ethr =  6.90E-12,  avg # of iterations =  4.0

     negative rho (up, down):  0.000E+00 9.311E-04

     total cpu time spent up to now is    11509.7 secs

     total energy              =   -2126.15371559 Ry
     estimated scf accuracy    <          3.8E-09 Ry

     total magnetization       =    19.00 Bohr mag/cell
     absolute magnetization    =    19.05 Bohr mag/cell

     iteration # 21     ecut=   100.00 Ry     beta= 0.40
     Davidson diagonalization with overlap
     ethr =  2.03E-12,  avg # of iterations =  2.7

     negative rho (up, down):  0.000E+00 9.311E-04

     total cpu time spent up to now is    12031.9 secs

     total energy              =   -2126.15371560 Ry
     estimated scf accuracy    <       0.00000001 Ry

     total magnetization       =    19.00 Bohr mag/cell
     absolute magnetization    =    19.05 Bohr mag/cell

     iteration # 22     ecut=   100.00 Ry     beta= 0.40
     Davidson diagonalization with overlap
     ethr =  2.03E-12,  avg # of iterations =  2.0

     negative rho (up, down):  0.000E+00 9.311E-04

     total cpu time spent up to now is    12525.9 secs

     total energy              =   -2126.15371560 Ry
     estimated scf accuracy    <          7.3E-10 Ry

     total magnetization       =    19.00 Bohr mag/cell
     absolute magnetization    =    19.05 Bohr mag/cell

     iteration # 23     ecut=   100.00 Ry     beta= 0.40
     Davidson diagonalization with overlap
     ethr =  3.87E-13,  avg # of iterations =  3.4

     negative rho (up, down):  0.000E+00 9.311E-04

     total cpu time spent up to now is    13079.0 secs

     total energy              =   -2126.15371560 Ry
     estimated scf accuracy    <          5.6E-10 Ry

     total magnetization       =    19.00 Bohr mag/cell
     absolute magnetization    =    19.05 Bohr mag/cell

     iteration # 24     ecut=   100.00 Ry     beta= 0.40
     Davidson diagonalization with overlap
     ethr =  2.95E-13,  avg # of iterations =  1.4

     negative rho (up, down):  0.000E+00 9.311E-04

     Magnetic moment per site:
     atom:    1    charge:    7.9783    magn:    0.0008    constr:    0.0000
     atom:    2    charge:   12.8786    magn:    3.6557    constr:    0.0000
     atom:    3    charge:   12.8818    magn:    3.6406    constr:    0.0000
     atom:    4    charge:   12.8786    magn:    3.6557    constr:    0.0000
     atom:    5    charge:   12.8818    magn:    3.6406    constr:    0.0000
     atom:    6    charge:    0.8521    magn:    0.0109    constr:    0.0000
     atom:    7    charge:    0.8527    magn:    0.0083    constr:    0.0000
     atom:    8    charge:    0.8521    magn:    0.0109    constr:    0.0000
     atom:    9    charge:    0.8527    magn:    0.0083    constr:    0.0000
     atom:   10    charge:    4.2732    magn:    0.1343    constr:    0.0000
     atom:   11    charge:    4.2763    magn:    0.0852    constr:    0.0000
     atom:   12    charge:    4.2732    magn:    0.1343    constr:    0.0000
     atom:   13    charge:    4.2763    magn:    0.0852    constr:    0.0000
     atom:   14    charge:    4.2645    magn:    0.0932    constr:    0.0000
     atom:   15    charge:    4.2679    magn:    0.1377    constr:    0.0000
     atom:   16    charge:    4.2645    magn:    0.0932    constr:    0.0000
     atom:   17    charge:    4.2679    magn:    0.1377    constr:    0.0000
     atom:   18    charge:    4.2454    magn:    0.1460    constr:    0.0000
     atom:   19    charge:    4.2487    magn:    0.1213    constr:    0.0000
     atom:   20    charge:    4.2471    magn:    0.1544    constr:    0.0000
     atom:   21    charge:    4.2498    magn:    0.1335    constr:    0.0000
     atom:   22    charge:    4.2454    magn:    0.1460    constr:    0.0000
     atom:   23    charge:    4.2486    magn:    0.1213    constr:    0.0000
     atom:   24    charge:    4.2471    magn:    0.1544    constr:    0.0000
     atom:   25    charge:    4.2498    magn:    0.1335    constr:    0.0000

     total cpu time spent up to now is    13490.6 secs

     End of self-consistent calculation

 ------ SPIN UP ------------


          k = 0.0000 0.0000 0.0000 ( 36463 PWs)   bands (ev):

   -85.2147 -85.2146 -85.1549 -85.1541 -51.3424 -51.3424 -51.3382 -51.3374
   -51.1845 -51.1843 -51.0877 -51.0875 -51.0595 -51.0587 -51.0439 -51.0429
   -44.6446 -16.7226 -16.6346 -16.6117 -16.2060 -15.9629 -15.9396 -15.7776
   -13.7632 -13.7293 -13.6778 -13.6311 -13.5311 -13.5069 -13.4647 -13.4643
   -13.4315 -13.4306 -13.2863 -13.2618  -4.1306  -3.6445  -3.5783  -3.1760
    -2.2723  -1.9315  -1.8496  -1.7228  -1.5266  -1.3760  -1.3356  -1.2652
    -1.1204  -1.0002  -0.7446  -0.4495  -0.3268  -0.3168   0.1934   0.2611
     0.3326   0.4172   0.5638   0.6608   0.7429   0.8278   0.9189   1.0306
     1.0967   1.2887   1.3276   1.3608   1.5918   1.5971   1.6725   1.6919
     1.8290   1.9935   2.1003   2.1699   2.1979   2.2690   2.3143   2.4685
     2.5229   2.6388   2.6957   2.8090   2.8216   2.9523   3.0575   3.1095
     3.2187   3.2792   3.3307   3.3595   3.5006   3.6387   3.6712   3.8525
     3.8819   4.0300   4.1049   4.1374   4.3679   4.4476   4.7299   4.8110
     9.0623  11.0990  11.5823  11.9253  12.0667  12.7582  13.0790  13.2970
    13.4652  13.5123

     occupation numbers 
     1.0000   1.0000   1.0000   1.0000   1.0000   1.0000   1.0000   1.0000
     1.0000   1.0000   1.0000   1.0000   1.0000   1.0000   1.0000   1.0000
     1.0000   1.0000   1.0000   1.0000   1.0000   1.0000   1.0000   1.0000
     1.0000   1.0000   1.0000   1.0000   1.0000   1.0000   1.0000   1.0000
     1.0000   1.0000   1.0000   1.0000   1.0000   1.0000   1.0000   1.0000
     1.0000   1.0000   1.0000   1.0000   1.0000   1.0000   1.0000   1.0000
     1.0000   1.0000   1.0000   1.0000   1.0000   1.0000   1.0000   1.0000
     1.0000   1.0000   1.0000   1.0000   1.0000   1.0000   1.0000   1.0000
     1.0000   1.0000   1.0000   1.0000   1.0000   1.0000   1.0000   1.0000
     1.0000   1.0000   1.0000   1.0000   1.0000   1.0000   1.0000   1.0000
     1.0000   1.0000   1.0000   1.0000   1.0000   1.0000   1.0000   1.0000
     1.0000   1.0000   1.0000   1.0000   1.0000   1.0000   1.0000   1.0000
     1.0000   1.0000   1.0000   1.0000   1.0000   1.0000   1.0000   1.0000
     0.0000   0.0000   0.0000   0.0000   0.0000   0.0000   0.0000   0.0000
     0.0000   0.0000

          k = 0.0000 0.0000 0.2337 ( 36493 PWs)   bands (ev):

   -85.2147 -85.2146 -85.1549 -85.1541 -51.3424 -51.3424 -51.3382 -51.3374
   -51.1845 -51.1843 -51.0877 -51.0875 -51.0595 -51.0587 -51.0439 -51.0429
   -44.6446 -16.7212 -16.6348 -16.6173 -16.1834 -15.9597 -15.9301 -15.7804
   -13.7710 -13.7425 -13.6873 -13.6369 -13.5265 -13.5196 -13.4676 -13.4557
   -13.4396 -13.4262 -13.2905 -13.2675  -4.1074  -3.6400  -3.5756  -3.1873
    -2.2232  -1.9026  -1.8513  -1.7051  -1.5213  -1.4106  -1.3181  -1.2125
    -1.1087  -0.9665  -0.7900  -0.4326  -0.3621  -0.2991   0.2068   0.2681
     0.3350   0.4537   0.5467   0.6743   0.7377   0.8009   0.8981   1.0504
     1.0921   1.2796   1.3122   1.3541   1.5472   1.5652   1.6291   1.6583
     1.9173   1.9778   2.0860   2.1024   2.1723   2.2640   2.2999   2.4813
     2.5342   2.6381   2.7059   2.7816   2.9205   2.9416   3.0219   3.0609
     3.2108   3.2552   3.3442   3.3676   3.4547   3.6692   3.7153   3.8548
     3.9074   4.0655   4.0976   4.1401   4.3634   4.4416   4.7043   4.7881
     9.2125  11.1728  11.6374  11.9058  12.1395  12.7023  13.1024  13.2004
    13.3335  13.5259

     occupation numbers 
     1.0000   1.0000   1.0000   1.0000   1.0000   1.0000   1.0000   1.0000
     1.0000   1.0000   1.0000   1.0000   1.0000   1.0000   1.0000   1.0000
     1.0000   1.0000   1.0000   1.0000   1.0000   1.0000   1.0000   1.0000
     1.0000   1.0000   1.0000   1.0000   1.0000   1.0000   1.0000   1.0000
     1.0000   1.0000   1.0000   1.0000   1.0000   1.0000   1.0000   1.0000
     1.0000   1.0000   1.0000   1.0000   1.0000   1.0000   1.0000   1.0000
     1.0000   1.0000   1.0000   1.0000   1.0000   1.0000   1.0000   1.0000
     1.0000   1.0000   1.0000   1.0000   1.0000   1.0000   1.0000   1.0000
     1.0000   1.0000   1.0000   1.0000   1.0000   1.0000   1.0000   1.0000
     1.0000   1.0000   1.0000   1.0000   1.0000   1.0000   1.0000   1.0000
     1.0000   1.0000   1.0000   1.0000   1.0000   1.0000   1.0000   1.0000
     1.0000   1.0000   1.0000   1.0000   1.0000   1.0000   1.0000   1.0000
     1.0000   1.0000   1.0000   1.0000   1.0000   1.0000   1.0000   1.0000
     0.0000   0.0000   0.0000   0.0000   0.0000   0.0000   0.0000   0.0000
     0.0000   0.0000

          k = 0.0000 0.0000 0.4675 ( 36542 PWs)   bands (ev):

   -85.2147 -85.2146 -85.1549 -85.1541 -51.3424 -51.3424 -51.3382 -51.3374
   -51.1845 -51.1843 -51.0877 -51.0875 -51.0595 -51.0587 -51.0439 -51.0429
   -44.6446 -16.7219 -16.6352 -16.6241 -16.1263 -15.9507 -15.9077 -15.7890
   -13.7918 -13.7750 -13.7120 -13.6578 -13.5419 -13.5151 -13.4794 -13.4487
   -13.4373 -13.4184 -13.3027 -13.2835  -4.0401  -3.6355  -3.5654  -3.2310
    -2.0872  -1.8449  -1.8302  -1.6817  -1.5012  -1.4317  -1.3144  -1.1236
    -1.0179  -0.9062  -0.8824  -0.5003  -0.3367  -0.2441   0.2467   0.2876
     0.3566   0.5012   0.5458   0.7040   0.7133   0.7586   0.8226   1.0691
     1.1065   1.2350   1.3111   1.3225   1.4292   1.4934   1.5782   1.6145
     1.7847   1.9235   2.0639   2.1158   2.1434   2.1868   2.3721   2.4387
     2.5824   2.6103   2.7134   2.7979   2.8102   2.9428   3.0050   3.0465
     3.1309   3.2680   3.3896   3.4516   3.4702   3.6739   3.8114   3.8630
     3.9744   4.0756   4.1382   4.1611   4.3463   4.4343   4.6263   4.7192
     9.6154  11.3718  11.7502  11.9287  12.2935  12.6360  12.8751  13.0802
    13.1646  13.3462

     occupation numbers 
     1.0000   1.0000   1.0000   1.0000   1.0000   1.0000   1.0000   1.0000
     1.0000   1.0000   1.0000   1.0000   1.0000   1.0000   1.0000   1.0000
     1.0000   1.0000   1.0000   1.0000   1.0000   1.0000   1.0000   1.0000
     1.0000   1.0000   1.0000   1.0000   1.0000   1.0000   1.0000   1.0000
     1.0000   1.0000   1.0000   1.0000   1.0000   1.0000   1.0000   1.0000
     1.0000   1.0000   1.0000   1.0000   1.0000   1.0000   1.0000   1.0000
     1.0000   1.0000   1.0000   1.0000   1.0000   1.0000   1.0000   1.0000
     1.0000   1.0000   1.0000   1.0000   1.0000   1.0000   1.0000   1.0000
     1.0000   1.0000   1.0000   1.0000   1.0000   1.0000   1.0000   1.0000
     1.0000   1.0000   1.0000   1.0000   1.0000   1.0000   1.0000   1.0000
     1.0000   1.0000   1.0000   1.0000   1.0000   1.0000   1.0000   1.0000
     1.0000   1.0000   1.0000   1.0000   1.0000   1.0000   1.0000   1.0000
     1.0000   1.0000   1.0000   1.0000   1.0000   1.0000   1.0000   1.0000
     0.0000   0.0000   0.0000   0.0000   0.0000   0.0000   0.0000   0.0000
     0.0000   0.0000

          k = 0.0000 0.0000 0.7012 ( 36506 PWs)   bands (ev):

   -85.2147 -85.2146 -85.1549 -85.1541 -51.3424 -51.3424 -51.3382 -51.3374
   -51.1845 -51.1843 -51.0877 -51.0875 -51.0595 -51.0587 -51.0439 -51.0429
   -44.6446 -16.7294 -16.6332 -16.6233 -16.0568 -15.9410 -15.8846 -15.8025
   -13.8177 -13.8105 -13.7409 -13.6934 -13.5561 -13.5031 -13.4924 -13.4582
   -13.4136 -13.4018 -13.3217 -13.3070  -3.9376  -3.6526  -3.5416  -3.3118
    -1.9334  -1.8015  -1.7575  -1.6727  -1.4614  -1.4228  -1.3042  -1.1018
    -1.0273  -0.8263  -0.7741  -0.6538  -0.2121  -0.1331   0.2875   0.3284
     0.3857   0.4623   0.5962   0.6592   0.7020   0.7167   0.7944   1.0680
     1.0943   1.1647   1.2264   1.3125   1.3545   1.4010   1.5129   1.5663
     1.6173   1.7931   1.9738   2.0403   2.1588   2.3290   2.3632   2.5021
     2.5592   2.6136   2.6318   2.6358   2.8220   2.8471   2.9278   3.0259
     3.1338   3.2892   3.5237   3.5426   3.6460   3.7233   3.8458   3.8799
     4.0250   4.0901   4.1922   4.2034   4.3365   4.4245   4.5003   4.6071
    10.1702  11.6354  11.7365  12.0510  12.4527  12.5407  12.7325  12.8486
    13.0312  13.0680

     occupation numbers 
     1.0000   1.0000   1.0000   1.0000   1.0000   1.0000   1.0000   1.0000
     1.0000   1.0000   1.0000   1.0000   1.0000   1.0000   1.0000   1.0000
     1.0000   1.0000   1.0000   1.0000   1.0000   1.0000   1.0000   1.0000
     1.0000   1.0000   1.0000   1.0000   1.0000   1.0000   1.0000   1.0000
     1.0000   1.0000   1.0000   1.0000   1.0000   1.0000   1.0000   1.0000
     1.0000   1.0000   1.0000   1.0000   1.0000   1.0000   1.0000   1.0000
     1.0000   1.0000   1.0000   1.0000   1.0000   1.0000   1.0000   1.0000
     1.0000   1.0000   1.0000   1.0000   1.0000   1.0000   1.0000   1.0000
     1.0000   1.0000   1.0000   1.0000   1.0000   1.0000   1.0000   1.0000
     1.0000   1.0000   1.0000   1.0000   1.0000   1.0000   1.0000   1.0000
     1.0000   1.0000   1.0000   1.0000   1.0000   1.0000   1.0000   1.0000
     1.0000   1.0000   1.0000   1.0000   1.0000   1.0000   1.0000   1.0000
     1.0000   1.0000   1.0000   1.0000   1.0000   1.0000   1.0000   1.0000
     0.0000   0.0000   0.0000   0.0000   0.0000   0.0000   0.0000   0.0000
     0.0000   0.0000

          k = 0.0000 0.0000 0.9349 ( 36496 PWs)   bands (ev):

   -85.2147 -85.2146 -85.1549 -85.1541 -51.3424 -51.3424 -51.3382 -51.3374
   -51.1845 -51.1843 -51.0877 -51.0875 -51.0595 -51.0587 -51.0439 -51.0429
   -44.6446 -16.7368 -16.6318 -16.6185 -16.0008 -15.9393 -15.8733 -15.8140
   -13.8354 -13.8329 -13.7594 -13.7231 -13.5612 -13.5040 -13.4896 -13.4662
   -13.3885 -13.3826 -13.3443 -13.3297  -3.8188  -3.7141  -3.4944  -3.4051
    -1.8536  -1.7935  -1.6838  -1.6433  -1.4170  -1.3562  -1.3192  -1.2307
    -0.9581  -0.8222  -0.6943  -0.6723  -0.0155   0.0566   0.2226   0.3022
     0.4004   0.4129   0.5609   0.5890   0.6550   0.7319   0.8797   0.9774
     1.0714   1.1054   1.1644   1.2479   1.3076   1.3454   1.4373   1.5598
     1.6719   1.7796   1.8327   1.9359   2.1766   2.3477   2.4592   2.4954
     2.5159   2.5699   2.6014   2.6563   2.7126   2.7697   2.9077   3.0238
     3.1356   3.2968   3.6005   3.6394   3.6973   3.8577   3.8958   3.9588
     3.9808   4.1919   4.2126   4.2192   4.3086   4.3729   4.4265   4.4808
    10.7786  11.3503  11.9649  12.1771  12.4055  12.4948  12.6472  12.7429
    12.9951  13.0639

     occupation numbers 
     1.0000   1.0000   1.0000   1.0000   1.0000   1.0000   1.0000   1.0000
     1.0000   1.0000   1.0000   1.0000   1.0000   1.0000   1.0000   1.0000
     1.0000   1.0000   1.0000   1.0000   1.0000   1.0000   1.0000   1.0000
     1.0000   1.0000   1.0000   1.0000   1.0000   1.0000   1.0000   1.0000
     1.0000   1.0000   1.0000   1.0000   1.0000   1.0000   1.0000   1.0000
     1.0000   1.0000   1.0000   1.0000   1.0000   1.0000   1.0000   1.0000
     1.0000   1.0000   1.0000   1.0000   1.0000   1.0000   1.0000   1.0000
     1.0000   1.0000   1.0000   1.0000   1.0000   1.0000   1.0000   1.0000
     1.0000   1.0000   1.0000   1.0000   1.0000   1.0000   1.0000   1.0000
     1.0000   1.0000   1.0000   1.0000   1.0000   1.0000   1.0000   1.0000
     1.0000   1.0000   1.0000   1.0000   1.0000   1.0000   1.0000   1.0000
     1.0000   1.0000   1.0000   1.0000   1.0000   1.0000   1.0000   1.0000
     1.0000   1.0000   1.0000   1.0000   1.0000   1.0000   1.0000   1.0000
     0.0000   0.0000   0.0000   0.0000   0.0000   0.0000   0.0000   0.0000
     0.0000   0.0000

          k = 0.0000 0.2391 0.0000 ( 36485 PWs)   bands (ev):

   -85.2147 -85.2146 -85.1549 -85.1541 -51.3424 -51.3424 -51.3382 -51.3374
   -51.1845 -51.1843 -51.0877 -51.0875 -51.0595 -51.0587 -51.0439 -51.0429
   -44.6446 -16.7239 -16.6347 -16.6116 -16.1861 -15.9640 -15.9335 -15.7978
   -13.7680 -13.7270 -13.6721 -13.6362 -13.5755 -13.5148 -13.4732 -13.4515
   -13.4366 -13.3836 -13.2782 -13.2719  -4.1045  -3.6638  -3.5552  -3.1856
    -2.2447  -1.9392  -1.8412  -1.7276  -1.4992  -1.3806  -1.3116  -1.2422
    -1.0961  -0.9941  -0.7199  -0.4395  -0.3840  -0.2695   0.2335   0.2888
     0.3444   0.3767   0.4678   0.5559   0.6798   0.8707   0.9847   1.0492
     1.1970   1.3029   1.3112   1.3511   1.4749   1.4949   1.6110   1.6467
     1.8340   2.0603   2.1249   2.1801   2.2357   2.2797   2.3482   2.4195
     2.5398   2.6259   2.6496   2.6786   2.8208   2.9797   3.0643   3.1815
     3.1919   3.2136   3.2862   3.4396   3.5589   3.6381   3.6669   3.8571
     3.8882   4.0250   4.0587   4.1582   4.3069   4.4620   4.7777   4.8088
     9.2185  11.1885  11.6620  11.8240  12.1698  12.8357  13.0177  13.3209
    13.3924  13.5097

     occupation numbers 
     1.0000   1.0000   1.0000   1.0000   1.0000   1.0000   1.0000   1.0000
     1.0000   1.0000   1.0000   1.0000   1.0000   1.0000   1.0000   1.0000
     1.0000   1.0000   1.0000   1.0000   1.0000   1.0000   1.0000   1.0000
     1.0000   1.0000   1.0000   1.0000   1.0000   1.0000   1.0000   1.0000
     1.0000   1.0000   1.0000   1.0000   1.0000   1.0000   1.0000   1.0000
     1.0000   1.0000   1.0000   1.0000   1.0000   1.0000   1.0000   1.0000
     1.0000   1.0000   1.0000   1.0000   1.0000   1.0000   1.0000   1.0000
     1.0000   1.0000   1.0000   1.0000   1.0000   1.0000   1.0000   1.0000
     1.0000   1.0000   1.0000   1.0000   1.0000   1.0000   1.0000   1.0000
     1.0000   1.0000   1.0000   1.0000   1.0000   1.0000   1.0000   1.0000
     1.0000   1.0000   1.0000   1.0000   1.0000   1.0000   1.0000   1.0000
     1.0000   1.0000   1.0000   1.0000   1.0000   1.0000   1.0000   1.0000
     1.0000   1.0000   1.0000   1.0000   1.0000   1.0000   1.0000   1.0000
     0.0000   0.0000   0.0000   0.0000   0.0000   0.0000   0.0000   0.0000
     0.0000   0.0000

          k = 0.0000 0.2391 0.2337 ( 36495 PWs)   bands (ev):

   -85.2147 -85.2146 -85.1549 -85.1541 -51.3424 -51.3424 -51.3382 -51.3374
   -51.1845 -51.1843 -51.0877 -51.0875 -51.0595 -51.0587 -51.0439 -51.0429
   -44.6446 -16.7240 -16.6348 -16.6167 -16.1601 -15.9613 -15.9232 -15.8031
   -13.7748 -13.7437 -13.6866 -13.6383 -13.5610 -13.5355 -13.4659 -13.4571
   -13.4374 -13.3850 -13.2810 -13.2748  -4.0817  -3.6570  -3.5547  -3.1952
    -2.1978  -1.9094  -1.8422  -1.7066  -1.4949  -1.4115  -1.2893  -1.1970
    -1.0792  -0.9737  -0.7678  -0.4307  -0.4004  -0.2629   0.2417   0.2969
     0.3132   0.4096   0.4829   0.5692   0.6911   0.8789   0.9894   1.0237
     1.1675   1.2886   1.3249   1.3344   1.4412   1.4690   1.5782   1.6336
     1.9004   2.0363   2.0918   2.1365   2.2482   2.2564   2.2690   2.4838
     2.5029   2.5915   2.6711   2.7543   2.8173   2.9654   3.0149   3.1462
     3.1741   3.2274   3.3057   3.4297   3.5315   3.6656   3.7042   3.8599
     3.9199   4.0338   4.0867   4.1682   4.2861   4.4541   4.7652   4.7867
     9.3630  11.2597  11.7232  11.8448  12.2138  12.7566  13.0756  13.1915
    13.3097  13.5078

     occupation numbers 
     1.0000   1.0000   1.0000   1.0000   1.0000   1.0000   1.0000   1.0000
     1.0000   1.0000   1.0000   1.0000   1.0000   1.0000   1.0000   1.0000
     1.0000   1.0000   1.0000   1.0000   1.0000   1.0000   1.0000   1.0000
     1.0000   1.0000   1.0000   1.0000   1.0000   1.0000   1.0000   1.0000
     1.0000   1.0000   1.0000   1.0000   1.0000   1.0000   1.0000   1.0000
     1.0000   1.0000   1.0000   1.0000   1.0000   1.0000   1.0000   1.0000
     1.0000   1.0000   1.0000   1.0000   1.0000   1.0000   1.0000   1.0000
     1.0000   1.0000   1.0000   1.0000   1.0000   1.0000   1.0000   1.0000
     1.0000   1.0000   1.0000   1.0000   1.0000   1.0000   1.0000   1.0000
     1.0000   1.0000   1.0000   1.0000   1.0000   1.0000   1.0000   1.0000
     1.0000   1.0000   1.0000   1.0000   1.0000   1.0000   1.0000   1.0000
     1.0000   1.0000   1.0000   1.0000   1.0000   1.0000   1.0000   1.0000
     1.0000   1.0000   1.0000   1.0000   1.0000   1.0000   1.0000   1.0000
     0.0000   0.0000   0.0000   0.0000   0.0000   0.0000   0.0000   0.0000
     0.0000   0.0000

          k = 0.0000 0.2391 0.4675 ( 36500 PWs)   bands (ev):

   -85.2147 -85.2146 -85.1549 -85.1541 -51.3424 -51.3424 -51.3382 -51.3374
   -51.1845 -51.1843 -51.0877 -51.0875 -51.0595 -51.0587 -51.0439 -51.0429
   -44.6446 -16.7246 -16.6349 -16.6232 -16.1029 -15.9468 -15.9063 -15.8112
   -13.7941 -13.7778 -13.7166 -13.6561 -13.5617 -13.5440 -13.4783 -13.4625
   -13.4240 -13.3831 -13.2927 -13.2841  -4.0162  -3.6470  -3.5470  -3.2367
    -2.0663  -1.8380  -1.8295  -1.6785  -1.4793  -1.4241  -1.2907  -1.0957
    -1.0044  -0.8962  -0.8868  -0.5260  -0.3312  -0.2385   0.2408   0.3071
     0.3456   0.3922   0.5451   0.6233   0.6990   0.8489   0.9133   1.0580
     1.1240   1.2771   1.2870   1.3084   1.3574   1.4515   1.5148   1.6170
     1.8250   1.9240   2.0991   2.1054   2.1319   2.2512   2.3059   2.4289
     2.5360   2.6478   2.6814   2.7626   2.8198   2.8244   2.9886   3.0512
     3.1384   3.2517   3.3817   3.4551   3.5406   3.6923   3.7939   3.8688
     3.9833   4.0547   4.0853   4.2337   4.2434   4.4498   4.7205   4.7312
     9.7525  11.4576  11.8418  11.9249  12.3319  12.6825  12.8895  13.0767
    13.1955  13.3680

     occupation numbers 
     1.0000   1.0000   1.0000   1.0000   1.0000   1.0000   1.0000   1.0000
     1.0000   1.0000   1.0000   1.0000   1.0000   1.0000   1.0000   1.0000
     1.0000   1.0000   1.0000   1.0000   1.0000   1.0000   1.0000   1.0000
     1.0000   1.0000   1.0000   1.0000   1.0000   1.0000   1.0000   1.0000
     1.0000   1.0000   1.0000   1.0000   1.0000   1.0000   1.0000   1.0000
     1.0000   1.0000   1.0000   1.0000   1.0000   1.0000   1.0000   1.0000
     1.0000   1.0000   1.0000   1.0000   1.0000   1.0000   1.0000   1.0000
     1.0000   1.0000   1.0000   1.0000   1.0000   1.0000   1.0000   1.0000
     1.0000   1.0000   1.0000   1.0000   1.0000   1.0000   1.0000   1.0000
     1.0000   1.0000   1.0000   1.0000   1.0000   1.0000   1.0000   1.0000
     1.0000   1.0000   1.0000   1.0000   1.0000   1.0000   1.0000   1.0000
     1.0000   1.0000   1.0000   1.0000   1.0000   1.0000   1.0000   1.0000
     1.0000   1.0000   1.0000   1.0000   1.0000   1.0000   1.0000   1.0000
     0.0000   0.0000   0.0000   0.0000   0.0000   0.0000   0.0000   0.0000
     0.0000   0.0000

          k = 0.0000 0.2391 0.7012 ( 36515 PWs)   bands (ev):

   -85.2147 -85.2146 -85.1549 -85.1541 -51.3424 -51.3424 -51.3382 -51.3374
   -51.1845 -51.1843 -51.0877 -51.0875 -51.0595 -51.0587 -51.0439 -51.0429
   -44.6446 -16.7304 -16.6332 -16.6225 -16.0377 -15.9275 -15.8949 -15.8182
   -13.8200 -13.8133 -13.7483 -13.6912 -13.5761 -13.5308 -13.4896 -13.4719
   -13.4006 -13.3779 -13.3103 -13.2989  -3.9173  -3.6559  -3.5255  -3.3148
    -1.9135  -1.7927  -1.7545  -1.6685  -1.4505  -1.4012  -1.2822  -1.0674
    -1.0219  -0.8279  -0.7788  -0.6574  -0.2255  -0.1757   0.2080   0.3184
     0.3641   0.4208   0.5990   0.7132   0.7271   0.7684   0.8569   1.0410
     1.0929   1.1942   1.2385   1.2658   1.3368   1.4166   1.4595   1.5667
     1.6200   1.7908   1.9385   2.0679   2.2220   2.2874   2.3294   2.4319
     2.5451   2.5897   2.6911   2.7166   2.7325   2.8149   2.8679   3.0307
     3.1237   3.2486   3.5108   3.5800   3.6025   3.7362   3.8346   3.8802
     4.0206   4.0703   4.0927   4.2162   4.3162   4.4474   4.6369   4.6630
    10.2935  11.7303  11.8337  12.0713  12.4978  12.6300  12.7391  12.8913
    13.0194  13.0875

     occupation numbers 
     1.0000   1.0000   1.0000   1.0000   1.0000   1.0000   1.0000   1.0000
     1.0000   1.0000   1.0000   1.0000   1.0000   1.0000   1.0000   1.0000
     1.0000   1.0000   1.0000   1.0000   1.0000   1.0000   1.0000   1.0000
     1.0000   1.0000   1.0000   1.0000   1.0000   1.0000   1.0000   1.0000
     1.0000   1.0000   1.0000   1.0000   1.0000   1.0000   1.0000   1.0000
     1.0000   1.0000   1.0000   1.0000   1.0000   1.0000   1.0000   1.0000
     1.0000   1.0000   1.0000   1.0000   1.0000   1.0000   1.0000   1.0000
     1.0000   1.0000   1.0000   1.0000   1.0000   1.0000   1.0000   1.0000
     1.0000   1.0000   1.0000   1.0000   1.0000   1.0000   1.0000   1.0000
     1.0000   1.0000   1.0000   1.0000   1.0000   1.0000   1.0000   1.0000
     1.0000   1.0000   1.0000   1.0000   1.0000   1.0000   1.0000   1.0000
     1.0000   1.0000   1.0000   1.0000   1.0000   1.0000   1.0000   1.0000
     1.0000   1.0000   1.0000   1.0000   1.0000   1.0000   1.0000   1.0000
     0.0000   0.0000   0.0000   0.0000   0.0000   0.0000   0.0000   0.0000
     0.0000   0.0000

          k = 0.0000 0.2391 0.9349 ( 36488 PWs)   bands (ev):

   -85.2147 -85.2146 -85.1549 -85.1541 -51.3424 -51.3424 -51.3382 -51.3374
   -51.1845 -51.1843 -51.0877 -51.0875 -51.0595 -51.0587 -51.0439 -51.0429
   -44.6446 -16.7359 -16.6318 -16.6182 -15.9892 -15.9316 -15.8794 -15.8212
   -13.8400 -13.8360 -13.7646 -13.7220 -13.5792 -13.5274 -13.4902 -13.4799
   -13.3845 -13.3639 -13.3265 -13.3161  -3.8048  -3.7057  -3.4846  -3.4035
    -1.8343  -1.7766  -1.6861  -1.6441  -1.4090  -1.3373  -1.2956  -1.1864
    -0.9694  -0.8095  -0.6948  -0.6701  -0.0724  -0.0501   0.1252   0.1859
     0.4369   0.5315   0.6070   0.6355   0.6891   0.8130   0.9055   0.9384
     1.0715   1.0963   1.2111   1.2352   1.3181   1.3445   1.3929   1.5029
     1.6682   1.7713   1.8038   1.9680   2.2047   2.3332   2.3871   2.4401
     2.5253   2.5674   2.6153   2.6561   2.7200   2.7994   2.8624   3.0129
     3.1206   3.2426   3.5779   3.6470   3.7174   3.8176   3.8403   3.8995
     3.9721   4.0270   4.1650   4.2207   4.3827   4.4509   4.5459   4.6053
    10.8919  11.4613  12.0540  12.2528  12.4653  12.5430  12.6898  12.7805
    12.9098  13.0894

     occupation numbers 
     1.0000   1.0000   1.0000   1.0000   1.0000   1.0000   1.0000   1.0000
     1.0000   1.0000   1.0000   1.0000   1.0000   1.0000   1.0000   1.0000
     1.0000   1.0000   1.0000   1.0000   1.0000   1.0000   1.0000   1.0000
     1.0000   1.0000   1.0000   1.0000   1.0000   1.0000   1.0000   1.0000
     1.0000   1.0000   1.0000   1.0000   1.0000   1.0000   1.0000   1.0000
     1.0000   1.0000   1.0000   1.0000   1.0000   1.0000   1.0000   1.0000
     1.0000   1.0000   1.0000   1.0000   1.0000   1.0000   1.0000   1.0000
     1.0000   1.0000   1.0000   1.0000   1.0000   1.0000   1.0000   1.0000
     1.0000   1.0000   1.0000   1.0000   1.0000   1.0000   1.0000   1.0000
     1.0000   1.0000   1.0000   1.0000   1.0000   1.0000   1.0000   1.0000
     1.0000   1.0000   1.0000   1.0000   1.0000   1.0000   1.0000   1.0000
     1.0000   1.0000   1.0000   1.0000   1.0000   1.0000   1.0000   1.0000
     1.0000   1.0000   1.0000   1.0000   1.0000   1.0000   1.0000   1.0000
     0.0000   0.0000   0.0000   0.0000   0.0000   0.0000   0.0000   0.0000
     0.0000   0.0000

          k = 0.0000 0.4781 0.0000 ( 36507 PWs)   bands (ev):

   -85.2147 -85.2146 -85.1549 -85.1541 -51.3424 -51.3424 -51.3382 -51.3374
   -51.1845 -51.1843 -51.0877 -51.0875 -51.0595 -51.0587 -51.0439 -51.0429
   -44.6446 -16.7266 -16.6349 -16.6115 -16.1314 -15.9644 -15.9235 -15.8517
   -13.7780 -13.7178 -13.6719 -13.6573 -13.6119 -13.5432 -13.4659 -13.4472
   -13.4288 -13.3296 -13.2987 -13.2608  -4.0324  -3.7261  -3.4852  -3.2216
    -2.1725  -1.9635  -1.8192  -1.7388  -1.4569  -1.3876  -1.2460  -1.1504
    -1.0873  -0.9278  -0.6878  -0.5247  -0.3400  -0.1914   0.2384   0.2611
     0.3453   0.3716   0.4340   0.4622   0.5101   0.8414   1.0778   1.1329
     1.1629   1.1922   1.2606   1.3083   1.3684   1.3974   1.5766   1.6994
     1.8928   2.0332   2.1398   2.2059   2.2416   2.2533   2.3006   2.3987
     2.5454   2.6166   2.6420   2.6898   2.7940   2.9455   3.0149   3.0451
     3.1318   3.1728   3.4643   3.5271   3.6059   3.6300   3.6974   3.8637
     3.8919   3.9453   4.0622   4.0973   4.2210   4.5832   4.7867   4.8253
     9.6427  11.4347  11.4564  11.8779  12.3429  12.8422  13.0354  13.2281
    13.4725  13.5553

     occupation numbers 
     1.0000   1.0000   1.0000   1.0000   1.0000   1.0000   1.0000   1.0000
     1.0000   1.0000   1.0000   1.0000   1.0000   1.0000   1.0000   1.0000
     1.0000   1.0000   1.0000   1.0000   1.0000   1.0000   1.0000   1.0000
     1.0000   1.0000   1.0000   1.0000   1.0000   1.0000   1.0000   1.0000
     1.0000   1.0000   1.0000   1.0000   1.0000   1.0000   1.0000   1.0000
     1.0000   1.0000   1.0000   1.0000   1.0000   1.0000   1.0000   1.0000
     1.0000   1.0000   1.0000   1.0000   1.0000   1.0000   1.0000   1.0000
     1.0000   1.0000   1.0000   1.0000   1.0000   1.0000   1.0000   1.0000
     1.0000   1.0000   1.0000   1.0000   1.0000   1.0000   1.0000   1.0000
     1.0000   1.0000   1.0000   1.0000   1.0000   1.0000   1.0000   1.0000
     1.0000   1.0000   1.0000   1.0000   1.0000   1.0000   1.0000   1.0000
     1.0000   1.0000   1.0000   1.0000   1.0000   1.0000   1.0000   1.0000
     1.0000   1.0000   1.0000   1.0000   1.0000   1.0000   1.0000   1.0000
     0.0000   0.0000   0.0000   0.0000   0.0000   0.0000   0.0000   0.0000
     0.0000   0.0000

          k = 0.0000 0.4781 0.2337 ( 36461 PWs)   bands (ev):

   -85.2147 -85.2146 -85.1549 -85.1541 -51.3424 -51.3424 -51.3382 -51.3374
   -51.1845 -51.1843 -51.0877 -51.0875 -51.0595 -51.0587 -51.0439 -51.0429
   -44.6446 -16.7264 -16.6349 -16.6161 -16.1048 -15.9603 -15.9144 -15.8577
   -13.7832 -13.7447 -13.6770 -13.6561 -13.6020 -13.5664 -13.4660 -13.4583
   -13.4169 -13.3363 -13.2970 -13.2605  -4.0109  -3.7152  -3.4877  -3.2285
    -2.1304  -1.9324  -1.8155  -1.7167  -1.4529  -1.4048  -1.1907  -1.1549
    -1.0413  -0.9436  -0.7290  -0.5449  -0.3281  -0.1988   0.2172   0.2304
     0.3132   0.3997   0.4752   0.4856   0.5662   0.8681   1.0430   1.0791
     1.1397   1.1790   1.2609   1.3176   1.3633   1.4031   1.5759   1.7146
     1.8994   2.0483   2.0877   2.1765   2.2441   2.2597   2.2762   2.4164
     2.5021   2.5636   2.6199   2.7149   2.8005   2.9224   3.0066   3.0097
     3.0947   3.1964   3.4396   3.5485   3.5911   3.6612   3.7143   3.8937
     3.9027   3.9454   4.0424   4.0891   4.2697   4.5806   4.7724   4.8230
     9.7713  11.4983  11.5186  11.9483  12.3793  12.7957  13.0705  13.1090
    13.4157  13.4727

     occupation numbers 
     1.0000   1.0000   1.0000   1.0000   1.0000   1.0000   1.0000   1.0000
     1.0000   1.0000   1.0000   1.0000   1.0000   1.0000   1.0000   1.0000
     1.0000   1.0000   1.0000   1.0000   1.0000   1.0000   1.0000   1.0000
     1.0000   1.0000   1.0000   1.0000   1.0000   1.0000   1.0000   1.0000
     1.0000   1.0000   1.0000   1.0000   1.0000   1.0000   1.0000   1.0000
     1.0000   1.0000   1.0000   1.0000   1.0000   1.0000   1.0000   1.0000
     1.0000   1.0000   1.0000   1.0000   1.0000   1.0000   1.0000   1.0000
     1.0000   1.0000   1.0000   1.0000   1.0000   1.0000   1.0000   1.0000
     1.0000   1.0000   1.0000   1.0000   1.0000   1.0000   1.0000   1.0000
     1.0000   1.0000   1.0000   1.0000   1.0000   1.0000   1.0000   1.0000
     1.0000   1.0000   1.0000   1.0000   1.0000   1.0000   1.0000   1.0000
     1.0000   1.0000   1.0000   1.0000   1.0000   1.0000   1.0000   1.0000
     1.0000   1.0000   1.0000   1.0000   1.0000   1.0000   1.0000   1.0000
     0.0000   0.0000   0.0000   0.0000   0.0000   0.0000   0.0000   0.0000
     0.0000   0.0000

          k = 0.0000 0.4781 0.4675 ( 36464 PWs)   bands (ev):

   -85.2147 -85.2146 -85.1549 -85.1541 -51.3424 -51.3424 -51.3382 -51.3374
   -51.1845 -51.1843 -51.0877 -51.0875 -51.0595 -51.0587 -51.0439 -51.0429
   -44.6446 -16.7251 -16.6351 -16.6223 -16.0522 -15.9411 -15.9025 -15.8606
   -13.8000 -13.7834 -13.7124 -13.6604 -13.6024 -13.5913 -13.4794 -13.4690
   -13.3963 -13.3425 -13.2977 -13.2657  -3.9505  -3.6912  -3.4880  -3.2627
    -2.0116  -1.8532  -1.7959  -1.6819  -1.4453  -1.3969  -1.1938  -1.0370
    -0.9630  -0.9231  -0.8356  -0.6189  -0.2872  -0.2070   0.1486   0.1891
     0.2999   0.4572   0.4972   0.5783   0.6622   0.9109   0.9507   1.0353
     1.1026   1.1106   1.2902   1.3053   1.3566   1.3959   1.5664   1.6986
     1.8903   1.9045   2.1176   2.1279   2.1600   2.2577   2.2908   2.3806
     2.4974   2.5286   2.6074   2.7003   2.8108   2.8140   2.8918   3.0012
     3.0791   3.2100   3.4036   3.5617   3.6173   3.7317   3.7556   3.8926
     3.9223   3.9760   4.0200   4.0904   4.3631   4.5855   4.7416   4.8110
    10.1245  11.6579  11.7104  12.1072  12.4786  12.7619  12.8483  13.1375
    13.2474  13.3165

     occupation numbers 
     1.0000   1.0000   1.0000   1.0000   1.0000   1.0000   1.0000   1.0000
[...]
     atom   25 type  3   force =     0.00016765    0.00041944    0.00010008
     The non-local contrib.  to forces
     atom    1 type  2   force =     0.00000000    0.00000000    0.00000000
     atom    2 type  1   force =     0.10945844    0.06538297    0.11541889
     atom    3 type  1   force =     0.06776827   -0.00564977    0.09709409
     atom    4 type  1   force =    -0.10945844   -0.06538297   -0.11541889
     atom    5 type  1   force =    -0.06776827    0.00564977   -0.09709409
     atom    6 type  4   force =    -0.01838227   -0.00458683   -0.04329981
     atom    7 type  4   force =     0.02121519   -0.00319920   -0.02555788
     atom    8 type  4   force =     0.01838227    0.00458683    0.04329981
     atom    9 type  4   force =    -0.02121519    0.00319920    0.02555788
     atom   10 type  3   force =     0.34047798   -0.02173103   -1.49845247
     atom   11 type  3   force =    -0.20617852   -0.02285446   -1.47538113
     atom   12 type  3   force =    -0.34047798    0.02173103    1.49845247
     atom   13 type  3   force =     0.20617852    0.02285446    1.47538113
     atom   14 type  3   force =     1.21827773   -0.01042671   -0.56595235
     atom   15 type  3   force =    -1.18937579    0.01441866   -0.67954391
     atom   16 type  3   force =    -1.21827773    0.01042671    0.56595235
     atom   17 type  3   force =     1.18937579   -0.01441866    0.67954391
     atom   18 type  3   force =    -0.56629441   -1.11041697    0.73756389
     atom   19 type  3   force =     0.63111824    1.09954098    0.67312613
     atom   20 type  3   force =     0.52486052   -1.08158273   -0.73007956
     atom   21 type  3   force =    -0.57541369    1.08805413   -0.80912712
     atom   22 type  3   force =     0.56629441    1.11041697   -0.73756389
     atom   23 type  3   force =    -0.63111824   -1.09954098   -0.67312613
     atom   24 type  3   force =    -0.52486052    1.08158273    0.73007956
     atom   25 type  3   force =     0.57541369   -1.08805413    0.80912712
     The ionic contribution  to forces
     atom    1 type  2   force =    -0.00009328    0.00005847    0.00002443
     atom    2 type  1   force =    -1.86772930   -0.99697519   -0.64718563
     atom    3 type  1   force =    -9.51849071    1.66291069   -0.62062811
     atom    4 type  1   force =     1.86766052    0.99696093    0.64719260
     atom    5 type  1   force =     9.51853735   -1.66291903    0.62061311
     atom    6 type  4   force =    -4.29572206   -0.04958511    0.41049850
     atom    7 type  4   force =     1.40181686    1.56415056    0.90619854
     atom    8 type  4   force =     4.29577129    0.04958713   -0.41050694
     atom    9 type  4   force =    -1.40182461   -1.56415576   -0.90609132
     atom   10 type  3   force =   -11.19082834    0.08295280    2.77490583
     atom   11 type  3   force =     5.85205724    2.53322073    1.86710059
     atom   12 type  3   force =    11.19082896   -0.08295309   -2.77491569
     atom   13 type  3   force =    -5.85193566   -2.53324524   -1.86720540
     atom   14 type  3   force =     0.49227579   -2.57484656    3.96318911
     atom   15 type  3   force =    -2.89448355   -0.09635456    6.29968169
     atom   16 type  3   force =    -0.49220894    2.57481397   -3.96321715
     atom   17 type  3   force =     2.89438786    0.09635401   -6.29968040
     atom   18 type  3   force =    -5.14412402    3.23207787   -2.77484624
     atom   19 type  3   force =    -1.43173295   -2.88854661   -0.70568158
     atom   20 type  3   force =     4.68924184    3.09434203    2.63502336
     atom   21 type  3   force =    -1.36493423   -2.64141252    3.08293638
     atom   22 type  3   force =     5.14412067   -3.23209006    2.77485019
     atom   23 type  3   force =     1.43173182    2.88857668    0.70568458
     atom   24 type  3   force =    -4.68923887   -3.09432899   -2.63502506
     atom   25 type  3   force =     1.36491633    2.64140686   -3.08291539
     The local contribution  to forces
     atom    1 type  2   force =    -0.00457668   -0.00020285   -0.00231608
     atom    2 type  1   force =     1.74633948    0.92701785    0.52530625
     atom    3 type  1   force =     9.43927650   -1.66296132    0.51746108
     atom    4 type  1   force =    -1.76786958   -0.93798320   -0.53575387
     atom    5 type  1   force =    -9.46074125    1.65179856   -0.52899356
     atom    6 type  4   force =     4.31438802    0.05387488   -0.37211597
     atom    7 type  4   force =    -1.42078624   -1.56095745   -0.88215948
     atom    8 type  4   force =    -4.31428338   -0.05394066    0.37202451
     atom    9 type  4   force =     1.42077363    1.56080974    0.88228406
     atom   10 type  3   force =    10.85248100   -0.06280260   -1.28930167
     atom   11 type  3   force =    -5.65120913   -2.51203541   -0.40549782
     atom   12 type  3   force =   -10.85671800    0.06011029    1.28789320
     atom   13 type  3   force =     5.64620189    2.50921707    0.40242409
     atom   14 type  3   force =    -1.70123350    2.58386404   -3.40308795
     atom   15 type  3   force =     4.07284790    0.08068055   -5.62849398
     atom   16 type  3   force =     1.69773775   -2.58635370    3.40073068
     atom   17 type  3   force =    -4.07652677   -0.08334018    5.62552766
     atom   18 type  3   force =     5.70333103   -2.13302668    2.04325536
     atom   19 type  3   force =     0.80377416    1.79694540    0.03767053
     atom   20 type  3   force =    -5.21282777   -2.02411715   -1.91382332
     atom   21 type  3   force =     1.93257981    1.56120971   -2.28227451
     atom   22 type  3   force =    -5.70852573    2.13124119   -2.04574154
     atom   23 type  3   force =    -0.80862347   -1.79919348   -0.03997988
     atom   24 type  3   force =     5.20737864    2.02168028    1.91089800
     atom   25 type  3   force =    -1.93779275   -1.56333858    2.28035098
     The core correction contribution to forces
     atom    1 type  2   force =     0.00000000    0.00000000    0.00000000
     atom    2 type  1   force =    -0.00133136   -0.00047342   -0.00040860
     atom    3 type  1   force =    -0.00006195    0.00039595    0.00068413
     atom    4 type  1   force =     0.00206255    0.00084919    0.00075708
     atom    5 type  1   force =     0.00077149   -0.00002223   -0.00030444
     atom    6 type  4   force =     0.00155376    0.00026975    0.00299664
     atom    7 type  4   force =    -0.00152848   -0.00023092    0.00118311
     atom    8 type  4   force =    -0.00153791   -0.00026319   -0.00298843
     atom    9 type  4   force =     0.00154468    0.00023684   -0.00117697
     atom   10 type  3   force =    -0.00367037    0.00020683    0.01305404
     atom   11 type  3   force =     0.00249043    0.00018211    0.01281435
     atom   12 type  3   force =     0.00366552   -0.00020829   -0.01305881
     atom   13 type  3   force =    -0.00249366   -0.00018324   -0.01281729
     atom   14 type  3   force =    -0.01027838    0.00017739    0.00547035
     atom   15 type  3   force =     0.01011065   -0.00013422    0.00644399
     atom   16 type  3   force =     0.01027116   -0.00017856   -0.00547153
     atom   17 type  3   force =    -0.01011873    0.00013266   -0.00644590
     atom   18 type  3   force =     0.00494791    0.00961720   -0.00668307
     atom   19 type  3   force =    -0.00547439   -0.00958709   -0.00614598
     atom   20 type  3   force =    -0.00455021    0.00935262    0.00662770
     atom   21 type  3   force =     0.00498516   -0.00933925    0.00741155
     atom   22 type  3   force =    -0.00495182   -0.00962196    0.00668278
     atom   23 type  3   force =     0.00546899    0.00958216    0.00614158
     atom   24 type  3   force =     0.00454817   -0.00935398   -0.00662813
     atom   25 type  3   force =    -0.00498907    0.00933814   -0.00741548
     The Hubbard contrib.    to forces
     atom    1 type  2   force =     0.00000000    0.00000000    0.00000000
     atom    2 type  1   force =     0.00000000    0.00000000    0.00000000
     atom    3 type  1   force =     0.00000000    0.00000000    0.00000000
     atom    4 type  1   force =     0.00000000    0.00000000    0.00000000
     atom    5 type  1   force =     0.00000000    0.00000000    0.00000000
     atom    6 type  4   force =     0.00000000    0.00000000    0.00000000
     atom    7 type  4   force =     0.00000000    0.00000000    0.00000000
     atom    8 type  4   force =     0.00000000    0.00000000    0.00000000
     atom    9 type  4   force =     0.00000000    0.00000000    0.00000000
     atom   10 type  3   force =     0.00000000    0.00000000    0.00000000
     atom   11 type  3   force =     0.00000000    0.00000000    0.00000000
     atom   12 type  3   force =     0.00000000    0.00000000    0.00000000
     atom   13 type  3   force =     0.00000000    0.00000000    0.00000000
     atom   14 type  3   force =     0.00000000    0.00000000    0.00000000
     atom   15 type  3   force =     0.00000000    0.00000000    0.00000000
     atom   16 type  3   force =     0.00000000    0.00000000    0.00000000
     atom   17 type  3   force =     0.00000000    0.00000000    0.00000000
     atom   18 type  3   force =     0.00000000    0.00000000    0.00000000
     atom   19 type  3   force =     0.00000000    0.00000000    0.00000000
     atom   20 type  3   force =     0.00000000    0.00000000    0.00000000
     atom   21 type  3   force =     0.00000000    0.00000000    0.00000000
     atom   22 type  3   force =     0.00000000    0.00000000    0.00000000
     atom   23 type  3   force =     0.00000000    0.00000000    0.00000000
     atom   24 type  3   force =     0.00000000    0.00000000    0.00000000
     atom   25 type  3   force =     0.00000000    0.00000000    0.00000000
     The SCF correction term to forces
     atom    1 type  2   force =     0.00000001    0.00000000    0.00000000
     atom    2 type  1   force =     0.00000629   -0.00000081    0.00000225
     atom    3 type  1   force =     0.00000812    0.00000110   -0.00000253
     atom    4 type  1   force =    -0.00000624    0.00000083   -0.00000223
     atom    5 type  1   force =    -0.00000809   -0.00000108    0.00000255
     atom    6 type  4   force =     0.00000148   -0.00000025   -0.00000053
     atom    7 type  4   force =     0.00000050    0.00000032    0.00000035
     atom    8 type  4   force =    -0.00000148    0.00000025    0.00000053
     atom    9 type  4   force =    -0.00000050   -0.00000031   -0.00000035
     atom   10 type  3   force =     0.00000105   -0.00000023    0.00000086
     atom   11 type  3   force =     0.00000083    0.00000027    0.00000024
     atom   12 type  3   force =    -0.00000104    0.00000023   -0.00000086
     atom   13 type  3   force =    -0.00000083   -0.00000027   -0.00000023
     atom   14 type  3   force =     0.00000057   -0.00000021    0.00000025
     atom   15 type  3   force =     0.00000119    0.00000004    0.00000017
     atom   16 type  3   force =    -0.00000057    0.00000021   -0.00000024
     atom   17 type  3   force =    -0.00000119   -0.00000004   -0.00000017
     atom   18 type  3   force =     0.00000202    0.00000119   -0.00000020
     atom   19 type  3   force =     0.00000206    0.00000076   -0.00000025
     atom   20 type  3   force =    -0.00000222    0.00000150    0.00000012
     atom   21 type  3   force =    -0.00000207    0.00000067    0.00000039
     atom   22 type  3   force =    -0.00000202   -0.00000119    0.00000020
     atom   23 type  3   force =    -0.00000206   -0.00000076    0.00000025
     atom   24 type  3   force =     0.00000222   -0.00000150   -0.00000012
     atom   25 type  3   force =     0.00000207   -0.00000067   -0.00000039

     Total force =     0.007415     Total SCF correction =     0.000017


     Computing stress (Cartesian axis) and pressure


     negative rho (up, down):  0.000E+00 9.311E-04
          total   stress  (Ry/bohr**3)                   (kbar)     P=      -27.83
  -0.00032026  -0.00000944  -0.00002046          -47.11       -1.39       -3.01
  -0.00000944  -0.00017240   0.00001527           -1.39      -25.36        2.25
  -0.00002046   0.00001527  -0.00007496           -3.01        2.25      -11.03

     kinetic stress (kbar)  26389.94     19.61      3.01
                               19.61  26601.21     -0.64
                                3.01     -0.64  26407.83

     local   stress (kbar)  -4670.85   2796.52    900.35
                             2796.52 -14673.37   -966.32
                              900.35   -966.32  -7397.28

     nonloc. stress (kbar)  -6719.59      1.14     -0.74
                                1.14  -6667.14     -1.91
                               -0.74     -1.91  -6659.70

     hartree stress (kbar)  12619.24  -1130.30   -347.05
                            -1130.30  17997.27    391.68
                             -347.05    391.68  14442.19

     exc-cor stress (kbar)  -2797.69     -1.53     -0.67
                               -1.53  -2804.27      0.34
                               -0.67      0.34  -2802.52

     corecor stress (kbar)  -3114.89      0.61      0.56
                                0.61  -3114.27      0.04
                                0.56      0.04  -3116.27

     ewald   stress (kbar) -21753.26  -1687.43   -558.47
                            -1687.43 -17364.79    579.04
                             -558.47    579.04 -20885.28

     hubbard stress (kbar)      0.00      0.00      0.00
                                0.00      0.00      0.00
                                0.00      0.00      0.00

     DFT-D   stress (kbar)      0.00      0.00      0.00
                                0.00      0.00      0.00
                                0.00      0.00      0.00

     XDM     stress (kbar)      0.00      0.00      0.00
                                0.00      0.00      0.00
                                0.00      0.00      0.00

     dft-nl  stress (kbar)      0.00      0.00      0.00
                                0.00      0.00      0.00
                                0.00      0.00      0.00

     TS-vdW  stress (kbar)      0.00      0.00      0.00
                                0.00      0.00      0.00
                                0.00      0.00      0.00



     init_run     :    188.79s CPU    192.86s WALL (       1 calls)
     electrons    :  13107.45s CPU  13296.16s WALL (       1 calls)
     forces       :    119.40s CPU    121.70s WALL (       1 calls)
     stress       :    786.33s CPU    793.19s WALL (       1 calls)

     Called by init_run:
     wfcinit      :    178.59s CPU    181.82s WALL (       1 calls)
     wfcinit:atom :      3.53s CPU      3.63s WALL (     316 calls)
     wfcinit:wfcr :    164.96s CPU    167.83s WALL (     316 calls)
     potinit      :      3.77s CPU      3.96s WALL (       1 calls)
     hinit0       :      3.19s CPU      3.29s WALL (       1 calls)

     Called by electrons:
     c_bands      :  11801.23s CPU  11938.55s WALL (      24 calls)
     sum_band     :   1230.58s CPU   1266.31s WALL (      24 calls)
     v_of_rho     :     22.73s CPU     24.04s WALL (      25 calls)
     v_h          :      1.17s CPU      1.21s WALL (      25 calls)
     v_xc         :     23.36s CPU     24.72s WALL (      27 calls)
     newd         :     36.85s CPU     51.20s WALL (      25 calls)
     PAW_pot      :     10.47s CPU     10.52s WALL (      25 calls)
     mix_rho      :      6.46s CPU      6.80s WALL (      24 calls)

     Called by c_bands:
     init_us_2    :    228.37s CPU    234.80s WALL (   16116 calls)
     cegterg      :  11449.75s CPU  11578.68s WALL (    7584 calls)

     Called by sum_band:
     sum_band:wei :      0.39s CPU      0.39s WALL (      24 calls)
     sum_band:loo :   1114.57s CPU   1130.31s WALL (      24 calls)
     sum_band:buf :     57.13s CPU     58.59s WALL (    7584 calls)
     sum_band:ini :    109.06s CPU    111.86s WALL (    7584 calls)
     sum_band:cal :    511.57s CPU    517.65s WALL (    7584 calls)
     sum_band:bec :      4.80s CPU      4.89s WALL (    7584 calls)
     addusdens    :    109.98s CPU    129.62s WALL (      24 calls)
     addusd:skk   :      0.59s CPU      0.61s WALL (      72 calls)
     addusd:dgemm :     51.06s CPU     67.32s WALL (     144 calls)
     addusd:qvan2 :     57.01s CPU     57.55s WALL (     144 calls)

     Called by *egterg:
     cdiaghg      :    744.97s CPU    762.57s WALL (   33409 calls)
     cegterg:over :   1184.11s CPU   1206.13s WALL (   25825 calls)
     cegterg:upda :    685.07s CPU    689.55s WALL (   25825 calls)
     cegterg:last :   1531.92s CPU   1541.88s WALL (   15127 calls)
     h_psi        :   5280.63s CPU   5338.40s WALL (   33725 calls)
     s_psi        :   1418.39s CPU   1427.11s WALL (   33725 calls)
     g_psi        :     12.96s CPU     13.13s WALL (   25825 calls)

     Called by h_psi:
     h_psi:calbec :   1491.33s CPU   1508.95s WALL (   33725 calls)
     vloc_psi     :   2138.93s CPU   2165.11s WALL (   33725 calls)
     add_vuspsi   :   1518.06s CPU   1527.58s WALL (   33725 calls)

     General routines
     calbec       :   2108.49s CPU   2133.52s WALL (   42889 calls)
     fft          :     19.09s CPU     20.75s WALL (     663 calls)
     ffts         :      0.43s CPU      0.47s WALL (      98 calls)
     fftw         :   2391.56s CPU   2420.33s WALL ( 5032700 calls)
     interpolate  :      1.59s CPU      1.71s WALL (      50 calls)

     Parallel routines
     fft_scatt_xy :    215.48s CPU    217.89s WALL ( 5033461 calls)
     fft_scatt_yz :    759.50s CPU    771.89s WALL ( 5033461 calls)

     PAW routines
     PAW_pot      :     10.47s CPU     10.52s WALL (      25 calls)
     PAW_symme    :      0.07s CPU      0.08s WALL (      49 calls)

     PWSCF        :      3h56m CPU      4h 0m WALL


   This run was terminated on:   2:50: 8  14Dec2022            

=------------------------------------------------------------------------------=
   JOB DONE.
=------------------------------------------------------------------------------=
Note: The following floating-point exceptions are signalling: IEEE_UNDERFLOW_FLAG IEEE_DENORMAL
Note: The following floating-point exceptions are signalling: IEEE_DENORMAL
Note: The following floating-point exceptions are signalling: IEEE_DENORMAL
Note: The following floating-point exceptions are signalling: IEEE_DENORMAL
Note: The following floating-point exceptions are signalling: IEEE_DENORMAL
Note: The following floating-point exceptions are signalling: IEEE_DENORMAL
Note: The following floating-point exceptions are signalling: IEEE_DENORMAL
Note: The following floating-point exceptions are signalling: IEEE_DENORMAL
Note: The following floating-point exceptions are signalling: IEEE_INVALID_FLAG IEEE_DENORMAL
Note: The following floating-point exceptions are signalling: IEEE_DENORMAL
Note: The following floating-point exceptions are signalling: IEEE_DENORMAL
Note: The following floating-point exceptions are signalling: IEEE_DENORMAL
Note: The following floating-point exceptions are signalling: IEEE_DENORMAL
Note: The following floating-point exceptions are signalling: IEEE_DENORMAL
Note: The following floating-point exceptions are signalling: IEEE_DENORMAL
Note: The following floating-point exceptions are signalling: IEEE_DENORMAL
Note: The following floating-point exceptions are signalling: IEEE_DENORMAL
Note: The following floating-point exceptions are signalling: IEEE_INVALID_FLAG IEEE_DENORMAL
Note: The following floating-point exceptions are signalling: IEEE_DENORMAL
Note: The following floating-point exceptions are signalling: IEEE_INVALID_FLAG IEEE_DENORMAL
Note: The following floating-point exceptions are signalling: IEEE_INVALID_FLAG IEEE_DENORMAL
Note: The following floating-point exceptions are signalling: IEEE_DENORMAL
Note: The following floating-point exceptions are signalling: IEEE_DENORMAL
Note: The following floating-point exceptions are signalling: IEEE_INVALID_FLAG IEEE_DENORMAL
