
     Program PWSCF v.6.7MaX starts on 16Dec2022 at 17: 0:20 

     This program is part of the open-source Quantum ESPRESSO suite
     for quantum simulation of materials; please cite
         "P. Giannozzi et al., J. Phys.:Condens. Matter 21 395502 (2009);
         "P. Giannozzi et al., J. Phys.:Condens. Matter 29 465901 (2017);
          URL http://www.quantum-espresso.org", 
     in publications or presentations arising from this work. More details at
     http://www.quantum-espresso.org/quote

     Parallel version (MPI), running on    24 processors

     MPI processes distributed on     1 nodes
     R & G space division:  proc/nbgrp/npool/nimage =      24
     Reading input from scale_3d-02.in

     Current dimensions of program PWSCF are:
     Max number of different atomic species (ntypx) = 10
     Max number of k-points (npk) =  40000
     Max angular momentum in pseudopotentials (lmaxx) =  3
     Message from routine read_pp_mesh:
     mesh size missing, using the one in header
     file Fe.pbe-spn-kjpaw_psl.0.2.1.UPF: wavefunction(s)  3D renormalized
     file O.pbe-n-kjpaw_psl.0.1.UPF: wavefunction(s)  2P renormalized

     Subspace diagonalization in iterative solution of the eigenvalue problem:
     a serial algorithm will be used

     Message from routine setup:
     using ibrav=0 with symmetry is DISCOURAGED, use correct ibrav instead

     Parallelization info
     --------------------
     sticks:   dense  smooth     PW     G-vecs:    dense   smooth      PW
     Min         800     296     79                51300    11558    1627
     Max         802     297     80                51301    11560    1630
     Sum       19211    7107   1919              1231207   277409   39077



     bravais-lattice index     =            0
     lattice parameter (alat)  =      19.3373  a.u.
     unit-cell volume          =    2054.1302 (a.u.)^3
     number of atoms/cell      =           25
     number of atomic types    =            4
     number of electrons       =       189.00
     number of Kohn-Sham states=          114
     kinetic-energy cutoff     =     100.0000  Ry
     charge density cutoff     =    1080.0000  Ry
     scf convergence threshold =      2.0E-10
     mixing beta               =       0.4000
     number of iterations used =            8  plain     mixing
     Exchange-correlation= PBE
                           (   1   4   3   4   0   0   0)

     celldm(1)=  19.337306  celldm(2)=   0.000000  celldm(3)=   0.000000
     celldm(4)=   0.000000  celldm(5)=   0.000000  celldm(6)=   0.000000

     crystal axes: (cart. coord. in units of alat)
               a(1) = (   1.000000   0.000000   0.000000 )  
               a(2) = (   0.000000   0.597590   0.000000 )  
               a(3) = (   0.000000   0.000000   0.475375 )  

     reciprocal axes: (cart. coord. in units 2 pi/alat)
               b(1) = (  1.000000  0.000000  0.000000 )  
               b(2) = (  0.000000  1.673388  0.000000 )  
               b(3) = (  0.000000  0.000000  2.103600 )  


     PseudoPot. # 1 for Fe read from file:
     /opt/QEpot/SSSP_precision_pseudos/Fe.pbe-spn-kjpaw_psl.0.2.1.UPF
     MD5 check sum: e86618425769142926afa95317d90200
     Pseudo is Projector augmented-wave + core cor, Zval = 16.0
     Generated using "atomic" code by A. Dal Corso  v.5.0.99 svn rev. 10869
     Shape of augmentation charge: PSQ
     Using radial grid of 1191 points,  6 beta functions with: 
                l(1) =   0
                l(2) =   0
                l(3) =   1
                l(4) =   1
                l(5) =   2
                l(6) =   2
     Q(r) pseudized with 0 coefficients 


     PseudoPot. # 2 for Na read from file:
     /opt/QEpot/SSSP_precision_pseudos/Na_ONCV_PBE-1.0.oncvpsp.upf
     MD5 check sum: 24a298df0a6742ae313db96548fdb2a4
     Pseudo is Norm-conserving, Zval =  9.0
     Generated using ONCVPSP code by D. R. Hamann
     Using radial grid of 1992 points,  4 beta functions with: 
                l(1) =   0
                l(2) =   0
                l(3) =   1
                l(4) =   1

     PseudoPot. # 3 for O  read from file:
     /opt/QEpot/SSSP_precision_pseudos/O.pbe-n-kjpaw_psl.0.1.UPF
     MD5 check sum: 0234752ac141de4415c5fc33072bef88
     Pseudo is Projector augmented-wave + core cor, Zval =  6.0
     Generated using "atomic" code by A. Dal Corso  v.5.0.99 svn rev. 10869
     Shape of augmentation charge: BESSEL
     Using radial grid of 1095 points,  4 beta functions with: 
                l(1) =   0
                l(2) =   0
                l(3) =   1
                l(4) =   1
     Q(r) pseudized with 0 coefficients 


     PseudoPot. # 4 for P  read from file:
     /opt/QEpot/SSSP_precision_pseudos/P.pbe-n-rrkjus_psl.1.0.0.UPF
     MD5 check sum: 8b930f418f0a4573dca56cd030ffe088
     Pseudo is Ultrasoft + core correction, Zval =  5.0
     Generated using "atomic" code by A. Dal Corso  v.5.1
     Using radial grid of 1147 points,  6 beta functions with: 
                l(1) =   0
                l(2) =   0
                l(3) =   1
                l(4) =   1
                l(5) =   2
                l(6) =   2
     Q(r) pseudized with 0 coefficients 


     atomic species   valence    mass     pseudopotential
        Fe            16.00    55.84500     Fe( 1.00)
        Na             9.00    22.98977     Na( 1.00)
        O              6.00    15.99940     O ( 1.00)
        P              5.00    30.97376     P ( 1.00)

     Starting magnetic structure 
     atomic species   magnetization
        Fe           0.312
        Na           0.000
        O            0.000
        P            0.000

      2 Sym. Ops., with inversion, found


                                    s                        frac. trans.

      isym =  1     identity                                     

 cryst.   s( 1) = (     1          0          0      )
                  (     0          1          0      )
                  (     0          0          1      )

 cart.    s( 1) = (  1.0000000  0.0000000  0.0000000 )
                  (  0.0000000  1.0000000  0.0000000 )
                  (  0.0000000  0.0000000  1.0000000 )


      isym =  2     inversion                                    

 cryst.   s( 2) = (    -1          0          0      )
                  (     0         -1          0      )
                  (     0          0         -1      )

 cart.    s( 2) = ( -1.0000000  0.0000000  0.0000000 )
                  (  0.0000000 -1.0000000  0.0000000 )
                  (  0.0000000  0.0000000 -1.0000000 )


   Cartesian axes

     site n.     atom                  positions (alat units)
         1           Na  tau(   1) = (   0.5000030   0.0000000   0.2376892  )
         2           Fe  tau(   2) = (   0.2766340   0.4454842   0.4732558  )
         3           Fe  tau(   3) = (   0.2132450   0.1515135   0.2329592  )
         4           Fe  tau(   4) = (   0.7233710   0.1521087   0.0021226  )
         5           Fe  tau(   5) = (   0.7867610   0.4460794   0.2424192  )
         6           P   tau(   6) = (   0.1084050   0.4488833   0.2115877  )
         7           P   tau(   7) = (   0.3918990   0.1518219   0.4493886  )
         8           P   tau(   8) = (   0.8916000   0.1487097   0.2637906  )
         9           P   tau(   9) = (   0.6081070   0.4457710   0.0259893  )
        10           O   tau(  10) = (   0.1318770   0.4492071   0.3577391  )
        11           O   tau(  11) = (   0.3711480   0.1470872   0.1209170  )
        12           O   tau(  12) = (   0.8681290   0.1483858   0.1176393  )
        13           O   tau(  13) = (   0.6288580   0.4505057   0.3544618  )
        14           O   tau(  14) = (   0.4620270   0.4511882   0.0583652  )
        15           O   tau(  15) = (   0.0373150   0.1484509   0.2927600  )
        16           O   tau(  16) = (   0.5379780   0.1464048   0.4170132  )
        17           O   tau(  17) = (   0.9626910   0.4491420   0.1826183  )
        18           O   tau(  18) = (   0.1805980   0.5639737   0.1435244  )
        19           O   tau(  19) = (   0.3233670   0.0356570   0.3780714  )
        20           O   tau(  20) = (   0.8213290   0.2658952   0.3310387  )
        21           O   tau(  21) = (   0.6776840   0.3286021   0.0910121  )
        22           O   tau(  22) = (   0.8194080   0.0336192   0.3318539  )
        23           O   tau(  23) = (   0.6766390   0.5619359   0.0973070  )
        24           O   tau(  24) = (   0.1786770   0.3316977   0.1443397  )
        25           O   tau(  25) = (   0.3223220   0.2689908   0.3843663  )

   Crystallographic axes

     site n.     atom                  positions (cryst. coord.)
         1           Na  tau(   1) = (  0.5000030  0.0000000  0.5000030  )
         2           Fe  tau(   2) = (  0.2766340  0.7454680  0.9955410  )
         3           Fe  tau(   3) = (  0.2132450  0.2535410  0.4900530  )
         4           Fe  tau(   4) = (  0.7233710  0.2545370  0.0044650  )
         5           Fe  tau(   5) = (  0.7867610  0.7464640  0.5099530  )
         6           P   tau(   6) = (  0.1084050  0.7511560  0.4450960  )
         7           P   tau(   7) = (  0.3918990  0.2540570  0.9453340  )
         8           P   tau(   8) = (  0.8916000  0.2488490  0.5549100  )
         9           P   tau(   9) = (  0.6081070  0.7459480  0.0546710  )
        10           O   tau(  10) = (  0.1318770  0.7516980  0.7525400  )
        11           O   tau(  11) = (  0.3711480  0.2461340  0.2543610  )
        12           O   tau(  12) = (  0.8681290  0.2483070  0.2474660  )
        13           O   tau(  13) = (  0.6288580  0.7538710  0.7456460  )
        14           O   tau(  14) = (  0.4620270  0.7550130  0.1227770  )
        15           O   tau(  15) = (  0.0373150  0.2484160  0.6158500  )
        16           O   tau(  16) = (  0.5379780  0.2449920  0.8772290  )
        17           O   tau(  17) = (  0.9626910  0.7515890  0.3841560  )
        18           O   tau(  18) = (  0.1805980  0.9437470  0.3019180  )
        19           O   tau(  19) = (  0.3233670  0.0596680  0.7953110  )
        20           O   tau(  20) = (  0.8213290  0.4449460  0.6963730  )
        21           O   tau(  21) = (  0.6776840  0.5498790  0.1914530  )
        22           O   tau(  22) = (  0.8194080  0.0562580  0.6980880  )
        23           O   tau(  23) = (  0.6766390  0.9403370  0.2046950  )
        24           O   tau(  24) = (  0.1786770  0.5550590  0.3036330  )
        25           O   tau(  25) = (  0.3223220  0.4501260  0.8085530  )

     number of k points=   158  Marzari-Vanderbilt smearing, width (Ry)=  0.0073
                       cart. coord. in units 2pi/alat
        k(    1) = (   0.0000000   0.0000000   0.0000000), wk =   0.0031746
        k(    2) = (   0.0000000   0.0000000   0.2337334), wk =   0.0063492
        k(    3) = (   0.0000000   0.0000000   0.4674667), wk =   0.0063492
        k(    4) = (   0.0000000   0.0000000   0.7012001), wk =   0.0063492
        k(    5) = (   0.0000000   0.0000000   0.9349334), wk =   0.0063492
        k(    6) = (   0.0000000   0.2390555   0.0000000), wk =   0.0063492
        k(    7) = (   0.0000000   0.2390555   0.2337334), wk =   0.0063492
        k(    8) = (   0.0000000   0.2390555   0.4674667), wk =   0.0063492
        k(    9) = (   0.0000000   0.2390555   0.7012001), wk =   0.0063492
        k(   10) = (   0.0000000   0.2390555   0.9349334), wk =   0.0063492
        k(   11) = (   0.0000000   0.4781110   0.0000000), wk =   0.0063492
        k(   12) = (   0.0000000   0.4781110   0.2337334), wk =   0.0063492
        k(   13) = (   0.0000000   0.4781110   0.4674667), wk =   0.0063492
        k(   14) = (   0.0000000   0.4781110   0.7012001), wk =   0.0063492
        k(   15) = (   0.0000000   0.4781110   0.9349334), wk =   0.0063492
        k(   16) = (   0.0000000   0.7171664   0.0000000), wk =   0.0063492
        k(   17) = (   0.0000000   0.7171664   0.2337334), wk =   0.0063492
        k(   18) = (   0.0000000   0.7171664   0.4674667), wk =   0.0063492
        k(   19) = (   0.0000000   0.7171664   0.7012001), wk =   0.0063492
        k(   20) = (   0.0000000   0.7171664   0.9349334), wk =   0.0063492
        k(   21) = (   0.2000000   0.0000000   0.0000000), wk =   0.0063492
        k(   22) = (   0.2000000   0.0000000   0.2337334), wk =   0.0063492
        k(   23) = (   0.2000000   0.0000000   0.4674667), wk =   0.0063492
        k(   24) = (   0.2000000   0.0000000   0.7012001), wk =   0.0063492
        k(   25) = (   0.2000000   0.0000000   0.9349334), wk =   0.0063492
        k(   26) = (   0.2000000   0.2390555   0.0000000), wk =   0.0063492
        k(   27) = (   0.2000000   0.2390555   0.2337334), wk =   0.0063492
        k(   28) = (   0.2000000   0.2390555   0.4674667), wk =   0.0063492
        k(   29) = (   0.2000000   0.2390555   0.7012001), wk =   0.0063492
        k(   30) = (   0.2000000   0.2390555   0.9349334), wk =   0.0063492
        k(   31) = (   0.2000000   0.4781110   0.0000000), wk =   0.0063492
        k(   32) = (   0.2000000   0.4781110   0.2337334), wk =   0.0063492
        k(   33) = (   0.2000000   0.4781110   0.4674667), wk =   0.0063492
        k(   34) = (   0.2000000   0.4781110   0.7012001), wk =   0.0063492
        k(   35) = (   0.2000000   0.4781110   0.9349334), wk =   0.0063492
        k(   36) = (   0.2000000   0.7171664   0.0000000), wk =   0.0063492
        k(   37) = (   0.2000000   0.7171664   0.2337334), wk =   0.0063492
        k(   38) = (   0.2000000   0.7171664   0.4674667), wk =   0.0063492
        k(   39) = (   0.2000000   0.7171664   0.7012001), wk =   0.0063492
        k(   40) = (   0.2000000   0.7171664   0.9349334), wk =   0.0063492
        k(   41) = (   0.4000000   0.0000000   0.0000000), wk =   0.0063492
        k(   42) = (   0.4000000   0.0000000   0.2337334), wk =   0.0063492
        k(   43) = (   0.4000000   0.0000000   0.4674667), wk =   0.0063492
        k(   44) = (   0.4000000   0.0000000   0.7012001), wk =   0.0063492
        k(   45) = (   0.4000000   0.0000000   0.9349334), wk =   0.0063492
        k(   46) = (   0.4000000   0.2390555   0.0000000), wk =   0.0063492
        k(   47) = (   0.4000000   0.2390555   0.2337334), wk =   0.0063492
        k(   48) = (   0.4000000   0.2390555   0.4674667), wk =   0.0063492
        k(   49) = (   0.4000000   0.2390555   0.7012001), wk =   0.0063492
        k(   50) = (   0.4000000   0.2390555   0.9349334), wk =   0.0063492
        k(   51) = (   0.4000000   0.4781110   0.0000000), wk =   0.0063492
        k(   52) = (   0.4000000   0.4781110   0.2337334), wk =   0.0063492
        k(   53) = (   0.4000000   0.4781110   0.4674667), wk =   0.0063492
        k(   54) = (   0.4000000   0.4781110   0.7012001), wk =   0.0063492
        k(   55) = (   0.4000000   0.4781110   0.9349334), wk =   0.0063492
        k(   56) = (   0.4000000   0.7171664   0.0000000), wk =   0.0063492
        k(   57) = (   0.4000000   0.7171664   0.2337334), wk =   0.0063492
        k(   58) = (   0.4000000   0.7171664   0.4674667), wk =   0.0063492
        k(   59) = (   0.4000000   0.7171664   0.7012001), wk =   0.0063492
        k(   60) = (   0.4000000   0.7171664   0.9349334), wk =   0.0063492
        k(   61) = (   0.0000000   0.2390555  -0.2337334), wk =   0.0063492
        k(   62) = (   0.0000000   0.2390555  -0.4674667), wk =   0.0063492
        k(   63) = (   0.0000000   0.2390555  -0.7012001), wk =   0.0063492
        k(   64) = (   0.0000000   0.2390555  -0.9349334), wk =   0.0063492
        k(   65) = (   0.0000000   0.4781110  -0.2337334), wk =   0.0063492
        k(   66) = (   0.0000000   0.4781110  -0.4674667), wk =   0.0063492
        k(   67) = (   0.0000000   0.4781110  -0.7012001), wk =   0.0063492
        k(   68) = (   0.0000000   0.4781110  -0.9349334), wk =   0.0063492
        k(   69) = (   0.0000000   0.7171664  -0.2337334), wk =   0.0063492
        k(   70) = (   0.0000000   0.7171664  -0.4674667), wk =   0.0063492
        k(   71) = (   0.0000000   0.7171664  -0.7012001), wk =   0.0063492
        k(   72) = (   0.0000000   0.7171664  -0.9349334), wk =   0.0063492
        k(   73) = (   0.2000000   0.0000000  -0.2337334), wk =   0.0063492
        k(   74) = (   0.2000000   0.0000000  -0.4674667), wk =   0.0063492
        k(   75) = (   0.2000000   0.0000000  -0.7012001), wk =   0.0063492
        k(   76) = (   0.2000000   0.0000000  -0.9349334), wk =   0.0063492
        k(   77) = (  -0.2000000   0.2390555   0.0000000), wk =   0.0063492
        k(   78) = (  -0.2000000   0.2390555  -0.2337334), wk =   0.0063492
        k(   79) = (   0.2000000  -0.2390555  -0.2337334), wk =   0.0063492
        k(   80) = (  -0.2000000  -0.2390555   0.2337334), wk =   0.0063492
        k(   81) = (  -0.2000000   0.2390555  -0.4674667), wk =   0.0063492
        k(   82) = (   0.2000000  -0.2390555  -0.4674667), wk =   0.0063492
        k(   83) = (  -0.2000000  -0.2390555   0.4674667), wk =   0.0063492
        k(   84) = (  -0.2000000   0.2390555  -0.7012001), wk =   0.0063492
        k(   85) = (   0.2000000  -0.2390555  -0.7012001), wk =   0.0063492
        k(   86) = (  -0.2000000  -0.2390555   0.7012001), wk =   0.0063492
        k(   87) = (  -0.2000000   0.2390555  -0.9349334), wk =   0.0063492
        k(   88) = (   0.2000000  -0.2390555  -0.9349334), wk =   0.0063492
        k(   89) = (  -0.2000000  -0.2390555   0.9349334), wk =   0.0063492
        k(   90) = (  -0.2000000   0.4781110   0.0000000), wk =   0.0063492
        k(   91) = (  -0.2000000   0.4781110  -0.2337334), wk =   0.0063492
        k(   92) = (   0.2000000  -0.4781110  -0.2337334), wk =   0.0063492
        k(   93) = (  -0.2000000  -0.4781110   0.2337334), wk =   0.0063492
        k(   94) = (  -0.2000000   0.4781110  -0.4674667), wk =   0.0063492
        k(   95) = (   0.2000000  -0.4781110  -0.4674667), wk =   0.0063492
        k(   96) = (  -0.2000000  -0.4781110   0.4674667), wk =   0.0063492
        k(   97) = (  -0.2000000   0.4781110  -0.7012001), wk =   0.0063492
        k(   98) = (   0.2000000  -0.4781110  -0.7012001), wk =   0.0063492
        k(   99) = (  -0.2000000  -0.4781110   0.7012001), wk =   0.0063492
        k(  100) = (  -0.2000000   0.4781110  -0.9349334), wk =   0.0063492
        k(  101) = (   0.2000000  -0.4781110  -0.9349334), wk =   0.0063492
        k(  102) = (  -0.2000000  -0.4781110   0.9349334), wk =   0.0063492
        k(  103) = (  -0.2000000   0.7171664   0.0000000), wk =   0.0063492
        k(  104) = (  -0.2000000   0.7171664  -0.2337334), wk =   0.0063492
        k(  105) = (   0.2000000  -0.7171664  -0.2337334), wk =   0.0063492
        k(  106) = (  -0.2000000  -0.7171664   0.2337334), wk =   0.0063492
        k(  107) = (  -0.2000000   0.7171664  -0.4674667), wk =   0.0063492
        k(  108) = (   0.2000000  -0.7171664  -0.4674667), wk =   0.0063492
        k(  109) = (  -0.2000000  -0.7171664   0.4674667), wk =   0.0063492
        k(  110) = (  -0.2000000   0.7171664  -0.7012001), wk =   0.0063492
        k(  111) = (   0.2000000  -0.7171664  -0.7012001), wk =   0.0063492
        k(  112) = (  -0.2000000  -0.7171664   0.7012001), wk =   0.0063492
        k(  113) = (  -0.2000000   0.7171664  -0.9349334), wk =   0.0063492
        k(  114) = (   0.2000000  -0.7171664  -0.9349334), wk =   0.0063492
        k(  115) = (  -0.2000000  -0.7171664   0.9349334), wk =   0.0063492
        k(  116) = (   0.4000000   0.0000000  -0.2337334), wk =   0.0063492
        k(  117) = (   0.4000000   0.0000000  -0.4674667), wk =   0.0063492
        k(  118) = (   0.4000000   0.0000000  -0.7012001), wk =   0.0063492
        k(  119) = (   0.4000000   0.0000000  -0.9349334), wk =   0.0063492
        k(  120) = (  -0.4000000   0.2390555   0.0000000), wk =   0.0063492
        k(  121) = (  -0.4000000   0.2390555  -0.2337334), wk =   0.0063492
        k(  122) = (   0.4000000  -0.2390555  -0.2337334), wk =   0.0063492
        k(  123) = (  -0.4000000  -0.2390555   0.2337334), wk =   0.0063492
        k(  124) = (  -0.4000000   0.2390555  -0.4674667), wk =   0.0063492
        k(  125) = (   0.4000000  -0.2390555  -0.4674667), wk =   0.0063492
        k(  126) = (  -0.4000000  -0.2390555   0.4674667), wk =   0.0063492
        k(  127) = (  -0.4000000   0.2390555  -0.7012001), wk =   0.0063492
        k(  128) = (   0.4000000  -0.2390555  -0.7012001), wk =   0.0063492
        k(  129) = (  -0.4000000  -0.2390555   0.7012001), wk =   0.0063492
        k(  130) = (  -0.4000000   0.2390555  -0.9349334), wk =   0.0063492
        k(  131) = (   0.4000000  -0.2390555  -0.9349334), wk =   0.0063492
        k(  132) = (  -0.4000000  -0.2390555   0.9349334), wk =   0.0063492
        k(  133) = (  -0.4000000   0.4781110   0.0000000), wk =   0.0063492
        k(  134) = (  -0.4000000   0.4781110  -0.2337334), wk =   0.0063492
        k(  135) = (   0.4000000  -0.4781110  -0.2337334), wk =   0.0063492
        k(  136) = (  -0.4000000  -0.4781110   0.2337334), wk =   0.0063492
        k(  137) = (  -0.4000000   0.4781110  -0.4674667), wk =   0.0063492
        k(  138) = (   0.4000000  -0.4781110  -0.4674667), wk =   0.0063492
        k(  139) = (  -0.4000000  -0.4781110   0.4674667), wk =   0.0063492
        k(  140) = (  -0.4000000   0.4781110  -0.7012001), wk =   0.0063492
        k(  141) = (   0.4000000  -0.4781110  -0.7012001), wk =   0.0063492
        k(  142) = (  -0.4000000  -0.4781110   0.7012001), wk =   0.0063492
        k(  143) = (  -0.4000000   0.4781110  -0.9349334), wk =   0.0063492
        k(  144) = (   0.4000000  -0.4781110  -0.9349334), wk =   0.0063492
        k(  145) = (  -0.4000000  -0.4781110   0.9349334), wk =   0.0063492
        k(  146) = (  -0.4000000   0.7171664   0.0000000), wk =   0.0063492
        k(  147) = (  -0.4000000   0.7171664  -0.2337334), wk =   0.0063492
        k(  148) = (   0.4000000  -0.7171664  -0.2337334), wk =   0.0063492
        k(  149) = (  -0.4000000  -0.7171664   0.2337334), wk =   0.0063492
        k(  150) = (  -0.4000000   0.7171664  -0.4674667), wk =   0.0063492
        k(  151) = (   0.4000000  -0.7171664  -0.4674667), wk =   0.0063492
        k(  152) = (  -0.4000000  -0.7171664   0.4674667), wk =   0.0063492
        k(  153) = (  -0.4000000   0.7171664  -0.7012001), wk =   0.0063492
        k(  154) = (   0.4000000  -0.7171664  -0.7012001), wk =   0.0063492
        k(  155) = (  -0.4000000  -0.7171664   0.7012001), wk =   0.0063492
        k(  156) = (  -0.4000000   0.7171664  -0.9349334), wk =   0.0063492
        k(  157) = (   0.4000000  -0.7171664  -0.9349334), wk =   0.0063492
        k(  158) = (  -0.4000000  -0.7171664   0.9349334), wk =   0.0063492

                       cryst. coord.
        k(    1) = (   0.0000000   0.0000000   0.0000000), wk =   0.0031746
        k(    2) = (   0.0000000   0.0000000   0.1111111), wk =   0.0063492
        k(    3) = (   0.0000000   0.0000000   0.2222222), wk =   0.0063492
        k(    4) = (   0.0000000   0.0000000   0.3333333), wk =   0.0063492
        k(    5) = (   0.0000000   0.0000000   0.4444444), wk =   0.0063492
        k(    6) = (   0.0000000   0.1428571   0.0000000), wk =   0.0063492
        k(    7) = (   0.0000000   0.1428571   0.1111111), wk =   0.0063492
        k(    8) = (   0.0000000   0.1428571   0.2222222), wk =   0.0063492
        k(    9) = (   0.0000000   0.1428571   0.3333333), wk =   0.0063492
        k(   10) = (   0.0000000   0.1428571   0.4444444), wk =   0.0063492
        k(   11) = (   0.0000000   0.2857143   0.0000000), wk =   0.0063492
        k(   12) = (   0.0000000   0.2857143   0.1111111), wk =   0.0063492
        k(   13) = (   0.0000000   0.2857143   0.2222222), wk =   0.0063492
        k(   14) = (   0.0000000   0.2857143   0.3333333), wk =   0.0063492
        k(   15) = (   0.0000000   0.2857143   0.4444444), wk =   0.0063492
        k(   16) = (   0.0000000   0.4285714   0.0000000), wk =   0.0063492
        k(   17) = (   0.0000000   0.4285714   0.1111111), wk =   0.0063492
        k(   18) = (   0.0000000   0.4285714   0.2222222), wk =   0.0063492
        k(   19) = (   0.0000000   0.4285714   0.3333333), wk =   0.0063492
        k(   20) = (   0.0000000   0.4285714   0.4444444), wk =   0.0063492
        k(   21) = (   0.2000000   0.0000000   0.0000000), wk =   0.0063492
        k(   22) = (   0.2000000   0.0000000   0.1111111), wk =   0.0063492
        k(   23) = (   0.2000000   0.0000000   0.2222222), wk =   0.0063492
        k(   24) = (   0.2000000   0.0000000   0.3333333), wk =   0.0063492
        k(   25) = (   0.2000000   0.0000000   0.4444444), wk =   0.0063492
        k(   26) = (   0.2000000   0.1428571   0.0000000), wk =   0.0063492
        k(   27) = (   0.2000000   0.1428571   0.1111111), wk =   0.0063492
        k(   28) = (   0.2000000   0.1428571   0.2222222), wk =   0.0063492
        k(   29) = (   0.2000000   0.1428571   0.3333333), wk =   0.0063492
        k(   30) = (   0.2000000   0.1428571   0.4444444), wk =   0.0063492
        k(   31) = (   0.2000000   0.2857143   0.0000000), wk =   0.0063492
        k(   32) = (   0.2000000   0.2857143   0.1111111), wk =   0.0063492
        k(   33) = (   0.2000000   0.2857143   0.2222222), wk =   0.0063492
        k(   34) = (   0.2000000   0.2857143   0.3333333), wk =   0.0063492
        k(   35) = (   0.2000000   0.2857143   0.4444444), wk =   0.0063492
        k(   36) = (   0.2000000   0.4285714   0.0000000), wk =   0.0063492
        k(   37) = (   0.2000000   0.4285714   0.1111111), wk =   0.0063492
        k(   38) = (   0.2000000   0.4285714   0.2222222), wk =   0.0063492
        k(   39) = (   0.2000000   0.4285714   0.3333333), wk =   0.0063492
        k(   40) = (   0.2000000   0.4285714   0.4444444), wk =   0.0063492
        k(   41) = (   0.4000000   0.0000000   0.0000000), wk =   0.0063492
        k(   42) = (   0.4000000   0.0000000   0.1111111), wk =   0.0063492
        k(   43) = (   0.4000000   0.0000000   0.2222222), wk =   0.0063492
        k(   44) = (   0.4000000   0.0000000   0.3333333), wk =   0.0063492
        k(   45) = (   0.4000000   0.0000000   0.4444444), wk =   0.0063492
        k(   46) = (   0.4000000   0.1428571   0.0000000), wk =   0.0063492
        k(   47) = (   0.4000000   0.1428571   0.1111111), wk =   0.0063492
        k(   48) = (   0.4000000   0.1428571   0.2222222), wk =   0.0063492
        k(   49) = (   0.4000000   0.1428571   0.3333333), wk =   0.0063492
        k(   50) = (   0.4000000   0.1428571   0.4444444), wk =   0.0063492
        k(   51) = (   0.4000000   0.2857143   0.0000000), wk =   0.0063492
        k(   52) = (   0.4000000   0.2857143   0.1111111), wk =   0.0063492
        k(   53) = (   0.4000000   0.2857143   0.2222222), wk =   0.0063492
        k(   54) = (   0.4000000   0.2857143   0.3333333), wk =   0.0063492
        k(   55) = (   0.4000000   0.2857143   0.4444444), wk =   0.0063492
        k(   56) = (   0.4000000   0.4285714   0.0000000), wk =   0.0063492
        k(   57) = (   0.4000000   0.4285714   0.1111111), wk =   0.0063492
        k(   58) = (   0.4000000   0.4285714   0.2222222), wk =   0.0063492
        k(   59) = (   0.4000000   0.4285714   0.3333333), wk =   0.0063492
        k(   60) = (   0.4000000   0.4285714   0.4444444), wk =   0.0063492
        k(   61) = (   0.0000000   0.1428571  -0.1111111), wk =   0.0063492
        k(   62) = (   0.0000000   0.1428571  -0.2222222), wk =   0.0063492
        k(   63) = (   0.0000000   0.1428571  -0.3333333), wk =   0.0063492
        k(   64) = (   0.0000000   0.1428571  -0.4444444), wk =   0.0063492
        k(   65) = (   0.0000000   0.2857143  -0.1111111), wk =   0.0063492
        k(   66) = (   0.0000000   0.2857143  -0.2222222), wk =   0.0063492
        k(   67) = (   0.0000000   0.2857143  -0.3333333), wk =   0.0063492
        k(   68) = (   0.0000000   0.2857143  -0.4444444), wk =   0.0063492
        k(   69) = (   0.0000000   0.4285714  -0.1111111), wk =   0.0063492
        k(   70) = (   0.0000000   0.4285714  -0.2222222), wk =   0.0063492
        k(   71) = (   0.0000000   0.4285714  -0.3333333), wk =   0.0063492
        k(   72) = (   0.0000000   0.4285714  -0.4444444), wk =   0.0063492
        k(   73) = (   0.2000000   0.0000000  -0.1111111), wk =   0.0063492
        k(   74) = (   0.2000000   0.0000000  -0.2222222), wk =   0.0063492
        k(   75) = (   0.2000000   0.0000000  -0.3333333), wk =   0.0063492
        k(   76) = (   0.2000000   0.0000000  -0.4444444), wk =   0.0063492
        k(   77) = (  -0.2000000   0.1428571   0.0000000), wk =   0.0063492
        k(   78) = (  -0.2000000   0.1428571  -0.1111111), wk =   0.0063492
        k(   79) = (   0.2000000  -0.1428571  -0.1111111), wk =   0.0063492
        k(   80) = (  -0.2000000  -0.1428571   0.1111111), wk =   0.0063492
        k(   81) = (  -0.2000000   0.1428571  -0.2222222), wk =   0.0063492
        k(   82) = (   0.2000000  -0.1428571  -0.2222222), wk =   0.0063492
        k(   83) = (  -0.2000000  -0.1428571   0.2222222), wk =   0.0063492
        k(   84) = (  -0.2000000   0.1428571  -0.3333333), wk =   0.0063492
        k(   85) = (   0.2000000  -0.1428571  -0.3333333), wk =   0.0063492
        k(   86) = (  -0.2000000  -0.1428571   0.3333333), wk =   0.0063492
        k(   87) = (  -0.2000000   0.1428571  -0.4444444), wk =   0.0063492
        k(   88) = (   0.2000000  -0.1428571  -0.4444444), wk =   0.0063492
        k(   89) = (  -0.2000000  -0.1428571   0.4444444), wk =   0.0063492
        k(   90) = (  -0.2000000   0.2857143   0.0000000), wk =   0.0063492
        k(   91) = (  -0.2000000   0.2857143  -0.1111111), wk =   0.0063492
        k(   92) = (   0.2000000  -0.2857143  -0.1111111), wk =   0.0063492
        k(   93) = (  -0.2000000  -0.2857143   0.1111111), wk =   0.0063492
        k(   94) = (  -0.2000000   0.2857143  -0.2222222), wk =   0.0063492
        k(   95) = (   0.2000000  -0.2857143  -0.2222222), wk =   0.0063492
        k(   96) = (  -0.2000000  -0.2857143   0.2222222), wk =   0.0063492
        k(   97) = (  -0.2000000   0.2857143  -0.3333333), wk =   0.0063492
        k(   98) = (   0.2000000  -0.2857143  -0.3333333), wk =   0.0063492
        k(   99) = (  -0.2000000  -0.2857143   0.3333333), wk =   0.0063492
        k(  100) = (  -0.2000000   0.2857143  -0.4444444), wk =   0.0063492
        k(  101) = (   0.2000000  -0.2857143  -0.4444444), wk =   0.0063492
        k(  102) = (  -0.2000000  -0.2857143   0.4444444), wk =   0.0063492
        k(  103) = (  -0.2000000   0.4285714   0.0000000), wk =   0.0063492
        k(  104) = (  -0.2000000   0.4285714  -0.1111111), wk =   0.0063492
        k(  105) = (   0.2000000  -0.4285714  -0.1111111), wk =   0.0063492
        k(  106) = (  -0.2000000  -0.4285714   0.1111111), wk =   0.0063492
        k(  107) = (  -0.2000000   0.4285714  -0.2222222), wk =   0.0063492
        k(  108) = (   0.2000000  -0.4285714  -0.2222222), wk =   0.0063492
        k(  109) = (  -0.2000000  -0.4285714   0.2222222), wk =   0.0063492
        k(  110) = (  -0.2000000   0.4285714  -0.3333333), wk =   0.0063492
        k(  111) = (   0.2000000  -0.4285714  -0.3333333), wk =   0.0063492
        k(  112) = (  -0.2000000  -0.4285714   0.3333333), wk =   0.0063492
        k(  113) = (  -0.2000000   0.4285714  -0.4444444), wk =   0.0063492
        k(  114) = (   0.2000000  -0.4285714  -0.4444444), wk =   0.0063492
        k(  115) = (  -0.2000000  -0.4285714   0.4444444), wk =   0.0063492
        k(  116) = (   0.4000000   0.0000000  -0.1111111), wk =   0.0063492
        k(  117) = (   0.4000000   0.0000000  -0.2222222), wk =   0.0063492
        k(  118) = (   0.4000000   0.0000000  -0.3333333), wk =   0.0063492
        k(  119) = (   0.4000000   0.0000000  -0.4444444), wk =   0.0063492
        k(  120) = (  -0.4000000   0.1428571   0.0000000), wk =   0.0063492
        k(  121) = (  -0.4000000   0.1428571  -0.1111111), wk =   0.0063492
        k(  122) = (   0.4000000  -0.1428571  -0.1111111), wk =   0.0063492
        k(  123) = (  -0.4000000  -0.1428571   0.1111111), wk =   0.0063492
        k(  124) = (  -0.4000000   0.1428571  -0.2222222), wk =   0.0063492
        k(  125) = (   0.4000000  -0.1428571  -0.2222222), wk =   0.0063492
        k(  126) = (  -0.4000000  -0.1428571   0.2222222), wk =   0.0063492
        k(  127) = (  -0.4000000   0.1428571  -0.3333333), wk =   0.0063492
        k(  128) = (   0.4000000  -0.1428571  -0.3333333), wk =   0.0063492
        k(  129) = (  -0.4000000  -0.1428571   0.3333333), wk =   0.0063492
        k(  130) = (  -0.4000000   0.1428571  -0.4444444), wk =   0.0063492
        k(  131) = (   0.4000000  -0.1428571  -0.4444444), wk =   0.0063492
        k(  132) = (  -0.4000000  -0.1428571   0.4444444), wk =   0.0063492
        k(  133) = (  -0.4000000   0.2857143   0.0000000), wk =   0.0063492
        k(  134) = (  -0.4000000   0.2857143  -0.1111111), wk =   0.0063492
        k(  135) = (   0.4000000  -0.2857143  -0.1111111), wk =   0.0063492
        k(  136) = (  -0.4000000  -0.2857143   0.1111111), wk =   0.0063492
        k(  137) = (  -0.4000000   0.2857143  -0.2222222), wk =   0.0063492
        k(  138) = (   0.4000000  -0.2857143  -0.2222222), wk =   0.0063492
        k(  139) = (  -0.4000000  -0.2857143   0.2222222), wk =   0.0063492
        k(  140) = (  -0.4000000   0.2857143  -0.3333333), wk =   0.0063492
        k(  141) = (   0.4000000  -0.2857143  -0.3333333), wk =   0.0063492
        k(  142) = (  -0.4000000  -0.2857143   0.3333333), wk =   0.0063492
        k(  143) = (  -0.4000000   0.2857143  -0.4444444), wk =   0.0063492
        k(  144) = (   0.4000000  -0.2857143  -0.4444444), wk =   0.0063492
        k(  145) = (  -0.4000000  -0.2857143   0.4444444), wk =   0.0063492
        k(  146) = (  -0.4000000   0.4285714   0.0000000), wk =   0.0063492
        k(  147) = (  -0.4000000   0.4285714  -0.1111111), wk =   0.0063492
        k(  148) = (   0.4000000  -0.4285714  -0.1111111), wk =   0.0063492
        k(  149) = (  -0.4000000  -0.4285714   0.1111111), wk =   0.0063492
        k(  150) = (  -0.4000000   0.4285714  -0.2222222), wk =   0.0063492
        k(  151) = (   0.4000000  -0.4285714  -0.2222222), wk =   0.0063492
        k(  152) = (  -0.4000000  -0.4285714   0.2222222), wk =   0.0063492
        k(  153) = (  -0.4000000   0.4285714  -0.3333333), wk =   0.0063492
        k(  154) = (   0.4000000  -0.4285714  -0.3333333), wk =   0.0063492
        k(  155) = (  -0.4000000  -0.4285714   0.3333333), wk =   0.0063492
        k(  156) = (  -0.4000000   0.4285714  -0.4444444), wk =   0.0063492
        k(  157) = (   0.4000000  -0.4285714  -0.4444444), wk =   0.0063492
        k(  158) = (  -0.4000000  -0.4285714   0.4444444), wk =   0.0063492

     Dense  grid:  1231207 G-vectors     FFT dimensions: ( 216, 125, 100)

     Smooth grid:   277409 G-vectors     FFT dimensions: ( 125,  75,  60)

     Dynamical RAM for                 wfc:       2.51 MB

     Dynamical RAM for     wfc (w. buffer):     796.80 MB

     Dynamical RAM for           str. fact:       3.13 MB

     Dynamical RAM for           local pot:       0.00 MB

     Dynamical RAM for          nlocal pot:       6.17 MB

     Dynamical RAM for                qrad:      10.54 MB

     Dynamical RAM for          rho,v,vnew:      10.88 MB

     Dynamical RAM for               rhoin:       3.63 MB

     Dynamical RAM for            rho*nmix:      25.05 MB

     Dynamical RAM for           G-vectors:       3.02 MB

     Dynamical RAM for          h,s,v(r/c):       2.38 MB

     Dynamical RAM for          <psi|beta>:       0.49 MB

     Dynamical RAM for                 psi:       5.03 MB

     Dynamical RAM for                hpsi:       5.03 MB

     Dynamical RAM for                spsi:       5.03 MB

     Dynamical RAM for      wfcinit/wfcrot:       6.47 MB

     Dynamical RAM for           addusdens:     158.91 MB

     Dynamical RAM for          addusforce:     182.52 MB

     Dynamical RAM for         addusstress:     158.52 MB

     Estimated static dynamical RAM per process >     869.32 MB

     Estimated max dynamical RAM per process >       1.03 GB

     Estimated total dynamical RAM >      24.65 GB

     Check: negative core charge=   -0.000003
     Generating pointlists ...
     new r_m :   0.0764 (alat units)  1.4776 (a.u.) for type    1
     new r_m :   0.0939 (alat units)  1.8167 (a.u.) for type    2
     new r_m :   0.0611 (alat units)  1.1807 (a.u.) for type    3
     new r_m :   0.0611 (alat units)  1.1807 (a.u.) for type    4

     Initial potential from superposition of free atoms

     starting charge  188.99132, renormalised to  189.00000
     Starting wfcs are  137 randomized atomic wfcs
     Checking if some PAW data can be deallocated... 
       PAW data deallocated on   20 nodes for type:  1
       PAW data deallocated on    8 nodes for type:  3

     total cpu time spent up to now is      186.8 secs

     Self-consistent Calculation

     iteration #  1     ecut=   100.00 Ry     beta= 0.40
     Davidson diagonalization with overlap
     ethr =  1.00E-02,  avg # of iterations =  3.2

     negative rho (up, down):  0.000E+00 8.870E-05

     total cpu time spent up to now is      810.0 secs

     total energy              =   -2124.13258327 Ry
     estimated scf accuracy    <       6.60420638 Ry

     total magnetization       =    19.00 Bohr mag/cell
     absolute magnetization    =    19.00 Bohr mag/cell

     iteration #  2     ecut=   100.00 Ry     beta= 0.40
     Davidson diagonalization with overlap
     ethr =  3.49E-03,  avg # of iterations =  2.0

     negative rho (up, down):  0.000E+00 5.895E-05

     total cpu time spent up to now is     1347.3 secs

     total energy              =   -2123.79584245 Ry
     estimated scf accuracy    <      10.08801537 Ry

     total magnetization       =    13.25 Bohr mag/cell
     absolute magnetization    =    13.28 Bohr mag/cell

     iteration #  3     ecut=   100.00 Ry     beta= 0.40
     Davidson diagonalization with overlap
     ethr =  3.49E-03,  avg # of iterations =  2.0

     negative rho (up, down):  0.000E+00 2.059E-04

     total cpu time spent up to now is     1810.1 secs

     total energy              =   -2126.09343998 Ry
     estimated scf accuracy    <       1.77572141 Ry

     total magnetization       =    19.00 Bohr mag/cell
     absolute magnetization    =    19.00 Bohr mag/cell

     iteration #  4     ecut=   100.00 Ry     beta= 0.40
     Davidson diagonalization with overlap
     ethr =  9.40E-04,  avg # of iterations =  2.0

     negative rho (up, down):  0.000E+00 2.757E-04

     total cpu time spent up to now is     2275.2 secs

     total energy              =   -2126.10698526 Ry
     estimated scf accuracy    <       0.83228438 Ry

     total magnetization       =    19.00 Bohr mag/cell
     absolute magnetization    =    19.00 Bohr mag/cell

     iteration #  5     ecut=   100.00 Ry     beta= 0.40
     Davidson diagonalization with overlap
     ethr =  4.40E-04,  avg # of iterations =  2.6

     negative rho (up, down):  0.000E+00 6.663E-04

     total cpu time spent up to now is     2757.6 secs

     total energy              =   -2126.03851114 Ry
     estimated scf accuracy    <       0.53990799 Ry

     total magnetization       =    19.00 Bohr mag/cell
     absolute magnetization    =    19.00 Bohr mag/cell

     iteration #  6     ecut=   100.00 Ry     beta= 0.40
     Davidson diagonalization with overlap
     c_bands:  1 eigenvalues not converged
     ethr =  2.86E-04,  avg # of iterations =  5.1

     negative rho (up, down):  0.000E+00 7.997E-04

     total cpu time spent up to now is     3284.2 secs

     total energy              =   -2126.12380818 Ry
     estimated scf accuracy    <       0.24782775 Ry

     total magnetization       =    19.00 Bohr mag/cell
     absolute magnetization    =    19.01 Bohr mag/cell

     iteration #  7     ecut=   100.00 Ry     beta= 0.40
     Davidson diagonalization with overlap
     c_bands:  1 eigenvalues not converged
     c_bands:  1 eigenvalues not converged
     c_bands:  2 eigenvalues not converged
     ethr =  1.31E-04,  avg # of iterations =  7.2

     negative rho (up, down):  0.000E+00 9.226E-04

     total cpu time spent up to now is     3851.5 secs

     total energy              =   -2126.13652132 Ry
     estimated scf accuracy    <       0.02078643 Ry

     total magnetization       =    19.00 Bohr mag/cell
     absolute magnetization    =    19.02 Bohr mag/cell

     iteration #  8     ecut=   100.00 Ry     beta= 0.40
     Davidson diagonalization with overlap
     c_bands:  1 eigenvalues not converged
     c_bands:  1 eigenvalues not converged
     c_bands:  1 eigenvalues not converged
     c_bands:  1 eigenvalues not converged
     c_bands:  1 eigenvalues not converged
     c_bands:  1 eigenvalues not converged
     c_bands:  1 eigenvalues not converged
     c_bands:  1 eigenvalues not converged
     c_bands:  1 eigenvalues not converged
     c_bands:  1 eigenvalues not converged
     c_bands:  1 eigenvalues not converged
     c_bands:  1 eigenvalues not converged
     c_bands:  3 eigenvalues not converged
     c_bands:  1 eigenvalues not converged
     c_bands:  1 eigenvalues not converged
     c_bands:  1 eigenvalues not converged
     c_bands:  1 eigenvalues not converged
     c_bands:  1 eigenvalues not converged
     c_bands:  1 eigenvalues not converged
     c_bands:  1 eigenvalues not converged
     c_bands:  1 eigenvalues not converged
     c_bands:  2 eigenvalues not converged
     c_bands:  2 eigenvalues not converged
     c_bands:  2 eigenvalues not converged
     c_bands:  1 eigenvalues not converged
     c_bands:  2 eigenvalues not converged
     c_bands:  2 eigenvalues not converged
     c_bands:  1 eigenvalues not converged
     c_bands:  2 eigenvalues not converged
     c_bands:  1 eigenvalues not converged
     c_bands:  1 eigenvalues not converged
     c_bands:  2 eigenvalues not converged
     c_bands:  1 eigenvalues not converged
     c_bands:  1 eigenvalues not converged
     c_bands:  1 eigenvalues not converged
     c_bands:  1 eigenvalues not converged
     c_bands:  1 eigenvalues not converged
     c_bands:  2 eigenvalues not converged
     c_bands:  1 eigenvalues not converged
     c_bands:  1 eigenvalues not converged
     c_bands:  1 eigenvalues not converged
     c_bands:  2 eigenvalues not converged
     c_bands:  1 eigenvalues not converged
     c_bands:  1 eigenvalues not converged
     c_bands:  1 eigenvalues not converged
     c_bands:  1 eigenvalues not converged
     c_bands:  1 eigenvalues not converged
     c_bands:  1 eigenvalues not converged
     c_bands:  1 eigenvalues not converged
     c_bands:  1 eigenvalues not converged
     c_bands:  1 eigenvalues not converged
     c_bands:  1 eigenvalues not converged
     ethr =  1.10E-05,  avg # of iterations = 14.4

     negative rho (up, down):  0.000E+00 9.372E-04

     total cpu time spent up to now is     4937.3 secs

     total energy              =   -2126.14375392 Ry
     estimated scf accuracy    <       0.00512724 Ry

     total magnetization       =    19.00 Bohr mag/cell
     absolute magnetization    =    19.03 Bohr mag/cell

     iteration #  9     ecut=   100.00 Ry     beta= 0.40
     Davidson diagonalization with overlap
     c_bands:  1 eigenvalues not converged
     c_bands:  1 eigenvalues not converged
     c_bands:  1 eigenvalues not converged
     c_bands:  1 eigenvalues not converged
     c_bands:  1 eigenvalues not converged
     c_bands:  2 eigenvalues not converged
     c_bands:  1 eigenvalues not converged
     c_bands:  1 eigenvalues not converged
     c_bands:  1 eigenvalues not converged
     c_bands:  1 eigenvalues not converged
     c_bands:  1 eigenvalues not converged
     c_bands:  1 eigenvalues not converged
     c_bands:  1 eigenvalues not converged
     c_bands:  1 eigenvalues not converged
     c_bands:  1 eigenvalues not converged
     c_bands:  1 eigenvalues not converged
     c_bands:  1 eigenvalues not converged
     c_bands:  1 eigenvalues not converged
     c_bands:  2 eigenvalues not converged
     c_bands:  1 eigenvalues not converged
     c_bands:  1 eigenvalues not converged
     c_bands:  1 eigenvalues not converged
     c_bands:  1 eigenvalues not converged
     c_bands:  1 eigenvalues not converged
     ethr =  2.71E-06,  avg # of iterations =  6.9

     negative rho (up, down):  0.000E+00 9.298E-04

     total cpu time spent up to now is     5501.1 secs

     total energy              =   -2126.14438807 Ry
     estimated scf accuracy    <       0.00054658 Ry

     total magnetization       =    19.00 Bohr mag/cell
     absolute magnetization    =    19.04 Bohr mag/cell

     iteration # 10     ecut=   100.00 Ry     beta= 0.40
     Davidson diagonalization with overlap
     c_bands:  1 eigenvalues not converged
     c_bands:  1 eigenvalues not converged
     ethr =  2.89E-07,  avg # of iterations =  4.8

     negative rho (up, down):  0.000E+00 9.174E-04

     total cpu time spent up to now is     6183.8 secs

     total energy              =   -2126.14463107 Ry
     estimated scf accuracy    <       0.00072009 Ry

     total magnetization       =    19.00 Bohr mag/cell
     absolute magnetization    =    19.04 Bohr mag/cell

     iteration # 11     ecut=   100.00 Ry     beta= 0.40
     Davidson diagonalization with overlap
     ethr =  2.89E-07,  avg # of iterations =  1.1

     negative rho (up, down):  0.000E+00 9.131E-04

     total cpu time spent up to now is     6572.5 secs

     total energy              =   -2126.14467806 Ry
     estimated scf accuracy    <       0.00006624 Ry

     total magnetization       =    19.00 Bohr mag/cell
     absolute magnetization    =    19.04 Bohr mag/cell

     iteration # 12     ecut=   100.00 Ry     beta= 0.40
     Davidson diagonalization with overlap
     ethr =  3.50E-08,  avg # of iterations =  1.8

     negative rho (up, down):  0.000E+00 9.122E-04

     total cpu time spent up to now is     7003.6 secs

     total energy              =   -2126.14468704 Ry
     estimated scf accuracy    <       0.00003384 Ry

     total magnetization       =    19.00 Bohr mag/cell
     absolute magnetization    =    19.04 Bohr mag/cell

     iteration # 13     ecut=   100.00 Ry     beta= 0.40
     Davidson diagonalization with overlap
     ethr =  1.79E-08,  avg # of iterations =  2.0

     negative rho (up, down):  0.000E+00 9.129E-04

     total cpu time spent up to now is     7464.1 secs

     total energy              =   -2126.14469547 Ry
     estimated scf accuracy    <       0.00002867 Ry

     total magnetization       =    19.00 Bohr mag/cell
     absolute magnetization    =    19.04 Bohr mag/cell

     iteration # 14     ecut=   100.00 Ry     beta= 0.40
     Davidson diagonalization with overlap
     ethr =  1.52E-08,  avg # of iterations =  1.0

     negative rho (up, down):  0.000E+00 9.147E-04

     total cpu time spent up to now is     7844.8 secs

     total energy              =   -2126.14469883 Ry
     estimated scf accuracy    <       0.00000840 Ry

     total magnetization       =    19.00 Bohr mag/cell
     absolute magnetization    =    19.04 Bohr mag/cell

     iteration # 15     ecut=   100.00 Ry     beta= 0.40
     Davidson diagonalization with overlap
     ethr =  4.44E-09,  avg # of iterations =  1.8

     negative rho (up, down):  0.000E+00 9.151E-04

     total cpu time spent up to now is     8269.3 secs

     total energy              =   -2126.14469986 Ry
     estimated scf accuracy    <       0.00000050 Ry

     total magnetization       =    19.00 Bohr mag/cell
     absolute magnetization    =    19.04 Bohr mag/cell

     iteration # 16     ecut=   100.00 Ry     beta= 0.40
     Davidson diagonalization with overlap
     ethr =  2.67E-10,  avg # of iterations =  6.1

     negative rho (up, down):  0.000E+00 9.150E-04

     total cpu time spent up to now is     9233.0 secs

     total energy              =   -2126.14470043 Ry
     estimated scf accuracy    <       0.00000016 Ry

     total magnetization       =    19.00 Bohr mag/cell
     absolute magnetization    =    19.04 Bohr mag/cell

     iteration # 17     ecut=   100.00 Ry     beta= 0.40
     Davidson diagonalization with overlap
     ethr =  8.72E-11,  avg # of iterations =  1.4

     negative rho (up, down):  0.000E+00 9.149E-04

     total cpu time spent up to now is     9640.1 secs

     total energy              =   -2126.14470049 Ry
     estimated scf accuracy    <       0.00000024 Ry

     total magnetization       =    19.00 Bohr mag/cell
     absolute magnetization    =    19.04 Bohr mag/cell

     iteration # 18     ecut=   100.00 Ry     beta= 0.40
     Davidson diagonalization with overlap
     ethr =  8.72E-11,  avg # of iterations =  1.2

     negative rho (up, down):  0.000E+00 9.149E-04

     total cpu time spent up to now is    10033.1 secs

     total energy              =   -2126.14470052 Ry
     estimated scf accuracy    <       0.00000005 Ry

     total magnetization       =    19.00 Bohr mag/cell
     absolute magnetization    =    19.04 Bohr mag/cell

     iteration # 19     ecut=   100.00 Ry     beta= 0.40
     Davidson diagonalization with overlap
     ethr =  2.82E-11,  avg # of iterations =  1.2

     negative rho (up, down):  0.000E+00 9.148E-04

     total cpu time spent up to now is    10422.8 secs

     total energy              =   -2126.14470054 Ry
     estimated scf accuracy    <          8.7E-09 Ry

     total magnetization       =    19.00 Bohr mag/cell
     absolute magnetization    =    19.04 Bohr mag/cell

     iteration # 20     ecut=   100.00 Ry     beta= 0.40
     Davidson diagonalization with overlap
     ethr =  4.60E-12,  avg # of iterations =  4.5

     negative rho (up, down):  0.000E+00 9.147E-04

     total cpu time spent up to now is    11041.5 secs

     total energy              =   -2126.14470054 Ry
     estimated scf accuracy    <          2.7E-09 Ry

     total magnetization       =    19.00 Bohr mag/cell
     absolute magnetization    =    19.04 Bohr mag/cell

     iteration # 21     ecut=   100.00 Ry     beta= 0.40
     Davidson diagonalization with overlap
     ethr =  1.41E-12,  avg # of iterations =  3.1

     negative rho (up, down):  0.000E+00 9.148E-04

     total cpu time spent up to now is    11603.3 secs

     total energy              =   -2126.14470055 Ry
     estimated scf accuracy    <          1.4E-09 Ry

     total magnetization       =    19.00 Bohr mag/cell
     absolute magnetization    =    19.04 Bohr mag/cell

     iteration # 22     ecut=   100.00 Ry     beta= 0.40
     Davidson diagonalization with overlap
     ethr =  7.34E-13,  avg # of iterations =  2.0

     negative rho (up, down):  0.000E+00 9.148E-04

     total cpu time spent up to now is    12063.6 secs

     total energy              =   -2126.14470055 Ry
     estimated scf accuracy    <          5.3E-10 Ry

     total magnetization       =    19.00 Bohr mag/cell
     absolute magnetization    =    19.04 Bohr mag/cell

     iteration # 23     ecut=   100.00 Ry     beta= 0.40
     Davidson diagonalization with overlap
     ethr =  2.79E-13,  avg # of iterations =  2.4

     negative rho (up, down):  0.000E+00 9.148E-04

     Magnetic moment per site:
     atom:    1    charge:    7.9694    magn:    0.0009    constr:    0.0000
     atom:    2    charge:   12.8076    magn:    3.6299    constr:    0.0000
     atom:    3    charge:   12.8103    magn:    3.6155    constr:    0.0000
     atom:    4    charge:   12.8076    magn:    3.6299    constr:    0.0000
     atom:    5    charge:   12.8103    magn:    3.6155    constr:    0.0000
     atom:    6    charge:    0.8247    magn:    0.0114    constr:    0.0000
     atom:    7    charge:    0.8251    magn:    0.0087    constr:    0.0000
     atom:    8    charge:    0.8247    magn:    0.0114    constr:    0.0000
     atom:    9    charge:    0.8251    magn:    0.0087    constr:    0.0000
     atom:   10    charge:    4.2097    magn:    0.1313    constr:    0.0000
     atom:   11    charge:    4.2121    magn:    0.0840    constr:    0.0000
     atom:   12    charge:    4.2097    magn:    0.1313    constr:    0.0000
     atom:   13    charge:    4.2121    magn:    0.0840    constr:    0.0000
     atom:   14    charge:    4.1998    magn:    0.0915    constr:    0.0000
     atom:   15    charge:    4.2039    magn:    0.1347    constr:    0.0000
     atom:   16    charge:    4.1997    magn:    0.0915    constr:    0.0000
     atom:   17    charge:    4.2039    magn:    0.1347    constr:    0.0000
     atom:   18    charge:    4.1812    magn:    0.1457    constr:    0.0000
     atom:   19    charge:    4.1842    magn:    0.1215    constr:    0.0000
     atom:   20    charge:    4.1831    magn:    0.1539    constr:    0.0000
     atom:   21    charge:    4.1857    magn:    0.1332    constr:    0.0000
     atom:   22    charge:    4.1813    magn:    0.1457    constr:    0.0000
     atom:   23    charge:    4.1842    magn:    0.1215    constr:    0.0000
     atom:   24    charge:    4.1831    magn:    0.1539    constr:    0.0000
     atom:   25    charge:    4.1857    magn:    0.1332    constr:    0.0000

     total cpu time spent up to now is    12539.4 secs

     End of self-consistent calculation

 ------ SPIN UP ------------


          k = 0.0000 0.0000 0.0000 ( 34745 PWs)   bands (ev):

   -84.5142 -84.5141 -84.4612 -84.4603 -50.6499 -50.6497 -50.6476 -50.6468
   -50.4874 -50.4874 -50.3903 -50.3903 -50.3696 -50.3688 -50.3566 -50.3556
   -44.0340 -16.2254 -16.0371 -16.0240 -16.0115 -15.7436 -15.6824 -15.4897
   -13.4172 -13.3814 -13.3249 -13.2779 -13.1744 -13.1373 -13.1048 -13.0930
   -13.0578 -13.0482 -12.9080 -12.8781  -3.6810  -3.1606  -3.0744  -2.6259
    -1.9405  -1.5628  -1.4695  -1.3586  -1.1900  -0.9836  -0.9579  -0.8893
    -0.7443  -0.5831  -0.3654  -0.0679   0.0762   0.0934   0.6472   0.7343
     0.7658   0.8725   1.0311   1.0893   1.2020   1.2611   1.4480   1.5599
     1.6443   1.8182   1.8977   1.9023   2.0608   2.0972   2.1327   2.1771
     2.2647   2.5615   2.5873   2.7434   2.7583   2.7810   2.9228   2.9817
     3.1000   3.2315   3.3168   3.3321   3.4076   3.5164   3.7265   3.7445
     3.7860   3.9021   3.9483   3.9567   4.1575   4.2260   4.2344   4.4433
     4.4484   4.6889   4.6957   4.8987   5.1058   5.2250   5.4589   5.5384
    10.0228  12.1092  12.4742  12.8863  12.9804  13.5173  14.1100  14.3607
    14.4179  14.4467

     occupation numbers 
     1.0000   1.0000   1.0000   1.0000   1.0000   1.0000   1.0000   1.0000
     1.0000   1.0000   1.0000   1.0000   1.0000   1.0000   1.0000   1.0000
     1.0000   1.0000   1.0000   1.0000   1.0000   1.0000   1.0000   1.0000
     1.0000   1.0000   1.0000   1.0000   1.0000   1.0000   1.0000   1.0000
     1.0000   1.0000   1.0000   1.0000   1.0000   1.0000   1.0000   1.0000
     1.0000   1.0000   1.0000   1.0000   1.0000   1.0000   1.0000   1.0000
     1.0000   1.0000   1.0000   1.0000   1.0000   1.0000   1.0000   1.0000
     1.0000   1.0000   1.0000   1.0000   1.0000   1.0000   1.0000   1.0000
     1.0000   1.0000   1.0000   1.0000   1.0000   1.0000   1.0000   1.0000
     1.0000   1.0000   1.0000   1.0000   1.0000   1.0000   1.0000   1.0000
     1.0000   1.0000   1.0000   1.0000   1.0000   1.0000   1.0000   1.0000
     1.0000   1.0000   1.0000   1.0000   1.0000   1.0000   1.0000   1.0000
     1.0000   1.0000   1.0000   1.0000   1.0000   1.0000   1.0000   1.0000
     0.0000   0.0000   0.0000   0.0000   0.0000   0.0000   0.0000   0.0000
     0.0000   0.0000

          k = 0.0000 0.0000 0.2337 ( 34669 PWs)   bands (ev):

   -84.5142 -84.5141 -84.4612 -84.4603 -50.6499 -50.6497 -50.6476 -50.6468
   -50.4874 -50.4874 -50.3903 -50.3903 -50.3696 -50.3688 -50.3566 -50.3556
   -44.0340 -16.2240 -16.0705 -16.0340 -15.9495 -15.7343 -15.6734 -15.4978
   -13.4259 -13.3962 -13.3345 -13.2835 -13.1687 -13.1531 -13.0950 -13.0937
   -13.0637 -13.0490 -12.9125 -12.8844  -3.6562  -3.1537  -3.0732  -2.6390
    -1.8852  -1.5309  -1.4755  -1.3384  -1.1850  -1.0287  -0.9362  -0.8291
    -0.7317  -0.5477  -0.4143  -0.0466   0.0531   0.0939   0.6595   0.7314
     0.7738   0.9064   0.9986   1.1209   1.2004   1.2313   1.4160   1.5861
     1.6351   1.7964   1.8683   1.8960   2.0290   2.0760   2.0954   2.1357
     2.3780   2.5325   2.5799   2.6831   2.7322   2.7861   2.8915   3.0078
     3.0950   3.2091   3.2796   3.3797   3.4832   3.5257   3.6420   3.7253
     3.7860   3.8886   3.9316   3.9742   4.1162   4.2235   4.3272   4.4497
     4.4821   4.6783   4.7412   4.8922   5.1041   5.2108   5.4317   5.5138
    10.1744  12.1735  12.5441  12.8397  13.0874  13.4909  14.1380  14.2086
    14.2661  14.4364

     occupation numbers 
     1.0000   1.0000   1.0000   1.0000   1.0000   1.0000   1.0000   1.0000
     1.0000   1.0000   1.0000   1.0000   1.0000   1.0000   1.0000   1.0000
     1.0000   1.0000   1.0000   1.0000   1.0000   1.0000   1.0000   1.0000
     1.0000   1.0000   1.0000   1.0000   1.0000   1.0000   1.0000   1.0000
     1.0000   1.0000   1.0000   1.0000   1.0000   1.0000   1.0000   1.0000
     1.0000   1.0000   1.0000   1.0000   1.0000   1.0000   1.0000   1.0000
     1.0000   1.0000   1.0000   1.0000   1.0000   1.0000   1.0000   1.0000
     1.0000   1.0000   1.0000   1.0000   1.0000   1.0000   1.0000   1.0000
     1.0000   1.0000   1.0000   1.0000   1.0000   1.0000   1.0000   1.0000
     1.0000   1.0000   1.0000   1.0000   1.0000   1.0000   1.0000   1.0000
     1.0000   1.0000   1.0000   1.0000   1.0000   1.0000   1.0000   1.0000
     1.0000   1.0000   1.0000   1.0000   1.0000   1.0000   1.0000   1.0000
     1.0000   1.0000   1.0000   1.0000   1.0000   1.0000   1.0000   1.0000
     0.0000   0.0000   0.0000   0.0000   0.0000   0.0000   0.0000   0.0000
     0.0000   0.0000

          k = 0.0000 0.0000 0.4675 ( 34709 PWs)   bands (ev):

   -84.5142 -84.5141 -84.4612 -84.4603 -50.6499 -50.6497 -50.6476 -50.6468
   -50.4874 -50.4874 -50.3903 -50.3903 -50.3696 -50.3688 -50.3566 -50.3556
   -44.0340 -16.2304 -16.0836 -16.0333 -15.8768 -15.7122 -15.6487 -15.5209
   -13.4486 -13.4327 -13.3607 -13.3041 -13.1805 -13.1549 -13.1047 -13.0745
   -13.0705 -13.0474 -12.9255 -12.9024  -3.5842  -3.1459  -3.0646  -2.6900
    -1.7314  -1.4774  -1.4513  -1.3119  -1.1642  -1.0551  -0.9319  -0.7467
    -0.6215  -0.5380  -0.4578  -0.0890   0.0493   0.1482   0.6905   0.7415
     0.7960   0.9390   0.9994   1.1607   1.1812   1.1977   1.3183   1.6107
     1.6442   1.7650   1.8287   1.8566   1.9172   1.9937   2.0705   2.0972
     2.3092   2.4550   2.6107   2.6518   2.6824   2.7547   2.8826   3.0200
     3.0946   3.1699   3.3259   3.3919   3.4195   3.5473   3.6013   3.6584
     3.7508   3.8391   3.9600   4.0780   4.1404   4.2401   4.4508   4.4544
     4.5781   4.6511   4.8278   4.8919   5.0937   5.1803   5.3494   5.4400
    10.5820  12.3446  12.7143  12.8508  13.2580  13.4690  13.8019  14.0357
    14.1144  14.2515

     occupation numbers 
     1.0000   1.0000   1.0000   1.0000   1.0000   1.0000   1.0000   1.0000
     1.0000   1.0000   1.0000   1.0000   1.0000   1.0000   1.0000   1.0000
     1.0000   1.0000   1.0000   1.0000   1.0000   1.0000   1.0000   1.0000
     1.0000   1.0000   1.0000   1.0000   1.0000   1.0000   1.0000   1.0000
     1.0000   1.0000   1.0000   1.0000   1.0000   1.0000   1.0000   1.0000
     1.0000   1.0000   1.0000   1.0000   1.0000   1.0000   1.0000   1.0000
     1.0000   1.0000   1.0000   1.0000   1.0000   1.0000   1.0000   1.0000
     1.0000   1.0000   1.0000   1.0000   1.0000   1.0000   1.0000   1.0000
     1.0000   1.0000   1.0000   1.0000   1.0000   1.0000   1.0000   1.0000
     1.0000   1.0000   1.0000   1.0000   1.0000   1.0000   1.0000   1.0000
     1.0000   1.0000   1.0000   1.0000   1.0000   1.0000   1.0000   1.0000
     1.0000   1.0000   1.0000   1.0000   1.0000   1.0000   1.0000   1.0000
     1.0000   1.0000   1.0000   1.0000   1.0000   1.0000   1.0000   1.0000
     0.0000   0.0000   0.0000   0.0000   0.0000   0.0000   0.0000   0.0000
     0.0000   0.0000

          k = 0.0000 0.0000 0.7012 ( 34655 PWs)   bands (ev):

   -84.5142 -84.5141 -84.4612 -84.4603 -50.6499 -50.6497 -50.6476 -50.6468
   -50.4874 -50.4874 -50.3903 -50.3903 -50.3696 -50.3688 -50.3567 -50.3556
   -44.0340 -16.2483 -16.0620 -16.0324 -15.8132 -15.6865 -15.6192 -15.5540
   -13.4754 -13.4730 -13.3931 -13.3406 -13.1984 -13.1404 -13.1182 -13.0804
   -13.0482 -13.0322 -12.9459 -12.9284  -3.4739  -3.1637  -3.0397  -2.7827
    -1.5676  -1.4296  -1.3751  -1.2958  -1.1161  -1.0566  -0.9187  -0.7414
    -0.6576  -0.4047  -0.3423  -0.2517   0.1762   0.2593   0.7024   0.7862
     0.8295   0.8929   1.0629   1.1140   1.1412   1.1839   1.2828   1.5736
     1.6214   1.6973   1.7463   1.8179   1.8808   1.9195   2.0143   2.0729
     2.0971   2.3178   2.5302   2.5768   2.7025   2.8435   2.9500   3.0296
     3.1241   3.1719   3.2424   3.2627   3.4197   3.4755   3.5534   3.6128
     3.7246   3.8476   4.0629   4.1804   4.2392   4.3844   4.4613   4.5227
     4.5965   4.7225   4.9002   4.9117   5.0748   5.1484   5.2197   5.3201
    11.1455  12.5762  12.7803  12.9730  13.3157  13.4657  13.6392  13.8032
    13.9218  13.9675

     occupation numbers 
     1.0000   1.0000   1.0000   1.0000   1.0000   1.0000   1.0000   1.0000
     1.0000   1.0000   1.0000   1.0000   1.0000   1.0000   1.0000   1.0000
     1.0000   1.0000   1.0000   1.0000   1.0000   1.0000   1.0000   1.0000
     1.0000   1.0000   1.0000   1.0000   1.0000   1.0000   1.0000   1.0000
     1.0000   1.0000   1.0000   1.0000   1.0000   1.0000   1.0000   1.0000
     1.0000   1.0000   1.0000   1.0000   1.0000   1.0000   1.0000   1.0000
     1.0000   1.0000   1.0000   1.0000   1.0000   1.0000   1.0000   1.0000
     1.0000   1.0000   1.0000   1.0000   1.0000   1.0000   1.0000   1.0000
     1.0000   1.0000   1.0000   1.0000   1.0000   1.0000   1.0000   1.0000
     1.0000   1.0000   1.0000   1.0000   1.0000   1.0000   1.0000   1.0000
     1.0000   1.0000   1.0000   1.0000   1.0000   1.0000   1.0000   1.0000
     1.0000   1.0000   1.0000   1.0000   1.0000   1.0000   1.0000   1.0000
     1.0000   1.0000   1.0000   1.0000   1.0000   1.0000   1.0000   1.0000
     0.0000   0.0000   0.0000   0.0000   0.0000   0.0000   0.0000   0.0000
     0.0000   0.0000

          k = 0.0000 0.0000 0.9349 ( 34716 PWs)   bands (ev):

   -84.5142 -84.5141 -84.4612 -84.4603 -50.6499 -50.6497 -50.6476 -50.6468
   -50.4874 -50.4874 -50.3903 -50.3903 -50.3696 -50.3688 -50.3567 -50.3556
   -44.0340 -16.2616 -16.0380 -16.0317 -15.7766 -15.6572 -15.6124 -15.5774
   -13.4991 -13.4928 -13.4154 -13.3712 -13.2049 -13.1360 -13.1196 -13.0896
   -13.0203 -13.0126 -12.9705 -12.9530  -3.3453  -3.2312  -2.9877  -2.8881
    -1.4951  -1.4251  -1.2868  -1.2512  -1.0435  -1.0146  -0.9356  -0.8852
    -0.5793  -0.4331  -0.2554  -0.2331   0.3844   0.4539   0.6303   0.7161
     0.8439   0.8753   1.0289   1.0489   1.0927   1.1722   1.3460   1.4710
     1.5870   1.6450   1.7027   1.7612   1.8176   1.8601   2.0083   2.0577
     2.1363   2.2859   2.3659   2.4323   2.7256   2.9269   3.0024   3.0948
     3.1379   3.1604   3.1992   3.2140   3.3262   3.3533   3.5543   3.6073
     3.7200   3.8504   4.1666   4.2378   4.2831   4.4721   4.5204   4.5557
     4.6626   4.8707   4.9049   4.9347   5.0105   5.0962   5.1435   5.1886
    11.7694  12.3708  12.8480  13.0860  13.3913  13.4446  13.5233  13.6434
    13.9153  13.9664

     occupation numbers 
     1.0000   1.0000   1.0000   1.0000   1.0000   1.0000   1.0000   1.0000
     1.0000   1.0000   1.0000   1.0000   1.0000   1.0000   1.0000   1.0000
     1.0000   1.0000   1.0000   1.0000   1.0000   1.0000   1.0000   1.0000
     1.0000   1.0000   1.0000   1.0000   1.0000   1.0000   1.0000   1.0000
     1.0000   1.0000   1.0000   1.0000   1.0000   1.0000   1.0000   1.0000
     1.0000   1.0000   1.0000   1.0000   1.0000   1.0000   1.0000   1.0000
     1.0000   1.0000   1.0000   1.0000   1.0000   1.0000   1.0000   1.0000
     1.0000   1.0000   1.0000   1.0000   1.0000   1.0000   1.0000   1.0000
     1.0000   1.0000   1.0000   1.0000   1.0000   1.0000   1.0000   1.0000
     1.0000   1.0000   1.0000   1.0000   1.0000   1.0000   1.0000   1.0000
     1.0000   1.0000   1.0000   1.0000   1.0000   1.0000   1.0000   1.0000
     1.0000   1.0000   1.0000   1.0000   1.0000   1.0000   1.0000   1.0000
     1.0000   1.0000   1.0000   1.0000   1.0000   1.0000   1.0000   1.0000
     0.0000   0.0000   0.0000   0.0000   0.0000   0.0000   0.0000   0.0000
     0.0000   0.0000

          k = 0.0000 0.2391 0.0000 ( 34769 PWs)   bands (ev):

   -84.5142 -84.5141 -84.4612 -84.4603 -50.6499 -50.6497 -50.6476 -50.6468
   -50.4874 -50.4874 -50.3903 -50.3903 -50.3696 -50.3688 -50.3566 -50.3556
   -44.0340 -16.2300 -16.0378 -16.0238 -15.9863 -15.7434 -15.6797 -15.5088
   -13.4245 -13.3791 -13.3188 -13.2821 -13.2230 -13.1474 -13.1080 -13.0781
   -13.0584 -13.0075 -12.8977 -12.8899  -3.6531  -3.1825  -3.0467  -2.6349
    -1.9110  -1.5716  -1.4646  -1.3635  -1.1532  -0.9904  -0.9368  -0.8665
    -0.7160  -0.5798  -0.3338  -0.0532   0.0157   0.1396   0.6858   0.7397
     0.7798   0.8272   0.9249   0.9978   1.1154   1.3444   1.5012   1.5769
     1.7440   1.8487   1.8645   1.8946   1.9578   1.9792   2.1212   2.1285
     2.2954   2.5656   2.6516   2.7128   2.7778   2.8305   2.9251   2.9907
     3.1383   3.1877   3.2195   3.2677   3.4086   3.5257   3.6702   3.7482
     3.7947   3.8180   3.9219   4.0698   4.2028   4.2261   4.2402   4.4504
     4.4570   4.6562   4.7551   4.8539   5.0675   5.1926   5.5317   5.5456
    10.1804  12.2007  12.5607  12.7983  13.0977  13.6031  14.0452  14.2770
    14.4015  14.4438

     occupation numbers 
     1.0000   1.0000   1.0000   1.0000   1.0000   1.0000   1.0000   1.0000
     1.0000   1.0000   1.0000   1.0000   1.0000   1.0000   1.0000   1.0000
     1.0000   1.0000   1.0000   1.0000   1.0000   1.0000   1.0000   1.0000
     1.0000   1.0000   1.0000   1.0000   1.0000   1.0000   1.0000   1.0000
     1.0000   1.0000   1.0000   1.0000   1.0000   1.0000   1.0000   1.0000
     1.0000   1.0000   1.0000   1.0000   1.0000   1.0000   1.0000   1.0000
     1.0000   1.0000   1.0000   1.0000   1.0000   1.0000   1.0000   1.0000
     1.0000   1.0000   1.0000   1.0000   1.0000   1.0000   1.0000   1.0000
     1.0000   1.0000   1.0000   1.0000   1.0000   1.0000   1.0000   1.0000
     1.0000   1.0000   1.0000   1.0000   1.0000   1.0000   1.0000   1.0000
     1.0000   1.0000   1.0000   1.0000   1.0000   1.0000   1.0000   1.0000
     1.0000   1.0000   1.0000   1.0000   1.0000   1.0000   1.0000   1.0000
     1.0000   1.0000   1.0000   1.0000   1.0000   1.0000   1.0000   1.0000
     0.0000   0.0000   0.0000   0.0000   0.0000   0.0000   0.0000   0.0000
     0.0000   0.0000

          k = 0.0000 0.2391 0.2337 ( 34721 PWs)   bands (ev):

   -84.5142 -84.5141 -84.4612 -84.4603 -50.6499 -50.6497 -50.6476 -50.6468
   -50.4874 -50.4874 -50.3903 -50.3903 -50.3696 -50.3688 -50.3566 -50.3556
   -44.0340 -16.2339 -16.0584 -16.0344 -15.9281 -15.7345 -15.6680 -15.5217
   -13.4324 -13.3977 -13.3343 -13.2839 -13.2067 -13.1712 -13.0953 -13.0828
   -13.0650 -13.0090 -12.9003 -12.8937  -3.6286  -3.1734  -3.0478  -2.6460
    -1.8585  -1.5388  -1.4691  -1.3396  -1.1493  -1.0296  -0.9133  -0.8126
    -0.6998  -0.5567  -0.3863  -0.0324  -0.0097   0.1429   0.6843   0.7291
     0.7777   0.8480   0.9393   1.0168   1.1291   1.3503   1.5154   1.5410
     1.6974   1.8223   1.8563   1.8993   1.9255   1.9684   2.0808   2.1267
     2.3791   2.5725   2.5779   2.6931   2.7628   2.8185   2.8646   3.0124
     3.0966   3.1751   3.2389   3.3387   3.4019   3.5482   3.6023   3.7315
     3.7660   3.8275   3.9352   4.0613   4.1618   4.2370   4.3154   4.4524
     4.4934   4.6581   4.7826   4.8710   5.0427   5.1817   5.5181   5.5222
    10.3263  12.2624  12.6340  12.8088  13.1599  13.5670  14.0721  14.1413
    14.2797  14.4166

     occupation numbers 
     1.0000   1.0000   1.0000   1.0000   1.0000   1.0000   1.0000   1.0000
     1.0000   1.0000   1.0000   1.0000   1.0000   1.0000   1.0000   1.0000
     1.0000   1.0000   1.0000   1.0000   1.0000   1.0000   1.0000   1.0000
     1.0000   1.0000   1.0000   1.0000   1.0000   1.0000   1.0000   1.0000
     1.0000   1.0000   1.0000   1.0000   1.0000   1.0000   1.0000   1.0000
     1.0000   1.0000   1.0000   1.0000   1.0000   1.0000   1.0000   1.0000
     1.0000   1.0000   1.0000   1.0000   1.0000   1.0000   1.0000   1.0000
     1.0000   1.0000   1.0000   1.0000   1.0000   1.0000   1.0000   1.0000
     1.0000   1.0000   1.0000   1.0000   1.0000   1.0000   1.0000   1.0000
     1.0000   1.0000   1.0000   1.0000   1.0000   1.0000   1.0000   1.0000
     1.0000   1.0000   1.0000   1.0000   1.0000   1.0000   1.0000   1.0000
     1.0000   1.0000   1.0000   1.0000   1.0000   1.0000   1.0000   1.0000
     1.0000   1.0000   1.0000   1.0000   1.0000   1.0000   1.0000   1.0000
     0.0000   0.0000   0.0000   0.0000   0.0000   0.0000   0.0000   0.0000
     0.0000   0.0000

          k = 0.0000 0.2391 0.4675 ( 34695 PWs)   bands (ev):

   -84.5142 -84.5141 -84.4612 -84.4603 -50.6499 -50.6497 -50.6476 -50.6468
   -50.4874 -50.4874 -50.3903 -50.3903 -50.3696 -50.3688 -50.3566 -50.3556
   -44.0340 -16.2385 -16.0743 -16.0335 -15.8544 -15.7070 -15.6440 -15.5488
   -13.4532 -13.4354 -13.3668 -13.3015 -13.2022 -13.1871 -13.1031 -13.0887
   -13.0564 -13.0083 -12.9129 -12.9041  -3.5581  -3.1592  -3.0427  -2.6949
    -1.7100  -1.4678  -1.4544  -1.3084  -1.1313  -1.0505  -0.9136  -0.7146
    -0.6081  -0.5160  -0.4732  -0.1218   0.0572   0.1587   0.6586   0.7505
     0.8100   0.8204   1.0000   1.0854   1.1384   1.3191   1.4156   1.5926
     1.6438   1.7918   1.8087   1.8305   1.8907   1.9646   2.0180   2.1024
     2.3437   2.4365   2.6206   2.6639   2.7041   2.7925   2.8162   3.0029
     3.0648   3.2290   3.2814   3.3678   3.3983   3.4280   3.5796   3.6578
     3.7296   3.8502   4.0000   4.0434   4.1645   4.2862   4.4309   4.4630
     4.5790   4.6442   4.7969   4.9385   4.9860   5.1721   5.4613   5.4728
    10.7206  12.4318  12.8074  12.8759  13.2958  13.5302  13.8080  13.9897
    14.1721  14.2612

     occupation numbers 
     1.0000   1.0000   1.0000   1.0000   1.0000   1.0000   1.0000   1.0000
     1.0000   1.0000   1.0000   1.0000   1.0000   1.0000   1.0000   1.0000
     1.0000   1.0000   1.0000   1.0000   1.0000   1.0000   1.0000   1.0000
     1.0000   1.0000   1.0000   1.0000   1.0000   1.0000   1.0000   1.0000
     1.0000   1.0000   1.0000   1.0000   1.0000   1.0000   1.0000   1.0000
     1.0000   1.0000   1.0000   1.0000   1.0000   1.0000   1.0000   1.0000
     1.0000   1.0000   1.0000   1.0000   1.0000   1.0000   1.0000   1.0000
     1.0000   1.0000   1.0000   1.0000   1.0000   1.0000   1.0000   1.0000
     1.0000   1.0000   1.0000   1.0000   1.0000   1.0000   1.0000   1.0000
     1.0000   1.0000   1.0000   1.0000   1.0000   1.0000   1.0000   1.0000
     1.0000   1.0000   1.0000   1.0000   1.0000   1.0000   1.0000   1.0000
     1.0000   1.0000   1.0000   1.0000   1.0000   1.0000   1.0000   1.0000
     1.0000   1.0000   1.0000   1.0000   1.0000   1.0000   1.0000   1.0000
     0.0000   0.0000   0.0000   0.0000   0.0000   0.0000   0.0000   0.0000
     0.0000   0.0000

          k = 0.0000 0.2391 0.7012 ( 34688 PWs)   bands (ev):

   -84.5142 -84.5141 -84.4612 -84.4603 -50.6499 -50.6497 -50.6476 -50.6468
   -50.4874 -50.4874 -50.3903 -50.3903 -50.3696 -50.3688 -50.3567 -50.3556
   -44.0340 -16.2502 -16.0584 -16.0324 -15.7959 -15.6694 -15.6231 -15.5790
   -13.4804 -13.4749 -13.4023 -13.3376 -13.2200 -13.1712 -13.1160 -13.0987
   -13.0307 -13.0046 -12.9324 -12.9200  -3.4514  -3.1670  -3.0214  -2.7855
    -1.5458  -1.4206  -1.3701  -1.2941  -1.0896  -1.0428  -0.9017  -0.7010
    -0.6534  -0.4062  -0.3493  -0.2570   0.1645   0.2164   0.6147   0.7339
     0.8072   0.8884   1.0656   1.1480   1.1859   1.2555   1.3371   1.5524
     1.5981   1.6956   1.7760   1.7989   1.8769   1.9336   1.9692   2.0758
     2.0777   2.3018   2.4970   2.6181   2.7485   2.8210   2.8982   2.9832
     3.0882   3.1867   3.2924   3.3330   3.3387   3.4264   3.4505   3.6510
     3.7058   3.8310   4.0883   4.1866   4.2077   4.3630   4.4648   4.5099
     4.5928   4.6993   4.7983   4.9147   5.0341   5.1643   5.3719   5.4042
    11.2699  12.6669  12.8829  13.0171  13.3748  13.5364  13.6537  13.8422
    13.9203  13.9736

     occupation numbers 
     1.0000   1.0000   1.0000   1.0000   1.0000   1.0000   1.0000   1.0000
     1.0000   1.0000   1.0000   1.0000   1.0000   1.0000   1.0000   1.0000
     1.0000   1.0000   1.0000   1.0000   1.0000   1.0000   1.0000   1.0000
     1.0000   1.0000   1.0000   1.0000   1.0000   1.0000   1.0000   1.0000
     1.0000   1.0000   1.0000   1.0000   1.0000   1.0000   1.0000   1.0000
     1.0000   1.0000   1.0000   1.0000   1.0000   1.0000   1.0000   1.0000
     1.0000   1.0000   1.0000   1.0000   1.0000   1.0000   1.0000   1.0000
     1.0000   1.0000   1.0000   1.0000   1.0000   1.0000   1.0000   1.0000
     1.0000   1.0000   1.0000   1.0000   1.0000   1.0000   1.0000   1.0000
     1.0000   1.0000   1.0000   1.0000   1.0000   1.0000   1.0000   1.0000
     1.0000   1.0000   1.0000   1.0000   1.0000   1.0000   1.0000   1.0000
     1.0000   1.0000   1.0000   1.0000   1.0000   1.0000   1.0000   1.0000
     1.0000   1.0000   1.0000   1.0000   1.0000   1.0000   1.0000   1.0000
     0.0000   0.0000   0.0000   0.0000   0.0000   0.0000   0.0000   0.0000
     0.0000   0.0000

          k = 0.0000 0.2391 0.9349 ( 34658 PWs)   bands (ev):

   -84.5142 -84.5141 -84.4612 -84.4603 -50.6499 -50.6497 -50.6476 -50.6468
   -50.4874 -50.4874 -50.3903 -50.3903 -50.3696 -50.3688 -50.3567 -50.3556
   -44.0340 -16.2584 -16.0372 -16.0317 -15.7646 -15.6622 -15.6099 -15.5828
   -13.5034 -13.4984 -13.4210 -13.3698 -13.2237 -13.1656 -13.1192 -13.1071
   -13.0116 -12.9923 -12.9503 -12.9380  -3.3292  -3.2213  -2.9767  -2.8863
    -1.4733  -1.4058  -1.2900  -1.2541  -1.0337  -0.9819  -0.9247  -0.8368
    -0.5897  -0.4197  -0.2565  -0.2309   0.3202   0.3500   0.5287   0.5892
     0.8792   1.0040   1.0632   1.1009   1.1548   1.2415   1.3629   1.4299
     1.5789   1.6412   1.7395   1.7738   1.8127   1.8678   1.9622   2.0117
     2.1107   2.2610   2.3367   2.4893   2.7449   2.8982   2.9646   3.0273
     3.1056   3.1558   3.2208   3.2663   3.3120   3.3907   3.4561   3.6333
     3.7068   3.8185   4.1829   4.2182   4.3079   4.4693   4.4975   4.5150
     4.5473   4.7204   4.8204   4.8850   5.1048   5.1650   5.2860   5.3406
    11.8824  12.4818  12.9341  13.1779  13.4328  13.5074  13.5687  13.7027
    13.8262  13.9989

     occupation numbers 
     1.0000   1.0000   1.0000   1.0000   1.0000   1.0000   1.0000   1.0000
     1.0000   1.0000   1.0000   1.0000   1.0000   1.0000   1.0000   1.0000
     1.0000   1.0000   1.0000   1.0000   1.0000   1.0000   1.0000   1.0000
     1.0000   1.0000   1.0000   1.0000   1.0000   1.0000   1.0000   1.0000
     1.0000   1.0000   1.0000   1.0000   1.0000   1.0000   1.0000   1.0000
     1.0000   1.0000   1.0000   1.0000   1.0000   1.0000   1.0000   1.0000
     1.0000   1.0000   1.0000   1.0000   1.0000   1.0000   1.0000   1.0000
     1.0000   1.0000   1.0000   1.0000   1.0000   1.0000   1.0000   1.0000
     1.0000   1.0000   1.0000   1.0000   1.0000   1.0000   1.0000   1.0000
     1.0000   1.0000   1.0000   1.0000   1.0000   1.0000   1.0000   1.0000
     1.0000   1.0000   1.0000   1.0000   1.0000   1.0000   1.0000   1.0000
     1.0000   1.0000   1.0000   1.0000   1.0000   1.0000   1.0000   1.0000
     1.0000   1.0000   1.0000   1.0000   1.0000   1.0000   1.0000   1.0000
     0.0000   0.0000   0.0000   0.0000   0.0000   0.0000   0.0000   0.0000
     0.0000   0.0000

          k = 0.0000 0.4781 0.0000 ( 34707 PWs)   bands (ev):

   -84.5142 -84.5141 -84.4612 -84.4603 -50.6499 -50.6497 -50.6476 -50.6468
   -50.4874 -50.4874 -50.3903 -50.3903 -50.3696 -50.3688 -50.3566 -50.3556
   -44.0340 -16.2384 -16.0382 -16.0233 -15.9229 -15.7423 -15.6819 -15.5541
   -13.4397 -13.3701 -13.3224 -13.3042 -13.2584 -13.1779 -13.0921 -13.0697
   -13.0601 -12.9493 -12.9190 -12.8778  -3.5760  -3.2491  -2.9674  -2.6726
    -1.8323  -1.5991  -1.4498  -1.3743  -1.0898  -1.0022  -0.8703  -0.7792
    -0.6963  -0.5231  -0.2874  -0.1255   0.0430   0.2192   0.6525   0.6750
     0.7900   0.8190   0.8669   0.9112   0.9752   1.3427   1.5360   1.6524
     1.6583   1.7145   1.7961   1.8681   1.9335   1.9635   2.1335   2.1632
     2.4106   2.5376   2.6507   2.7258   2.7719   2.8142   2.8628   2.9607
     3.1101   3.1850   3.2159   3.2818   3.3951   3.4914   3.5764   3.6184
     3.7220   3.7343   4.1042   4.1503   4.2096   4.2592   4.2690   4.4630
     4.4895   4.6127   4.6892   4.8121   4.9707   5.3251   5.5538   5.5787
    10.6095  12.4212  12.4809  12.7997  13.3140  13.8220  13.8497  14.1237
    14.3552  14.5333

     occupation numbers 
     1.0000   1.0000   1.0000   1.0000   1.0000   1.0000   1.0000   1.0000
     1.0000   1.0000   1.0000   1.0000   1.0000   1.0000   1.0000   1.0000
     1.0000   1.0000   1.0000   1.0000   1.0000   1.0000   1.0000   1.0000
     1.0000   1.0000   1.0000   1.0000   1.0000   1.0000   1.0000   1.0000
     1.0000   1.0000   1.0000   1.0000   1.0000   1.0000   1.0000   1.0000
     1.0000   1.0000   1.0000   1.0000   1.0000   1.0000   1.0000   1.0000
     1.0000   1.0000   1.0000   1.0000   1.0000   1.0000   1.0000   1.0000
     1.0000   1.0000   1.0000   1.0000   1.0000   1.0000   1.0000   1.0000
     1.0000   1.0000   1.0000   1.0000   1.0000   1.0000   1.0000   1.0000
     1.0000   1.0000   1.0000   1.0000   1.0000   1.0000   1.0000   1.0000
     1.0000   1.0000   1.0000   1.0000   1.0000   1.0000   1.0000   1.0000
     1.0000   1.0000   1.0000   1.0000   1.0000   1.0000   1.0000   1.0000
     1.0000   1.0000   1.0000   1.0000   1.0000   1.0000   1.0000   1.0000
     0.0000   0.0000   0.0000   0.0000   0.0000   0.0000   0.0000   0.0000
     0.0000   0.0000

          k = 0.0000 0.4781 0.2337 ( 34704 PWs)   bands (ev):

   -84.5142 -84.5141 -84.4612 -84.4603 -50.6499 -50.6497 -50.6476 -50.6468
   -50.4874 -50.4874 -50.3903 -50.3903 -50.3696 -50.3688 -50.3566 -50.3556
   -44.0340 -16.2401 -16.0500 -16.0338 -15.8735 -15.7328 -15.6704 -15.5689
   -13.4459 -13.3999 -13.3246 -13.3036 -13.2490 -13.2039 -13.0904 -13.0827
   -13.0482 -12.9568 -12.9169 -12.8775  -3.5526  -3.2362  -2.9715  -2.6805
    -1.7858  -1.5651  -1.4474  -1.3499  -1.0859  -1.0249  -0.8197  -0.7723
    -0.6466  -0.5408  -0.3339  -0.1479   0.0566   0.2103   0.6213   0.6497
     0.7474   0.8550   0.9248   0.9360   1.0222   1.3715   1.5273   1.5689
     1.6312   1.7036   1.7913   1.8541   1.9323   1.9743   2.1173   2.2058
     2.4245   2.5456   2.5861   2.7237   2.7614   2.8237   2.8556   2.9622
     3.0552   3.1557   3.1750   3.3009   3.3902   3.4985   3.5755   3.5860
     3.6679   3.7647   4.1003   4.1600   4.2065   4.2706   4.3055   4.4862
     4.4981   4.6233   4.6627   4.7962   5.0150   5.3193   5.5362   5.5779
    10.7397  12.4710  12.5470  12.8779  13.3563  13.7264  13.9617  13.9933
    14.3049  14.3711

     occupation numbers 
     1.0000   1.0000   1.0000   1.0000   1.0000   1.0000   1.0000   1.0000
     1.0000   1.0000   1.0000   1.0000   1.0000   1.0000   1.0000   1.0000
     1.0000   1.0000   1.0000   1.0000   1.0000   1.0000   1.0000   1.0000
     1.0000   1.0000   1.0000   1.0000   1.0000   1.0000   1.0000   1.0000
     1.0000   1.0000   1.0000   1.0000   1.0000   1.0000   1.0000   1.0000
     1.0000   1.0000   1.0000   1.0000   1.0000   1.0000   1.0000   1.0000
     1.0000   1.0000   1.0000   1.0000   1.0000   1.0000   1.0000   1.0000
     1.0000   1.0000   1.0000   1.0000   1.0000   1.0000   1.0000   1.0000
     1.0000   1.0000   1.0000   1.0000   1.0000   1.0000   1.0000   1.0000
     1.0000   1.0000   1.0000   1.0000   1.0000   1.0000   1.0000   1.0000
     1.0000   1.0000   1.0000   1.0000   1.0000   1.0000   1.0000   1.0000
     1.0000   1.0000   1.0000   1.0000   1.0000   1.0000   1.0000   1.0000
[...]
     atom   24 type  3   force =     0.01348662   -0.02774715   -0.01469201
     atom   25 type  3   force =    -0.01373753    0.02883606   -0.01790877
     The non-local contrib.  to forces
     atom    1 type  2   force =     0.00000000    0.00000000    0.00000000
     atom    2 type  1   force =     0.10607612    0.06437649    0.12107549
     atom    3 type  1   force =     0.07322548   -0.00558234    0.10115295
     atom    4 type  1   force =    -0.10607612   -0.06437649   -0.12107549
     atom    5 type  1   force =    -0.07322548    0.00558234   -0.10115295
     atom    6 type  4   force =    -0.01615159   -0.00477830   -0.04667496
     atom    7 type  4   force =     0.02068000   -0.00330496   -0.02717278
     atom    8 type  4   force =     0.01615159    0.00477830    0.04667496
     atom    9 type  4   force =    -0.02068000    0.00330496    0.02717278
     atom   10 type  3   force =     0.32394280   -0.02143545   -1.48315178
     atom   11 type  3   force =    -0.19286843   -0.02017276   -1.46119129
     atom   12 type  3   force =    -0.32394280    0.02143545    1.48315178
     atom   13 type  3   force =     0.19286843    0.02017276    1.46119129
     atom   14 type  3   force =     1.20518786   -0.01045108   -0.55020263
     atom   15 type  3   force =    -1.17616968    0.01387260   -0.65993150
     atom   16 type  3   force =    -1.20518786    0.01045108    0.55020263
     atom   17 type  3   force =     1.17616968   -0.01387260    0.65993150
     atom   18 type  3   force =    -0.56200268   -1.09793997    0.73039378
     atom   19 type  3   force =     0.62581512    1.08868122    0.66928326
     atom   20 type  3   force =     0.52084291   -1.07046705   -0.72177145
     atom   21 type  3   force =    -0.57226941    1.07914792   -0.79799713
     atom   22 type  3   force =     0.56200268    1.09793997   -0.73039378
     atom   23 type  3   force =    -0.62581512   -1.08868122   -0.66928326
     atom   24 type  3   force =    -0.52084291    1.07046705    0.72177145
     atom   25 type  3   force =     0.57226941   -1.07914792    0.79799713
     The ionic contribution  to forces
     atom    1 type  2   force =    -0.00009020    0.00003825    0.00002950
     atom    2 type  1   force =    -1.93146443   -1.03110656   -0.66924898
     atom    3 type  1   force =    -9.84395770    1.71977288   -0.64180879
     atom    4 type  1   force =     1.93145586    1.03110531    0.66924689
     atom    5 type  1   force =     9.84394199   -1.71978179    0.64180218
     atom    6 type  4   force =    -4.44254424   -0.05128679    0.42455107
     atom    7 type  4   force =     1.44976273    1.61760485    0.93718767
     atom    8 type  4   force =     4.44260903    0.05128909   -0.42455761
     atom    9 type  4   force =    -1.44984306   -1.61761047   -0.93708014
     atom   10 type  3   force =   -11.57347193    0.08576924    2.86965937
     atom   11 type  3   force =     6.05218556    2.61982958    1.93090627
     atom   12 type  3   force =    11.57341270   -0.08576578   -2.86979201
     atom   13 type  3   force =    -6.05205572   -2.61985362   -1.93097206
     atom   14 type  3   force =     0.50921709   -2.66286717    4.09864643
     atom   15 type  3   force =    -2.99333491   -0.09963672    6.51502041
     atom   16 type  3   force =    -0.50906327    2.66283704   -4.09871139
     atom   17 type  3   force =     2.99320692    0.09963718   -6.51504452
     atom   18 type  3   force =    -5.31995402    3.34254175   -2.86971401
     atom   19 type  3   force =    -1.48062755   -2.98726598   -0.72979354
     atom   20 type  3   force =     4.84950109    3.20006875    2.72517874
     atom   21 type  3   force =    -1.41160212   -2.73173306    3.18830914
     atom   22 type  3   force =     5.31995119   -3.34252555    2.86978662
     atom   23 type  3   force =     1.48064987    2.98726659    0.72979386
     atom   24 type  3   force =    -4.84950168   -3.20008455   -2.72510472
     atom   25 type  3   force =     1.41161680    2.73175751   -3.18829038
     The local contribution  to forces
     atom    1 type  2   force =    -0.00463141   -0.00018109   -0.00221891
     atom    2 type  1   force =     1.82063288    0.96521409    0.54475471
     atom    3 type  1   force =     9.76163690   -1.72005146    0.53661266
     atom    4 type  1   force =    -1.83896029   -0.97606499   -0.55505463
     atom    5 type  1   force =    -9.78369424    1.70896462   -0.54759923
     atom    6 type  4   force =     4.45779920    0.05576214   -0.38592105
     atom    7 type  4   force =    -1.46700153   -1.61378892   -0.91285339
     atom    8 type  4   force =    -4.45769808   -0.05582803    0.38583824
     atom    9 type  4   force =     1.46699751    1.61364237    0.91298828
     atom   10 type  3   force =    11.24455047   -0.06546442   -1.36351580
     atom   11 type  3   force =    -5.86096940   -2.60093968   -0.44632219
     atom   12 type  3   force =   -11.24889574    0.06276600    1.36225784
     atom   13 type  3   force =     5.85579261    2.59808818    0.44328689
     atom   14 type  3   force =    -1.73859519    2.67200616   -3.54141637
     atom   15 type  3   force =     4.18998846    0.08416885   -5.84786143
     atom   16 type  3   force =     1.73557663   -2.67450449    3.53917300
     atom   17 type  3   force =    -4.19356294   -0.08684174    5.84496189
     atom   18 type  3   force =     5.88914680   -2.22564272    2.12922737
     atom   19 type  3   force =     0.84247207    1.87662648    0.05097803
     atom   20 type  3   force =    -5.38234047   -2.11191053   -1.99640775
     atom   21 type  3   force =     1.99023981    1.63148390   -2.38028174
     atom   22 type  3   force =    -5.89445784    2.22395381   -2.13170500
     atom   23 type  3   force =    -0.84740648   -1.87880924   -0.05315667
     atom   24 type  3   force =     5.37674574    2.10942911    1.99347969
     atom   25 type  3   force =    -1.99555063   -1.63364578    2.37850061
     The core correction contribution to forces
     atom    1 type  2   force =     0.00000000    0.00000000    0.00000000
     atom    2 type  1   force =    -0.00155374   -0.00053716   -0.00046789
     atom    3 type  1   force =    -0.00013505    0.00037864    0.00067773
     atom    4 type  1   force =     0.00217859    0.00091005    0.00081333
     atom    5 type  1   force =     0.00086726   -0.00000715   -0.00031729
     atom    6 type  4   force =     0.00154933    0.00027352    0.00310967
     atom    7 type  4   force =    -0.00156101   -0.00029779    0.00113106
     atom    8 type  4   force =    -0.00153462   -0.00026689   -0.00310146
     atom    9 type  4   force =     0.00157719    0.00030367   -0.00112425
     atom   10 type  3   force =    -0.00339594    0.00019693    0.01230543
     atom   11 type  3   force =     0.00229884    0.00014694    0.01207586
     atom   12 type  3   force =     0.00339105   -0.00019847   -0.01230963
     atom   13 type  3   force =    -0.00230237   -0.00014820   -0.01207845
     atom   14 type  3   force =    -0.00962371    0.00017044    0.00509101
     atom   15 type  3   force =     0.00947675   -0.00012291    0.00598269
     atom   16 type  3   force =     0.00961784   -0.00017174   -0.00509229
     atom   17 type  3   force =    -0.00948402    0.00012125   -0.00598447
     atom   18 type  3   force =     0.00466917    0.00904043   -0.00633240
     atom   19 type  3   force =    -0.00516842   -0.00903297   -0.00585409
     atom   20 type  3   force =    -0.00428895    0.00880065    0.00626752
     atom   21 type  3   force =     0.00471733   -0.00880723    0.00699246
     atom   22 type  3   force =    -0.00467309   -0.00904478    0.00633190
     atom   23 type  3   force =     0.00516326    0.00902858    0.00585010
     atom   24 type  3   force =     0.00428660   -0.00880206   -0.00626798
     atom   25 type  3   force =    -0.00472130    0.00880590   -0.00699618
     The Hubbard contrib.    to forces
     atom    1 type  2   force =     0.00000000    0.00000000    0.00000000
     atom    2 type  1   force =     0.00000000    0.00000000    0.00000000
     atom    3 type  1   force =     0.00000000    0.00000000    0.00000000
     atom    4 type  1   force =     0.00000000    0.00000000    0.00000000
     atom    5 type  1   force =     0.00000000    0.00000000    0.00000000
     atom    6 type  4   force =     0.00000000    0.00000000    0.00000000
     atom    7 type  4   force =     0.00000000    0.00000000    0.00000000
     atom    8 type  4   force =     0.00000000    0.00000000    0.00000000
     atom    9 type  4   force =     0.00000000    0.00000000    0.00000000
     atom   10 type  3   force =     0.00000000    0.00000000    0.00000000
     atom   11 type  3   force =     0.00000000    0.00000000    0.00000000
     atom   12 type  3   force =     0.00000000    0.00000000    0.00000000
     atom   13 type  3   force =     0.00000000    0.00000000    0.00000000
     atom   14 type  3   force =     0.00000000    0.00000000    0.00000000
     atom   15 type  3   force =     0.00000000    0.00000000    0.00000000
     atom   16 type  3   force =     0.00000000    0.00000000    0.00000000
     atom   17 type  3   force =     0.00000000    0.00000000    0.00000000
     atom   18 type  3   force =     0.00000000    0.00000000    0.00000000
     atom   19 type  3   force =     0.00000000    0.00000000    0.00000000
     atom   20 type  3   force =     0.00000000    0.00000000    0.00000000
     atom   21 type  3   force =     0.00000000    0.00000000    0.00000000
     atom   22 type  3   force =     0.00000000    0.00000000    0.00000000
     atom   23 type  3   force =     0.00000000    0.00000000    0.00000000
     atom   24 type  3   force =     0.00000000    0.00000000    0.00000000
     atom   25 type  3   force =     0.00000000    0.00000000    0.00000000
     The SCF correction term to forces
     atom    1 type  2   force =     0.00000001    0.00000000    0.00000000
     atom    2 type  1   force =     0.00000100    0.00000057   -0.00000046
     atom    3 type  1   force =     0.00000072    0.00000027   -0.00000085
     atom    4 type  1   force =    -0.00000095   -0.00000054    0.00000049
     atom    5 type  1   force =    -0.00000068   -0.00000025    0.00000087
     atom    6 type  4   force =    -0.00000076   -0.00000004    0.00000057
     atom    7 type  4   force =    -0.00000166   -0.00000010   -0.00000035
     atom    8 type  4   force =     0.00000076    0.00000004   -0.00000057
     atom    9 type  4   force =     0.00000166    0.00000010    0.00000035
     atom   10 type  3   force =    -0.00000156   -0.00000013   -0.00000047
     atom   11 type  3   force =    -0.00000404    0.00000002    0.00000330
     atom   12 type  3   force =     0.00000156    0.00000014    0.00000047
     atom   13 type  3   force =     0.00000404   -0.00000002   -0.00000329
     atom   14 type  3   force =     0.00000071    0.00000011    0.00000133
     atom   15 type  3   force =     0.00000565    0.00000020   -0.00000104
     atom   16 type  3   force =    -0.00000071   -0.00000011   -0.00000133
     atom   17 type  3   force =    -0.00000565   -0.00000020    0.00000104
     atom   18 type  3   force =     0.00000010    0.00000576    0.00000202
     atom   19 type  3   force =    -0.00000193    0.00000297   -0.00000317
     atom   20 type  3   force =    -0.00000004    0.00000602   -0.00000230
     atom   21 type  3   force =     0.00000187    0.00000303    0.00000299
     atom   22 type  3   force =    -0.00000010   -0.00000576   -0.00000202
     atom   23 type  3   force =     0.00000193   -0.00000297    0.00000317
     atom   24 type  3   force =     0.00000004   -0.00000601    0.00000230
     atom   25 type  3   force =    -0.00000187   -0.00000303   -0.00000299

     Total force =     0.143737     Total SCF correction =     0.000020


     Computing stress (Cartesian axis) and pressure


     negative rho (up, down):  0.000E+00 9.148E-04
          total   stress  (Ry/bohr**3)                   (kbar)     P=       56.05
   0.00031403  -0.00002809  -0.00002597           46.20       -4.13       -3.82
  -0.00002809   0.00032895   0.00001799           -4.13       48.39        2.65
  -0.00002597   0.00001799   0.00050007           -3.82        2.65       73.56

     kinetic stress (kbar)  27945.16     19.21      2.45
                               19.21  28151.84     -0.34
                                2.45     -0.34  27950.11

     local   stress (kbar)  -4287.10   2977.48    958.37
                             2977.48 -14998.87  -1028.85
                              958.37  -1028.85  -7238.31

     nonloc. stress (kbar)  -7140.01      1.46     -0.65
                                1.46  -7078.87     -2.29
                               -0.65     -2.29  -7067.68

     hartree stress (kbar)  13030.71  -1196.53   -366.61
                            -1196.53  18789.09    414.40
                             -366.61    414.40  15010.25

     exc-cor stress (kbar)  -2958.36     -1.68     -0.74
                               -1.68  -2965.43      0.39
                               -0.74      0.39  -2963.69

     corecor stress (kbar)  -3278.18      0.68      0.61
                                0.68  -3277.09      0.05
                                0.61      0.05  -3279.47

     ewald   stress (kbar) -23266.03  -1804.76   -597.26
                            -1804.76 -18572.29    619.28
                             -597.26    619.28 -22337.63

     hubbard stress (kbar)      0.00      0.00      0.00
                                0.00      0.00      0.00
                                0.00      0.00      0.00

     DFT-D   stress (kbar)      0.00      0.00      0.00
                                0.00      0.00      0.00
                                0.00      0.00      0.00

     XDM     stress (kbar)      0.00      0.00      0.00
                                0.00      0.00      0.00
                                0.00      0.00      0.00

     dft-nl  stress (kbar)      0.00      0.00      0.00
                                0.00      0.00      0.00
                                0.00      0.00      0.00

     TS-vdW  stress (kbar)      0.00      0.00      0.00
                                0.00      0.00      0.00
                                0.00      0.00      0.00



     init_run     :    181.55s CPU    185.47s WALL (       1 calls)
     electrons    :  12211.28s CPU  12352.60s WALL (       1 calls)
     forces       :    115.12s CPU    116.84s WALL (       1 calls)
     stress       :    753.15s CPU    759.27s WALL (       1 calls)

     Called by init_run:
     wfcinit      :    172.05s CPU    175.02s WALL (       1 calls)
     wfcinit:atom :      3.42s CPU      3.45s WALL (     316 calls)
     wfcinit:wfcr :    158.69s CPU    161.53s WALL (     316 calls)
     potinit      :      3.33s CPU      3.50s WALL (       1 calls)
     hinit0       :      3.25s CPU      3.39s WALL (       1 calls)

     Called by electrons:
     c_bands      :  10963.39s CPU  11059.11s WALL (      23 calls)
     sum_band     :   1176.50s CPU   1208.60s WALL (      23 calls)
     v_of_rho     :     21.81s CPU     22.59s WALL (      24 calls)
     v_h          :      0.97s CPU      1.02s WALL (      24 calls)
     v_xc         :     22.66s CPU     23.46s WALL (      26 calls)
     newd         :     34.07s CPU     46.95s WALL (      24 calls)
     PAW_pot      :     10.32s CPU     10.33s WALL (      24 calls)
     mix_rho      :      5.65s CPU      5.98s WALL (      23 calls)

     Called by c_bands:
     init_us_2    :    213.84s CPU    214.93s WALL (   15484 calls)
     cegterg      :  10638.05s CPU  10731.54s WALL (    7268 calls)

     Called by sum_band:
     sum_band:wei :      0.37s CPU      0.37s WALL (      23 calls)
     sum_band:loo :   1070.52s CPU   1085.69s WALL (      23 calls)
     sum_band:buf :     52.05s CPU     52.37s WALL (    7268 calls)
     sum_band:ini :    101.99s CPU    102.44s WALL (    7268 calls)
     sum_band:cal :    474.98s CPU    478.46s WALL (    7268 calls)
     sum_band:bec :      4.19s CPU      4.26s WALL (    7268 calls)
     addusdens    :     99.82s CPU    116.34s WALL (      23 calls)
     addusd:skk   :      0.70s CPU      0.71s WALL (      69 calls)
     addusd:dgemm :     47.88s CPU     61.86s WALL (     138 calls)
     addusd:qvan2 :     49.54s CPU     49.74s WALL (     138 calls)

     Called by *egterg:
     cdiaghg      :    747.30s CPU    764.64s WALL (   32472 calls)
     cegterg:over :   1101.44s CPU   1110.53s WALL (   25204 calls)
     cegterg:upda :    647.90s CPU    648.99s WALL (   25204 calls)
     cegterg:last :   1338.21s CPU   1339.73s WALL (   14097 calls)
     h_psi        :   4941.00s CPU   5001.78s WALL (   32788 calls)
     s_psi        :   1308.84s CPU   1310.58s WALL (   32788 calls)
     g_psi        :     11.64s CPU     11.75s WALL (   25204 calls)

     Called by h_psi:
     h_psi:calbec :   1384.77s CPU   1394.67s WALL (   32788 calls)
     vloc_psi     :   2043.97s CPU   2091.24s WALL (   32788 calls)
     add_vuspsi   :   1392.49s CPU   1394.58s WALL (   32788 calls)

     General routines
     calbec       :   1967.01s CPU   1981.53s WALL (   41636 calls)
     fft          :     18.14s CPU     19.32s WALL (     638 calls)
     ffts         :      0.33s CPU      0.37s WALL (      94 calls)
     fftw         :   2303.49s CPU   2356.91s WALL ( 4828140 calls)
     interpolate  :      1.50s CPU      1.61s WALL (      48 calls)

     Parallel routines
     fft_scatt_xy :    212.49s CPU    217.32s WALL ( 4828872 calls)
     fft_scatt_yz :    719.56s CPU    739.13s WALL ( 4828872 calls)

     PAW routines
     PAW_pot      :     10.32s CPU     10.33s WALL (      24 calls)
     PAW_symme    :      0.08s CPU      0.08s WALL (      47 calls)

     PWSCF        :      3h41m CPU      3h43m WALL


   This run was terminated on:  20:43:56  16Dec2022            

=------------------------------------------------------------------------------=
   JOB DONE.
=------------------------------------------------------------------------------=
Note: The following floating-point exceptions are signalling: IEEE_INVALID_FLAG IEEE_UNDERFLOW_FLAG IEEE_DENORMAL
Note: The following floating-point exceptions are signalling: IEEE_INVALID_FLAG IEEE_DENORMAL
Note: The following floating-point exceptions are signalling: IEEE_DENORMAL
Note: The following floating-point exceptions are signalling: IEEE_DENORMAL
Note: The following floating-point exceptions are signalling: IEEE_DENORMAL
Note: The following floating-point exceptions are signalling: IEEE_DENORMAL
Note: The following floating-point exceptions are signalling: IEEE_DENORMAL
Note: The following floating-point exceptions are signalling: IEEE_DENORMAL
Note: The following floating-point exceptions are signalling: IEEE_DENORMAL
Note: The following floating-point exceptions are signalling: IEEE_DENORMAL
Note: The following floating-point exceptions are signalling: IEEE_DENORMAL
Note: The following floating-point exceptions are signalling: IEEE_DENORMAL
Note: The following floating-point exceptions are signalling: IEEE_DENORMAL
Note: The following floating-point exceptions are signalling: IEEE_DENORMAL
Note: The following floating-point exceptions are signalling: IEEE_INVALID_FLAG IEEE_DENORMAL
Note: The following floating-point exceptions are signalling: IEEE_DENORMAL
Note: The following floating-point exceptions are signalling: IEEE_DENORMAL
Note: The following floating-point exceptions are signalling: IEEE_DENORMAL
Note: The following floating-point exceptions are signalling: IEEE_DENORMAL
Note: The following floating-point exceptions are signalling: IEEE_DENORMAL
Note: The following floating-point exceptions are signalling: IEEE_DENORMAL
Note: The following floating-point exceptions are signalling: IEEE_DENORMAL
Note: The following floating-point exceptions are signalling: IEEE_DENORMAL
