
     Program PWSCF v.6.7MaX starts on 16Dec2022 at  3:56:19 

     This program is part of the open-source Quantum ESPRESSO suite
     for quantum simulation of materials; please cite
         "P. Giannozzi et al., J. Phys.:Condens. Matter 21 395502 (2009);
         "P. Giannozzi et al., J. Phys.:Condens. Matter 29 465901 (2017);
          URL http://www.quantum-espresso.org", 
     in publications or presentations arising from this work. More details at
     http://www.quantum-espresso.org/quote

     Parallel version (MPI), running on    24 processors

     MPI processes distributed on     1 nodes
     R & G space division:  proc/nbgrp/npool/nimage =      24
     Reading input from scale_1da-04.in

     Current dimensions of program PWSCF are:
     Max number of different atomic species (ntypx) = 10
     Max number of k-points (npk) =  40000
     Max angular momentum in pseudopotentials (lmaxx) =  3
     Message from routine read_pp_mesh:
     mesh size missing, using the one in header
     file Fe.pbe-spn-kjpaw_psl.0.2.1.UPF: wavefunction(s)  3D renormalized
     file O.pbe-n-kjpaw_psl.0.1.UPF: wavefunction(s)  2P renormalized

     Subspace diagonalization in iterative solution of the eigenvalue problem:
     a serial algorithm will be used

     Message from routine setup:
     using ibrav=0 with symmetry is DISCOURAGED, use correct ibrav instead

     Parallelization info
     --------------------
     sticks:   dense  smooth     PW     G-vecs:    dense   smooth      PW
     Min         855     316     85                55751    12570    1765
     Max         856     317     87                55754    12573    1766
     Sum       20531    7599   2057              1338043   301725   42371



     bravais-lattice index     =            0
     lattice parameter (alat)  =      20.3206  a.u.
     unit-cell volume          =    2232.3697 (a.u.)^3
     number of atoms/cell      =           25
     number of atomic types    =            4
     number of electrons       =       189.00
     number of Kohn-Sham states=          114
     kinetic-energy cutoff     =     100.0000  Ry
     charge density cutoff     =    1080.0000  Ry
     scf convergence threshold =      2.0E-10
     mixing beta               =       0.4000
     number of iterations used =            8  plain     mixing
     Exchange-correlation= PBE
                           (   1   4   3   4   0   0   0)

     celldm(1)=  20.320559  celldm(2)=   0.000000  celldm(3)=   0.000000
     celldm(4)=   0.000000  celldm(5)=   0.000000  celldm(6)=   0.000000

     crystal axes: (cart. coord. in units of alat)
               a(1) = (   1.000000   0.000000   0.000000 )  
               a(2) = (   0.000000   0.578313   0.000000 )  
               a(3) = (   0.000000   0.000000   0.460041 )  

     reciprocal axes: (cart. coord. in units 2 pi/alat)
               b(1) = (  1.000000  0.000000  0.000000 )  
               b(2) = (  0.000000  1.729168  0.000000 )  
               b(3) = (  0.000000  0.000000  2.173720 )  


     PseudoPot. # 1 for Fe read from file:
     /opt/QEpot/SSSP_precision_pseudos/Fe.pbe-spn-kjpaw_psl.0.2.1.UPF
     MD5 check sum: e86618425769142926afa95317d90200
     Pseudo is Projector augmented-wave + core cor, Zval = 16.0
     Generated using "atomic" code by A. Dal Corso  v.5.0.99 svn rev. 10869
     Shape of augmentation charge: PSQ
     Using radial grid of 1191 points,  6 beta functions with: 
                l(1) =   0
                l(2) =   0
                l(3) =   1
                l(4) =   1
                l(5) =   2
                l(6) =   2
     Q(r) pseudized with 0 coefficients 


     PseudoPot. # 2 for Na read from file:
     /opt/QEpot/SSSP_precision_pseudos/Na_ONCV_PBE-1.0.oncvpsp.upf
     MD5 check sum: 24a298df0a6742ae313db96548fdb2a4
     Pseudo is Norm-conserving, Zval =  9.0
     Generated using ONCVPSP code by D. R. Hamann
     Using radial grid of 1992 points,  4 beta functions with: 
                l(1) =   0
                l(2) =   0
                l(3) =   1
                l(4) =   1

     PseudoPot. # 3 for O  read from file:
     /opt/QEpot/SSSP_precision_pseudos/O.pbe-n-kjpaw_psl.0.1.UPF
     MD5 check sum: 0234752ac141de4415c5fc33072bef88
     Pseudo is Projector augmented-wave + core cor, Zval =  6.0
     Generated using "atomic" code by A. Dal Corso  v.5.0.99 svn rev. 10869
     Shape of augmentation charge: BESSEL
     Using radial grid of 1095 points,  4 beta functions with: 
                l(1) =   0
                l(2) =   0
                l(3) =   1
                l(4) =   1
     Q(r) pseudized with 0 coefficients 


     PseudoPot. # 4 for P  read from file:
     /opt/QEpot/SSSP_precision_pseudos/P.pbe-n-rrkjus_psl.1.0.0.UPF
     MD5 check sum: 8b930f418f0a4573dca56cd030ffe088
     Pseudo is Ultrasoft + core correction, Zval =  5.0
     Generated using "atomic" code by A. Dal Corso  v.5.1
     Using radial grid of 1147 points,  6 beta functions with: 
                l(1) =   0
                l(2) =   0
                l(3) =   1
                l(4) =   1
                l(5) =   2
                l(6) =   2
     Q(r) pseudized with 0 coefficients 


     atomic species   valence    mass     pseudopotential
        Fe            16.00    55.84500     Fe( 1.00)
        Na             9.00    22.98977     Na( 1.00)
        O              6.00    15.99940     O ( 1.00)
        P              5.00    30.97376     P ( 1.00)

     Starting magnetic structure 
     atomic species   magnetization
        Fe           0.312
        Na           0.000
        O            0.000
        P            0.000

      2 Sym. Ops., with inversion, found


                                    s                        frac. trans.

      isym =  1     identity                                     

 cryst.   s( 1) = (     1          0          0      )
                  (     0          1          0      )
                  (     0          0          1      )

 cart.    s( 1) = (  1.0000000  0.0000000  0.0000000 )
                  (  0.0000000  1.0000000  0.0000000 )
                  (  0.0000000  0.0000000  1.0000000 )


      isym =  2     inversion                                    

 cryst.   s( 2) = (    -1          0          0      )
                  (     0         -1          0      )
                  (     0          0         -1      )

 cart.    s( 2) = ( -1.0000000  0.0000000  0.0000000 )
                  (  0.0000000 -1.0000000  0.0000000 )
                  (  0.0000000  0.0000000 -1.0000000 )


   Cartesian axes

     site n.     atom                  positions (alat units)
         1           Na  tau(   1) = (   0.5000030   0.0000000   0.2300218  )
         2           Fe  tau(   2) = (   0.2766340   0.4311137   0.4579895  )
         3           Fe  tau(   3) = (   0.2132450   0.1466260   0.2254444  )
         4           Fe  tau(   4) = (   0.7233710   0.1472020   0.0020541  )
         5           Fe  tau(   5) = (   0.7867610   0.4316897   0.2345992  )
         6           P   tau(   6) = (   0.1084050   0.4344032   0.2047623  )
         7           P   tau(   7) = (   0.3918990   0.1469244   0.4348922  )
         8           P   tau(   8) = (   0.8916000   0.1439126   0.2552812  )
         9           P   tau(   9) = (   0.6081070   0.4313913   0.0251509  )
        10           O   tau(  10) = (   0.1318770   0.4347166   0.3461991  )
        11           O   tau(  11) = (   0.3711480   0.1423424   0.1170164  )
        12           O   tau(  12) = (   0.8681290   0.1435991   0.1138445  )
        13           O   tau(  13) = (   0.6288580   0.4359733   0.3430276  )
        14           O   tau(  14) = (   0.4620270   0.4366337   0.0564824  )
        15           O   tau(  15) = (   0.0373150   0.1436622   0.2833161  )
        16           O   tau(  16) = (   0.5379780   0.1416820   0.4035611  )
        17           O   tau(  17) = (   0.9626910   0.4346536   0.1767274  )
        18           O   tau(  18) = (   0.1805980   0.5457810   0.1388946  )
        19           O   tau(  19) = (   0.3233670   0.0345068   0.3658755  )
        20           O   tau(  20) = (   0.8213290   0.2573180   0.3203600  )
        21           O   tau(  21) = (   0.6776840   0.3180021   0.0880762  )
        22           O   tau(  22) = (   0.8194080   0.0325347   0.3211490  )
        23           O   tau(  23) = (   0.6766390   0.5438089   0.0941681  )
        24           O   tau(  24) = (   0.1786770   0.3209977   0.1396836  )
        25           O   tau(  25) = (   0.3223220   0.2603136   0.3719674  )

   Crystallographic axes

     site n.     atom                  positions (cryst. coord.)
         1           Na  tau(   1) = (  0.5000030  0.0000000  0.5000030  )
         2           Fe  tau(   2) = (  0.2766340  0.7454680  0.9955410  )
         3           Fe  tau(   3) = (  0.2132450  0.2535410  0.4900530  )
         4           Fe  tau(   4) = (  0.7233710  0.2545370  0.0044650  )
         5           Fe  tau(   5) = (  0.7867610  0.7464640  0.5099530  )
         6           P   tau(   6) = (  0.1084050  0.7511560  0.4450960  )
         7           P   tau(   7) = (  0.3918990  0.2540570  0.9453340  )
         8           P   tau(   8) = (  0.8916000  0.2488490  0.5549100  )
         9           P   tau(   9) = (  0.6081070  0.7459480  0.0546710  )
        10           O   tau(  10) = (  0.1318770  0.7516980  0.7525400  )
        11           O   tau(  11) = (  0.3711480  0.2461340  0.2543610  )
        12           O   tau(  12) = (  0.8681290  0.2483070  0.2474660  )
        13           O   tau(  13) = (  0.6288580  0.7538710  0.7456460  )
        14           O   tau(  14) = (  0.4620270  0.7550130  0.1227770  )
        15           O   tau(  15) = (  0.0373150  0.2484160  0.6158500  )
        16           O   tau(  16) = (  0.5379780  0.2449920  0.8772290  )
        17           O   tau(  17) = (  0.9626910  0.7515890  0.3841560  )
        18           O   tau(  18) = (  0.1805980  0.9437470  0.3019180  )
        19           O   tau(  19) = (  0.3233670  0.0596680  0.7953110  )
        20           O   tau(  20) = (  0.8213290  0.4449460  0.6963730  )
        21           O   tau(  21) = (  0.6776840  0.5498790  0.1914530  )
        22           O   tau(  22) = (  0.8194080  0.0562580  0.6980880  )
        23           O   tau(  23) = (  0.6766390  0.9403370  0.2046950  )
        24           O   tau(  24) = (  0.1786770  0.5550590  0.3036330  )
        25           O   tau(  25) = (  0.3223220  0.4501260  0.8085530  )

     number of k points=   158  Marzari-Vanderbilt smearing, width (Ry)=  0.0073
                       cart. coord. in units 2pi/alat
        k(    1) = (   0.0000000   0.0000000   0.0000000), wk =   0.0031746
        k(    2) = (   0.0000000   0.0000000   0.2415245), wk =   0.0063492
        k(    3) = (   0.0000000   0.0000000   0.4830489), wk =   0.0063492
        k(    4) = (   0.0000000   0.0000000   0.7245734), wk =   0.0063492
        k(    5) = (   0.0000000   0.0000000   0.9660979), wk =   0.0063492
        k(    6) = (   0.0000000   0.2470240   0.0000000), wk =   0.0063492
        k(    7) = (   0.0000000   0.2470240   0.2415245), wk =   0.0063492
        k(    8) = (   0.0000000   0.2470240   0.4830489), wk =   0.0063492
        k(    9) = (   0.0000000   0.2470240   0.7245734), wk =   0.0063492
        k(   10) = (   0.0000000   0.2470240   0.9660979), wk =   0.0063492
        k(   11) = (   0.0000000   0.4940480   0.0000000), wk =   0.0063492
        k(   12) = (   0.0000000   0.4940480   0.2415245), wk =   0.0063492
        k(   13) = (   0.0000000   0.4940480   0.4830489), wk =   0.0063492
        k(   14) = (   0.0000000   0.4940480   0.7245734), wk =   0.0063492
        k(   15) = (   0.0000000   0.4940480   0.9660979), wk =   0.0063492
        k(   16) = (   0.0000000   0.7410720   0.0000000), wk =   0.0063492
        k(   17) = (   0.0000000   0.7410720   0.2415245), wk =   0.0063492
        k(   18) = (   0.0000000   0.7410720   0.4830489), wk =   0.0063492
        k(   19) = (   0.0000000   0.7410720   0.7245734), wk =   0.0063492
        k(   20) = (   0.0000000   0.7410720   0.9660979), wk =   0.0063492
        k(   21) = (   0.2000000   0.0000000   0.0000000), wk =   0.0063492
        k(   22) = (   0.2000000   0.0000000   0.2415245), wk =   0.0063492
        k(   23) = (   0.2000000   0.0000000   0.4830489), wk =   0.0063492
        k(   24) = (   0.2000000   0.0000000   0.7245734), wk =   0.0063492
        k(   25) = (   0.2000000   0.0000000   0.9660979), wk =   0.0063492
        k(   26) = (   0.2000000   0.2470240   0.0000000), wk =   0.0063492
        k(   27) = (   0.2000000   0.2470240   0.2415245), wk =   0.0063492
        k(   28) = (   0.2000000   0.2470240   0.4830489), wk =   0.0063492
        k(   29) = (   0.2000000   0.2470240   0.7245734), wk =   0.0063492
        k(   30) = (   0.2000000   0.2470240   0.9660979), wk =   0.0063492
        k(   31) = (   0.2000000   0.4940480   0.0000000), wk =   0.0063492
        k(   32) = (   0.2000000   0.4940480   0.2415245), wk =   0.0063492
        k(   33) = (   0.2000000   0.4940480   0.4830489), wk =   0.0063492
        k(   34) = (   0.2000000   0.4940480   0.7245734), wk =   0.0063492
        k(   35) = (   0.2000000   0.4940480   0.9660979), wk =   0.0063492
        k(   36) = (   0.2000000   0.7410720   0.0000000), wk =   0.0063492
        k(   37) = (   0.2000000   0.7410720   0.2415245), wk =   0.0063492
        k(   38) = (   0.2000000   0.7410720   0.4830489), wk =   0.0063492
        k(   39) = (   0.2000000   0.7410720   0.7245734), wk =   0.0063492
        k(   40) = (   0.2000000   0.7410720   0.9660979), wk =   0.0063492
        k(   41) = (   0.4000000   0.0000000   0.0000000), wk =   0.0063492
        k(   42) = (   0.4000000   0.0000000   0.2415245), wk =   0.0063492
        k(   43) = (   0.4000000   0.0000000   0.4830489), wk =   0.0063492
        k(   44) = (   0.4000000   0.0000000   0.7245734), wk =   0.0063492
        k(   45) = (   0.4000000   0.0000000   0.9660979), wk =   0.0063492
        k(   46) = (   0.4000000   0.2470240   0.0000000), wk =   0.0063492
        k(   47) = (   0.4000000   0.2470240   0.2415245), wk =   0.0063492
        k(   48) = (   0.4000000   0.2470240   0.4830489), wk =   0.0063492
        k(   49) = (   0.4000000   0.2470240   0.7245734), wk =   0.0063492
        k(   50) = (   0.4000000   0.2470240   0.9660979), wk =   0.0063492
        k(   51) = (   0.4000000   0.4940480   0.0000000), wk =   0.0063492
        k(   52) = (   0.4000000   0.4940480   0.2415245), wk =   0.0063492
        k(   53) = (   0.4000000   0.4940480   0.4830489), wk =   0.0063492
        k(   54) = (   0.4000000   0.4940480   0.7245734), wk =   0.0063492
        k(   55) = (   0.4000000   0.4940480   0.9660979), wk =   0.0063492
        k(   56) = (   0.4000000   0.7410720   0.0000000), wk =   0.0063492
        k(   57) = (   0.4000000   0.7410720   0.2415245), wk =   0.0063492
        k(   58) = (   0.4000000   0.7410720   0.4830489), wk =   0.0063492
        k(   59) = (   0.4000000   0.7410720   0.7245734), wk =   0.0063492
        k(   60) = (   0.4000000   0.7410720   0.9660979), wk =   0.0063492
        k(   61) = (   0.0000000   0.2470240  -0.2415245), wk =   0.0063492
        k(   62) = (   0.0000000   0.2470240  -0.4830489), wk =   0.0063492
        k(   63) = (   0.0000000   0.2470240  -0.7245734), wk =   0.0063492
        k(   64) = (   0.0000000   0.2470240  -0.9660979), wk =   0.0063492
        k(   65) = (   0.0000000   0.4940480  -0.2415245), wk =   0.0063492
        k(   66) = (   0.0000000   0.4940480  -0.4830489), wk =   0.0063492
        k(   67) = (   0.0000000   0.4940480  -0.7245734), wk =   0.0063492
        k(   68) = (   0.0000000   0.4940480  -0.9660979), wk =   0.0063492
        k(   69) = (   0.0000000   0.7410720  -0.2415245), wk =   0.0063492
        k(   70) = (   0.0000000   0.7410720  -0.4830489), wk =   0.0063492
        k(   71) = (   0.0000000   0.7410720  -0.7245734), wk =   0.0063492
        k(   72) = (   0.0000000   0.7410720  -0.9660979), wk =   0.0063492
        k(   73) = (   0.2000000   0.0000000  -0.2415245), wk =   0.0063492
        k(   74) = (   0.2000000   0.0000000  -0.4830489), wk =   0.0063492
        k(   75) = (   0.2000000   0.0000000  -0.7245734), wk =   0.0063492
        k(   76) = (   0.2000000   0.0000000  -0.9660979), wk =   0.0063492
        k(   77) = (  -0.2000000   0.2470240   0.0000000), wk =   0.0063492
        k(   78) = (  -0.2000000   0.2470240  -0.2415245), wk =   0.0063492
        k(   79) = (   0.2000000  -0.2470240  -0.2415245), wk =   0.0063492
        k(   80) = (  -0.2000000  -0.2470240   0.2415245), wk =   0.0063492
        k(   81) = (  -0.2000000   0.2470240  -0.4830489), wk =   0.0063492
        k(   82) = (   0.2000000  -0.2470240  -0.4830489), wk =   0.0063492
        k(   83) = (  -0.2000000  -0.2470240   0.4830489), wk =   0.0063492
        k(   84) = (  -0.2000000   0.2470240  -0.7245734), wk =   0.0063492
        k(   85) = (   0.2000000  -0.2470240  -0.7245734), wk =   0.0063492
        k(   86) = (  -0.2000000  -0.2470240   0.7245734), wk =   0.0063492
        k(   87) = (  -0.2000000   0.2470240  -0.9660979), wk =   0.0063492
        k(   88) = (   0.2000000  -0.2470240  -0.9660979), wk =   0.0063492
        k(   89) = (  -0.2000000  -0.2470240   0.9660979), wk =   0.0063492
        k(   90) = (  -0.2000000   0.4940480   0.0000000), wk =   0.0063492
        k(   91) = (  -0.2000000   0.4940480  -0.2415245), wk =   0.0063492
        k(   92) = (   0.2000000  -0.4940480  -0.2415245), wk =   0.0063492
        k(   93) = (  -0.2000000  -0.4940480   0.2415245), wk =   0.0063492
        k(   94) = (  -0.2000000   0.4940480  -0.4830489), wk =   0.0063492
        k(   95) = (   0.2000000  -0.4940480  -0.4830489), wk =   0.0063492
        k(   96) = (  -0.2000000  -0.4940480   0.4830489), wk =   0.0063492
        k(   97) = (  -0.2000000   0.4940480  -0.7245734), wk =   0.0063492
        k(   98) = (   0.2000000  -0.4940480  -0.7245734), wk =   0.0063492
        k(   99) = (  -0.2000000  -0.4940480   0.7245734), wk =   0.0063492
        k(  100) = (  -0.2000000   0.4940480  -0.9660979), wk =   0.0063492
        k(  101) = (   0.2000000  -0.4940480  -0.9660979), wk =   0.0063492
        k(  102) = (  -0.2000000  -0.4940480   0.9660979), wk =   0.0063492
        k(  103) = (  -0.2000000   0.7410720   0.0000000), wk =   0.0063492
        k(  104) = (  -0.2000000   0.7410720  -0.2415245), wk =   0.0063492
        k(  105) = (   0.2000000  -0.7410720  -0.2415245), wk =   0.0063492
        k(  106) = (  -0.2000000  -0.7410720   0.2415245), wk =   0.0063492
        k(  107) = (  -0.2000000   0.7410720  -0.4830489), wk =   0.0063492
        k(  108) = (   0.2000000  -0.7410720  -0.4830489), wk =   0.0063492
        k(  109) = (  -0.2000000  -0.7410720   0.4830489), wk =   0.0063492
        k(  110) = (  -0.2000000   0.7410720  -0.7245734), wk =   0.0063492
        k(  111) = (   0.2000000  -0.7410720  -0.7245734), wk =   0.0063492
        k(  112) = (  -0.2000000  -0.7410720   0.7245734), wk =   0.0063492
        k(  113) = (  -0.2000000   0.7410720  -0.9660979), wk =   0.0063492
        k(  114) = (   0.2000000  -0.7410720  -0.9660979), wk =   0.0063492
        k(  115) = (  -0.2000000  -0.7410720   0.9660979), wk =   0.0063492
        k(  116) = (   0.4000000   0.0000000  -0.2415245), wk =   0.0063492
        k(  117) = (   0.4000000   0.0000000  -0.4830489), wk =   0.0063492
        k(  118) = (   0.4000000   0.0000000  -0.7245734), wk =   0.0063492
        k(  119) = (   0.4000000   0.0000000  -0.9660979), wk =   0.0063492
        k(  120) = (  -0.4000000   0.2470240   0.0000000), wk =   0.0063492
        k(  121) = (  -0.4000000   0.2470240  -0.2415245), wk =   0.0063492
        k(  122) = (   0.4000000  -0.2470240  -0.2415245), wk =   0.0063492
        k(  123) = (  -0.4000000  -0.2470240   0.2415245), wk =   0.0063492
        k(  124) = (  -0.4000000   0.2470240  -0.4830489), wk =   0.0063492
        k(  125) = (   0.4000000  -0.2470240  -0.4830489), wk =   0.0063492
        k(  126) = (  -0.4000000  -0.2470240   0.4830489), wk =   0.0063492
        k(  127) = (  -0.4000000   0.2470240  -0.7245734), wk =   0.0063492
        k(  128) = (   0.4000000  -0.2470240  -0.7245734), wk =   0.0063492
        k(  129) = (  -0.4000000  -0.2470240   0.7245734), wk =   0.0063492
        k(  130) = (  -0.4000000   0.2470240  -0.9660979), wk =   0.0063492
        k(  131) = (   0.4000000  -0.2470240  -0.9660979), wk =   0.0063492
        k(  132) = (  -0.4000000  -0.2470240   0.9660979), wk =   0.0063492
        k(  133) = (  -0.4000000   0.4940480   0.0000000), wk =   0.0063492
        k(  134) = (  -0.4000000   0.4940480  -0.2415245), wk =   0.0063492
        k(  135) = (   0.4000000  -0.4940480  -0.2415245), wk =   0.0063492
        k(  136) = (  -0.4000000  -0.4940480   0.2415245), wk =   0.0063492
        k(  137) = (  -0.4000000   0.4940480  -0.4830489), wk =   0.0063492
        k(  138) = (   0.4000000  -0.4940480  -0.4830489), wk =   0.0063492
        k(  139) = (  -0.4000000  -0.4940480   0.4830489), wk =   0.0063492
        k(  140) = (  -0.4000000   0.4940480  -0.7245734), wk =   0.0063492
        k(  141) = (   0.4000000  -0.4940480  -0.7245734), wk =   0.0063492
        k(  142) = (  -0.4000000  -0.4940480   0.7245734), wk =   0.0063492
        k(  143) = (  -0.4000000   0.4940480  -0.9660979), wk =   0.0063492
        k(  144) = (   0.4000000  -0.4940480  -0.9660979), wk =   0.0063492
        k(  145) = (  -0.4000000  -0.4940480   0.9660979), wk =   0.0063492
        k(  146) = (  -0.4000000   0.7410720   0.0000000), wk =   0.0063492
        k(  147) = (  -0.4000000   0.7410720  -0.2415245), wk =   0.0063492
        k(  148) = (   0.4000000  -0.7410720  -0.2415245), wk =   0.0063492
        k(  149) = (  -0.4000000  -0.7410720   0.2415245), wk =   0.0063492
        k(  150) = (  -0.4000000   0.7410720  -0.4830489), wk =   0.0063492
        k(  151) = (   0.4000000  -0.7410720  -0.4830489), wk =   0.0063492
        k(  152) = (  -0.4000000  -0.7410720   0.4830489), wk =   0.0063492
        k(  153) = (  -0.4000000   0.7410720  -0.7245734), wk =   0.0063492
        k(  154) = (   0.4000000  -0.7410720  -0.7245734), wk =   0.0063492
        k(  155) = (  -0.4000000  -0.7410720   0.7245734), wk =   0.0063492
        k(  156) = (  -0.4000000   0.7410720  -0.9660979), wk =   0.0063492
        k(  157) = (   0.4000000  -0.7410720  -0.9660979), wk =   0.0063492
        k(  158) = (  -0.4000000  -0.7410720   0.9660979), wk =   0.0063492

                       cryst. coord.
        k(    1) = (   0.0000000   0.0000000   0.0000000), wk =   0.0031746
        k(    2) = (   0.0000000   0.0000000   0.1111111), wk =   0.0063492
        k(    3) = (   0.0000000   0.0000000   0.2222222), wk =   0.0063492
        k(    4) = (   0.0000000   0.0000000   0.3333333), wk =   0.0063492
        k(    5) = (   0.0000000   0.0000000   0.4444444), wk =   0.0063492
        k(    6) = (   0.0000000   0.1428571   0.0000000), wk =   0.0063492
        k(    7) = (   0.0000000   0.1428571   0.1111111), wk =   0.0063492
        k(    8) = (   0.0000000   0.1428571   0.2222222), wk =   0.0063492
        k(    9) = (   0.0000000   0.1428571   0.3333333), wk =   0.0063492
        k(   10) = (   0.0000000   0.1428571   0.4444444), wk =   0.0063492
        k(   11) = (   0.0000000   0.2857143   0.0000000), wk =   0.0063492
        k(   12) = (   0.0000000   0.2857143   0.1111111), wk =   0.0063492
        k(   13) = (   0.0000000   0.2857143   0.2222222), wk =   0.0063492
        k(   14) = (   0.0000000   0.2857143   0.3333333), wk =   0.0063492
        k(   15) = (   0.0000000   0.2857143   0.4444444), wk =   0.0063492
        k(   16) = (   0.0000000   0.4285714   0.0000000), wk =   0.0063492
        k(   17) = (   0.0000000   0.4285714   0.1111111), wk =   0.0063492
        k(   18) = (   0.0000000   0.4285714   0.2222222), wk =   0.0063492
        k(   19) = (   0.0000000   0.4285714   0.3333333), wk =   0.0063492
        k(   20) = (   0.0000000   0.4285714   0.4444444), wk =   0.0063492
        k(   21) = (   0.2000000   0.0000000   0.0000000), wk =   0.0063492
        k(   22) = (   0.2000000   0.0000000   0.1111111), wk =   0.0063492
        k(   23) = (   0.2000000   0.0000000   0.2222222), wk =   0.0063492
        k(   24) = (   0.2000000   0.0000000   0.3333333), wk =   0.0063492
        k(   25) = (   0.2000000   0.0000000   0.4444444), wk =   0.0063492
        k(   26) = (   0.2000000   0.1428571   0.0000000), wk =   0.0063492
        k(   27) = (   0.2000000   0.1428571   0.1111111), wk =   0.0063492
        k(   28) = (   0.2000000   0.1428571   0.2222222), wk =   0.0063492
        k(   29) = (   0.2000000   0.1428571   0.3333333), wk =   0.0063492
        k(   30) = (   0.2000000   0.1428571   0.4444444), wk =   0.0063492
        k(   31) = (   0.2000000   0.2857143   0.0000000), wk =   0.0063492
        k(   32) = (   0.2000000   0.2857143   0.1111111), wk =   0.0063492
        k(   33) = (   0.2000000   0.2857143   0.2222222), wk =   0.0063492
        k(   34) = (   0.2000000   0.2857143   0.3333333), wk =   0.0063492
        k(   35) = (   0.2000000   0.2857143   0.4444444), wk =   0.0063492
        k(   36) = (   0.2000000   0.4285714   0.0000000), wk =   0.0063492
        k(   37) = (   0.2000000   0.4285714   0.1111111), wk =   0.0063492
        k(   38) = (   0.2000000   0.4285714   0.2222222), wk =   0.0063492
        k(   39) = (   0.2000000   0.4285714   0.3333333), wk =   0.0063492
        k(   40) = (   0.2000000   0.4285714   0.4444444), wk =   0.0063492
        k(   41) = (   0.4000000   0.0000000   0.0000000), wk =   0.0063492
        k(   42) = (   0.4000000   0.0000000   0.1111111), wk =   0.0063492
        k(   43) = (   0.4000000   0.0000000   0.2222222), wk =   0.0063492
        k(   44) = (   0.4000000   0.0000000   0.3333333), wk =   0.0063492
        k(   45) = (   0.4000000   0.0000000   0.4444444), wk =   0.0063492
        k(   46) = (   0.4000000   0.1428571   0.0000000), wk =   0.0063492
        k(   47) = (   0.4000000   0.1428571   0.1111111), wk =   0.0063492
        k(   48) = (   0.4000000   0.1428571   0.2222222), wk =   0.0063492
        k(   49) = (   0.4000000   0.1428571   0.3333333), wk =   0.0063492
        k(   50) = (   0.4000000   0.1428571   0.4444444), wk =   0.0063492
        k(   51) = (   0.4000000   0.2857143   0.0000000), wk =   0.0063492
        k(   52) = (   0.4000000   0.2857143   0.1111111), wk =   0.0063492
        k(   53) = (   0.4000000   0.2857143   0.2222222), wk =   0.0063492
        k(   54) = (   0.4000000   0.2857143   0.3333333), wk =   0.0063492
        k(   55) = (   0.4000000   0.2857143   0.4444444), wk =   0.0063492
        k(   56) = (   0.4000000   0.4285714   0.0000000), wk =   0.0063492
        k(   57) = (   0.4000000   0.4285714   0.1111111), wk =   0.0063492
        k(   58) = (   0.4000000   0.4285714   0.2222222), wk =   0.0063492
        k(   59) = (   0.4000000   0.4285714   0.3333333), wk =   0.0063492
        k(   60) = (   0.4000000   0.4285714   0.4444444), wk =   0.0063492
        k(   61) = (   0.0000000   0.1428571  -0.1111111), wk =   0.0063492
        k(   62) = (   0.0000000   0.1428571  -0.2222222), wk =   0.0063492
        k(   63) = (   0.0000000   0.1428571  -0.3333333), wk =   0.0063492
        k(   64) = (   0.0000000   0.1428571  -0.4444444), wk =   0.0063492
        k(   65) = (   0.0000000   0.2857143  -0.1111111), wk =   0.0063492
        k(   66) = (   0.0000000   0.2857143  -0.2222222), wk =   0.0063492
        k(   67) = (   0.0000000   0.2857143  -0.3333333), wk =   0.0063492
        k(   68) = (   0.0000000   0.2857143  -0.4444444), wk =   0.0063492
        k(   69) = (   0.0000000   0.4285714  -0.1111111), wk =   0.0063492
        k(   70) = (   0.0000000   0.4285714  -0.2222222), wk =   0.0063492
        k(   71) = (   0.0000000   0.4285714  -0.3333333), wk =   0.0063492
        k(   72) = (   0.0000000   0.4285714  -0.4444444), wk =   0.0063492
        k(   73) = (   0.2000000   0.0000000  -0.1111111), wk =   0.0063492
        k(   74) = (   0.2000000   0.0000000  -0.2222222), wk =   0.0063492
        k(   75) = (   0.2000000   0.0000000  -0.3333333), wk =   0.0063492
        k(   76) = (   0.2000000   0.0000000  -0.4444444), wk =   0.0063492
        k(   77) = (  -0.2000000   0.1428571   0.0000000), wk =   0.0063492
        k(   78) = (  -0.2000000   0.1428571  -0.1111111), wk =   0.0063492
        k(   79) = (   0.2000000  -0.1428571  -0.1111111), wk =   0.0063492
        k(   80) = (  -0.2000000  -0.1428571   0.1111111), wk =   0.0063492
        k(   81) = (  -0.2000000   0.1428571  -0.2222222), wk =   0.0063492
        k(   82) = (   0.2000000  -0.1428571  -0.2222222), wk =   0.0063492
        k(   83) = (  -0.2000000  -0.1428571   0.2222222), wk =   0.0063492
        k(   84) = (  -0.2000000   0.1428571  -0.3333333), wk =   0.0063492
        k(   85) = (   0.2000000  -0.1428571  -0.3333333), wk =   0.0063492
        k(   86) = (  -0.2000000  -0.1428571   0.3333333), wk =   0.0063492
        k(   87) = (  -0.2000000   0.1428571  -0.4444444), wk =   0.0063492
        k(   88) = (   0.2000000  -0.1428571  -0.4444444), wk =   0.0063492
        k(   89) = (  -0.2000000  -0.1428571   0.4444444), wk =   0.0063492
        k(   90) = (  -0.2000000   0.2857143   0.0000000), wk =   0.0063492
        k(   91) = (  -0.2000000   0.2857143  -0.1111111), wk =   0.0063492
        k(   92) = (   0.2000000  -0.2857143  -0.1111111), wk =   0.0063492
        k(   93) = (  -0.2000000  -0.2857143   0.1111111), wk =   0.0063492
        k(   94) = (  -0.2000000   0.2857143  -0.2222222), wk =   0.0063492
        k(   95) = (   0.2000000  -0.2857143  -0.2222222), wk =   0.0063492
        k(   96) = (  -0.2000000  -0.2857143   0.2222222), wk =   0.0063492
        k(   97) = (  -0.2000000   0.2857143  -0.3333333), wk =   0.0063492
        k(   98) = (   0.2000000  -0.2857143  -0.3333333), wk =   0.0063492
        k(   99) = (  -0.2000000  -0.2857143   0.3333333), wk =   0.0063492
        k(  100) = (  -0.2000000   0.2857143  -0.4444444), wk =   0.0063492
        k(  101) = (   0.2000000  -0.2857143  -0.4444444), wk =   0.0063492
        k(  102) = (  -0.2000000  -0.2857143   0.4444444), wk =   0.0063492
        k(  103) = (  -0.2000000   0.4285714   0.0000000), wk =   0.0063492
        k(  104) = (  -0.2000000   0.4285714  -0.1111111), wk =   0.0063492
        k(  105) = (   0.2000000  -0.4285714  -0.1111111), wk =   0.0063492
        k(  106) = (  -0.2000000  -0.4285714   0.1111111), wk =   0.0063492
        k(  107) = (  -0.2000000   0.4285714  -0.2222222), wk =   0.0063492
        k(  108) = (   0.2000000  -0.4285714  -0.2222222), wk =   0.0063492
        k(  109) = (  -0.2000000  -0.4285714   0.2222222), wk =   0.0063492
        k(  110) = (  -0.2000000   0.4285714  -0.3333333), wk =   0.0063492
        k(  111) = (   0.2000000  -0.4285714  -0.3333333), wk =   0.0063492
        k(  112) = (  -0.2000000  -0.4285714   0.3333333), wk =   0.0063492
        k(  113) = (  -0.2000000   0.4285714  -0.4444444), wk =   0.0063492
        k(  114) = (   0.2000000  -0.4285714  -0.4444444), wk =   0.0063492
        k(  115) = (  -0.2000000  -0.4285714   0.4444444), wk =   0.0063492
        k(  116) = (   0.4000000   0.0000000  -0.1111111), wk =   0.0063492
        k(  117) = (   0.4000000   0.0000000  -0.2222222), wk =   0.0063492
        k(  118) = (   0.4000000   0.0000000  -0.3333333), wk =   0.0063492
        k(  119) = (   0.4000000   0.0000000  -0.4444444), wk =   0.0063492
        k(  120) = (  -0.4000000   0.1428571   0.0000000), wk =   0.0063492
        k(  121) = (  -0.4000000   0.1428571  -0.1111111), wk =   0.0063492
        k(  122) = (   0.4000000  -0.1428571  -0.1111111), wk =   0.0063492
        k(  123) = (  -0.4000000  -0.1428571   0.1111111), wk =   0.0063492
        k(  124) = (  -0.4000000   0.1428571  -0.2222222), wk =   0.0063492
        k(  125) = (   0.4000000  -0.1428571  -0.2222222), wk =   0.0063492
        k(  126) = (  -0.4000000  -0.1428571   0.2222222), wk =   0.0063492
        k(  127) = (  -0.4000000   0.1428571  -0.3333333), wk =   0.0063492
        k(  128) = (   0.4000000  -0.1428571  -0.3333333), wk =   0.0063492
        k(  129) = (  -0.4000000  -0.1428571   0.3333333), wk =   0.0063492
        k(  130) = (  -0.4000000   0.1428571  -0.4444444), wk =   0.0063492
        k(  131) = (   0.4000000  -0.1428571  -0.4444444), wk =   0.0063492
        k(  132) = (  -0.4000000  -0.1428571   0.4444444), wk =   0.0063492
        k(  133) = (  -0.4000000   0.2857143   0.0000000), wk =   0.0063492
        k(  134) = (  -0.4000000   0.2857143  -0.1111111), wk =   0.0063492
        k(  135) = (   0.4000000  -0.2857143  -0.1111111), wk =   0.0063492
        k(  136) = (  -0.4000000  -0.2857143   0.1111111), wk =   0.0063492
        k(  137) = (  -0.4000000   0.2857143  -0.2222222), wk =   0.0063492
        k(  138) = (   0.4000000  -0.2857143  -0.2222222), wk =   0.0063492
        k(  139) = (  -0.4000000  -0.2857143   0.2222222), wk =   0.0063492
        k(  140) = (  -0.4000000   0.2857143  -0.3333333), wk =   0.0063492
        k(  141) = (   0.4000000  -0.2857143  -0.3333333), wk =   0.0063492
        k(  142) = (  -0.4000000  -0.2857143   0.3333333), wk =   0.0063492
        k(  143) = (  -0.4000000   0.2857143  -0.4444444), wk =   0.0063492
        k(  144) = (   0.4000000  -0.2857143  -0.4444444), wk =   0.0063492
        k(  145) = (  -0.4000000  -0.2857143   0.4444444), wk =   0.0063492
        k(  146) = (  -0.4000000   0.4285714   0.0000000), wk =   0.0063492
        k(  147) = (  -0.4000000   0.4285714  -0.1111111), wk =   0.0063492
        k(  148) = (   0.4000000  -0.4285714  -0.1111111), wk =   0.0063492
        k(  149) = (  -0.4000000  -0.4285714   0.1111111), wk =   0.0063492
        k(  150) = (  -0.4000000   0.4285714  -0.2222222), wk =   0.0063492
        k(  151) = (   0.4000000  -0.4285714  -0.2222222), wk =   0.0063492
        k(  152) = (  -0.4000000  -0.4285714   0.2222222), wk =   0.0063492
        k(  153) = (  -0.4000000   0.4285714  -0.3333333), wk =   0.0063492
        k(  154) = (   0.4000000  -0.4285714  -0.3333333), wk =   0.0063492
        k(  155) = (  -0.4000000  -0.4285714   0.3333333), wk =   0.0063492
        k(  156) = (  -0.4000000   0.4285714  -0.4444444), wk =   0.0063492
        k(  157) = (   0.4000000  -0.4285714  -0.4444444), wk =   0.0063492
        k(  158) = (  -0.4000000  -0.4285714   0.4444444), wk =   0.0063492

     Dense  grid:  1338043 G-vectors     FFT dimensions: ( 216, 125, 100)

     Smooth grid:   301725 G-vectors     FFT dimensions: ( 135,  75,  60)

     Dynamical RAM for                 wfc:       2.73 MB

     Dynamical RAM for     wfc (w. buffer):     865.73 MB

     Dynamical RAM for           str. fact:       3.40 MB

     Dynamical RAM for           local pot:       0.00 MB

     Dynamical RAM for          nlocal pot:       6.71 MB

     Dynamical RAM for                qrad:      10.54 MB

     Dynamical RAM for          rho,v,vnew:      11.28 MB

     Dynamical RAM for               rhoin:       3.76 MB

     Dynamical RAM for            rho*nmix:      27.22 MB

     Dynamical RAM for           G-vectors:       3.29 MB

     Dynamical RAM for          h,s,v(r/c):       2.38 MB

     Dynamical RAM for          <psi|beta>:       0.49 MB

     Dynamical RAM for                 psi:       5.46 MB

     Dynamical RAM for                hpsi:       5.46 MB

     Dynamical RAM for                spsi:       5.46 MB

     Dynamical RAM for      wfcinit/wfcrot:       6.99 MB

     Dynamical RAM for           addusdens:     172.70 MB

     Dynamical RAM for          addusforce:     198.34 MB

     Dynamical RAM for         addusstress:     172.27 MB

     Estimated static dynamical RAM per process >     942.37 MB

     Estimated max dynamical RAM per process >       1.11 GB

     Estimated total dynamical RAM >      26.74 GB

     Check: negative core charge=   -0.000003
     Generating pointlists ...
     new r_m :   0.0755 (alat units)  1.5334 (a.u.) for type    1
     new r_m :   0.0919 (alat units)  1.8675 (a.u.) for type    2
     new r_m :   0.0591 (alat units)  1.2018 (a.u.) for type    3
     new r_m :   0.0591 (alat units)  1.2018 (a.u.) for type    4

     Initial potential from superposition of free atoms

     starting charge  188.99132, renormalised to  189.00000
     Starting wfcs are  137 randomized atomic wfcs
     Checking if some PAW data can be deallocated... 
       PAW data deallocated on   20 nodes for type:  1
       PAW data deallocated on    8 nodes for type:  3

     total cpu time spent up to now is      204.3 secs

     Self-consistent Calculation

     iteration #  1     ecut=   100.00 Ry     beta= 0.40
     Davidson diagonalization with overlap
     ethr =  1.00E-02,  avg # of iterations =  3.0

     negative rho (up, down):  0.000E+00 9.577E-05

     total cpu time spent up to now is      828.7 secs

     total energy              =   -2123.97190366 Ry
     estimated scf accuracy    <       6.79115101 Ry

     total magnetization       =    19.00 Bohr mag/cell
     absolute magnetization    =    19.00 Bohr mag/cell

     iteration #  2     ecut=   100.00 Ry     beta= 0.40
     Davidson diagonalization with overlap
     ethr =  3.59E-03,  avg # of iterations =  2.0

     negative rho (up, down):  0.000E+00 3.989E-05

     total cpu time spent up to now is     1406.3 secs

     total energy              =   -2122.26967691 Ry
     estimated scf accuracy    <      21.09647696 Ry

     total magnetization       =     9.65 Bohr mag/cell
     absolute magnetization    =    10.00 Bohr mag/cell

     iteration #  3     ecut=   100.00 Ry     beta= 0.40
     Davidson diagonalization with overlap
     ethr =  3.59E-03,  avg # of iterations =  2.0

     negative rho (up, down):  0.000E+00 1.844E-04

     total cpu time spent up to now is     1948.9 secs

     total energy              =   -2126.13715083 Ry
     estimated scf accuracy    <       2.11586786 Ry

     total magnetization       =    19.00 Bohr mag/cell
     absolute magnetization    =    19.00 Bohr mag/cell

     iteration #  4     ecut=   100.00 Ry     beta= 0.40
     Davidson diagonalization with overlap
     ethr =  1.12E-03,  avg # of iterations =  1.9

     negative rho (up, down):  0.000E+00 2.478E-04

     total cpu time spent up to now is     2432.4 secs

     total energy              =   -2126.13989552 Ry
     estimated scf accuracy    <       1.24428416 Ry

     total magnetization       =    19.00 Bohr mag/cell
     absolute magnetization    =    19.00 Bohr mag/cell

     iteration #  5     ecut=   100.00 Ry     beta= 0.40
     Davidson diagonalization with overlap
     ethr =  6.58E-04,  avg # of iterations =  1.5

     negative rho (up, down):  0.000E+00 6.299E-04

     total cpu time spent up to now is     2869.3 secs

     total energy              =   -2125.97872889 Ry
     estimated scf accuracy    <       0.79322045 Ry

     total magnetization       =    19.00 Bohr mag/cell
     absolute magnetization    =    19.00 Bohr mag/cell

     iteration #  6     ecut=   100.00 Ry     beta= 0.40
     Davidson diagonalization with overlap
     ethr =  4.20E-04,  avg # of iterations =  2.1

     negative rho (up, down):  0.000E+00 7.279E-04

     total cpu time spent up to now is     3372.5 secs

     total energy              =   -2126.08121632 Ry
     estimated scf accuracy    <       0.16943776 Ry

     total magnetization       =    19.00 Bohr mag/cell
     absolute magnetization    =    19.01 Bohr mag/cell

     iteration #  7     ecut=   100.00 Ry     beta= 0.40
     Davidson diagonalization with overlap
     c_bands:  1 eigenvalues not converged
     c_bands:  1 eigenvalues not converged
     c_bands:  1 eigenvalues not converged
     c_bands:  1 eigenvalues not converged
     c_bands:  1 eigenvalues not converged
     c_bands:  1 eigenvalues not converged
     c_bands:  3 eigenvalues not converged
     c_bands:  1 eigenvalues not converged
     c_bands:  1 eigenvalues not converged
     c_bands:  1 eigenvalues not converged
     c_bands:  1 eigenvalues not converged
     c_bands:  1 eigenvalues not converged
     ethr =  8.96E-05,  avg # of iterations = 13.1

     negative rho (up, down):  0.000E+00 9.042E-04

     total cpu time spent up to now is     4215.8 secs

     total energy              =   -2126.09562413 Ry
     estimated scf accuracy    <       0.02071023 Ry

     total magnetization       =    19.00 Bohr mag/cell
     absolute magnetization    =    19.01 Bohr mag/cell

     iteration #  8     ecut=   100.00 Ry     beta= 0.40
     Davidson diagonalization with overlap
     c_bands:  1 eigenvalues not converged
     c_bands:  1 eigenvalues not converged
     c_bands:  2 eigenvalues not converged
     c_bands:  1 eigenvalues not converged
     c_bands:  1 eigenvalues not converged
     c_bands:  1 eigenvalues not converged
     c_bands:  1 eigenvalues not converged
     c_bands:  1 eigenvalues not converged
     c_bands:  1 eigenvalues not converged
     c_bands:  1 eigenvalues not converged
     c_bands:  2 eigenvalues not converged
     c_bands:  1 eigenvalues not converged
     c_bands:  1 eigenvalues not converged
     c_bands:  1 eigenvalues not converged
     c_bands:  1 eigenvalues not converged
     c_bands:  1 eigenvalues not converged
     c_bands:  1 eigenvalues not converged
     c_bands:  1 eigenvalues not converged
     c_bands:  1 eigenvalues not converged
     c_bands:  2 eigenvalues not converged
     ethr =  1.10E-05,  avg # of iterations =  9.9

     negative rho (up, down):  0.000E+00 9.470E-04

     total cpu time spent up to now is     5151.2 secs

     total energy              =   -2126.10345883 Ry
     estimated scf accuracy    <       0.01272868 Ry

     total magnetization       =    19.00 Bohr mag/cell
     absolute magnetization    =    19.03 Bohr mag/cell

     iteration #  9     ecut=   100.00 Ry     beta= 0.40
     Davidson diagonalization with overlap
     c_bands:  1 eigenvalues not converged
     c_bands:  1 eigenvalues not converged
     ethr =  6.73E-06,  avg # of iterations =  2.0

     negative rho (up, down):  0.000E+00 9.471E-04

     total cpu time spent up to now is     5598.8 secs

     total energy              =   -2126.10419076 Ry
     estimated scf accuracy    <       0.00970604 Ry

     total magnetization       =    19.00 Bohr mag/cell
     absolute magnetization    =    19.04 Bohr mag/cell

     iteration # 10     ecut=   100.00 Ry     beta= 0.40
     Davidson diagonalization with overlap
     c_bands:  1 eigenvalues not converged
     c_bands:  1 eigenvalues not converged
     ethr =  5.14E-06,  avg # of iterations =  1.5

     negative rho (up, down):  0.000E+00 9.430E-04

     total cpu time spent up to now is     6025.7 secs

     total energy              =   -2126.10417611 Ry
     estimated scf accuracy    <       0.00662443 Ry

     total magnetization       =    19.00 Bohr mag/cell
     absolute magnetization    =    19.04 Bohr mag/cell

     iteration # 11     ecut=   100.00 Ry     beta= 0.40
     Davidson diagonalization with overlap
     c_bands:  1 eigenvalues not converged
     c_bands:  1 eigenvalues not converged
     c_bands:  1 eigenvalues not converged
     c_bands:  1 eigenvalues not converged
     ethr =  3.50E-06,  avg # of iterations =  2.7

     negative rho (up, down):  0.000E+00 9.476E-04

     total cpu time spent up to now is     6494.1 secs

     total energy              =   -2126.10444387 Ry
     estimated scf accuracy    <       0.00055557 Ry

     total magnetization       =    19.00 Bohr mag/cell
     absolute magnetization    =    19.05 Bohr mag/cell

     iteration # 12     ecut=   100.00 Ry     beta= 0.40
     Davidson diagonalization with overlap
     c_bands:  1 eigenvalues not converged
     c_bands:  1 eigenvalues not converged
     c_bands:  1 eigenvalues not converged
     c_bands:  1 eigenvalues not converged
     c_bands:  1 eigenvalues not converged
     c_bands:  1 eigenvalues not converged
     c_bands:  1 eigenvalues not converged
     c_bands:  1 eigenvalues not converged
     c_bands:  1 eigenvalues not converged
     c_bands:  1 eigenvalues not converged
     c_bands:  1 eigenvalues not converged
     c_bands:  1 eigenvalues not converged
     c_bands:  1 eigenvalues not converged
     c_bands:  1 eigenvalues not converged
     c_bands:  1 eigenvalues not converged
     ethr =  2.94E-07,  avg # of iterations =  5.5

     negative rho (up, down):  0.000E+00 9.449E-04

     total cpu time spent up to now is     7142.2 secs

     total energy              =   -2126.10462831 Ry
     estimated scf accuracy    <       0.00090340 Ry

     total magnetization       =    19.00 Bohr mag/cell
     absolute magnetization    =    19.05 Bohr mag/cell

     iteration # 13     ecut=   100.00 Ry     beta= 0.40
     Davidson diagonalization with overlap
     c_bands:  1 eigenvalues not converged
     c_bands:  1 eigenvalues not converged
     c_bands:  1 eigenvalues not converged
     c_bands:  1 eigenvalues not converged
     c_bands:  1 eigenvalues not converged
     c_bands:  1 eigenvalues not converged
     c_bands:  1 eigenvalues not converged
     ethr =  2.94E-07,  avg # of iterations =  2.1

     negative rho (up, down):  0.000E+00 9.388E-04

     total cpu time spent up to now is     7587.5 secs

     total energy              =   -2126.10462245 Ry
     estimated scf accuracy    <       0.00056093 Ry

     total magnetization       =    19.00 Bohr mag/cell
     absolute magnetization    =    19.05 Bohr mag/cell

     iteration # 14     ecut=   100.00 Ry     beta= 0.40
     Davidson diagonalization with overlap
     ethr =  2.94E-07,  avg # of iterations =  1.6

     negative rho (up, down):  0.000E+00 9.404E-04

     total cpu time spent up to now is     8038.2 secs

     total energy              =   -2126.10467539 Ry
     estimated scf accuracy    <       0.00002009 Ry

     total magnetization       =    19.00 Bohr mag/cell
     absolute magnetization    =    19.05 Bohr mag/cell

     iteration # 15     ecut=   100.00 Ry     beta= 0.40
     Davidson diagonalization with overlap
     c_bands:  1 eigenvalues not converged
     c_bands:  1 eigenvalues not converged
     c_bands:  1 eigenvalues not converged
     c_bands:  1 eigenvalues not converged
     c_bands:  1 eigenvalues not converged
     c_bands:  1 eigenvalues not converged
     ethr =  1.06E-08,  avg # of iterations =  5.1

     negative rho (up, down):  0.000E+00 9.391E-04

     total cpu time spent up to now is     8870.9 secs

     total energy              =   -2126.10468790 Ry
     estimated scf accuracy    <       0.00001409 Ry

     total magnetization       =    19.00 Bohr mag/cell
     absolute magnetization    =    19.05 Bohr mag/cell

     iteration # 16     ecut=   100.00 Ry     beta= 0.40
     Davidson diagonalization with overlap
     ethr =  7.46E-09,  avg # of iterations =  1.3

     negative rho (up, down):  0.000E+00 9.378E-04

     total cpu time spent up to now is     9295.5 secs

     total energy              =   -2126.10468836 Ry
     estimated scf accuracy    <       0.00000205 Ry

     total magnetization       =    19.00 Bohr mag/cell
     absolute magnetization    =    19.05 Bohr mag/cell

     iteration # 17     ecut=   100.00 Ry     beta= 0.40
     Davidson diagonalization with overlap
     ethr =  1.08E-09,  avg # of iterations =  3.3

     negative rho (up, down):  0.000E+00 9.382E-04

     total cpu time spent up to now is     9964.3 secs

     total energy              =   -2126.10469206 Ry
     estimated scf accuracy    <       0.00000144 Ry

     total magnetization       =    19.00 Bohr mag/cell
     absolute magnetization    =    19.05 Bohr mag/cell

     iteration # 18     ecut=   100.00 Ry     beta= 0.40
     Davidson diagonalization with overlap
     ethr =  7.62E-10,  avg # of iterations =  1.2

     negative rho (up, down):  0.000E+00 9.389E-04

     total cpu time spent up to now is    10389.2 secs

     total energy              =   -2126.10469246 Ry
     estimated scf accuracy    <       0.00000020 Ry

     total magnetization       =    19.00 Bohr mag/cell
     absolute magnetization    =    19.05 Bohr mag/cell

     iteration # 19     ecut=   100.00 Ry     beta= 0.40
     Davidson diagonalization with overlap
     ethr =  1.04E-10,  avg # of iterations =  3.4

     negative rho (up, down):  0.000E+00 9.390E-04

     total cpu time spent up to now is    11004.8 secs

     total energy              =   -2126.10469260 Ry
     estimated scf accuracy    <       0.00000055 Ry

     total magnetization       =    19.00 Bohr mag/cell
     absolute magnetization    =    19.05 Bohr mag/cell

     iteration # 20     ecut=   100.00 Ry     beta= 0.40
     Davidson diagonalization with overlap
     ethr =  1.04E-10,  avg # of iterations =  2.0

     negative rho (up, down):  0.000E+00 9.390E-04

     total cpu time spent up to now is    11486.3 secs

     total energy              =   -2126.10469265 Ry
     estimated scf accuracy    <       0.00000018 Ry

     total magnetization       =    19.00 Bohr mag/cell
     absolute magnetization    =    19.05 Bohr mag/cell

     iteration # 21     ecut=   100.00 Ry     beta= 0.40
     Davidson diagonalization with overlap
     ethr =  9.74E-11,  avg # of iterations =  1.0

     negative rho (up, down):  0.000E+00 9.390E-04

     total cpu time spent up to now is    11893.9 secs

     total energy              =   -2126.10469269 Ry
     estimated scf accuracy    <       0.00000002 Ry

     total magnetization       =    19.00 Bohr mag/cell
     absolute magnetization    =    19.05 Bohr mag/cell

     iteration # 22     ecut=   100.00 Ry     beta= 0.40
     Davidson diagonalization with overlap
     ethr =  8.70E-12,  avg # of iterations =  3.7

     negative rho (up, down):  0.000E+00 9.389E-04

     total cpu time spent up to now is    12553.5 secs

     total energy              =   -2126.10469270 Ry
     estimated scf accuracy    <          6.7E-09 Ry

     total magnetization       =    19.00 Bohr mag/cell
     absolute magnetization    =    19.05 Bohr mag/cell

     iteration # 23     ecut=   100.00 Ry     beta= 0.40
     Davidson diagonalization with overlap
     ethr =  3.56E-12,  avg # of iterations =  2.3

     negative rho (up, down):  0.000E+00 9.389E-04

     total cpu time spent up to now is    13115.8 secs

     total energy              =   -2126.10469271 Ry
     estimated scf accuracy    <          2.1E-09 Ry

     total magnetization       =    19.00 Bohr mag/cell
     absolute magnetization    =    19.05 Bohr mag/cell

     iteration # 24     ecut=   100.00 Ry     beta= 0.40
     Davidson diagonalization with overlap
     ethr =  1.09E-12,  avg # of iterations =  2.6

     negative rho (up, down):  0.000E+00 9.390E-04

     total cpu time spent up to now is    13648.7 secs

     total energy              =   -2126.10469271 Ry
     estimated scf accuracy    <          5.1E-10 Ry

     total magnetization       =    19.00 Bohr mag/cell
     absolute magnetization    =    19.05 Bohr mag/cell

     iteration # 25     ecut=   100.00 Ry     beta= 0.40
     Davidson diagonalization with overlap
     ethr =  2.70E-13,  avg # of iterations =  3.6

     negative rho (up, down):  0.000E+00 9.390E-04

     Magnetic moment per site:
     atom:    1    charge:    7.9842    magn:    0.0008    constr:    0.0000
     atom:    2    charge:   12.9643    magn:    3.6885    constr:    0.0000
     atom:    3    charge:   12.9686    magn:    3.6694    constr:    0.0000
     atom:    4    charge:   12.9643    magn:    3.6885    constr:    0.0000
     atom:    5    charge:   12.9686    magn:    3.6694    constr:    0.0000
     atom:    6    charge:    0.8374    magn:    0.0101    constr:    0.0000
     atom:    7    charge:    0.8392    magn:    0.0078    constr:    0.0000
     atom:    8    charge:    0.8374    magn:    0.0101    constr:    0.0000
     atom:    9    charge:    0.8392    magn:    0.0078    constr:    0.0000
     atom:   10    charge:    4.2682    magn:    0.1330    constr:    0.0000
     atom:   11    charge:    4.2716    magn:    0.0820    constr:    0.0000
     atom:   12    charge:    4.2682    magn:    0.1330    constr:    0.0000
     atom:   13    charge:    4.2716    magn:    0.0820    constr:    0.0000
     atom:   14    charge:    4.2287    magn:    0.0952    constr:    0.0000
     atom:   15    charge:    4.2281    magn:    0.1439    constr:    0.0000
     atom:   16    charge:    4.2287    magn:    0.0952    constr:    0.0000
     atom:   17    charge:    4.2281    magn:    0.1439    constr:    0.0000
     atom:   18    charge:    4.2386    magn:    0.1454    constr:    0.0000
     atom:   19    charge:    4.2412    magn:    0.1199    constr:    0.0000
     atom:   20    charge:    4.2414    magn:    0.1534    constr:    0.0000
     atom:   21    charge:    4.2440    magn:    0.1331    constr:    0.0000
     atom:   22    charge:    4.2387    magn:    0.1454    constr:    0.0000
     atom:   23    charge:    4.2412    magn:    0.1199    constr:    0.0000
     atom:   24    charge:    4.2414    magn:    0.1534    constr:    0.0000
     atom:   25    charge:    4.2440    magn:    0.1331    constr:    0.0000

     total cpu time spent up to now is    14294.7 secs

     End of self-consistent calculation

 ------ SPIN UP ------------


          k = 0.0000 0.0000 0.0000 ( 37701 PWs)   bands (ev):

   -85.7046 -85.7045 -85.5982 -85.5973 -51.8276 -51.8273 -51.7664 -51.7656
   -51.6766 -51.6765 -51.5702 -51.5701 -51.5422 -51.5413 -51.4553 -51.4542
   -44.9901 -17.0319 -16.9725 -16.9443 -16.3459 -16.1430 -16.1124 -15.9616
   -13.9838 -13.9580 -13.8901 -13.8589 -13.7795 -13.7534 -13.6145 -13.6137
   -13.5752 -13.5270 -13.5113 -13.4984  -4.3824  -3.9432  -3.8558  -3.5121
    -2.4283  -2.1702  -2.0656  -1.9986  -1.7592  -1.5710  -1.5606  -1.4962
    -1.4090  -1.1832  -1.0114  -0.7304  -0.6552  -0.6264  -0.1571  -0.1121
     0.0831   0.0892   0.2100   0.3714   0.4587   0.5045   0.5966   0.7700
     0.8060   0.9236   0.9749   0.9952   1.2731   1.3156   1.3798   1.3828
     1.5409   1.5854   1.7443   1.8010   1.8479   1.9682   1.9947   2.1219
     2.2578   2.2996   2.3431   2.4651   2.5337   2.5799   2.6004   2.7254
     2.8473   2.8871   2.9538   3.0195   3.0672   3.2743   3.3293   3.4975
     3.5207   3.6130   3.6699   3.7253   3.8475   3.9593   4.2897   4.3793
     8.3716  10.4204  10.9029  11.1559  11.4649  12.1752  12.2948  12.5898
    12.8397  12.9105

     occupation numbers 
     1.0000   1.0000   1.0000   1.0000   1.0000   1.0000   1.0000   1.0000
     1.0000   1.0000   1.0000   1.0000   1.0000   1.0000   1.0000   1.0000
     1.0000   1.0000   1.0000   1.0000   1.0000   1.0000   1.0000   1.0000
     1.0000   1.0000   1.0000   1.0000   1.0000   1.0000   1.0000   1.0000
     1.0000   1.0000   1.0000   1.0000   1.0000   1.0000   1.0000   1.0000
     1.0000   1.0000   1.0000   1.0000   1.0000   1.0000   1.0000   1.0000
     1.0000   1.0000   1.0000   1.0000   1.0000   1.0000   1.0000   1.0000
     1.0000   1.0000   1.0000   1.0000   1.0000   1.0000   1.0000   1.0000
     1.0000   1.0000   1.0000   1.0000   1.0000   1.0000   1.0000   1.0000
     1.0000   1.0000   1.0000   1.0000   1.0000   1.0000   1.0000   1.0000
     1.0000   1.0000   1.0000   1.0000   1.0000   1.0000   1.0000   1.0000
     1.0000   1.0000   1.0000   1.0000   1.0000   1.0000   1.0000   1.0000
     1.0000   1.0000   1.0000   1.0000   1.0000   1.0000   1.0000   1.0000
     0.0000   0.0000   0.0000   0.0000   0.0000   0.0000   0.0000   0.0000
     0.0000   0.0000

          k = 0.0000 0.0000 0.2415 ( 37675 PWs)   bands (ev):

   -85.7046 -85.7045 -85.5982 -85.5973 -51.8276 -51.8273 -51.7664 -51.7656
   -51.6766 -51.6765 -51.5702 -51.5701 -51.5422 -51.5413 -51.4553 -51.4542
   -44.9901 -17.0309 -16.9724 -16.9473 -16.3269 -16.1348 -16.1066 -15.9627
   -13.9975 -13.9700 -13.9060 -13.8708 -13.7771 -13.7506 -13.6180 -13.6137
   -13.5773 -13.5258 -13.5103 -13.5005  -4.3612  -3.9403  -3.8525  -3.5222
    -2.3797  -2.1667  -2.0301  -1.9763  -1.7546  -1.5966  -1.5722  -1.4529
    -1.3692  -1.1526  -1.0558  -0.7307  -0.6794  -0.6072  -0.1427  -0.0942
     0.0728   0.1303   0.1965   0.3753   0.4464   0.4980   0.5737   0.7685
     0.8039   0.9167   0.9550   0.9980   1.2297   1.2752   1.3479   1.3736
     1.5552   1.6160   1.6787   1.7778   1.8473   1.9381   1.9974   2.1675
     2.2340   2.3163   2.3541   2.4172   2.5331   2.5978   2.6181   2.6757
     2.8253   2.8939   2.9761   2.9980   3.0418   3.3217   3.3399   3.4997
     3.5375   3.6349   3.6860   3.7233   3.8424   3.9644   4.2646   4.3566
     8.5186  10.4978  10.9342  11.1623  11.5198  12.0775  12.3702  12.5169
    12.7320  12.9101

     occupation numbers 
     1.0000   1.0000   1.0000   1.0000   1.0000   1.0000   1.0000   1.0000
     1.0000   1.0000   1.0000   1.0000   1.0000   1.0000   1.0000   1.0000
     1.0000   1.0000   1.0000   1.0000   1.0000   1.0000   1.0000   1.0000
     1.0000   1.0000   1.0000   1.0000   1.0000   1.0000   1.0000   1.0000
     1.0000   1.0000   1.0000   1.0000   1.0000   1.0000   1.0000   1.0000
     1.0000   1.0000   1.0000   1.0000   1.0000   1.0000   1.0000   1.0000
     1.0000   1.0000   1.0000   1.0000   1.0000   1.0000   1.0000   1.0000
     1.0000   1.0000   1.0000   1.0000   1.0000   1.0000   1.0000   1.0000
     1.0000   1.0000   1.0000   1.0000   1.0000   1.0000   1.0000   1.0000
     1.0000   1.0000   1.0000   1.0000   1.0000   1.0000   1.0000   1.0000
     1.0000   1.0000   1.0000   1.0000   1.0000   1.0000   1.0000   1.0000
     1.0000   1.0000   1.0000   1.0000   1.0000   1.0000   1.0000   1.0000
     1.0000   1.0000   1.0000   1.0000   1.0000   1.0000   1.0000   1.0000
     0.0000   0.0000   0.0000   0.0000   0.0000   0.0000   0.0000   0.0000
     0.0000   0.0000

          k = 0.0000 0.0000 0.4830 ( 37730 PWs)   bands (ev):

   -85.7046 -85.7045 -85.5982 -85.5973 -51.8276 -51.8273 -51.7664 -51.7656
   -51.6766 -51.6765 -51.5702 -51.5701 -51.5422 -51.5413 -51.4553 -51.4542
   -44.9901 -17.0306 -16.9714 -16.9520 -16.2766 -16.1139 -16.0921 -15.9673
   -14.0314 -13.9998 -13.9461 -13.9084 -13.7658 -13.7412 -13.6276 -13.6197
   -13.5781 -13.5258 -13.5109 -13.5007  -4.2989  -3.9278  -3.8538  -3.5628
    -2.2463  -2.1432  -1.9424  -1.9382  -1.7361  -1.6229  -1.5740  -1.4206
    -1.2254  -1.1640  -1.0691  -0.8365  -0.6245  -0.5541  -0.0981  -0.0527
     0.0976   0.1540   0.1878   0.3900   0.4049   0.4832   0.5050   0.7656
     0.8082   0.8796   0.9421   0.9805   1.1228   1.2000   1.2900   1.3625
     1.4078   1.5423   1.7138   1.7835   1.7948   1.8959   2.0486   2.1324
     2.2617   2.3015   2.3070   2.4097   2.4280   2.5305   2.6197   2.6947
     2.7603   2.9524   3.0111   3.0516   3.0788   3.3286   3.4001   3.5116
     3.5882   3.6939   3.7151   3.7229   3.8413   3.9749   4.1883   4.2888
     8.9102  10.7092  10.9792  11.2042  11.6709  11.9829  12.2520  12.4130
    12.5695  12.7449

     occupation numbers 
     1.0000   1.0000   1.0000   1.0000   1.0000   1.0000   1.0000   1.0000
     1.0000   1.0000   1.0000   1.0000   1.0000   1.0000   1.0000   1.0000
     1.0000   1.0000   1.0000   1.0000   1.0000   1.0000   1.0000   1.0000
     1.0000   1.0000   1.0000   1.0000   1.0000   1.0000   1.0000   1.0000
     1.0000   1.0000   1.0000   1.0000   1.0000   1.0000   1.0000   1.0000
     1.0000   1.0000   1.0000   1.0000   1.0000   1.0000   1.0000   1.0000
     1.0000   1.0000   1.0000   1.0000   1.0000   1.0000   1.0000   1.0000
     1.0000   1.0000   1.0000   1.0000   1.0000   1.0000   1.0000   1.0000
     1.0000   1.0000   1.0000   1.0000   1.0000   1.0000   1.0000   1.0000
     1.0000   1.0000   1.0000   1.0000   1.0000   1.0000   1.0000   1.0000
     1.0000   1.0000   1.0000   1.0000   1.0000   1.0000   1.0000   1.0000
     1.0000   1.0000   1.0000   1.0000   1.0000   1.0000   1.0000   1.0000
     1.0000   1.0000   1.0000   1.0000   1.0000   1.0000   1.0000   1.0000
     0.0000   0.0000   0.0000   0.0000   0.0000   0.0000   0.0000   0.0000
     0.0000   0.0000

          k = 0.0000 0.0000 0.7246 ( 37724 PWs)   bands (ev):

   -85.7046 -85.7045 -85.5982 -85.5973 -51.8276 -51.8273 -51.7664 -51.7656
   -51.6766 -51.6765 -51.5702 -51.5701 -51.5422 -51.5413 -51.4553 -51.4542
   -44.9901 -17.0346 -16.9694 -16.9526 -16.2113 -16.0968 -16.0704 -15.9783
   -14.0676 -14.0324 -13.9912 -13.9602 -13.7451 -13.7260 -13.6433 -13.6354
   -13.5713 -13.5331 -13.5135 -13.4947  -4.2012  -3.9123  -3.8678  -3.6407
    -2.1394  -2.0299  -1.9281  -1.8376  -1.6949  -1.6323  -1.5625  -1.3877
    -1.3102  -1.0075  -0.9990  -0.9432  -0.5054  -0.4597  -0.0292  -0.0010
     0.0738   0.1266   0.2297   0.3306   0.3724   0.4279   0.5254   0.7420
     0.7753   0.8276   0.9093   0.9775   1.0115   1.0639   1.1731   1.2679
     1.3797   1.4614   1.6664   1.6841   1.8833   1.9485   2.0264   2.1572
     2.1873   2.2281   2.2848   2.3007   2.4065   2.4285   2.5435   2.6279
     2.8131   2.9946   3.0953   3.1942   3.2799   3.3436   3.4035   3.5296
     3.6526   3.7067   3.7517   3.7648   3.8705   3.9778   4.0607   4.1787
     9.4438  10.8888  11.0109  11.3187  11.7977  11.9348  12.0796  12.2448
    12.4679  12.5236

     occupation numbers 
     1.0000   1.0000   1.0000   1.0000   1.0000   1.0000   1.0000   1.0000
     1.0000   1.0000   1.0000   1.0000   1.0000   1.0000   1.0000   1.0000
     1.0000   1.0000   1.0000   1.0000   1.0000   1.0000   1.0000   1.0000
     1.0000   1.0000   1.0000   1.0000   1.0000   1.0000   1.0000   1.0000
     1.0000   1.0000   1.0000   1.0000   1.0000   1.0000   1.0000   1.0000
     1.0000   1.0000   1.0000   1.0000   1.0000   1.0000   1.0000   1.0000
     1.0000   1.0000   1.0000   1.0000   1.0000   1.0000   1.0000   1.0000
     1.0000   1.0000   1.0000   1.0000   1.0000   1.0000   1.0000   1.0000
     1.0000   1.0000   1.0000   1.0000   1.0000   1.0000   1.0000   1.0000
     1.0000   1.0000   1.0000   1.0000   1.0000   1.0000   1.0000   1.0000
     1.0000   1.0000   1.0000   1.0000   1.0000   1.0000   1.0000   1.0000
     1.0000   1.0000   1.0000   1.0000   1.0000   1.0000   1.0000   1.0000
     1.0000   1.0000   1.0000   1.0000   1.0000   1.0000   1.0000   1.0000
     0.0000   0.0000   0.0000   0.0000   0.0000   0.0000   0.0000   0.0000
     0.0000   0.0000

          k = 0.0000 0.0000 0.9661 ( 37764 PWs)   bands (ev):

   -85.7046 -85.7045 -85.5982 -85.5973 -51.8276 -51.8273 -51.7664 -51.7656
   -51.6766 -51.6765 -51.5702 -51.5701 -51.5422 -51.5413 -51.4553 -51.4542
   -44.9901 -17.0389 -16.9681 -16.9504 -16.1521 -16.1045 -16.0442 -15.9947
   -14.0886 -14.0541 -14.0160 -14.0026 -13.7239 -13.7113 -13.6617 -13.6505
   -13.5598 -13.5456 -13.5141 -13.4901  -4.0834  -3.9730  -3.8261  -3.7338
    -2.0831  -2.0039  -1.8275  -1.7811  -1.6513  -1.6029  -1.5627  -1.4823
    -1.2743  -1.1503  -0.8616  -0.8354  -0.3263  -0.2896  -0.0897  -0.0402
     0.0529   0.0816   0.2222   0.2627   0.3796   0.4581   0.5754   0.6265
     0.7271   0.7633   0.8420   0.9466   0.9762   1.0223   1.0458   1.2577
     1.4226   1.4915   1.5506   1.5984   1.9035   2.0014   2.0649   2.0991
     2.1323   2.1862   2.2460   2.3033   2.3291   2.3597   2.4938   2.6194
     2.8346   3.0028   3.1639   3.3086   3.3398   3.4211   3.5419   3.5626
     3.6182   3.7492   3.7701   3.8113   3.8811   3.9345   3.9768   4.0493
    10.0189  10.5475  11.3486  11.4986  11.6777  11.7344  12.1226  12.1634
    12.4346  12.4973

     occupation numbers 
     1.0000   1.0000   1.0000   1.0000   1.0000   1.0000   1.0000   1.0000
     1.0000   1.0000   1.0000   1.0000   1.0000   1.0000   1.0000   1.0000
     1.0000   1.0000   1.0000   1.0000   1.0000   1.0000   1.0000   1.0000
     1.0000   1.0000   1.0000   1.0000   1.0000   1.0000   1.0000   1.0000
     1.0000   1.0000   1.0000   1.0000   1.0000   1.0000   1.0000   1.0000
     1.0000   1.0000   1.0000   1.0000   1.0000   1.0000   1.0000   1.0000
     1.0000   1.0000   1.0000   1.0000   1.0000   1.0000   1.0000   1.0000
     1.0000   1.0000   1.0000   1.0000   1.0000   1.0000   1.0000   1.0000
     1.0000   1.0000   1.0000   1.0000   1.0000   1.0000   1.0000   1.0000
     1.0000   1.0000   1.0000   1.0000   1.0000   1.0000   1.0000   1.0000
     1.0000   1.0000   1.0000   1.0000   1.0000   1.0000   1.0000   1.0000
     1.0000   1.0000   1.0000   1.0000   1.0000   1.0000   1.0000   1.0000
     1.0000   1.0000   1.0000   1.0000   1.0000   1.0000   1.0000   1.0000
     0.0000   0.0000   0.0000   0.0000   0.0000   0.0000   0.0000   0.0000
     0.0000   0.0000

          k = 0.0000 0.2470 0.0000 ( 37673 PWs)   bands (ev):

   -85.7046 -85.7045 -85.5982 -85.5973 -51.8276 -51.8273 -51.7664 -51.7656
   -51.6766 -51.6765 -51.5702 -51.5701 -51.5422 -51.5413 -51.4553 -51.4542
   -44.9901 -17.0325 -16.9727 -16.9442 -16.3277 -16.1410 -16.1093 -15.9799
   -13.9808 -13.9529 -13.8942 -13.8625 -13.7844 -13.7641 -13.6817 -13.6015
   -13.5414 -13.5128 -13.5028 -13.4960  -4.3545  -3.9209  -3.8744  -3.5226
    -2.3972  -2.1545  -2.0719  -2.0026  -1.7431  -1.5766  -1.5317  -1.4711
    -1.3822  -1.1886  -0.9960  -0.7310  -0.6850  -0.5962  -0.1102  -0.0624
     0.0542   0.0688   0.1637   0.2368   0.3896   0.5688   0.6839   0.7830
     0.8670   0.9261   0.9605   0.9875   1.1194   1.1309   1.3285   1.3877
     1.5287   1.7431   1.7737   1.8607   1.8993   1.9327   1.9870   2.0551
     2.2416   2.2770   2.3294   2.3622   2.5017   2.5982   2.6785   2.8207
     2.8271   2.8617   2.8939   3.0592   3.1127   3.2748   3.3187   3.4929
     3.5081   3.5705   3.6659   3.7526   3.7848   4.0037   4.3024   4.3592
     8.5311  10.5127  10.9834  11.0624  11.5534  12.1312  12.3642  12.6588
    12.7629  12.9044

     occupation numbers 
     1.0000   1.0000   1.0000   1.0000   1.0000   1.0000   1.0000   1.0000
     1.0000   1.0000   1.0000   1.0000   1.0000   1.0000   1.0000   1.0000
     1.0000   1.0000   1.0000   1.0000   1.0000   1.0000   1.0000   1.0000
     1.0000   1.0000   1.0000   1.0000   1.0000   1.0000   1.0000   1.0000
     1.0000   1.0000   1.0000   1.0000   1.0000   1.0000   1.0000   1.0000
     1.0000   1.0000   1.0000   1.0000   1.0000   1.0000   1.0000   1.0000
     1.0000   1.0000   1.0000   1.0000   1.0000   1.0000   1.0000   1.0000
     1.0000   1.0000   1.0000   1.0000   1.0000   1.0000   1.0000   1.0000
     1.0000   1.0000   1.0000   1.0000   1.0000   1.0000   1.0000   1.0000
     1.0000   1.0000   1.0000   1.0000   1.0000   1.0000   1.0000   1.0000
     1.0000   1.0000   1.0000   1.0000   1.0000   1.0000   1.0000   1.0000
     1.0000   1.0000   1.0000   1.0000   1.0000   1.0000   1.0000   1.0000
     1.0000   1.0000   1.0000   1.0000   1.0000   1.0000   1.0000   1.0000
     0.0000   0.0000   0.0000   0.0000   0.0000   0.0000   0.0000   0.0000
     0.0000   0.0000

          k = 0.0000 0.2470 0.2415 ( 37679 PWs)   bands (ev):

   -85.7046 -85.7045 -85.5982 -85.5973 -51.8276 -51.8273 -51.7664 -51.7656
   -51.6766 -51.6765 -51.5702 -51.5701 -51.5422 -51.5413 -51.4553 -51.4542
   -44.9901 -17.0321 -16.9724 -16.9471 -16.3067 -16.1359 -16.1001 -15.9823
   -13.9959 -13.9680 -13.9103 -13.8722 -13.7825 -13.7604 -13.6820 -13.6071
   -13.5397 -13.5132 -13.5023 -13.4962  -4.3336  -3.9187  -3.8699  -3.5313
    -2.3506  -2.1510  -2.0359  -1.9781  -1.7392  -1.6053  -1.5304  -1.4281
    -1.3535  -1.1640  -1.0393  -0.7435  -0.6873  -0.5862  -0.0967  -0.0467
     0.0373   0.0821   0.1538   0.2600   0.4063   0.5718   0.6591   0.7673
     0.8597   0.9126   0.9519   0.9859   1.1045   1.1248   1.2993   1.3662
     1.5752   1.6775   1.7433   1.8297   1.8491   1.9288   1.9995   2.1055
     2.2032   2.2590   2.3552   2.3844   2.4957   2.5627   2.6539   2.7775
     2.8161   2.8691   2.9181   3.0615   3.0950   3.3169   3.3242   3.4961
     3.5562   3.5667   3.6937   3.7533   3.7781   3.9978   4.2905   4.3366
     8.6718  10.5872  11.0148  11.0954  11.5989  12.0693  12.4167  12.5649
    12.6688  12.8979

     occupation numbers 
     1.0000   1.0000   1.0000   1.0000   1.0000   1.0000   1.0000   1.0000
     1.0000   1.0000   1.0000   1.0000   1.0000   1.0000   1.0000   1.0000
     1.0000   1.0000   1.0000   1.0000   1.0000   1.0000   1.0000   1.0000
     1.0000   1.0000   1.0000   1.0000   1.0000   1.0000   1.0000   1.0000
     1.0000   1.0000   1.0000   1.0000   1.0000   1.0000   1.0000   1.0000
     1.0000   1.0000   1.0000   1.0000   1.0000   1.0000   1.0000   1.0000
     1.0000   1.0000   1.0000   1.0000   1.0000   1.0000   1.0000   1.0000
     1.0000   1.0000   1.0000   1.0000   1.0000   1.0000   1.0000   1.0000
     1.0000   1.0000   1.0000   1.0000   1.0000   1.0000   1.0000   1.0000
     1.0000   1.0000   1.0000   1.0000   1.0000   1.0000   1.0000   1.0000
     1.0000   1.0000   1.0000   1.0000   1.0000   1.0000   1.0000   1.0000
     1.0000   1.0000   1.0000   1.0000   1.0000   1.0000   1.0000   1.0000
     1.0000   1.0000   1.0000   1.0000   1.0000   1.0000   1.0000   1.0000
     0.0000   0.0000   0.0000   0.0000   0.0000   0.0000   0.0000   0.0000
     0.0000   0.0000

          k = 0.0000 0.2470 0.4830 ( 37698 PWs)   bands (ev):

   -85.7046 -85.7045 -85.5982 -85.5973 -51.8276 -51.8273 -51.7664 -51.7656
   -51.6766 -51.6765 -51.5702 -51.5701 -51.5422 -51.5413 -51.4553 -51.4542
   -44.9901 -17.0319 -16.9715 -16.9515 -16.2566 -16.1152 -16.0854 -15.9857
   -14.0308 -14.0035 -13.9515 -13.9104 -13.7714 -13.7473 -13.6787 -13.6207
   -13.5407 -13.5174 -13.5062 -13.4900  -4.2729  -3.9103  -3.8632  -3.5694
    -2.2204  -2.1274  -1.9436  -1.9388  -1.7244  -1.6237  -1.5406  -1.3938
    -1.2158  -1.1478  -1.0831  -0.8471  -0.6225  -0.5567  -0.0611  -0.0093
     0.0305   0.0513   0.1790   0.3203   0.4176   0.5437   0.5759   0.7657
     0.8377   0.9019   0.9269   0.9636   1.0434   1.1380   1.2176   1.3580
     1.4596   1.6021   1.7107   1.7484   1.8063   1.9576   2.0022   2.0890
     2.2261   2.2768   2.3496   2.3699   2.4323   2.4751   2.6123   2.6551
     2.7973   2.9168   2.9954   3.0861   3.1309   3.3352   3.3822   3.5064
     3.6008   3.6283   3.6868   3.7702   3.8092   3.9949   4.2492   4.2782
     9.0488  10.7962  11.0529  11.1929  11.7292  11.9988  12.3138  12.4270
    12.5577  12.7776

     occupation numbers 
     1.0000   1.0000   1.0000   1.0000   1.0000   1.0000   1.0000   1.0000
     1.0000   1.0000   1.0000   1.0000   1.0000   1.0000   1.0000   1.0000
     1.0000   1.0000   1.0000   1.0000   1.0000   1.0000   1.0000   1.0000
     1.0000   1.0000   1.0000   1.0000   1.0000   1.0000   1.0000   1.0000
     1.0000   1.0000   1.0000   1.0000   1.0000   1.0000   1.0000   1.0000
     1.0000   1.0000   1.0000   1.0000   1.0000   1.0000   1.0000   1.0000
     1.0000   1.0000   1.0000   1.0000   1.0000   1.0000   1.0000   1.0000
     1.0000   1.0000   1.0000   1.0000   1.0000   1.0000   1.0000   1.0000
     1.0000   1.0000   1.0000   1.0000   1.0000   1.0000   1.0000   1.0000
     1.0000   1.0000   1.0000   1.0000   1.0000   1.0000   1.0000   1.0000
     1.0000   1.0000   1.0000   1.0000   1.0000   1.0000   1.0000   1.0000
     1.0000   1.0000   1.0000   1.0000   1.0000   1.0000   1.0000   1.0000
     1.0000   1.0000   1.0000   1.0000   1.0000   1.0000   1.0000   1.0000
     0.0000   0.0000   0.0000   0.0000   0.0000   0.0000   0.0000   0.0000
     0.0000   0.0000

          k = 0.0000 0.2470 0.7246 ( 37707 PWs)   bands (ev):

   -85.7046 -85.7045 -85.5982 -85.5973 -51.8276 -51.8273 -51.7664 -51.7656
   -51.6766 -51.6765 -51.5702 -51.5701 -51.5422 -51.5413 -51.4553 -51.4542
   -44.9901 -17.0350 -16.9695 -16.9522 -16.1946 -16.0890 -16.0739 -15.9915
   -14.0677 -14.0420 -13.9973 -13.9625 -13.7533 -13.7290 -13.6750 -13.6408
   -13.5428 -13.5276 -13.5072 -13.4831  -4.1789  -3.9094  -3.8557  -3.6438
    -2.1167  -2.0178  -1.9184  -1.8396  -1.6935  -1.6203  -1.5377  -1.3672
    -1.2909  -1.0069  -1.0016  -0.9434  -0.5203  -0.5027  -0.0765  -0.0102
     0.0467   0.0674   0.2348   0.3834   0.4311   0.4431   0.5650   0.7522
     0.7747   0.8768   0.9044   0.9280   0.9740   1.0899   1.1432   1.2220
     1.3813   1.4831   1.6147   1.6949   1.9049   1.9485   1.9851   2.0771
     2.2141   2.2588   2.2974   2.3300   2.3636   2.4157   2.5013   2.6221
     2.7949   2.9387   3.1035   3.1823   3.2565   3.3610   3.3961   3.5254
     3.6274   3.6721   3.6900   3.7950   3.8742   3.9934   4.1774   4.1968
     9.5669  10.9815  11.0948  11.3313  11.8495  12.0161  12.1158  12.2703
    12.4422  12.5480

     occupation numbers 
     1.0000   1.0000   1.0000   1.0000   1.0000   1.0000   1.0000   1.0000
     1.0000   1.0000   1.0000   1.0000   1.0000   1.0000   1.0000   1.0000
     1.0000   1.0000   1.0000   1.0000   1.0000   1.0000   1.0000   1.0000
     1.0000   1.0000   1.0000   1.0000   1.0000   1.0000   1.0000   1.0000
     1.0000   1.0000   1.0000   1.0000   1.0000   1.0000   1.0000   1.0000
     1.0000   1.0000   1.0000   1.0000   1.0000   1.0000   1.0000   1.0000
     1.0000   1.0000   1.0000   1.0000   1.0000   1.0000   1.0000   1.0000
     1.0000   1.0000   1.0000   1.0000   1.0000   1.0000   1.0000   1.0000
     1.0000   1.0000   1.0000   1.0000   1.0000   1.0000   1.0000   1.0000
     1.0000   1.0000   1.0000   1.0000   1.0000   1.0000   1.0000   1.0000
     1.0000   1.0000   1.0000   1.0000   1.0000   1.0000   1.0000   1.0000
     1.0000   1.0000   1.0000   1.0000   1.0000   1.0000   1.0000   1.0000
     1.0000   1.0000   1.0000   1.0000   1.0000   1.0000   1.0000   1.0000
     0.0000   0.0000   0.0000   0.0000   0.0000   0.0000   0.0000   0.0000
     0.0000   0.0000

          k = 0.0000 0.2470 0.9661 ( 37706 PWs)   bands (ev):

   -85.7046 -85.7045 -85.5982 -85.5973 -51.8276 -51.8273 -51.7664 -51.7656
   -51.6766 -51.6765 -51.5702 -51.5701 -51.5422 -51.5413 -51.4553 -51.4542
   -44.9901 -17.0385 -16.9682 -16.9502 -16.1415 -16.0979 -16.0476 -16.0001
   -14.0909 -14.0657 -14.0227 -14.0044 -13.7373 -13.7114 -13.6719 -13.6620
   -13.5448 -13.5363 -13.5073 -13.4792  -4.0675  -3.9638  -3.8146  -3.7312
    -2.0649  -1.9879  -1.8237  -1.7800  -1.6608  -1.5901  -1.5398  -1.4375
    -1.2767  -1.1298  -0.8665  -0.8348  -0.3941  -0.3762  -0.1953  -0.1394
     0.1277   0.1707   0.2697   0.2937   0.3949   0.5316   0.6000   0.6368
     0.7470   0.7580   0.8777   0.9059   0.9706   0.9914   1.0465   1.1847
     1.4265   1.4607   1.5349   1.6174   1.8992   1.9729   2.0161   2.0643
     2.1446   2.2175   2.2290   2.3004   2.3569   2.4015   2.4707   2.6040
     2.7987   2.9392   3.1522   3.3006   3.3261   3.4182   3.4309   3.5440
     3.5902   3.6347   3.7667   3.8265   3.9222   4.0038   4.0786   4.1393
    10.1296  10.6511  11.4319  11.5374  11.7383  11.8166  12.1614  12.1881
    12.3557  12.5051

     occupation numbers 
     1.0000   1.0000   1.0000   1.0000   1.0000   1.0000   1.0000   1.0000
     1.0000   1.0000   1.0000   1.0000   1.0000   1.0000   1.0000   1.0000
     1.0000   1.0000   1.0000   1.0000   1.0000   1.0000   1.0000   1.0000
     1.0000   1.0000   1.0000   1.0000   1.0000   1.0000   1.0000   1.0000
     1.0000   1.0000   1.0000   1.0000   1.0000   1.0000   1.0000   1.0000
     1.0000   1.0000   1.0000   1.0000   1.0000   1.0000   1.0000   1.0000
     1.0000   1.0000   1.0000   1.0000   1.0000   1.0000   1.0000   1.0000
     1.0000   1.0000   1.0000   1.0000   1.0000   1.0000   1.0000   1.0000
     1.0000   1.0000   1.0000   1.0000   1.0000   1.0000   1.0000   1.0000
     1.0000   1.0000   1.0000   1.0000   1.0000   1.0000   1.0000   1.0000
     1.0000   1.0000   1.0000   1.0000   1.0000   1.0000   1.0000   1.0000
     1.0000   1.0000   1.0000   1.0000   1.0000   1.0000   1.0000   1.0000
     1.0000   1.0000   1.0000   1.0000   1.0000   1.0000   1.0000   1.0000
     0.0000   0.0000   0.0000   0.0000   0.0000   0.0000   0.0000   0.0000
     0.0000   0.0000

          k = 0.0000 0.4940 0.0000 ( 37685 PWs)   bands (ev):

   -85.7046 -85.7045 -85.5982 -85.5973 -51.8276 -51.8273 -51.7664 -51.7656
   -51.6766 -51.6765 -51.5702 -51.5701 -51.5422 -51.5413 -51.4553 -51.4542
   -44.9901 -17.0337 -16.9729 -16.9441 -16.2772 -16.1363 -16.1030 -16.0302
   -13.9708 -13.9409 -13.9026 -13.8747 -13.8172 -13.7694 -13.7282 -13.6304
   -13.5136 -13.5004 -13.4890 -13.4634  -4.2774  -3.9546  -3.8334  -3.5609
    -2.3159  -2.1163  -2.0934  -2.0132  -1.7164  -1.6061  -1.4406  -1.3871
    -1.3229  -1.1857  -0.9836  -0.8076  -0.6351  -0.5298  -0.0890  -0.0116
     0.0278   0.0676   0.1022   0.1530   0.2447   0.5387   0.7720   0.7869
     0.8213   0.8560   0.9277   0.9545   1.0051   1.0227   1.2341   1.4536
     1.5546   1.7022   1.8000   1.8726   1.9165   1.9404   1.9930   2.1001
     2.2365   2.2634   2.3001   2.3459   2.4543   2.5795   2.6443   2.7132
     2.7624   2.8250   3.0608   3.1529   3.1872   3.2652   3.3268   3.4163
     3.5145   3.5579   3.6378   3.6886   3.7462   4.0993   4.2821   4.3418
     8.9596  10.7189  10.7681  11.2026  11.6810  12.0016  12.5427  12.6419
    12.8661  12.8967

     occupation numbers 
     1.0000   1.0000   1.0000   1.0000   1.0000   1.0000   1.0000   1.0000
     1.0000   1.0000   1.0000   1.0000   1.0000   1.0000   1.0000   1.0000
     1.0000   1.0000   1.0000   1.0000   1.0000   1.0000   1.0000   1.0000
     1.0000   1.0000   1.0000   1.0000   1.0000   1.0000   1.0000   1.0000
     1.0000   1.0000   1.0000   1.0000   1.0000   1.0000   1.0000   1.0000
     1.0000   1.0000   1.0000   1.0000   1.0000   1.0000   1.0000   1.0000
     1.0000   1.0000   1.0000   1.0000   1.0000   1.0000   1.0000   1.0000
     1.0000   1.0000   1.0000   1.0000   1.0000   1.0000   1.0000   1.0000
     1.0000   1.0000   1.0000   1.0000   1.0000   1.0000   1.0000   1.0000
     1.0000   1.0000   1.0000   1.0000   1.0000   1.0000   1.0000   1.0000
     1.0000   1.0000   1.0000   1.0000   1.0000   1.0000   1.0000   1.0000
     1.0000   1.0000   1.0000   1.0000   1.0000   1.0000   1.0000   1.0000
     1.0000   1.0000   1.0000   1.0000   1.0000   1.0000   1.0000   1.0000
     0.0000   0.0000   0.0000   0.0000   0.0000   0.0000   0.0000   0.0000
     0.0000   0.0000

          k = 0.0000 0.4940 0.2415 ( 37685 PWs)   bands (ev):

   -85.7046 -85.7045 -85.5982 -85.5973 -51.8276 -51.8273 -51.7664 -51.7656
   -51.6766 -51.6765 -51.5702 -51.5701 -51.5422 -51.5413 -51.4553 -51.4542
   -44.9901 -17.0332 -16.9727 -16.9467 -16.2561 -16.1321 -16.0930 -16.0320
   -13.9918 -13.9567 -13.9231 -13.8818 -13.8092 -13.7729 -13.7203 -13.6322
   -13.5139 -13.5044 -13.4875 -13.4623  -4.2578  -3.9462  -3.8334  -3.5669
    -2.2730  -2.1098  -2.0564  -1.9888  -1.7131  -1.6230  -1.4107  -1.3672
    -1.3001  -1.1814  -1.0177  -0.8299  -0.6244  -0.5345  -0.1003  -0.0301
    -0.0020   0.0640   0.1217   0.1942   0.2935   0.5516   0.6864   0.7583
     0.8355   0.8850   0.9174   0.9594   1.0110   1.0320   1.2385   1.4486
     1.5620   1.7253   1.7436   1.8511   1.8708   1.9404   1.9829   2.0764
     2.2092   2.2468   2.2754   2.3797   2.4567   2.5432   2.6286   2.6747
     2.7418   2.8371   3.0254   3.1586   3.1988   3.2867   3.3392   3.4530
     3.5185   3.5711   3.6181   3.6907   3.7953   4.0999   4.2713   4.3370
     9.0831  10.7692  10.8391  11.2533  11.7267  11.9951  12.4989  12.5621
    12.8061  12.8637

     occupation numbers 
     1.0000   1.0000   1.0000   1.0000   1.0000   1.0000   1.0000   1.0000
     1.0000   1.0000   1.0000   1.0000   1.0000   1.0000   1.0000   1.0000
     1.0000   1.0000   1.0000   1.0000   1.0000   1.0000   1.0000   1.0000
     1.0000   1.0000   1.0000   1.0000   1.0000   1.0000   1.0000   1.0000
     1.0000   1.0000   1.0000   1.0000   1.0000   1.0000   1.0000   1.0000
     1.0000   1.0000   1.0000   1.0000   1.0000   1.0000   1.0000   1.0000
     1.0000   1.0000   1.0000   1.0000   1.0000   1.0000   1.0000   1.0000
     1.0000   1.0000   1.0000   1.0000   1.0000   1.0000   1.0000   1.0000
[...]
     atom   25 type  3   force =     0.00669032   -0.00257590    0.00319989
     The non-local contrib.  to forces
     atom    1 type  2   force =     0.00000000    0.00000000    0.00000000
     atom    2 type  1   force =     0.12089151    0.06713975    0.11735583
     atom    3 type  1   force =     0.05642697   -0.00492915    0.10602696
     atom    4 type  1   force =    -0.12089151   -0.06713975   -0.11735583
     atom    5 type  1   force =    -0.05642697    0.00492915   -0.10602696
     atom    6 type  4   force =    -0.06130297   -0.00397604   -0.06858948
     atom    7 type  4   force =     0.06128267   -0.00184980   -0.05208461
     atom    8 type  4   force =     0.06130297    0.00397604    0.06858948
     atom    9 type  4   force =    -0.06128267    0.00184980    0.05208461
     atom   10 type  3   force =     0.33197923   -0.02214365   -1.53251035
     atom   11 type  3   force =    -0.18834864   -0.02129078   -1.51222130
     atom   12 type  3   force =    -0.33197923    0.02214365    1.53251035
     atom   13 type  3   force =     0.18834864    0.02129078    1.51222130
     atom   14 type  3   force =     1.24293485   -0.00185893   -0.52928660
     atom   15 type  3   force =    -1.21300156    0.01461674   -0.65625586
     atom   16 type  3   force =    -1.24293485    0.00185893    0.52928660
     atom   17 type  3   force =     1.21300156   -0.01461674    0.65625586
     atom   18 type  3   force =    -0.58877683   -1.07402853    0.73012634
     atom   19 type  3   force =     0.65119944    1.06612633    0.67566555
     atom   20 type  3   force =     0.54370012   -1.04652435   -0.72614620
     atom   21 type  3   force =    -0.59449159    1.04858892   -0.80632878
     atom   22 type  3   force =     0.58877683    1.07402853   -0.73012634
     atom   23 type  3   force =    -0.65119944   -1.06612633   -0.67566555
     atom   24 type  3   force =    -0.54370012    1.04652435    0.72614620
     atom   25 type  3   force =     0.59449159   -1.04858892    0.80632878
     The ionic contribution  to forces
     atom    1 type  2   force =    -0.00008114    0.00003404    0.00002885
     atom    2 type  1   force =    -1.25173158   -0.83505844   -0.50333384
     atom    3 type  1   force =   -10.27994920    1.41434987   -0.35236405
     atom    4 type  1   force =     1.25172086    0.83505752    0.50332339
     atom    5 type  1   force =    10.27993569   -1.41435700    0.35235728
     atom    6 type  4   force =    -5.11402580   -0.02134489    0.17352393
     atom    7 type  4   force =     2.12488592    1.53271669    0.65213346
     atom    8 type  4   force =     5.11408348    0.02134688   -0.17353244
     atom    9 type  4   force =    -2.12495617   -1.53272225   -0.65203156
     atom   10 type  3   force =   -11.16715045    0.09665083    3.13560047
     atom   11 type  3   force =     5.72981608    2.44081937    2.28244075
     atom   12 type  3   force =    11.16709358   -0.09664755   -3.13572587
     atom   13 type  3   force =    -5.72969493   -2.44084041   -2.28250650
     atom   14 type  3   force =     0.46032744   -2.62027537    3.54302987
     atom   15 type  3   force =    -2.87341480   -0.09345278    5.82775049
     atom   16 type  3   force =    -0.46018622    2.62024729   -3.54309154
     atom   17 type  3   force =     2.87329591    0.09345321   -5.82777174
     atom   18 type  3   force =    -5.37249452    3.10548834   -2.76769763
     atom   19 type  3   force =    -1.10097977   -2.80021358   -0.91573595
     atom   20 type  3   force =     5.02240817    2.93671120    2.67101538
     atom   21 type  3   force =    -1.58739442   -2.50943823    3.13131632
     atom   22 type  3   force =     5.37249023   -3.10547493    2.76776987
     atom   23 type  3   force =     1.10100182    2.80021102    0.91573941
     atom   24 type  3   force =    -5.02241068   -2.93672442   -2.67094186
     atom   25 type  3   force =     1.58741050    2.50946359   -3.13129651
     The local contribution  to forces
     atom    1 type  2   force =    -0.00490025   -0.00016827   -0.00226497
     atom    2 type  1   force =     1.12174868    0.76342555    0.37631551
     atom    3 type  1   force =    10.19971750   -1.41665930    0.24159382
     atom    4 type  1   force =    -1.14118995   -0.77448841   -0.38691879
     atom    5 type  1   force =   -10.22304775    1.40538154   -0.25271856
     atom    6 type  4   force =     5.12697011    0.02591408   -0.12312571
     atom    7 type  4   force =    -2.14204056   -1.53184508   -0.61358285
     atom    8 type  4   force =    -5.12690026   -0.02598211    0.12303881
     atom    9 type  4   force =     2.14201219    1.53169762    0.61372383
     atom   10 type  3   force =    10.84548993   -0.07646721   -1.61296561
     atom   11 type  3   force =    -5.55140514   -2.42178520   -0.78398970
     atom   12 type  3   force =   -10.85014198    0.07374805    1.61158433
     atom   13 type  3   force =     5.54600984    2.41891632    0.78094606
     atom   14 type  3   force =    -1.63808210    2.61998353   -3.03019064
     atom   15 type  3   force =     4.02210438    0.07802688   -5.19380806
     atom   16 type  3   force =     1.63476553   -2.62248274    3.02792146
     atom   17 type  3   force =    -4.02600723   -0.08069233    5.19093784
     atom   18 type  3   force =     5.94614576   -2.04703094    2.04615020
     atom   19 type  3   force =     0.46235883    1.74564498    0.24709455
     atom   20 type  3   force =    -5.55813328   -1.90526268   -1.95600748
     atom   21 type  3   force =     2.16712738    1.47140064   -2.33658638
     atom   22 type  3   force =    -5.95171415    2.04525871   -2.04865944
     atom   23 type  3   force =    -0.46756147   -1.74788348   -0.24932198
     atom   24 type  3   force =     5.55230987    1.90274008    1.95307038
     atom   25 type  3   force =    -2.17269177   -1.47362577    2.33473397
     The core correction contribution to forces
     atom    1 type  2   force =     0.00000000    0.00000000    0.00000000
     atom    2 type  1   force =    -0.00161744   -0.00049026   -0.00065101
     atom    3 type  1   force =     0.00004321    0.00039728    0.00018374
     atom    4 type  1   force =     0.00227372    0.00087013    0.00100125
     atom    5 type  1   force =     0.00072436   -0.00002080    0.00018317
     atom    6 type  4   force =     0.00608602    0.00021020    0.00547164
     atom    7 type  4   force =    -0.00587189   -0.00024994    0.00377475
     atom    8 type  4   force =    -0.00607216   -0.00020351   -0.00546352
     atom    9 type  4   force =     0.00588746    0.00025601   -0.00376762
     atom   10 type  3   force =    -0.00372344    0.00021706    0.01338685
     atom   11 type  3   force =     0.00240571    0.00017484    0.01318758
     atom   12 type  3   force =     0.00371801   -0.00021853   -0.01339190
     atom   13 type  3   force =    -0.00240929   -0.00017599   -0.01319018
     atom   14 type  3   force =    -0.01141898    0.00012340    0.00539033
     atom   15 type  3   force =     0.01122730   -0.00014585    0.00656722
     atom   16 type  3   force =     0.01141139   -0.00012444   -0.00539124
     atom   17 type  3   force =    -0.01123702    0.00014441   -0.00656912
     atom   18 type  3   force =     0.00529743    0.00940066   -0.00669946
     atom   19 type  3   force =    -0.00581930   -0.00937979   -0.00624323
     atom   20 type  3   force =    -0.00485302    0.00914251    0.00667326
     atom   21 type  3   force =     0.00529599   -0.00907816    0.00748186
     atom   22 type  3   force =    -0.00530200   -0.00940579    0.00669951
     atom   23 type  3   force =     0.00581313    0.00937447    0.00623877
     atom   24 type  3   force =     0.00485058   -0.00914359   -0.00667332
     atom   25 type  3   force =    -0.00530034    0.00907733   -0.00748586
     The Hubbard contrib.    to forces
     atom    1 type  2   force =     0.00000000    0.00000000    0.00000000
     atom    2 type  1   force =     0.00000000    0.00000000    0.00000000
     atom    3 type  1   force =     0.00000000    0.00000000    0.00000000
     atom    4 type  1   force =     0.00000000    0.00000000    0.00000000
     atom    5 type  1   force =     0.00000000    0.00000000    0.00000000
     atom    6 type  4   force =     0.00000000    0.00000000    0.00000000
     atom    7 type  4   force =     0.00000000    0.00000000    0.00000000
     atom    8 type  4   force =     0.00000000    0.00000000    0.00000000
     atom    9 type  4   force =     0.00000000    0.00000000    0.00000000
     atom   10 type  3   force =     0.00000000    0.00000000    0.00000000
     atom   11 type  3   force =     0.00000000    0.00000000    0.00000000
     atom   12 type  3   force =     0.00000000    0.00000000    0.00000000
     atom   13 type  3   force =     0.00000000    0.00000000    0.00000000
     atom   14 type  3   force =     0.00000000    0.00000000    0.00000000
     atom   15 type  3   force =     0.00000000    0.00000000    0.00000000
     atom   16 type  3   force =     0.00000000    0.00000000    0.00000000
     atom   17 type  3   force =     0.00000000    0.00000000    0.00000000
     atom   18 type  3   force =     0.00000000    0.00000000    0.00000000
     atom   19 type  3   force =     0.00000000    0.00000000    0.00000000
     atom   20 type  3   force =     0.00000000    0.00000000    0.00000000
     atom   21 type  3   force =     0.00000000    0.00000000    0.00000000
     atom   22 type  3   force =     0.00000000    0.00000000    0.00000000
     atom   23 type  3   force =     0.00000000    0.00000000    0.00000000
     atom   24 type  3   force =     0.00000000    0.00000000    0.00000000
     atom   25 type  3   force =     0.00000000    0.00000000    0.00000000
     The SCF correction term to forces
     atom    1 type  2   force =     0.00000001    0.00000000    0.00000000
     atom    2 type  1   force =     0.00000555   -0.00000155    0.00000089
     atom    3 type  1   force =     0.00000489    0.00000125    0.00000062
     atom    4 type  1   force =    -0.00000548    0.00000159   -0.00000086
     atom    5 type  1   force =    -0.00000482   -0.00000121   -0.00000058
     atom    6 type  4   force =     0.00000088   -0.00000020   -0.00000002
     atom    7 type  4   force =     0.00000111    0.00000049   -0.00000010
     atom    8 type  4   force =    -0.00000088    0.00000020    0.00000002
     atom    9 type  4   force =    -0.00000111   -0.00000049    0.00000010
     atom   10 type  3   force =    -0.00000014   -0.00000014   -0.00000186
     atom   11 type  3   force =     0.00000199    0.00000033   -0.00000258
     atom   12 type  3   force =     0.00000014    0.00000015    0.00000186
     atom   13 type  3   force =    -0.00000199   -0.00000032    0.00000259
     atom   14 type  3   force =     0.00000388   -0.00000022   -0.00000096
     atom   15 type  3   force =     0.00000126    0.00000025    0.00000037
     atom   16 type  3   force =    -0.00000388    0.00000023    0.00000096
     atom   17 type  3   force =    -0.00000126   -0.00000024   -0.00000037
     atom   18 type  3   force =     0.00000074   -0.00000155    0.00000093
     atom   19 type  3   force =     0.00000431    0.00000238    0.00000170
     atom   20 type  3   force =    -0.00000094   -0.00000124   -0.00000060
     atom   21 type  3   force =    -0.00000401    0.00000243   -0.00000120
     atom   22 type  3   force =    -0.00000073    0.00000155   -0.00000093
     atom   23 type  3   force =    -0.00000430   -0.00000238   -0.00000170
     atom   24 type  3   force =     0.00000095    0.00000125    0.00000061
     atom   25 type  3   force =     0.00000402   -0.00000243    0.00000120

     Total force =     0.142296     Total SCF correction =     0.000017


     Computing stress (Cartesian axis) and pressure


     negative rho (up, down):  0.000E+00 9.390E-04
          total   stress  (Ry/bohr**3)                   (kbar)     P=      -76.85
  -0.00101241  -0.00000177  -0.00001475         -148.93       -0.26       -2.17
  -0.00000177  -0.00033462   0.00001414           -0.26      -49.23        2.08
  -0.00001475   0.00001414  -0.00022020           -2.17        2.08      -32.39

     kinetic stress (kbar)  25365.76     19.13      2.24
                               19.13  25642.47     -0.05
                                2.24     -0.05  25462.76

     local   stress (kbar)  -3642.54   2658.65    832.47
                             2658.65 -15494.41   -938.81
                              832.47   -938.81  -7817.24

     nonloc. stress (kbar)  -6444.94      1.78     -2.39
                                1.78  -6409.72     -2.15
                               -2.39     -2.15  -6386.06

     hartree stress (kbar)  11845.03  -1076.09   -323.59
                            -1076.09  17919.99    380.78
                             -323.59    380.78  14241.14

     exc-cor stress (kbar)  -2697.82     -1.43     -0.67
                               -1.43  -2703.35      0.36
                               -0.67      0.36  -2701.99

     corecor stress (kbar)  -3012.50      0.49      0.73
                                0.49  -3012.64      0.04
                                0.73      0.04  -3015.40

     ewald   stress (kbar) -21561.92  -1602.79   -510.96
                            -1602.79 -15991.56    561.91
                             -510.96    561.91 -19815.61

     hubbard stress (kbar)      0.00      0.00      0.00
                                0.00      0.00      0.00
                                0.00      0.00      0.00

     DFT-D   stress (kbar)      0.00      0.00      0.00
                                0.00      0.00      0.00
                                0.00      0.00      0.00

     XDM     stress (kbar)      0.00      0.00      0.00
                                0.00      0.00      0.00
                                0.00      0.00      0.00

     dft-nl  stress (kbar)      0.00      0.00      0.00
                                0.00      0.00      0.00
                                0.00      0.00      0.00

     TS-vdW  stress (kbar)      0.00      0.00      0.00
                                0.00      0.00      0.00
                                0.00      0.00      0.00



     init_run     :    197.30s CPU    202.88s WALL (       1 calls)
     electrons    :  13886.12s CPU  14090.42s WALL (       1 calls)
     forces       :    123.11s CPU    125.77s WALL (       1 calls)
     stress       :    814.58s CPU    820.82s WALL (       1 calls)

     Called by init_run:
     wfcinit      :    186.97s CPU    191.19s WALL (       1 calls)
     wfcinit:atom :      3.87s CPU      3.98s WALL (     316 calls)
     wfcinit:wfcr :    172.29s CPU    176.12s WALL (     316 calls)
     potinit      :      3.76s CPU      4.09s WALL (       1 calls)
     hinit0       :      3.27s CPU      3.63s WALL (       1 calls)

     Called by electrons:
     c_bands      :  12446.93s CPU  12596.00s WALL (      25 calls)
     sum_band     :   1358.85s CPU   1397.18s WALL (      25 calls)
     v_of_rho     :     25.01s CPU     26.60s WALL (      26 calls)
     v_h          :      1.26s CPU      1.31s WALL (      26 calls)
     v_xc         :     25.70s CPU     27.32s WALL (      28 calls)
     newd         :     39.30s CPU     54.82s WALL (      26 calls)
     PAW_pot      :     11.21s CPU     11.25s WALL (      26 calls)
     mix_rho      :      5.33s CPU      5.60s WALL (      25 calls)

     Called by c_bands:
     init_us_2    :    240.12s CPU    246.62s WALL (   16748 calls)
     cegterg      :  12059.49s CPU  12199.42s WALL (    7900 calls)

     Called by sum_band:
     sum_band:wei :      0.40s CPU      0.41s WALL (      25 calls)
     sum_band:loo :   1233.69s CPU   1250.40s WALL (      25 calls)
     sum_band:buf :     62.11s CPU     63.67s WALL (    7900 calls)
     sum_band:ini :    114.02s CPU    116.90s WALL (    7900 calls)
     sum_band:cal :    553.76s CPU    560.42s WALL (    7900 calls)
     sum_band:bec :      5.10s CPU      5.19s WALL (    7900 calls)
     addusdens    :    117.83s CPU    139.04s WALL (      25 calls)
     addusd:skk   :      0.65s CPU      0.68s WALL (      75 calls)
     addusd:dgemm :     49.42s CPU     67.10s WALL (     150 calls)
     addusd:qvan2 :     65.92s CPU     66.64s WALL (     150 calls)

     Called by *egterg:
     cdiaghg      :    740.35s CPU    757.65s WALL (   33335 calls)
     cegterg:over :   1201.45s CPU   1225.50s WALL (   25435 calls)
     cegterg:upda :    716.85s CPU    721.30s WALL (   25435 calls)
     cegterg:last :   1502.04s CPU   1511.61s WALL (   14937 calls)
     h_psi        :   5735.41s CPU   5801.76s WALL (   33651 calls)
     s_psi        :   1500.46s CPU   1509.58s WALL (   33651 calls)
     g_psi        :     11.57s CPU     11.71s WALL (   25435 calls)

     Called by h_psi:
     h_psi:calbec :   1571.60s CPU   1592.68s WALL (   33651 calls)
     vloc_psi     :   2421.95s CPU   2452.14s WALL (   33651 calls)
     add_vuspsi   :   1597.03s CPU   1606.94s WALL (   33651 calls)

     General routines
     calbec       :   2234.87s CPU   2264.25s WALL (   43131 calls)
     fft          :     20.83s CPU     22.73s WALL (     688 calls)
     ffts         :      0.41s CPU      0.46s WALL (     102 calls)
     fftw         :   2720.33s CPU   2753.48s WALL ( 5194706 calls)
     interpolate  :      1.87s CPU      2.00s WALL (      52 calls)

     Parallel routines
     fft_scatt_xy :    242.20s CPU    244.61s WALL ( 5195496 calls)
     fft_scatt_yz :    839.61s CPU    855.63s WALL ( 5195496 calls)

     PAW routines
     PAW_pot      :     11.21s CPU     11.25s WALL (      26 calls)
     PAW_symme    :      0.12s CPU      0.12s WALL (      51 calls)

     PWSCF        :      4h10m CPU      4h14m WALL


   This run was terminated on:   8:10:21  16Dec2022            

=------------------------------------------------------------------------------=
   JOB DONE.
=------------------------------------------------------------------------------=
Note: The following floating-point exceptions are signalling: IEEE_UNDERFLOW_FLAG IEEE_DENORMAL
Note: The following floating-point exceptions are signalling: IEEE_DENORMAL
Note: The following floating-point exceptions are signalling: IEEE_DENORMAL
Note: The following floating-point exceptions are signalling: IEEE_DENORMAL
Note: The following floating-point exceptions are signalling: IEEE_DENORMAL
Note: The following floating-point exceptions are signalling: IEEE_DENORMAL
Note: The following floating-point exceptions are signalling: IEEE_DENORMAL
Note: The following floating-point exceptions are signalling: IEEE_DENORMAL
Note: The following floating-point exceptions are signalling: IEEE_DENORMAL
Note: The following floating-point exceptions are signalling: IEEE_DENORMAL
Note: The following floating-point exceptions are signalling: IEEE_INVALID_FLAG IEEE_DENORMAL
Note: The following floating-point exceptions are signalling: IEEE_DENORMAL
Note: The following floating-point exceptions are signalling: IEEE_DENORMAL
Note: The following floating-point exceptions are signalling: IEEE_DENORMAL
Note: The following floating-point exceptions are signalling: IEEE_DENORMAL
Note: The following floating-point exceptions are signalling: IEEE_DENORMAL
Note: The following floating-point exceptions are signalling: IEEE_DENORMAL
Note: The following floating-point exceptions are signalling: IEEE_DENORMAL
Note: The following floating-point exceptions are signalling: IEEE_DENORMAL
Note: The following floating-point exceptions are signalling: IEEE_DENORMAL
Note: The following floating-point exceptions are signalling: IEEE_INVALID_FLAG IEEE_DENORMAL
Note: The following floating-point exceptions are signalling: IEEE_DENORMAL
Note: The following floating-point exceptions are signalling: IEEE_DENORMAL
Note: The following floating-point exceptions are signalling: IEEE_DENORMAL
