
     Program PWSCF v.6.7MaX starts on 14Dec2022 at  4: 2:31 

     This program is part of the open-source Quantum ESPRESSO suite
     for quantum simulation of materials; please cite
         "P. Giannozzi et al., J. Phys.:Condens. Matter 21 395502 (2009);
         "P. Giannozzi et al., J. Phys.:Condens. Matter 29 465901 (2017);
          URL http://www.quantum-espresso.org", 
     in publications or presentations arising from this work. More details at
     http://www.quantum-espresso.org/quote

     Parallel version (MPI), running on    24 processors

     MPI processes distributed on     1 nodes
     R & G space division:  proc/nbgrp/npool/nimage =      24
     Reading input from path1_cod-5.in

     Current dimensions of program PWSCF are:
     Max number of different atomic species (ntypx) = 10
     Max number of k-points (npk) =  40000
     Max angular momentum in pseudopotentials (lmaxx) =  3
     Message from routine read_pp_mesh:
     mesh size missing, using the one in header
     file Fe.pbe-spn-kjpaw_psl.0.2.1.UPF: wavefunction(s)  3D renormalized
     file O.pbe-n-kjpaw_psl.0.1.UPF: wavefunction(s)  2P renormalized

     Subspace diagonalization in iterative solution of the eigenvalue problem:
     a serial algorithm will be used


     Parallelization info
     --------------------
     sticks:   dense  smooth     PW     G-vecs:    dense   smooth      PW
     Min         827     306     82                53951    12161    1706
     Max         828     309     83                53954    12162    1709
     Sum       19863    7371   1983              1294859   291873   40977



     bravais-lattice index     =            0
     lattice parameter (alat)  =      19.6651  a.u.
     unit-cell volume          =    2160.3578 (a.u.)^3
     number of atoms/cell      =           25
     number of atomic types    =            4
     number of electrons       =       189.00
     number of Kohn-Sham states=          114
     kinetic-energy cutoff     =     100.0000  Ry
     charge density cutoff     =    1080.0000  Ry
     scf convergence threshold =      2.0E-10
     mixing beta               =       0.4000
     number of iterations used =            8  plain     mixing
     Exchange-correlation= PBE
                           (   1   4   3   4   0   0   0)

     celldm(1)=  19.665057  celldm(2)=   0.000000  celldm(3)=   0.000000
     celldm(4)=   0.000000  celldm(5)=   0.000000  celldm(6)=   0.000000

     crystal axes: (cart. coord. in units of alat)
               a(1) = (   1.000000   0.000000   0.000000 )  
               a(2) = (   0.000000   0.597590   0.000000 )  
               a(3) = (   0.000000   0.000000   0.475375 )  

     reciprocal axes: (cart. coord. in units 2 pi/alat)
               b(1) = (  1.000000  0.000000  0.000000 )  
               b(2) = (  0.000000  1.673388  0.000000 )  
               b(3) = (  0.000000  0.000000  2.103600 )  


     PseudoPot. # 1 for Fe read from file:
     /opt/QEpot/SSSP_precision_pseudos/Fe.pbe-spn-kjpaw_psl.0.2.1.UPF
     MD5 check sum: e86618425769142926afa95317d90200
     Pseudo is Projector augmented-wave + core cor, Zval = 16.0
     Generated using "atomic" code by A. Dal Corso  v.5.0.99 svn rev. 10869
     Shape of augmentation charge: PSQ
     Using radial grid of 1191 points,  6 beta functions with: 
                l(1) =   0
                l(2) =   0
                l(3) =   1
                l(4) =   1
                l(5) =   2
                l(6) =   2
     Q(r) pseudized with 0 coefficients 


     PseudoPot. # 2 for Na read from file:
     /opt/QEpot/SSSP_precision_pseudos/Na_ONCV_PBE-1.0.oncvpsp.upf
     MD5 check sum: 24a298df0a6742ae313db96548fdb2a4
     Pseudo is Norm-conserving, Zval =  9.0
     Generated using ONCVPSP code by D. R. Hamann
     Using radial grid of 1992 points,  4 beta functions with: 
                l(1) =   0
                l(2) =   0
                l(3) =   1
                l(4) =   1

     PseudoPot. # 3 for O  read from file:
     /opt/QEpot/SSSP_precision_pseudos/O.pbe-n-kjpaw_psl.0.1.UPF
     MD5 check sum: 0234752ac141de4415c5fc33072bef88
     Pseudo is Projector augmented-wave + core cor, Zval =  6.0
     Generated using "atomic" code by A. Dal Corso  v.5.0.99 svn rev. 10869
     Shape of augmentation charge: BESSEL
     Using radial grid of 1095 points,  4 beta functions with: 
                l(1) =   0
                l(2) =   0
                l(3) =   1
                l(4) =   1
     Q(r) pseudized with 0 coefficients 


     PseudoPot. # 4 for P  read from file:
     /opt/QEpot/SSSP_precision_pseudos/P.pbe-n-rrkjus_psl.1.0.0.UPF
     MD5 check sum: 8b930f418f0a4573dca56cd030ffe088
     Pseudo is Ultrasoft + core correction, Zval =  5.0
     Generated using "atomic" code by A. Dal Corso  v.5.1
     Using radial grid of 1147 points,  6 beta functions with: 
                l(1) =   0
                l(2) =   0
                l(3) =   1
                l(4) =   1
                l(5) =   2
                l(6) =   2
     Q(r) pseudized with 0 coefficients 


     atomic species   valence    mass     pseudopotential
        Fe            16.00    55.84500     Fe( 1.00)
        Na             9.00    22.98977     Na( 1.00)
        O              6.00    15.99940     O ( 1.00)
        P              5.00    30.97376     P ( 1.00)

     Starting magnetic structure 
     atomic species   magnetization
        Fe           0.312
        Na           0.000
        O            0.000
        P            0.000

     No symmetry found


                                    s                        frac. trans.

      isym =  1     identity                                     

 cryst.   s( 1) = (     1          0          0      )
                  (     0          1          0      )
                  (     0          0          1      )

 cart.    s( 1) = (  1.0000000  0.0000000  0.0000000 )
                  (  0.0000000  1.0000000  0.0000000 )
                  (  0.0000000  0.0000000  1.0000000 )


   Cartesian axes

     site n.     atom                  positions (alat units)
         1           Na  tau(   1) = (   0.5574592   0.1493983   0.2117220  )
         2           Fe  tau(   2) = (   0.2771153   0.4481954   0.4712832  )
         3           Fe  tau(   3) = (   0.2107058   0.1493967   0.2331517  )
         4           Fe  tau(   4) = (   0.7302138   0.1493974   0.0000509  )
         5           Fe  tau(   5) = (   0.7810190   0.4481962   0.2445945  )
         6           P   tau(   6) = (   0.1051515   0.4481941   0.2110133  )
         7           P   tau(   7) = (   0.3871251   0.1493986   0.4475896  )
         8           P   tau(   8) = (   0.8922727   0.1493988   0.2646058  )
         9           P   tau(   9) = (   0.6039154   0.4481942   0.0314293  )
        10           O   tau(  10) = (   0.1313209   0.4481948   0.3569354  )
        11           O   tau(  11) = (   0.3628268   0.1493979   0.1186444  )
        12           O   tau(  12) = (   0.8714479   0.1493981   0.1180969  )
        13           O   tau(  13) = (   0.6323652   0.4481949   0.3613614  )
        14           O   tau(  14) = (   0.4574603   0.4481951   0.0568268  )
        15           O   tau(  15) = (   0.0361809   0.1493981   0.2982588  )
        16           O   tau(  16) = (   0.5358401   0.1493978   0.4259247  )
        17           O   tau(  17) = (   0.9582933   0.4481948   0.1859796  )
        18           O   tau(  18) = (   0.1741599   0.5648812   0.1424123  )
        19           O   tau(  19) = (   0.3208133   0.0329155   0.3780221  )
        20           O   tau(  20) = (   0.8175194   0.2646446   0.3306456  )
        21           O   tau(  21) = (   0.6721864   0.3307857   0.1012999  )
        22           O   tau(  22) = (   0.8175191   0.0341528   0.3306459  )
        23           O   tau(  23) = (   0.6721872   0.5656025   0.1013005  )
        24           O   tau(  24) = (   0.1741596   0.3315071   0.1424126  )
        25           O   tau(  25) = (   0.3208141   0.2658821   0.3780227  )

   Crystallographic axes

     site n.     atom                  positions (cryst. coord.)
         1           Na  tau(   1) = (  0.5574592  0.2500014  0.4453784  )
         2           Fe  tau(   2) = (  0.2771153  0.7500050  0.9913914  )
         3           Fe  tau(   3) = (  0.2107058  0.2499987  0.4904579  )
         4           Fe  tau(   4) = (  0.7302138  0.2499999  0.0001070  )
         5           Fe  tau(   5) = (  0.7810190  0.7500062  0.5145291  )
         6           P   tau(   6) = (  0.1051515  0.7500028  0.4438876  )
         7           P   tau(   7) = (  0.3871251  0.2500018  0.9415495  )
         8           P   tau(   8) = (  0.8922727  0.2500021  0.5566248  )
         9           P   tau(   9) = (  0.6039154  0.7500030  0.0661146  )
        10           O   tau(  10) = (  0.1313209  0.7500040  0.7508494  )
        11           O   tau(  11) = (  0.3628268  0.2500008  0.2495804  )
        12           O   tau(  12) = (  0.8714479  0.2500010  0.2484286  )
        13           O   tau(  13) = (  0.6323652  0.7500042  0.7601599  )
        14           O   tau(  14) = (  0.4574603  0.7500044  0.1195408  )
        15           O   tau(  15) = (  0.0361809  0.2500010  0.6274172  )
        16           O   tau(  16) = (  0.5358401  0.2500005  0.8959754  )
        17           O   tau(  17) = (  0.9582933  0.7500039  0.3912267  )
        18           O   tau(  18) = (  0.1741599  0.9452656  0.2995786  )
        19           O   tau(  19) = (  0.3208133  0.0550804  0.7952075  )
        20           O   tau(  20) = (  0.8175194  0.4428531  0.6955462  )
        21           O   tau(  21) = (  0.6721864  0.5535329  0.2130945  )
        22           O   tau(  22) = (  0.8175191  0.0571510  0.6955467  )
        23           O   tau(  23) = (  0.6721872  0.9464726  0.2130957  )
        24           O   tau(  24) = (  0.1741596  0.5547401  0.2995791  )
        25           O   tau(  25) = (  0.3208141  0.4449241  0.7952087  )

     number of k points=   158  Marzari-Vanderbilt smearing, width (Ry)=  0.0073
                       cart. coord. in units 2pi/alat
        k(    1) = (   0.0000000   0.0000000   0.0000000), wk =   0.0031746
        k(    2) = (   0.0000000   0.0000000   0.2337334), wk =   0.0063492
        k(    3) = (   0.0000000   0.0000000   0.4674667), wk =   0.0063492
        k(    4) = (   0.0000000   0.0000000   0.7012001), wk =   0.0063492
        k(    5) = (   0.0000000   0.0000000   0.9349334), wk =   0.0063492
        k(    6) = (   0.0000000   0.2390555   0.0000000), wk =   0.0063492
        k(    7) = (   0.0000000   0.2390555   0.2337334), wk =   0.0063492
        k(    8) = (   0.0000000   0.2390555   0.4674667), wk =   0.0063492
        k(    9) = (   0.0000000   0.2390555   0.7012001), wk =   0.0063492
        k(   10) = (   0.0000000   0.2390555   0.9349334), wk =   0.0063492
        k(   11) = (   0.0000000   0.4781110   0.0000000), wk =   0.0063492
        k(   12) = (   0.0000000   0.4781110   0.2337334), wk =   0.0063492
        k(   13) = (   0.0000000   0.4781110   0.4674667), wk =   0.0063492
        k(   14) = (   0.0000000   0.4781110   0.7012001), wk =   0.0063492
        k(   15) = (   0.0000000   0.4781110   0.9349334), wk =   0.0063492
        k(   16) = (   0.0000000   0.7171664   0.0000000), wk =   0.0063492
        k(   17) = (   0.0000000   0.7171664   0.2337334), wk =   0.0063492
        k(   18) = (   0.0000000   0.7171664   0.4674667), wk =   0.0063492
        k(   19) = (   0.0000000   0.7171664   0.7012001), wk =   0.0063492
        k(   20) = (   0.0000000   0.7171664   0.9349334), wk =   0.0063492
        k(   21) = (   0.2000000   0.0000000   0.0000000), wk =   0.0063492
        k(   22) = (   0.2000000   0.0000000   0.2337334), wk =   0.0063492
        k(   23) = (   0.2000000   0.0000000   0.4674667), wk =   0.0063492
        k(   24) = (   0.2000000   0.0000000   0.7012001), wk =   0.0063492
        k(   25) = (   0.2000000   0.0000000   0.9349334), wk =   0.0063492
        k(   26) = (   0.2000000   0.2390555   0.0000000), wk =   0.0063492
        k(   27) = (   0.2000000   0.2390555   0.2337334), wk =   0.0063492
        k(   28) = (   0.2000000   0.2390555   0.4674667), wk =   0.0063492
        k(   29) = (   0.2000000   0.2390555   0.7012001), wk =   0.0063492
        k(   30) = (   0.2000000   0.2390555   0.9349334), wk =   0.0063492
        k(   31) = (   0.2000000   0.4781110   0.0000000), wk =   0.0063492
        k(   32) = (   0.2000000   0.4781110   0.2337334), wk =   0.0063492
        k(   33) = (   0.2000000   0.4781110   0.4674667), wk =   0.0063492
        k(   34) = (   0.2000000   0.4781110   0.7012001), wk =   0.0063492
        k(   35) = (   0.2000000   0.4781110   0.9349334), wk =   0.0063492
        k(   36) = (   0.2000000   0.7171664   0.0000000), wk =   0.0063492
        k(   37) = (   0.2000000   0.7171664   0.2337334), wk =   0.0063492
        k(   38) = (   0.2000000   0.7171664   0.4674667), wk =   0.0063492
        k(   39) = (   0.2000000   0.7171664   0.7012001), wk =   0.0063492
        k(   40) = (   0.2000000   0.7171664   0.9349334), wk =   0.0063492
        k(   41) = (   0.4000000   0.0000000   0.0000000), wk =   0.0063492
        k(   42) = (   0.4000000   0.0000000   0.2337334), wk =   0.0063492
        k(   43) = (   0.4000000   0.0000000   0.4674667), wk =   0.0063492
        k(   44) = (   0.4000000   0.0000000   0.7012001), wk =   0.0063492
        k(   45) = (   0.4000000   0.0000000   0.9349334), wk =   0.0063492
        k(   46) = (   0.4000000   0.2390555   0.0000000), wk =   0.0063492
        k(   47) = (   0.4000000   0.2390555   0.2337334), wk =   0.0063492
        k(   48) = (   0.4000000   0.2390555   0.4674667), wk =   0.0063492
        k(   49) = (   0.4000000   0.2390555   0.7012001), wk =   0.0063492
        k(   50) = (   0.4000000   0.2390555   0.9349334), wk =   0.0063492
        k(   51) = (   0.4000000   0.4781110   0.0000000), wk =   0.0063492
        k(   52) = (   0.4000000   0.4781110   0.2337334), wk =   0.0063492
        k(   53) = (   0.4000000   0.4781110   0.4674667), wk =   0.0063492
        k(   54) = (   0.4000000   0.4781110   0.7012001), wk =   0.0063492
        k(   55) = (   0.4000000   0.4781110   0.9349334), wk =   0.0063492
        k(   56) = (   0.4000000   0.7171664   0.0000000), wk =   0.0063492
        k(   57) = (   0.4000000   0.7171664   0.2337334), wk =   0.0063492
        k(   58) = (   0.4000000   0.7171664   0.4674667), wk =   0.0063492
        k(   59) = (   0.4000000   0.7171664   0.7012001), wk =   0.0063492
        k(   60) = (   0.4000000   0.7171664   0.9349334), wk =   0.0063492
        k(   61) = (   0.0000000  -0.2390555   0.2337334), wk =   0.0063492
        k(   62) = (   0.0000000  -0.2390555   0.4674667), wk =   0.0063492
        k(   63) = (   0.0000000  -0.2390555   0.7012001), wk =   0.0063492
        k(   64) = (   0.0000000  -0.2390555   0.9349334), wk =   0.0063492
        k(   65) = (   0.0000000  -0.4781110   0.2337334), wk =   0.0063492
        k(   66) = (   0.0000000  -0.4781110   0.4674667), wk =   0.0063492
        k(   67) = (   0.0000000  -0.4781110   0.7012001), wk =   0.0063492
        k(   68) = (   0.0000000  -0.4781110   0.9349334), wk =   0.0063492
        k(   69) = (   0.0000000  -0.7171664   0.2337334), wk =   0.0063492
        k(   70) = (   0.0000000  -0.7171664   0.4674667), wk =   0.0063492
        k(   71) = (   0.0000000  -0.7171664   0.7012001), wk =   0.0063492
        k(   72) = (   0.0000000  -0.7171664   0.9349334), wk =   0.0063492
        k(   73) = (  -0.2000000   0.0000000   0.2337334), wk =   0.0063492
        k(   74) = (  -0.2000000   0.0000000   0.4674667), wk =   0.0063492
        k(   75) = (  -0.2000000   0.0000000   0.7012001), wk =   0.0063492
        k(   76) = (  -0.2000000   0.0000000   0.9349334), wk =   0.0063492
        k(   77) = (  -0.2000000   0.2390555   0.0000000), wk =   0.0063492
        k(   78) = (  -0.2000000  -0.2390555   0.2337334), wk =   0.0063492
        k(   79) = (  -0.2000000   0.2390555  -0.2337334), wk =   0.0063492
        k(   80) = (   0.2000000  -0.2390555  -0.2337334), wk =   0.0063492
        k(   81) = (  -0.2000000  -0.2390555   0.4674667), wk =   0.0063492
        k(   82) = (  -0.2000000   0.2390555  -0.4674667), wk =   0.0063492
        k(   83) = (   0.2000000  -0.2390555  -0.4674667), wk =   0.0063492
        k(   84) = (  -0.2000000  -0.2390555   0.7012001), wk =   0.0063492
        k(   85) = (  -0.2000000   0.2390555  -0.7012001), wk =   0.0063492
        k(   86) = (   0.2000000  -0.2390555  -0.7012001), wk =   0.0063492
        k(   87) = (  -0.2000000  -0.2390555   0.9349334), wk =   0.0063492
        k(   88) = (  -0.2000000   0.2390555  -0.9349334), wk =   0.0063492
        k(   89) = (   0.2000000  -0.2390555  -0.9349334), wk =   0.0063492
        k(   90) = (  -0.2000000   0.4781110   0.0000000), wk =   0.0063492
        k(   91) = (  -0.2000000  -0.4781110   0.2337334), wk =   0.0063492
        k(   92) = (  -0.2000000   0.4781110  -0.2337334), wk =   0.0063492
        k(   93) = (   0.2000000  -0.4781110  -0.2337334), wk =   0.0063492
        k(   94) = (  -0.2000000  -0.4781110   0.4674667), wk =   0.0063492
        k(   95) = (  -0.2000000   0.4781110  -0.4674667), wk =   0.0063492
        k(   96) = (   0.2000000  -0.4781110  -0.4674667), wk =   0.0063492
        k(   97) = (  -0.2000000  -0.4781110   0.7012001), wk =   0.0063492
        k(   98) = (  -0.2000000   0.4781110  -0.7012001), wk =   0.0063492
        k(   99) = (   0.2000000  -0.4781110  -0.7012001), wk =   0.0063492
        k(  100) = (  -0.2000000  -0.4781110   0.9349334), wk =   0.0063492
        k(  101) = (  -0.2000000   0.4781110  -0.9349334), wk =   0.0063492
        k(  102) = (   0.2000000  -0.4781110  -0.9349334), wk =   0.0063492
        k(  103) = (  -0.2000000   0.7171664   0.0000000), wk =   0.0063492
        k(  104) = (  -0.2000000  -0.7171664   0.2337334), wk =   0.0063492
        k(  105) = (  -0.2000000   0.7171664  -0.2337334), wk =   0.0063492
        k(  106) = (   0.2000000  -0.7171664  -0.2337334), wk =   0.0063492
        k(  107) = (  -0.2000000  -0.7171664   0.4674667), wk =   0.0063492
        k(  108) = (  -0.2000000   0.7171664  -0.4674667), wk =   0.0063492
        k(  109) = (   0.2000000  -0.7171664  -0.4674667), wk =   0.0063492
        k(  110) = (  -0.2000000  -0.7171664   0.7012001), wk =   0.0063492
        k(  111) = (  -0.2000000   0.7171664  -0.7012001), wk =   0.0063492
        k(  112) = (   0.2000000  -0.7171664  -0.7012001), wk =   0.0063492
        k(  113) = (  -0.2000000  -0.7171664   0.9349334), wk =   0.0063492
        k(  114) = (  -0.2000000   0.7171664  -0.9349334), wk =   0.0063492
        k(  115) = (   0.2000000  -0.7171664  -0.9349334), wk =   0.0063492
        k(  116) = (  -0.4000000   0.0000000   0.2337334), wk =   0.0063492
        k(  117) = (  -0.4000000   0.0000000   0.4674667), wk =   0.0063492
        k(  118) = (  -0.4000000   0.0000000   0.7012001), wk =   0.0063492
        k(  119) = (  -0.4000000   0.0000000   0.9349334), wk =   0.0063492
        k(  120) = (  -0.4000000   0.2390555   0.0000000), wk =   0.0063492
        k(  121) = (  -0.4000000  -0.2390555   0.2337334), wk =   0.0063492
        k(  122) = (  -0.4000000   0.2390555  -0.2337334), wk =   0.0063492
        k(  123) = (   0.4000000  -0.2390555  -0.2337334), wk =   0.0063492
        k(  124) = (  -0.4000000  -0.2390555   0.4674667), wk =   0.0063492
        k(  125) = (  -0.4000000   0.2390555  -0.4674667), wk =   0.0063492
        k(  126) = (   0.4000000  -0.2390555  -0.4674667), wk =   0.0063492
        k(  127) = (  -0.4000000  -0.2390555   0.7012001), wk =   0.0063492
        k(  128) = (  -0.4000000   0.2390555  -0.7012001), wk =   0.0063492
        k(  129) = (   0.4000000  -0.2390555  -0.7012001), wk =   0.0063492
        k(  130) = (  -0.4000000  -0.2390555   0.9349334), wk =   0.0063492
        k(  131) = (  -0.4000000   0.2390555  -0.9349334), wk =   0.0063492
        k(  132) = (   0.4000000  -0.2390555  -0.9349334), wk =   0.0063492
        k(  133) = (  -0.4000000   0.4781110   0.0000000), wk =   0.0063492
        k(  134) = (  -0.4000000  -0.4781110   0.2337334), wk =   0.0063492
        k(  135) = (  -0.4000000   0.4781110  -0.2337334), wk =   0.0063492
        k(  136) = (   0.4000000  -0.4781110  -0.2337334), wk =   0.0063492
        k(  137) = (  -0.4000000  -0.4781110   0.4674667), wk =   0.0063492
        k(  138) = (  -0.4000000   0.4781110  -0.4674667), wk =   0.0063492
        k(  139) = (   0.4000000  -0.4781110  -0.4674667), wk =   0.0063492
        k(  140) = (  -0.4000000  -0.4781110   0.7012001), wk =   0.0063492
        k(  141) = (  -0.4000000   0.4781110  -0.7012001), wk =   0.0063492
        k(  142) = (   0.4000000  -0.4781110  -0.7012001), wk =   0.0063492
        k(  143) = (  -0.4000000  -0.4781110   0.9349334), wk =   0.0063492
        k(  144) = (  -0.4000000   0.4781110  -0.9349334), wk =   0.0063492
        k(  145) = (   0.4000000  -0.4781110  -0.9349334), wk =   0.0063492
        k(  146) = (  -0.4000000   0.7171664   0.0000000), wk =   0.0063492
        k(  147) = (  -0.4000000  -0.7171664   0.2337334), wk =   0.0063492
        k(  148) = (  -0.4000000   0.7171664  -0.2337334), wk =   0.0063492
        k(  149) = (   0.4000000  -0.7171664  -0.2337334), wk =   0.0063492
        k(  150) = (  -0.4000000  -0.7171664   0.4674667), wk =   0.0063492
        k(  151) = (  -0.4000000   0.7171664  -0.4674667), wk =   0.0063492
        k(  152) = (   0.4000000  -0.7171664  -0.4674667), wk =   0.0063492
        k(  153) = (  -0.4000000  -0.7171664   0.7012001), wk =   0.0063492
        k(  154) = (  -0.4000000   0.7171664  -0.7012001), wk =   0.0063492
        k(  155) = (   0.4000000  -0.7171664  -0.7012001), wk =   0.0063492
        k(  156) = (  -0.4000000  -0.7171664   0.9349334), wk =   0.0063492
        k(  157) = (  -0.4000000   0.7171664  -0.9349334), wk =   0.0063492
        k(  158) = (   0.4000000  -0.7171664  -0.9349334), wk =   0.0063492

                       cryst. coord.
        k(    1) = (   0.0000000   0.0000000   0.0000000), wk =   0.0031746
        k(    2) = (   0.0000000   0.0000000   0.1111111), wk =   0.0063492
        k(    3) = (   0.0000000   0.0000000   0.2222222), wk =   0.0063492
        k(    4) = (   0.0000000   0.0000000   0.3333333), wk =   0.0063492
        k(    5) = (   0.0000000   0.0000000   0.4444444), wk =   0.0063492
        k(    6) = (   0.0000000   0.1428571   0.0000000), wk =   0.0063492
        k(    7) = (   0.0000000   0.1428571   0.1111111), wk =   0.0063492
        k(    8) = (   0.0000000   0.1428571   0.2222222), wk =   0.0063492
        k(    9) = (   0.0000000   0.1428571   0.3333333), wk =   0.0063492
        k(   10) = (   0.0000000   0.1428571   0.4444444), wk =   0.0063492
        k(   11) = (   0.0000000   0.2857143   0.0000000), wk =   0.0063492
        k(   12) = (   0.0000000   0.2857143   0.1111111), wk =   0.0063492
        k(   13) = (   0.0000000   0.2857143   0.2222222), wk =   0.0063492
        k(   14) = (   0.0000000   0.2857143   0.3333333), wk =   0.0063492
        k(   15) = (   0.0000000   0.2857143   0.4444444), wk =   0.0063492
        k(   16) = (   0.0000000   0.4285714   0.0000000), wk =   0.0063492
        k(   17) = (   0.0000000   0.4285714   0.1111111), wk =   0.0063492
        k(   18) = (   0.0000000   0.4285714   0.2222222), wk =   0.0063492
        k(   19) = (   0.0000000   0.4285714   0.3333333), wk =   0.0063492
        k(   20) = (   0.0000000   0.4285714   0.4444444), wk =   0.0063492
        k(   21) = (   0.2000000   0.0000000   0.0000000), wk =   0.0063492
        k(   22) = (   0.2000000   0.0000000   0.1111111), wk =   0.0063492
        k(   23) = (   0.2000000   0.0000000   0.2222222), wk =   0.0063492
        k(   24) = (   0.2000000   0.0000000   0.3333333), wk =   0.0063492
        k(   25) = (   0.2000000   0.0000000   0.4444444), wk =   0.0063492
        k(   26) = (   0.2000000   0.1428571   0.0000000), wk =   0.0063492
        k(   27) = (   0.2000000   0.1428571   0.1111111), wk =   0.0063492
        k(   28) = (   0.2000000   0.1428571   0.2222222), wk =   0.0063492
        k(   29) = (   0.2000000   0.1428571   0.3333333), wk =   0.0063492
        k(   30) = (   0.2000000   0.1428571   0.4444444), wk =   0.0063492
        k(   31) = (   0.2000000   0.2857143   0.0000000), wk =   0.0063492
        k(   32) = (   0.2000000   0.2857143   0.1111111), wk =   0.0063492
        k(   33) = (   0.2000000   0.2857143   0.2222222), wk =   0.0063492
        k(   34) = (   0.2000000   0.2857143   0.3333333), wk =   0.0063492
        k(   35) = (   0.2000000   0.2857143   0.4444444), wk =   0.0063492
        k(   36) = (   0.2000000   0.4285714   0.0000000), wk =   0.0063492
        k(   37) = (   0.2000000   0.4285714   0.1111111), wk =   0.0063492
        k(   38) = (   0.2000000   0.4285714   0.2222222), wk =   0.0063492
        k(   39) = (   0.2000000   0.4285714   0.3333333), wk =   0.0063492
        k(   40) = (   0.2000000   0.4285714   0.4444444), wk =   0.0063492
        k(   41) = (   0.4000000   0.0000000   0.0000000), wk =   0.0063492
        k(   42) = (   0.4000000   0.0000000   0.1111111), wk =   0.0063492
        k(   43) = (   0.4000000   0.0000000   0.2222222), wk =   0.0063492
        k(   44) = (   0.4000000   0.0000000   0.3333333), wk =   0.0063492
        k(   45) = (   0.4000000   0.0000000   0.4444444), wk =   0.0063492
        k(   46) = (   0.4000000   0.1428571   0.0000000), wk =   0.0063492
        k(   47) = (   0.4000000   0.1428571   0.1111111), wk =   0.0063492
        k(   48) = (   0.4000000   0.1428571   0.2222222), wk =   0.0063492
        k(   49) = (   0.4000000   0.1428571   0.3333333), wk =   0.0063492
        k(   50) = (   0.4000000   0.1428571   0.4444444), wk =   0.0063492
        k(   51) = (   0.4000000   0.2857143   0.0000000), wk =   0.0063492
        k(   52) = (   0.4000000   0.2857143   0.1111111), wk =   0.0063492
        k(   53) = (   0.4000000   0.2857143   0.2222222), wk =   0.0063492
        k(   54) = (   0.4000000   0.2857143   0.3333333), wk =   0.0063492
        k(   55) = (   0.4000000   0.2857143   0.4444444), wk =   0.0063492
        k(   56) = (   0.4000000   0.4285714   0.0000000), wk =   0.0063492
        k(   57) = (   0.4000000   0.4285714   0.1111111), wk =   0.0063492
        k(   58) = (   0.4000000   0.4285714   0.2222222), wk =   0.0063492
        k(   59) = (   0.4000000   0.4285714   0.3333333), wk =   0.0063492
        k(   60) = (   0.4000000   0.4285714   0.4444444), wk =   0.0063492
        k(   61) = (   0.0000000  -0.1428571   0.1111111), wk =   0.0063492
        k(   62) = (   0.0000000  -0.1428571   0.2222222), wk =   0.0063492
        k(   63) = (   0.0000000  -0.1428571   0.3333333), wk =   0.0063492
        k(   64) = (   0.0000000  -0.1428571   0.4444444), wk =   0.0063492
        k(   65) = (   0.0000000  -0.2857143   0.1111111), wk =   0.0063492
        k(   66) = (   0.0000000  -0.2857143   0.2222222), wk =   0.0063492
        k(   67) = (   0.0000000  -0.2857143   0.3333333), wk =   0.0063492
        k(   68) = (   0.0000000  -0.2857143   0.4444444), wk =   0.0063492
        k(   69) = (   0.0000000  -0.4285714   0.1111111), wk =   0.0063492
        k(   70) = (   0.0000000  -0.4285714   0.2222222), wk =   0.0063492
        k(   71) = (   0.0000000  -0.4285714   0.3333333), wk =   0.0063492
        k(   72) = (   0.0000000  -0.4285714   0.4444444), wk =   0.0063492
        k(   73) = (  -0.2000000   0.0000000   0.1111111), wk =   0.0063492
        k(   74) = (  -0.2000000   0.0000000   0.2222222), wk =   0.0063492
        k(   75) = (  -0.2000000   0.0000000   0.3333333), wk =   0.0063492
        k(   76) = (  -0.2000000   0.0000000   0.4444444), wk =   0.0063492
        k(   77) = (  -0.2000000   0.1428571   0.0000000), wk =   0.0063492
        k(   78) = (  -0.2000000  -0.1428571   0.1111111), wk =   0.0063492
        k(   79) = (  -0.2000000   0.1428571  -0.1111111), wk =   0.0063492
        k(   80) = (   0.2000000  -0.1428571  -0.1111111), wk =   0.0063492
        k(   81) = (  -0.2000000  -0.1428571   0.2222222), wk =   0.0063492
        k(   82) = (  -0.2000000   0.1428571  -0.2222222), wk =   0.0063492
        k(   83) = (   0.2000000  -0.1428571  -0.2222222), wk =   0.0063492
        k(   84) = (  -0.2000000  -0.1428571   0.3333333), wk =   0.0063492
        k(   85) = (  -0.2000000   0.1428571  -0.3333333), wk =   0.0063492
        k(   86) = (   0.2000000  -0.1428571  -0.3333333), wk =   0.0063492
        k(   87) = (  -0.2000000  -0.1428571   0.4444444), wk =   0.0063492
        k(   88) = (  -0.2000000   0.1428571  -0.4444444), wk =   0.0063492
        k(   89) = (   0.2000000  -0.1428571  -0.4444444), wk =   0.0063492
        k(   90) = (  -0.2000000   0.2857143   0.0000000), wk =   0.0063492
        k(   91) = (  -0.2000000  -0.2857143   0.1111111), wk =   0.0063492
        k(   92) = (  -0.2000000   0.2857143  -0.1111111), wk =   0.0063492
        k(   93) = (   0.2000000  -0.2857143  -0.1111111), wk =   0.0063492
        k(   94) = (  -0.2000000  -0.2857143   0.2222222), wk =   0.0063492
        k(   95) = (  -0.2000000   0.2857143  -0.2222222), wk =   0.0063492
        k(   96) = (   0.2000000  -0.2857143  -0.2222222), wk =   0.0063492
        k(   97) = (  -0.2000000  -0.2857143   0.3333333), wk =   0.0063492
        k(   98) = (  -0.2000000   0.2857143  -0.3333333), wk =   0.0063492
        k(   99) = (   0.2000000  -0.2857143  -0.3333333), wk =   0.0063492
        k(  100) = (  -0.2000000  -0.2857143   0.4444444), wk =   0.0063492
        k(  101) = (  -0.2000000   0.2857143  -0.4444444), wk =   0.0063492
        k(  102) = (   0.2000000  -0.2857143  -0.4444444), wk =   0.0063492
        k(  103) = (  -0.2000000   0.4285714   0.0000000), wk =   0.0063492
        k(  104) = (  -0.2000000  -0.4285714   0.1111111), wk =   0.0063492
        k(  105) = (  -0.2000000   0.4285714  -0.1111111), wk =   0.0063492
        k(  106) = (   0.2000000  -0.4285714  -0.1111111), wk =   0.0063492
        k(  107) = (  -0.2000000  -0.4285714   0.2222222), wk =   0.0063492
        k(  108) = (  -0.2000000   0.4285714  -0.2222222), wk =   0.0063492
        k(  109) = (   0.2000000  -0.4285714  -0.2222222), wk =   0.0063492
        k(  110) = (  -0.2000000  -0.4285714   0.3333333), wk =   0.0063492
        k(  111) = (  -0.2000000   0.4285714  -0.3333333), wk =   0.0063492
        k(  112) = (   0.2000000  -0.4285714  -0.3333333), wk =   0.0063492
        k(  113) = (  -0.2000000  -0.4285714   0.4444444), wk =   0.0063492
        k(  114) = (  -0.2000000   0.4285714  -0.4444444), wk =   0.0063492
        k(  115) = (   0.2000000  -0.4285714  -0.4444444), wk =   0.0063492
        k(  116) = (  -0.4000000   0.0000000   0.1111111), wk =   0.0063492
        k(  117) = (  -0.4000000   0.0000000   0.2222222), wk =   0.0063492
        k(  118) = (  -0.4000000   0.0000000   0.3333333), wk =   0.0063492
        k(  119) = (  -0.4000000   0.0000000   0.4444444), wk =   0.0063492
        k(  120) = (  -0.4000000   0.1428571   0.0000000), wk =   0.0063492
        k(  121) = (  -0.4000000  -0.1428571   0.1111111), wk =   0.0063492
        k(  122) = (  -0.4000000   0.1428571  -0.1111111), wk =   0.0063492
        k(  123) = (   0.4000000  -0.1428571  -0.1111111), wk =   0.0063492
        k(  124) = (  -0.4000000  -0.1428571   0.2222222), wk =   0.0063492
        k(  125) = (  -0.4000000   0.1428571  -0.2222222), wk =   0.0063492
        k(  126) = (   0.4000000  -0.1428571  -0.2222222), wk =   0.0063492
        k(  127) = (  -0.4000000  -0.1428571   0.3333333), wk =   0.0063492
        k(  128) = (  -0.4000000   0.1428571  -0.3333333), wk =   0.0063492
        k(  129) = (   0.4000000  -0.1428571  -0.3333333), wk =   0.0063492
        k(  130) = (  -0.4000000  -0.1428571   0.4444444), wk =   0.0063492
        k(  131) = (  -0.4000000   0.1428571  -0.4444444), wk =   0.0063492
        k(  132) = (   0.4000000  -0.1428571  -0.4444444), wk =   0.0063492
        k(  133) = (  -0.4000000   0.2857143   0.0000000), wk =   0.0063492
        k(  134) = (  -0.4000000  -0.2857143   0.1111111), wk =   0.0063492
        k(  135) = (  -0.4000000   0.2857143  -0.1111111), wk =   0.0063492
        k(  136) = (   0.4000000  -0.2857143  -0.1111111), wk =   0.0063492
        k(  137) = (  -0.4000000  -0.2857143   0.2222222), wk =   0.0063492
        k(  138) = (  -0.4000000   0.2857143  -0.2222222), wk =   0.0063492
        k(  139) = (   0.4000000  -0.2857143  -0.2222222), wk =   0.0063492
        k(  140) = (  -0.4000000  -0.2857143   0.3333333), wk =   0.0063492
        k(  141) = (  -0.4000000   0.2857143  -0.3333333), wk =   0.0063492
        k(  142) = (   0.4000000  -0.2857143  -0.3333333), wk =   0.0063492
        k(  143) = (  -0.4000000  -0.2857143   0.4444444), wk =   0.0063492
        k(  144) = (  -0.4000000   0.2857143  -0.4444444), wk =   0.0063492
        k(  145) = (   0.4000000  -0.2857143  -0.4444444), wk =   0.0063492
        k(  146) = (  -0.4000000   0.4285714   0.0000000), wk =   0.0063492
        k(  147) = (  -0.4000000  -0.4285714   0.1111111), wk =   0.0063492
        k(  148) = (  -0.4000000   0.4285714  -0.1111111), wk =   0.0063492
        k(  149) = (   0.4000000  -0.4285714  -0.1111111), wk =   0.0063492
        k(  150) = (  -0.4000000  -0.4285714   0.2222222), wk =   0.0063492
        k(  151) = (  -0.4000000   0.4285714  -0.2222222), wk =   0.0063492
        k(  152) = (   0.4000000  -0.4285714  -0.2222222), wk =   0.0063492
        k(  153) = (  -0.4000000  -0.4285714   0.3333333), wk =   0.0063492
        k(  154) = (  -0.4000000   0.4285714  -0.3333333), wk =   0.0063492
        k(  155) = (   0.4000000  -0.4285714  -0.3333333), wk =   0.0063492
        k(  156) = (  -0.4000000  -0.4285714   0.4444444), wk =   0.0063492
        k(  157) = (  -0.4000000   0.4285714  -0.4444444), wk =   0.0063492
        k(  158) = (   0.4000000  -0.4285714  -0.4444444), wk =   0.0063492

     Dense  grid:  1294859 G-vectors     FFT dimensions: ( 216, 125, 100)

     Smooth grid:   291873 G-vectors     FFT dimensions: ( 125,  75,  60)

     Dynamical RAM for                 wfc:       2.64 MB

     Dynamical RAM for     wfc (w. buffer):     838.16 MB

     Dynamical RAM for           str. fact:       3.29 MB

     Dynamical RAM for           local pot:       0.00 MB

     Dynamical RAM for          nlocal pot:       6.49 MB

     Dynamical RAM for                qrad:      10.54 MB

     Dynamical RAM for          rho,v,vnew:      11.12 MB

     Dynamical RAM for               rhoin:       3.71 MB

     Dynamical RAM for            rho*nmix:      26.34 MB

     Dynamical RAM for           G-vectors:       3.18 MB

     Dynamical RAM for          h,s,v(r/c):       2.38 MB

     Dynamical RAM for          <psi|beta>:       0.49 MB

     Dynamical RAM for                 psi:       5.29 MB

     Dynamical RAM for                hpsi:       5.29 MB

     Dynamical RAM for                spsi:       5.29 MB

     Dynamical RAM for      wfcinit/wfcrot:       6.79 MB

     Dynamical RAM for           addusdens:     167.12 MB

     Dynamical RAM for          addusforce:     191.95 MB

     Dynamical RAM for         addusstress:     166.71 MB

     Estimated static dynamical RAM per process >     913.14 MB

     Estimated max dynamical RAM per process >       1.08 GB

     Estimated total dynamical RAM >      25.90 GB

     Check: negative core charge=   -0.000003
     Generating pointlists ...
     new r_m :   0.0759 (alat units)  1.4931 (a.u.) for type    1
     new r_m :   0.0888 (alat units)  1.7464 (a.u.) for type    2
     new r_m :   0.0610 (alat units)  1.1989 (a.u.) for type    3
     new r_m :   0.0610 (alat units)  1.1989 (a.u.) for type    4

     Initial potential from superposition of free atoms

     starting charge  188.99132, renormalised to  189.00000
     Starting wfcs are  137 randomized atomic wfcs
     Checking if some PAW data can be deallocated... 
       PAW data deallocated on   20 nodes for type:  1
       PAW data deallocated on    8 nodes for type:  3

     total cpu time spent up to now is      196.5 secs

     Self-consistent Calculation

     iteration #  1     ecut=   100.00 Ry     beta= 0.40
     Davidson diagonalization with overlap
     ethr =  1.00E-02,  avg # of iterations =  3.0

     negative rho (up, down):  0.000E+00 9.864E-05

     total cpu time spent up to now is      820.5 secs

     total energy              =   -2123.86404494 Ry
     estimated scf accuracy    <       7.05227459 Ry

     total magnetization       =    19.00 Bohr mag/cell
     absolute magnetization    =    19.00 Bohr mag/cell

     iteration #  2     ecut=   100.00 Ry     beta= 0.40
     Davidson diagonalization with overlap
     ethr =  3.73E-03,  avg # of iterations =  2.0

     negative rho (up, down):  0.000E+00 4.135E-05

     total cpu time spent up to now is     1385.4 secs

     total energy              =   -2120.44560875 Ry
     estimated scf accuracy    <      49.69321133 Ry

     total magnetization       =     6.57 Bohr mag/cell
     absolute magnetization    =     8.00 Bohr mag/cell

     iteration #  3     ecut=   100.00 Ry     beta= 0.40
     Davidson diagonalization with overlap
     ethr =  3.73E-03,  avg # of iterations =  2.9

     negative rho (up, down):  0.000E+00 2.881E-05

     total cpu time spent up to now is     1893.0 secs

     total energy              =   -2123.39374808 Ry
     estimated scf accuracy    <      57.58548278 Ry

     total magnetization       =     3.98 Bohr mag/cell
     absolute magnetization    =     7.97 Bohr mag/cell

     iteration #  4     ecut=   100.00 Ry     beta= 0.40
     Davidson diagonalization with overlap
     ethr =  3.73E-03,  avg # of iterations =  1.5

     negative rho (up, down):  0.000E+00 2.245E-05

     total cpu time spent up to now is     2328.8 secs

     total energy              =   -2124.58703179 Ry
     estimated scf accuracy    <      30.13647630 Ry

     total magnetization       =     9.00 Bohr mag/cell
     absolute magnetization    =     9.34 Bohr mag/cell

     iteration #  5     ecut=   100.00 Ry     beta= 0.40
     Davidson diagonalization with overlap
     ethr =  3.73E-03,  avg # of iterations =  1.9

     negative rho (up, down):  0.000E+00 1.160E-04

     total cpu time spent up to now is     2924.7 secs

     total energy              =   -2126.00632582 Ry
     estimated scf accuracy    <       1.86022248 Ry

     total magnetization       =    19.01 Bohr mag/cell
     absolute magnetization    =    19.01 Bohr mag/cell

     iteration #  6     ecut=   100.00 Ry     beta= 0.40
     Davidson diagonalization with overlap
     ethr =  9.84E-04,  avg # of iterations =  2.0

     negative rho (up, down):  0.000E+00 2.227E-04

     total cpu time spent up to now is     3399.1 secs

     total energy              =   -2126.09105016 Ry
     estimated scf accuracy    <       0.62864739 Ry

     total magnetization       =    19.00 Bohr mag/cell
     absolute magnetization    =    19.00 Bohr mag/cell

     iteration #  7     ecut=   100.00 Ry     beta= 0.40
     Davidson diagonalization with overlap
     ethr =  3.33E-04,  avg # of iterations =  1.9

     negative rho (up, down):  0.000E+00 3.332E-04

     total cpu time spent up to now is     4047.0 secs

     total energy              =   -2126.09144490 Ry
     estimated scf accuracy    <       0.24503433 Ry

     total magnetization       =    19.00 Bohr mag/cell
     absolute magnetization    =    19.00 Bohr mag/cell

     iteration #  8     ecut=   100.00 Ry     beta= 0.40
     Davidson diagonalization with overlap
     c_bands:  1 eigenvalues not converged
     ethr =  1.30E-04,  avg # of iterations =  9.5

     negative rho (up, down):  0.000E+00 5.279E-04

     total cpu time spent up to now is     4696.6 secs

     total energy              =   -2126.10036328 Ry
     estimated scf accuracy    <       0.20480691 Ry

     total magnetization       =    19.00 Bohr mag/cell
     absolute magnetization    =    19.00 Bohr mag/cell

     iteration #  9     ecut=   100.00 Ry     beta= 0.40
     Davidson diagonalization with overlap
     ethr =  1.08E-04,  avg # of iterations =  3.1

     negative rho (up, down):  0.000E+00 8.525E-04

     total cpu time spent up to now is     5173.4 secs

     total energy              =   -2126.10973549 Ry
     estimated scf accuracy    <       0.21395547 Ry

     total magnetization       =    19.00 Bohr mag/cell
     absolute magnetization    =    19.01 Bohr mag/cell

     iteration # 10     ecut=   100.00 Ry     beta= 0.40
     Davidson diagonalization with overlap
     ethr =  1.08E-04,  avg # of iterations =  1.2

     negative rho (up, down):  0.000E+00 8.783E-04

     total cpu time spent up to now is     5582.5 secs

     total energy              =   -2126.12335444 Ry
     estimated scf accuracy    <       0.28275057 Ry

     total magnetization       =    19.00 Bohr mag/cell
     absolute magnetization    =    19.02 Bohr mag/cell

     iteration # 11     ecut=   100.00 Ry     beta= 0.40
     Davidson diagonalization with overlap
     ethr =  1.08E-04,  avg # of iterations =  1.0

     negative rho (up, down):  0.000E+00 9.510E-04

     total cpu time spent up to now is     5981.2 secs

     total energy              =   -2126.12363527 Ry
     estimated scf accuracy    <       0.15325810 Ry

     total magnetization       =    19.00 Bohr mag/cell
     absolute magnetization    =    19.03 Bohr mag/cell

     iteration # 12     ecut=   100.00 Ry     beta= 0.40
     Davidson diagonalization with overlap
     ethr =  8.11E-05,  avg # of iterations =  1.1

     negative rho (up, down):  0.000E+00 9.320E-04

     total cpu time spent up to now is     6384.7 secs

     total energy              =   -2126.12164625 Ry
     estimated scf accuracy    <       0.09770386 Ry

     total magnetization       =    19.00 Bohr mag/cell
     absolute magnetization    =    19.03 Bohr mag/cell

     iteration # 13     ecut=   100.00 Ry     beta= 0.40
     Davidson diagonalization with overlap
     c_bands:  2 eigenvalues not converged
     c_bands:  2 eigenvalues not converged
     ethr =  5.17E-05,  avg # of iterations =  3.4

     negative rho (up, down):  0.000E+00 9.769E-04

     total cpu time spent up to now is     6861.3 secs

     total energy              =   -2126.12427784 Ry
     estimated scf accuracy    <       0.01364949 Ry

     total magnetization       =    19.00 Bohr mag/cell
     absolute magnetization    =    19.04 Bohr mag/cell

     iteration # 14     ecut=   100.00 Ry     beta= 0.40
     Davidson diagonalization with overlap
     c_bands:  2 eigenvalues not converged
     c_bands:  1 eigenvalues not converged
     c_bands:  1 eigenvalues not converged
     c_bands:  1 eigenvalues not converged
     c_bands:  1 eigenvalues not converged
     c_bands:  1 eigenvalues not converged
     c_bands:  1 eigenvalues not converged
     c_bands:  1 eigenvalues not converged
     c_bands:  1 eigenvalues not converged
     c_bands:  1 eigenvalues not converged
     c_bands:  1 eigenvalues not converged
     c_bands:  1 eigenvalues not converged
     c_bands:  1 eigenvalues not converged
     c_bands:  1 eigenvalues not converged
     c_bands:  1 eigenvalues not converged
     c_bands:  1 eigenvalues not converged
     ethr =  7.22E-06,  avg # of iterations = 14.1

     negative rho (up, down):  0.000E+00 9.807E-04

     total cpu time spent up to now is     7770.3 secs

     total energy              =   -2126.12510185 Ry
     estimated scf accuracy    <       0.01377414 Ry

     total magnetization       =    19.00 Bohr mag/cell
     absolute magnetization    =    19.04 Bohr mag/cell

     iteration # 15     ecut=   100.00 Ry     beta= 0.40
     Davidson diagonalization with overlap
     ethr =  7.22E-06,  avg # of iterations =  1.0

     negative rho (up, down):  0.000E+00 9.701E-04

     total cpu time spent up to now is     8313.3 secs

     total energy              =   -2126.12526553 Ry
     estimated scf accuracy    <       0.00320621 Ry

     total magnetization       =    19.00 Bohr mag/cell
     absolute magnetization    =    19.05 Bohr mag/cell

     iteration # 16     ecut=   100.00 Ry     beta= 0.40
     Davidson diagonalization with overlap
     c_bands:  1 eigenvalues not converged
     c_bands:  1 eigenvalues not converged
     ethr =  1.70E-06,  avg # of iterations =  2.7

     negative rho (up, down):  0.000E+00 9.692E-04

     total cpu time spent up to now is     8969.3 secs

     total energy              =   -2126.12545496 Ry
     estimated scf accuracy    <       0.00025015 Ry

     total magnetization       =    19.00 Bohr mag/cell
     absolute magnetization    =    19.05 Bohr mag/cell

     iteration # 17     ecut=   100.00 Ry     beta= 0.40
     Davidson diagonalization with overlap
     ethr =  1.32E-07,  avg # of iterations =  5.5

     negative rho (up, down):  0.000E+00 9.638E-04

     total cpu time spent up to now is    11003.9 secs

     total energy              =   -2126.12562469 Ry
     estimated scf accuracy    <       0.00008189 Ry

     total magnetization       =    19.00 Bohr mag/cell
     absolute magnetization    =    19.05 Bohr mag/cell

     iteration # 18     ecut=   100.00 Ry     beta= 0.40
     Davidson diagonalization with overlap
     ethr =  4.33E-08,  avg # of iterations =  1.0

     negative rho (up, down):  0.000E+00 9.562E-04

     total cpu time spent up to now is    11544.1 secs

     total energy              =   -2126.12563029 Ry
     estimated scf accuracy    <       0.00013578 Ry

     total magnetization       =    19.00 Bohr mag/cell
     absolute magnetization    =    19.05 Bohr mag/cell

     iteration # 19     ecut=   100.00 Ry     beta= 0.40
     Davidson diagonalization with overlap
     ethr =  4.33E-08,  avg # of iterations =  1.5

     negative rho (up, down):  0.000E+00 9.524E-04

     total cpu time spent up to now is    12170.1 secs

     total energy              =   -2126.12563573 Ry
     estimated scf accuracy    <       0.00003608 Ry

     total magnetization       =    19.00 Bohr mag/cell
     absolute magnetization    =    19.05 Bohr mag/cell

     iteration # 20     ecut=   100.00 Ry     beta= 0.40
     Davidson diagonalization with overlap
     ethr =  1.91E-08,  avg # of iterations =  1.0

     negative rho (up, down):  0.000E+00 9.527E-04

     total cpu time spent up to now is    12660.3 secs

     total energy              =   -2126.12563756 Ry
     estimated scf accuracy    <       0.00001887 Ry

     total magnetization       =    19.00 Bohr mag/cell
     absolute magnetization    =    19.05 Bohr mag/cell

     iteration # 21     ecut=   100.00 Ry     beta= 0.40
     Davidson diagonalization with overlap
     ethr =  9.98E-09,  avg # of iterations =  1.0

     negative rho (up, down):  0.000E+00 9.546E-04

     total cpu time spent up to now is    13694.9 secs

     total energy              =   -2126.12563752 Ry
     estimated scf accuracy    <       0.00000568 Ry

     total magnetization       =    19.00 Bohr mag/cell
     absolute magnetization    =    19.05 Bohr mag/cell

     iteration # 22     ecut=   100.00 Ry     beta= 0.40
     Davidson diagonalization with overlap
     ethr =  3.00E-09,  avg # of iterations =  2.1

     negative rho (up, down):  0.000E+00 9.540E-04

     total cpu time spent up to now is    14189.7 secs

     total energy              =   -2126.12563808 Ry
     estimated scf accuracy    <       0.00000302 Ry

     total magnetization       =    19.00 Bohr mag/cell
     absolute magnetization    =    19.05 Bohr mag/cell

     iteration # 23     ecut=   100.00 Ry     beta= 0.40
     Davidson diagonalization with overlap
     ethr =  1.60E-09,  avg # of iterations =  2.0

     negative rho (up, down):  0.000E+00 9.544E-04

     total cpu time spent up to now is    15047.3 secs

     total energy              =   -2126.12563849 Ry
     estimated scf accuracy    <       0.00000286 Ry

     total magnetization       =    19.00 Bohr mag/cell
     absolute magnetization    =    19.05 Bohr mag/cell

     iteration # 24     ecut=   100.00 Ry     beta= 0.40
     Davidson diagonalization with overlap
     ethr =  1.51E-09,  avg # of iterations =  1.0

     negative rho (up, down):  0.000E+00 9.547E-04

     total cpu time spent up to now is    15646.7 secs

     total energy              =   -2126.12563859 Ry
     estimated scf accuracy    <       0.00000033 Ry

     total magnetization       =    19.00 Bohr mag/cell
     absolute magnetization    =    19.05 Bohr mag/cell

     iteration # 25     ecut=   100.00 Ry     beta= 0.40
     Davidson diagonalization with overlap
     ethr =  1.77E-10,  avg # of iterations =  4.9

     negative rho (up, down):  0.000E+00 9.550E-04

     total cpu time spent up to now is    17087.5 secs

     total energy              =   -2126.12563876 Ry
     estimated scf accuracy    <       0.00000053 Ry

     total magnetization       =    19.00 Bohr mag/cell
     absolute magnetization    =    19.05 Bohr mag/cell

     iteration # 26     ecut=   100.00 Ry     beta= 0.40
     Davidson diagonalization with overlap
     ethr =  1.77E-10,  avg # of iterations =  1.0

     negative rho (up, down):  0.000E+00 9.549E-04

     total cpu time spent up to now is    17623.2 secs

     total energy              =   -2126.12563877 Ry
     estimated scf accuracy    <       0.00000013 Ry

     total magnetization       =    19.00 Bohr mag/cell
     absolute magnetization    =    19.05 Bohr mag/cell

     iteration # 27     ecut=   100.00 Ry     beta= 0.40
     Davidson diagonalization with overlap
     ethr =  7.12E-11,  avg # of iterations =  1.2

     negative rho (up, down):  0.000E+00 9.550E-04

     total cpu time spent up to now is    18106.9 secs

     total energy              =   -2126.12563878 Ry
     estimated scf accuracy    <       0.00000002 Ry

     total magnetization       =    19.00 Bohr mag/cell
     absolute magnetization    =    19.05 Bohr mag/cell

     iteration # 28     ecut=   100.00 Ry     beta= 0.40
     Davidson diagonalization with overlap
     ethr =  1.31E-11,  avg # of iterations =  1.3

     negative rho (up, down):  0.000E+00 9.550E-04

     total cpu time spent up to now is    19160.7 secs

     total energy              =   -2126.12563878 Ry
     estimated scf accuracy    <          2.9E-09 Ry

     total magnetization       =    19.00 Bohr mag/cell
     absolute magnetization    =    19.05 Bohr mag/cell

     iteration # 29     ecut=   100.00 Ry     beta= 0.40
     Davidson diagonalization with overlap
     ethr =  1.53E-12,  avg # of iterations =  4.4

     negative rho (up, down):  0.000E+00 9.550E-04

     total cpu time spent up to now is    20057.4 secs

     total energy              =   -2126.12563879 Ry
     estimated scf accuracy    <          9.6E-09 Ry

     total magnetization       =    19.00 Bohr mag/cell
     absolute magnetization    =    19.05 Bohr mag/cell

     iteration # 30     ecut=   100.00 Ry     beta= 0.40
     Davidson diagonalization with overlap
     ethr =  1.53E-12,  avg # of iterations =  1.7

     negative rho (up, down):  0.000E+00 9.550E-04

     total cpu time spent up to now is    20918.2 secs

     total energy              =   -2126.12563879 Ry
     estimated scf accuracy    <          7.3E-10 Ry

     total magnetization       =    19.00 Bohr mag/cell
     absolute magnetization    =    19.05 Bohr mag/cell

     iteration # 31     ecut=   100.00 Ry     beta= 0.40
     Davidson diagonalization with overlap
     ethr =  3.87E-13,  avg # of iterations =  2.0

     negative rho (up, down):  0.000E+00 9.549E-04

     total cpu time spent up to now is    21999.6 secs

     total energy              =   -2126.12563879 Ry
     estimated scf accuracy    <          4.6E-10 Ry

     total magnetization       =    19.00 Bohr mag/cell
     absolute magnetization    =    19.05 Bohr mag/cell

     iteration # 32     ecut=   100.00 Ry     beta= 0.40
     Davidson diagonalization with overlap
     ethr =  2.43E-13,  avg # of iterations =  2.0

     negative rho (up, down):  0.000E+00 9.549E-04

     total cpu time spent up to now is    22844.3 secs

     total energy              =   -2126.12563879 Ry
     estimated scf accuracy    <          4.7E-10 Ry

     total magnetization       =    19.00 Bohr mag/cell
     absolute magnetization    =    19.05 Bohr mag/cell

     iteration # 33     ecut=   100.00 Ry     beta= 0.40
     Davidson diagonalization with overlap
     ethr =  2.43E-13,  avg # of iterations =  1.6

     negative rho (up, down):  0.000E+00 9.549E-04

     Magnetic moment per site:
     atom:    1    charge:    7.9017    magn:    0.0005    constr:    0.0000
     atom:    2    charge:   12.8373    magn:    3.6700    constr:    0.0000
     atom:    3    charge:   12.8435    magn:    3.6553    constr:    0.0000
     atom:    4    charge:   12.8883    magn:    3.5410    constr:    0.0000
     atom:    5    charge:   12.8448    magn:    3.6562    constr:    0.0000
     atom:    6    charge:    0.8459    magn:    0.0105    constr:    0.0000
     atom:    7    charge:    0.8498    magn:    0.0084    constr:    0.0000
     atom:    8    charge:    0.8492    magn:    0.0115    constr:    0.0000
     atom:    9    charge:    0.8437    magn:    0.0091    constr:    0.0000
     atom:   10    charge:    4.2636    magn:    0.1371    constr:    0.0000
     atom:   11    charge:    4.2794    magn:    0.0893    constr:    0.0000
     atom:   12    charge:    4.2670    magn:    0.1247    constr:    0.0000
     atom:   13    charge:    4.2630    magn:    0.1110    constr:    0.0000
     atom:   14    charge:    4.2561    magn:    0.1160    constr:    0.0000
     atom:   15    charge:    4.2632    magn:    0.1281    constr:    0.0000
     atom:   16    charge:    4.2601    magn:    0.0755    constr:    0.0000
     atom:   17    charge:    4.2565    magn:    0.1396    constr:    0.0000
     atom:   18    charge:    4.2345    magn:    0.1523    constr:    0.0000
     atom:   19    charge:    4.2386    magn:    0.1334    constr:    0.0000
     atom:   20    charge:    4.2422    magn:    0.1454    constr:    0.0000
     atom:   21    charge:    4.2345    magn:    0.1246    constr:    0.0000
     atom:   22    charge:    4.2419    magn:    0.1454    constr:    0.0000
     atom:   23    charge:    4.2347    magn:    0.1246    constr:    0.0000
     atom:   24    charge:    4.2348    magn:    0.1523    constr:    0.0000
     atom:   25    charge:    4.2391    magn:    0.1334    constr:    0.0000

     total cpu time spent up to now is    23491.3 secs

     End of self-consistent calculation

 ------ SPIN UP ------------


          k = 0.0000 0.0000 0.0000 ( 36463 PWs)   bands (ev):

   -85.2873 -85.2609 -85.2440 -84.8129 -51.3972 -51.3525 -51.3417 -51.2360
   -51.2276 -51.2142 -51.1865 -51.1636 -51.1562 -51.1410 -50.7545 -50.5540
   -45.1242 -17.1528 -17.0946 -17.0573 -16.2285 -16.0652 -15.8580 -15.7722
   -13.8651 -13.7822 -13.6783 -13.5812 -13.5352 -13.5201 -13.4973 -13.4180
   -13.4111 -13.3334 -13.2970 -13.1963  -4.1657  -3.6618  -3.5919  -3.1652
    -2.2923  -1.9414  -1.8817  -1.6847  -1.5157  -1.4269  -1.2844  -1.2277
    -1.1249  -0.9519  -0.7245  -0.4989  -0.3435  -0.3044   0.1951   0.2522
     0.2872   0.3852   0.5367   0.6744   0.7650   0.8208   0.9429   0.9687
     1.0944   1.3004   1.3036   1.5040   1.5816   1.6099   1.6993   1.7246
     1.8286   2.0128   2.1195   2.1920   2.2681   2.2694   2.3780   2.4495
     2.5918   2.6422   2.6720   2.8088   2.8514   3.0216   3.1078   3.1740
     3.2441   3.3834   3.3937   3.4031   3.4962   3.6785   3.6931   3.8177
     3.9490   4.0775   4.1121   4.1541   4.3711   4.4697   4.7499   4.8720
     9.0333  11.0681  11.5699  11.9376  12.1518  12.8706  13.1614  13.3613
    13.4390  13.6644

     occupation numbers 
     1.0000   1.0000   1.0000   1.0000   1.0000   1.0000   1.0000   1.0000
     1.0000   1.0000   1.0000   1.0000   1.0000   1.0000   1.0000   1.0000
     1.0000   1.0000   1.0000   1.0000   1.0000   1.0000   1.0000   1.0000
     1.0000   1.0000   1.0000   1.0000   1.0000   1.0000   1.0000   1.0000
     1.0000   1.0000   1.0000   1.0000   1.0000   1.0000   1.0000   1.0000
     1.0000   1.0000   1.0000   1.0000   1.0000   1.0000   1.0000   1.0000
     1.0000   1.0000   1.0000   1.0000   1.0000   1.0000   1.0000   1.0000
     1.0000   1.0000   1.0000   1.0000   1.0000   1.0000   1.0000   1.0000
     1.0000   1.0000   1.0000   1.0000   1.0000   1.0000   1.0000   1.0000
     1.0000   1.0000   1.0000   1.0000   1.0000   1.0000   1.0000   1.0000
     1.0000   1.0000   1.0000   1.0000   1.0000   1.0000   1.0000   1.0000
     1.0000   1.0000   1.0000   1.0000   1.0000   1.0000   1.0000   1.0000
     1.0000   1.0000   1.0000   1.0000   1.0000   1.0000   1.0000   1.0000
     0.0000   0.0000   0.0000   0.0000   0.0000   0.0000   0.0000   0.0000
     0.0000   0.0000

          k = 0.0000 0.0000 0.2337 ( 36493 PWs)   bands (ev):

   -85.2873 -85.2609 -85.2440 -84.8129 -51.3972 -51.3525 -51.3417 -51.2360
   -51.2276 -51.2142 -51.1865 -51.1636 -51.1562 -51.1410 -50.7545 -50.5540
   -45.1242 -17.1530 -17.0999 -17.0573 -16.2142 -16.0562 -15.8519 -15.7685
   -13.8730 -13.7890 -13.6903 -13.5867 -13.5392 -13.5160 -13.5002 -13.4170
   -13.4138 -13.3389 -13.3006 -13.2001  -4.1422  -3.6576  -3.5873  -3.1753
    -2.2484  -1.9190  -1.8776  -1.6725  -1.5104  -1.4387  -1.3073  -1.1566
    -1.1197  -0.9191  -0.7695  -0.4716  -0.3489  -0.3235   0.2071   0.2679
     0.2875   0.4241   0.5362   0.6726   0.7573   0.7995   0.9165   0.9976
     1.0841   1.2877   1.2965   1.4800   1.5579   1.5789   1.6295   1.6895
     1.9460   1.9850   2.0607   2.1330   2.2546   2.2892   2.3328   2.5210
     2.5389   2.6432   2.6995   2.8100   2.9578   2.9924   3.0584   3.1360
     3.2492   3.3346   3.3907   3.4175   3.4834   3.6971   3.7412   3.8191
     3.9758   4.0619   4.1476   4.1556   4.3677   4.4602   4.7247   4.8508
     9.1816  11.1414  11.6211  11.9438  12.2040  12.7836  13.1783  13.2867
    13.3438  13.5621

     occupation numbers 
     1.0000   1.0000   1.0000   1.0000   1.0000   1.0000   1.0000   1.0000
     1.0000   1.0000   1.0000   1.0000   1.0000   1.0000   1.0000   1.0000
     1.0000   1.0000   1.0000   1.0000   1.0000   1.0000   1.0000   1.0000
     1.0000   1.0000   1.0000   1.0000   1.0000   1.0000   1.0000   1.0000
     1.0000   1.0000   1.0000   1.0000   1.0000   1.0000   1.0000   1.0000
     1.0000   1.0000   1.0000   1.0000   1.0000   1.0000   1.0000   1.0000
     1.0000   1.0000   1.0000   1.0000   1.0000   1.0000   1.0000   1.0000
     1.0000   1.0000   1.0000   1.0000   1.0000   1.0000   1.0000   1.0000
     1.0000   1.0000   1.0000   1.0000   1.0000   1.0000   1.0000   1.0000
     1.0000   1.0000   1.0000   1.0000   1.0000   1.0000   1.0000   1.0000
     1.0000   1.0000   1.0000   1.0000   1.0000   1.0000   1.0000   1.0000
     1.0000   1.0000   1.0000   1.0000   1.0000   1.0000   1.0000   1.0000
     1.0000   1.0000   1.0000   1.0000   1.0000   1.0000   1.0000   1.0000
     0.0000   0.0000   0.0000   0.0000   0.0000   0.0000   0.0000   0.0000
     0.0000   0.0000

          k = 0.0000 0.0000 0.4675 ( 36542 PWs)   bands (ev):

   -85.2873 -85.2609 -85.2440 -84.8129 -51.3972 -51.3525 -51.3417 -51.2360
   -51.2276 -51.2142 -51.1865 -51.1636 -51.1562 -51.1410 -50.7545 -50.5540
   -45.1242 -17.1546 -17.1119 -17.0572 -16.1768 -16.0332 -15.8355 -15.7604
   -13.8948 -13.8100 -13.7171 -13.6009 -13.5539 -13.5081 -13.5050 -13.4267
   -13.4025 -13.3514 -13.3103 -13.2106  -4.0746  -3.6552  -3.5717  -3.2144
    -2.1269  -1.8904  -1.8353  -1.6604  -1.4895  -1.4563  -1.3069  -1.1029
    -1.0173  -0.8831  -0.8329  -0.4691  -0.3891  -0.2606   0.2490   0.3001
     0.3062   0.4953   0.5565   0.6726   0.7263   0.7758   0.8381   1.0356
     1.0753   1.2466   1.3131   1.4021   1.4537   1.5048   1.5795   1.6520
     1.7842   1.9073   2.0887   2.1194   2.2138   2.2213   2.4228   2.4276
     2.5799   2.6379   2.7708   2.8250   2.8539   2.9849   3.0754   3.0885
     3.2049   3.2804   3.4336   3.5039   3.5110   3.7125   3.8224   3.8231
     4.0474   4.0833   4.1272   4.2137   4.3534   4.4490   4.6478   4.7858
     9.5786  11.3374  11.7283  11.9948  12.3293  12.6532  12.9722  13.1622
    13.2078  13.2582

     occupation numbers 
     1.0000   1.0000   1.0000   1.0000   1.0000   1.0000   1.0000   1.0000
     1.0000   1.0000   1.0000   1.0000   1.0000   1.0000   1.0000   1.0000
     1.0000   1.0000   1.0000   1.0000   1.0000   1.0000   1.0000   1.0000
     1.0000   1.0000   1.0000   1.0000   1.0000   1.0000   1.0000   1.0000
     1.0000   1.0000   1.0000   1.0000   1.0000   1.0000   1.0000   1.0000
     1.0000   1.0000   1.0000   1.0000   1.0000   1.0000   1.0000   1.0000
     1.0000   1.0000   1.0000   1.0000   1.0000   1.0000   1.0000   1.0000
     1.0000   1.0000   1.0000   1.0000   1.0000   1.0000   1.0000   1.0000
     1.0000   1.0000   1.0000   1.0000   1.0000   1.0000   1.0000   1.0000
     1.0000   1.0000   1.0000   1.0000   1.0000   1.0000   1.0000   1.0000
     1.0000   1.0000   1.0000   1.0000   1.0000   1.0000   1.0000   1.0000
     1.0000   1.0000   1.0000   1.0000   1.0000   1.0000   1.0000   1.0000
     1.0000   1.0000   1.0000   1.0000   1.0000   1.0000   1.0000   1.0000
     0.0000   0.0000   0.0000   0.0000   0.0000   0.0000   0.0000   0.0000
     0.0000   0.0000

          k = 0.0000 0.0000 0.7012 ( 36506 PWs)   bands (ev):

   -85.2873 -85.2609 -85.2440 -84.8129 -51.3972 -51.3525 -51.3417 -51.2360
   -51.2276 -51.2142 -51.1865 -51.1636 -51.1562 -51.1410 -50.7545 -50.5540
   -45.1242 -17.1592 -17.1221 -17.0571 -16.1317 -16.0073 -15.8140 -15.7550
   -13.9223 -13.8402 -13.7422 -13.6204 -13.5775 -13.5136 -13.4908 -13.4311
   -13.3881 -13.3634 -13.3226 -13.2244  -3.9739  -3.6735  -3.5446  -3.2850
    -1.9861  -1.8659  -1.7626  -1.6623  -1.4619  -1.4429  -1.2894  -1.1097
    -0.9786  -0.8631  -0.7202  -0.6304  -0.2475  -0.1377   0.3171   0.3205
     0.3659   0.4823   0.6321   0.6597   0.6838   0.7219   0.8043   1.0289
     1.0935   1.1765   1.2571   1.3207   1.3731   1.4280   1.4890   1.5544
     1.6626   1.7617   2.0058   2.1022   2.1579   2.3240   2.3734   2.5348
     2.5927   2.6233   2.6726   2.7201   2.8762   2.8984   2.9845   3.1410
     3.1488   3.2903   3.5534   3.5650   3.6993   3.7706   3.8343   3.8555
     4.0896   4.1336   4.1551   4.2445   4.3479   4.4521   4.5164   4.6758
    10.1236  11.5701  11.7360  12.1190  12.3983  12.6132  12.7809  12.9870
    13.0297  13.0832

     occupation numbers 
     1.0000   1.0000   1.0000   1.0000   1.0000   1.0000   1.0000   1.0000
     1.0000   1.0000   1.0000   1.0000   1.0000   1.0000   1.0000   1.0000
     1.0000   1.0000   1.0000   1.0000   1.0000   1.0000   1.0000   1.0000
     1.0000   1.0000   1.0000   1.0000   1.0000   1.0000   1.0000   1.0000
     1.0000   1.0000   1.0000   1.0000   1.0000   1.0000   1.0000   1.0000
     1.0000   1.0000   1.0000   1.0000   1.0000   1.0000   1.0000   1.0000
     1.0000   1.0000   1.0000   1.0000   1.0000   1.0000   1.0000   1.0000
     1.0000   1.0000   1.0000   1.0000   1.0000   1.0000   1.0000   1.0000
     1.0000   1.0000   1.0000   1.0000   1.0000   1.0000   1.0000   1.0000
     1.0000   1.0000   1.0000   1.0000   1.0000   1.0000   1.0000   1.0000
     1.0000   1.0000   1.0000   1.0000   1.0000   1.0000   1.0000   1.0000
     1.0000   1.0000   1.0000   1.0000   1.0000   1.0000   1.0000   1.0000
     1.0000   1.0000   1.0000   1.0000   1.0000   1.0000   1.0000   1.0000
     0.0000   0.0000   0.0000   0.0000   0.0000   0.0000   0.0000   0.0000
     0.0000   0.0000

          k = 0.0000 0.0000 0.9349 ( 36496 PWs)   bands (ev):

   -85.2873 -85.2609 -85.2440 -84.8129 -51.3972 -51.3525 -51.3417 -51.2360
   -51.2276 -51.2142 -51.1865 -51.1636 -51.1562 -51.1410 -50.7545 -50.5541
   -45.1242 -17.1643 -17.1262 -17.0570 -16.0999 -15.9915 -15.7950 -15.7567
   -13.9416 -13.8626 -13.7566 -13.6377 -13.5931 -13.5146 -13.4801 -13.4317
   -13.3779 -13.3702 -13.3313 -13.2350  -3.8675  -3.7244  -3.5105  -3.3564
    -1.9157  -1.8407  -1.7091  -1.6492  -1.4510  -1.3662  -1.2915  -1.2213
    -0.9204  -0.7915  -0.7613  -0.6408  -0.0689   0.0659   0.2943   0.3459
     0.4059   0.4457   0.5666   0.6068   0.6390   0.7464   0.8664   0.9652
     1.1066   1.1290   1.1368   1.2273   1.2542   1.3902   1.4310   1.5524
     1.7051   1.7535   1.8652   2.0271   2.1455   2.2821   2.5002   2.5066
     2.5773   2.6122   2.6615   2.6909   2.7998   2.8285   2.9713   3.1277
     3.1633   3.2892   3.5928   3.6842   3.7348   3.8365   3.8662   4.0229
     4.0542   4.1526   4.2530   4.2702   4.3474   4.3675   4.4554   4.5400
    10.7142  11.3007  11.9198  12.2529  12.3553  12.5303  12.7541  12.8979
    12.9990  13.1193

     occupation numbers 
     1.0000   1.0000   1.0000   1.0000   1.0000   1.0000   1.0000   1.0000
     1.0000   1.0000   1.0000   1.0000   1.0000   1.0000   1.0000   1.0000
     1.0000   1.0000   1.0000   1.0000   1.0000   1.0000   1.0000   1.0000
     1.0000   1.0000   1.0000   1.0000   1.0000   1.0000   1.0000   1.0000
     1.0000   1.0000   1.0000   1.0000   1.0000   1.0000   1.0000   1.0000
     1.0000   1.0000   1.0000   1.0000   1.0000   1.0000   1.0000   1.0000
     1.0000   1.0000   1.0000   1.0000   1.0000   1.0000   1.0000   1.0000
     1.0000   1.0000   1.0000   1.0000   1.0000   1.0000   1.0000   1.0000
     1.0000   1.0000   1.0000   1.0000   1.0000   1.0000   1.0000   1.0000
     1.0000   1.0000   1.0000   1.0000   1.0000   1.0000   1.0000   1.0000
     1.0000   1.0000   1.0000   1.0000   1.0000   1.0000   1.0000   1.0000
     1.0000   1.0000   1.0000   1.0000   1.0000   1.0000   1.0000   1.0000
     1.0000   1.0000   1.0000   1.0000   1.0000   1.0000   1.0000   1.0000
     0.0000   0.0000   0.0000   0.0000   0.0000   0.0000   0.0000   0.0000
     0.0000   0.0000

          k = 0.0000 0.2391 0.0000 ( 36485 PWs)   bands (ev):

   -85.2873 -85.2609 -85.2440 -84.8129 -51.3972 -51.3525 -51.3417 -51.2360
   -51.2276 -51.2142 -51.1865 -51.1636 -51.1562 -51.1410 -50.7545 -50.5540
   -45.1242 -17.1526 -17.0945 -17.0582 -16.2140 -16.0620 -15.8567 -15.7872
   -13.8660 -13.7800 -13.6791 -13.5938 -13.5617 -13.5408 -13.4768 -13.4384
   -13.3665 -13.3294 -13.2938 -13.1988  -4.1399  -3.6826  -3.5675  -3.1732
    -2.2670  -1.9473  -1.8769  -1.6889  -1.4926  -1.4178  -1.2743  -1.2230
    -1.0706  -0.9559  -0.7046  -0.4763  -0.3895  -0.2701   0.2258   0.2653
     0.3147   0.3586   0.4419   0.5621   0.6702   0.9052   0.9577   1.0298
     1.1836   1.2921   1.3026   1.4550   1.5094   1.5329   1.6260   1.6607
     1.8526   2.0749   2.1464   2.2119   2.2718   2.3126   2.3870   2.3988
     2.6059   2.6277   2.6432   2.7210   2.8291   3.0594   3.1274   3.2022
     3.2163   3.3074   3.3303   3.5008   3.5594   3.6717   3.7204   3.8238
     3.9451   4.0213   4.1301   4.1755   4.3382   4.4558   4.7867   4.8629
     9.1897  11.1585  11.6460  11.8782  12.2075  12.9438  13.0981  13.3377
    13.4353  13.6205

     occupation numbers 
     1.0000   1.0000   1.0000   1.0000   1.0000   1.0000   1.0000   1.0000
     1.0000   1.0000   1.0000   1.0000   1.0000   1.0000   1.0000   1.0000
     1.0000   1.0000   1.0000   1.0000   1.0000   1.0000   1.0000   1.0000
     1.0000   1.0000   1.0000   1.0000   1.0000   1.0000   1.0000   1.0000
     1.0000   1.0000   1.0000   1.0000   1.0000   1.0000   1.0000   1.0000
     1.0000   1.0000   1.0000   1.0000   1.0000   1.0000   1.0000   1.0000
     1.0000   1.0000   1.0000   1.0000   1.0000   1.0000   1.0000   1.0000
     1.0000   1.0000   1.0000   1.0000   1.0000   1.0000   1.0000   1.0000
     1.0000   1.0000   1.0000   1.0000   1.0000   1.0000   1.0000   1.0000
     1.0000   1.0000   1.0000   1.0000   1.0000   1.0000   1.0000   1.0000
     1.0000   1.0000   1.0000   1.0000   1.0000   1.0000   1.0000   1.0000
     1.0000   1.0000   1.0000   1.0000   1.0000   1.0000   1.0000   1.0000
     1.0000   1.0000   1.0000   1.0000   1.0000   1.0000   1.0000   1.0000
     0.0000   0.0000   0.0000   0.0000   0.0000   0.0000   0.0000   0.0000
     0.0000   0.0000

          k = 0.0000 0.2391 0.2337 ( 36495 PWs)   bands (ev):

   -85.2873 -85.2609 -85.2440 -84.8129 -51.3972 -51.3525 -51.3417 -51.2360
   -51.2276 -51.2142 -51.1865 -51.1636 -51.1562 -51.1410 -50.7545 -50.5540
   -45.1242 -17.1528 -17.0998 -17.0581 -16.2002 -16.0529 -15.8506 -15.7827
   -13.8739 -13.7866 -13.6923 -13.5992 -13.5614 -13.5405 -13.4819 -13.4404
   -13.3670 -13.3335 -13.2965 -13.2018  -4.1168  -3.6760  -3.5644  -3.1827
    -2.2248  -1.9240  -1.8709  -1.6767  -1.4871  -1.4298  -1.2875  -1.1637
    -1.0614  -0.9260  -0.7490  -0.4757  -0.3926  -0.2688   0.2353   0.2607
     0.3188   0.3909   0.4506   0.5693   0.6662   0.8997   0.9622   1.0129
     1.1518   1.2739   1.3132   1.4179   1.4815   1.5128   1.6024   1.6530
     1.9441   2.0378   2.1154   2.1699   2.2555   2.2854   2.3321   2.4688
     2.5589   2.6202   2.6753   2.7755   2.8418   3.0216   3.0786   3.1864
     3.2040   3.3042   3.3594   3.4652   3.5517   3.6922   3.7562   3.8306
     3.9665   4.0237   4.1540   4.1797   4.3240   4.4557   4.7700   4.8473
     9.3320  11.2311  11.6952  11.9133  12.2382  12.8360  13.1593  13.2127
    13.4004  13.5562

     occupation numbers 
     1.0000   1.0000   1.0000   1.0000   1.0000   1.0000   1.0000   1.0000
     1.0000   1.0000   1.0000   1.0000   1.0000   1.0000   1.0000   1.0000
     1.0000   1.0000   1.0000   1.0000   1.0000   1.0000   1.0000   1.0000
     1.0000   1.0000   1.0000   1.0000   1.0000   1.0000   1.0000   1.0000
     1.0000   1.0000   1.0000   1.0000   1.0000   1.0000   1.0000   1.0000
     1.0000   1.0000   1.0000   1.0000   1.0000   1.0000   1.0000   1.0000
     1.0000   1.0000   1.0000   1.0000   1.0000   1.0000   1.0000   1.0000
     1.0000   1.0000   1.0000   1.0000   1.0000   1.0000   1.0000   1.0000
     1.0000   1.0000   1.0000   1.0000   1.0000   1.0000   1.0000   1.0000
     1.0000   1.0000   1.0000   1.0000   1.0000   1.0000   1.0000   1.0000
     1.0000   1.0000   1.0000   1.0000   1.0000   1.0000   1.0000   1.0000
     1.0000   1.0000   1.0000   1.0000   1.0000   1.0000   1.0000   1.0000
     1.0000   1.0000   1.0000   1.0000   1.0000   1.0000   1.0000   1.0000
     0.0000   0.0000   0.0000   0.0000   0.0000   0.0000   0.0000   0.0000
     0.0000   0.0000

          k = 0.0000 0.2391 0.4675 ( 36500 PWs)   bands (ev):

   -85.2873 -85.2609 -85.2440 -84.8129 -51.3972 -51.3525 -51.3417 -51.2360
   -51.2276 -51.2142 -51.1865 -51.1636 -51.1562 -51.1410 -50.7545 -50.5540
   -45.1242 -17.1543 -17.1118 -17.0579 -16.1647 -16.0293 -15.8347 -15.7721
   -13.8960 -13.8077 -13.7215 -13.6113 -13.5705 -13.5380 -13.4956 -13.4380
   -13.3691 -13.3405 -13.3038 -13.2103  -4.0509  -3.6668  -3.5529  -3.2197
    -2.1078  -1.8843  -1.8330  -1.6614  -1.4723  -1.4389  -1.2842  -1.0727
    -1.0112  -0.8638  -0.8347  -0.5324  -0.3532  -0.2442   0.2428   0.2834
     0.3493   0.3797   0.5345   0.6001   0.6739   0.8540   0.9339   1.0186
     1.0967   1.2586   1.3041   1.3459   1.4059   1.4873   1.5496   1.6518
     1.8252   1.9671   2.0764   2.1505   2.1952   2.2290   2.3744   2.4537
     2.5317   2.6731   2.7186   2.7836   2.8563   2.9098   3.0231   3.1225
     3.1905   3.2801   3.4244   3.4996   3.5630   3.7260   3.8036   3.8544
     4.0130   4.0639   4.1284   4.2314   4.3114   4.4569   4.7201   4.7996
     9.7156  11.4262  11.8055  12.0060  12.3391  12.7064  12.9730  13.1323
    13.2363  13.3342

     occupation numbers 
     1.0000   1.0000   1.0000   1.0000   1.0000   1.0000   1.0000   1.0000
     1.0000   1.0000   1.0000   1.0000   1.0000   1.0000   1.0000   1.0000
     1.0000   1.0000   1.0000   1.0000   1.0000   1.0000   1.0000   1.0000
     1.0000   1.0000   1.0000   1.0000   1.0000   1.0000   1.0000   1.0000
     1.0000   1.0000   1.0000   1.0000   1.0000   1.0000   1.0000   1.0000
     1.0000   1.0000   1.0000   1.0000   1.0000   1.0000   1.0000   1.0000
     1.0000   1.0000   1.0000   1.0000   1.0000   1.0000   1.0000   1.0000
     1.0000   1.0000   1.0000   1.0000   1.0000   1.0000   1.0000   1.0000
     1.0000   1.0000   1.0000   1.0000   1.0000   1.0000   1.0000   1.0000
     1.0000   1.0000   1.0000   1.0000   1.0000   1.0000   1.0000   1.0000
     1.0000   1.0000   1.0000   1.0000   1.0000   1.0000   1.0000   1.0000
     1.0000   1.0000   1.0000   1.0000   1.0000   1.0000   1.0000   1.0000
     1.0000   1.0000   1.0000   1.0000   1.0000   1.0000   1.0000   1.0000
     0.0000   0.0000   0.0000   0.0000   0.0000   0.0000   0.0000   0.0000
     0.0000   0.0000

          k = 0.0000 0.2391 0.7012 ( 36515 PWs)   bands (ev):

   -85.2873 -85.2609 -85.2440 -84.8129 -51.3972 -51.3525 -51.3417 -51.2360
   -51.2276 -51.2142 -51.1865 -51.1636 -51.1562 -51.1410 -50.7545 -50.5540
   -45.1242 -17.1587 -17.1220 -17.0577 -16.1224 -16.0021 -15.8145 -15.7628
   -13.9242 -13.8389 -13.7481 -13.6254 -13.5961 -13.5338 -13.5011 -13.4300
   -13.3743 -13.3429 -13.3124 -13.2215  -3.9539  -3.6758  -3.5310  -3.2865
    -1.9689  -1.8570  -1.7587  -1.6595  -1.4603  -1.4076  -1.2674  -1.0807
    -0.9619  -0.8693  -0.7214  -0.6500  -0.2527  -0.1635   0.2202   0.3142
     0.3508   0.4264   0.5905   0.6891   0.7275   0.7961   0.8606   1.0232
     1.0689   1.2018   1.2273   1.3221   1.3604   1.4430   1.4680   1.5483
     1.6612   1.8040   1.9626   2.1428   2.1623   2.3051   2.3458   2.5059
     2.5235   2.6694   2.6891   2.7697   2.7995   2.8731   2.9365   3.1051
     3.1688   3.2516   3.5350   3.5939   3.6611   3.7573   3.8244   3.8813
     4.0396   4.0962   4.1399   4.2444   4.3558   4.4602   4.6406   4.7221
    10.2469  11.6749  11.8101  12.1495  12.4474  12.6650  12.8017  12.9574
    13.0560  13.1007

     occupation numbers 
     1.0000   1.0000   1.0000   1.0000   1.0000   1.0000   1.0000   1.0000
     1.0000   1.0000   1.0000   1.0000   1.0000   1.0000   1.0000   1.0000
     1.0000   1.0000   1.0000   1.0000   1.0000   1.0000   1.0000   1.0000
     1.0000   1.0000   1.0000   1.0000   1.0000   1.0000   1.0000   1.0000
     1.0000   1.0000   1.0000   1.0000   1.0000   1.0000   1.0000   1.0000
     1.0000   1.0000   1.0000   1.0000   1.0000   1.0000   1.0000   1.0000
     1.0000   1.0000   1.0000   1.0000   1.0000   1.0000   1.0000   1.0000
     1.0000   1.0000   1.0000   1.0000   1.0000   1.0000   1.0000   1.0000
     1.0000   1.0000   1.0000   1.0000   1.0000   1.0000   1.0000   1.0000
     1.0000   1.0000   1.0000   1.0000   1.0000   1.0000   1.0000   1.0000
     1.0000   1.0000   1.0000   1.0000   1.0000   1.0000   1.0000   1.0000
     1.0000   1.0000   1.0000   1.0000   1.0000   1.0000   1.0000   1.0000
     1.0000   1.0000   1.0000   1.0000   1.0000   1.0000   1.0000   1.0000
     0.0000   0.0000   0.0000   0.0000   0.0000   0.0000   0.0000   0.0000
     0.0000   0.0000

          k = 0.0000 0.2391 0.9349 ( 36488 PWs)   bands (ev):

   -85.2873 -85.2609 -85.2440 -84.8129 -51.3972 -51.3525 -51.3417 -51.2360
   -51.2276 -51.2142 -51.1865 -51.1636 -51.1562 -51.1410 -50.7545 -50.5541
   -45.1242 -17.1637 -17.1262 -17.0576 -16.0931 -15.9845 -15.7984 -15.7600
   -13.9441 -13.8624 -13.7632 -13.6386 -13.6149 -13.5310 -13.4986 -13.4234
   -13.3788 -13.3435 -13.3168 -13.2302  -3.8542  -3.7148  -3.5049  -3.3517
    -1.8958  -1.8317  -1.7033  -1.6492  -1.4437  -1.3413  -1.2672  -1.1873
    -0.9163  -0.8125  -0.7531  -0.6291  -0.1269  -0.0047   0.1550   0.1948
     0.4417   0.5433   0.6076   0.6867   0.7317   0.7876   0.8950   0.9512
     1.0622   1.1008   1.1882   1.2595   1.2719   1.3532   1.4264   1.4919
     1.6863   1.7752   1.8470   2.0210   2.1707   2.2798   2.4137   2.4956
     2.5616   2.6221   2.6578   2.7288   2.7961   2.8306   2.9293   3.0910
     3.1629   3.2413   3.5749   3.6990   3.7491   3.7993   3.8443   3.9056
     4.0095   4.0834   4.2007   4.2807   4.4041   4.4575   4.5574   4.6441
    10.8287  11.4061  12.0029  12.3325  12.4091  12.5784  12.7857  12.9116
    12.9518  13.0921

     occupation numbers 
     1.0000   1.0000   1.0000   1.0000   1.0000   1.0000   1.0000   1.0000
     1.0000   1.0000   1.0000   1.0000   1.0000   1.0000   1.0000   1.0000
     1.0000   1.0000   1.0000   1.0000   1.0000   1.0000   1.0000   1.0000
     1.0000   1.0000   1.0000   1.0000   1.0000   1.0000   1.0000   1.0000
     1.0000   1.0000   1.0000   1.0000   1.0000   1.0000   1.0000   1.0000
     1.0000   1.0000   1.0000   1.0000   1.0000   1.0000   1.0000   1.0000
     1.0000   1.0000   1.0000   1.0000   1.0000   1.0000   1.0000   1.0000
     1.0000   1.0000   1.0000   1.0000   1.0000   1.0000   1.0000   1.0000
     1.0000   1.0000   1.0000   1.0000   1.0000   1.0000   1.0000   1.0000
     1.0000   1.0000   1.0000   1.0000   1.0000   1.0000   1.0000   1.0000
     1.0000   1.0000   1.0000   1.0000   1.0000   1.0000   1.0000   1.0000
     1.0000   1.0000   1.0000   1.0000   1.0000   1.0000   1.0000   1.0000
     1.0000   1.0000   1.0000   1.0000   1.0000   1.0000   1.0000   1.0000
     0.0000   0.0000   0.0000   0.0000   0.0000   0.0000   0.0000   0.0000
     0.0000   0.0000

          k = 0.0000 0.4781 0.0000 ( 36507 PWs)   bands (ev):

   -85.2873 -85.2609 -85.2440 -84.8129 -51.3972 -51.3525 -51.3417 -51.2360
   -51.2276 -51.2142 -51.1865 -51.1636 -51.1562 -51.1410 -50.7545 -50.5540
   -45.1242 -17.1520 -17.0944 -17.0601 -16.1769 -16.0535 -15.8626 -15.8177
   -13.8680 -13.7735 -13.6799 -13.6530 -13.5738 -13.5529 -13.4708 -13.4365
   -13.3497 -13.2958 -13.2917 -13.2017  -4.0697  -3.7427  -3.5010  -3.2032
    -2.2025  -1.9647  -1.8658  -1.6958  -1.4727  -1.3831  -1.2554  -1.1442
    -1.0068  -0.9116  -0.6924  -0.4928  -0.3892  -0.1872   0.1919   0.2638
     0.3274   0.3534   0.3978   0.4572   0.5205   0.8328   1.0683   1.1325
     1.1541   1.2147   1.2730   1.2961   1.3988   1.4785   1.6118   1.7250
     1.8901   2.0497   2.1418   2.1878   2.2773   2.3238   2.3439   2.4139
     2.5904   2.6301   2.6339   2.7268   2.8319   3.0094   3.0665   3.0995
     3.1547   3.2796   3.4975   3.5456   3.6314   3.6797   3.7564   3.8640
     3.8996   3.9825   4.0995   4.1482   4.2509   4.5637   4.7993   4.8512
     9.6129  11.3565  11.5479  11.8743  12.3685  12.9037  13.1488  13.2114
    13.5609  13.6623

     occupation numbers 
     1.0000   1.0000   1.0000   1.0000   1.0000   1.0000   1.0000   1.0000
     1.0000   1.0000   1.0000   1.0000   1.0000   1.0000   1.0000   1.0000
     1.0000   1.0000   1.0000   1.0000   1.0000   1.0000   1.0000   1.0000
     1.0000   1.0000   1.0000   1.0000   1.0000   1.0000   1.0000   1.0000
     1.0000   1.0000   1.0000   1.0000   1.0000   1.0000   1.0000   1.0000
     1.0000   1.0000   1.0000   1.0000   1.0000   1.0000   1.0000   1.0000
     1.0000   1.0000   1.0000   1.0000   1.0000   1.0000   1.0000   1.0000
     1.0000   1.0000   1.0000   1.0000   1.0000   1.0000   1.0000   1.0000
     1.0000   1.0000   1.0000   1.0000   1.0000   1.0000   1.0000   1.0000
     1.0000   1.0000   1.0000   1.0000   1.0000   1.0000   1.0000   1.0000
     1.0000   1.0000   1.0000   1.0000   1.0000   1.0000   1.0000   1.0000
     1.0000   1.0000   1.0000   1.0000   1.0000   1.0000   1.0000   1.0000
     1.0000   1.0000   1.0000   1.0000   1.0000   1.0000   1.0000   1.0000
     0.0000   0.0000   0.0000   0.0000   0.0000   0.0000   0.0000   0.0000
     0.0000   0.0000

          k = 0.0000 0.4781 0.2337 ( 36461 PWs)   bands (ev):

   -85.2873 -85.2609 -85.2440 -84.8129 -51.3972 -51.3525 -51.3417 -51.2360
   -51.2276 -51.2142 -51.1865 -51.1636 -51.1562 -51.1410 -50.7545 -50.5540
   -45.1242 -17.1521 -17.0996 -17.0599 -16.1650 -16.0439 -15.8563 -15.8114
   -13.8760 -13.7795 -13.6955 -13.6553 -13.5724 -13.5548 -13.4915 -13.4267
   -13.3538 -13.2992 -13.2896 -13.2035  -4.0482  -3.7315  -3.5009  -3.2108
[...]
     atom   24 type  3   force =     0.00055872    0.00163049    0.00016185
     atom   25 type  3   force =    -0.00048699    0.00061253    0.00021932
     The non-local contrib.  to forces
     atom    1 type  2   force =     0.12981969   -0.00000055   -0.02919250
     atom    2 type  1   force =     0.06090463   -0.00000608    0.12475670
     atom    3 type  1   force =     0.03561932    0.00001758    0.09774049
     atom    4 type  1   force =    -0.21867982    0.00000666   -0.06153990
     atom    5 type  1   force =    -0.01407481   -0.00001712   -0.10909613
     atom    6 type  4   force =    -0.02753719    0.00000531   -0.03859639
     atom    7 type  4   force =     0.04815501   -0.00000592   -0.00905317
     atom    8 type  4   force =     0.00167886   -0.00000500    0.04013628
     atom    9 type  4   force =    -0.00067287    0.00000559    0.04664872
     atom   10 type  3   force =     0.30521491   -0.00000598   -1.48782054
     atom   11 type  3   force =    -0.10248357    0.00000369   -1.41117017
     atom   12 type  3   force =    -0.39246734    0.00000622    1.48828365
     atom   13 type  3   force =     0.22395642   -0.00000309    1.48893121
     atom   14 type  3   force =     1.23586083   -0.00000689   -0.59652712
     atom   15 type  3   force =    -1.21623211    0.00000327   -0.77642456
     atom   16 type  3   force =    -1.21869331    0.00000855    0.30066678
     atom   17 type  3   force =     1.18673197   -0.00000263    0.61332500
     atom   18 type  3   force =    -0.53209785   -1.10363508    0.76980586
     atom   19 type  3   force =     0.54141817    1.16649754    0.80302993
     atom   20 type  3   force =     0.55997880   -1.11217985   -0.67162720
     atom   21 type  3   force =    -0.55441780    1.07599422   -0.68764239
     atom   22 type  3   force =     0.55995879    1.11213934   -0.67162625
     atom   23 type  3   force =    -0.55439856   -1.07597058   -0.68763060
     atom   24 type  3   force =    -0.53211948    1.10367398    0.76980507
     atom   25 type  3   force =     0.54143453   -1.16652351    0.80303907
     The ionic contribution  to forces
     atom    1 type  2   force =    -3.78331521    0.00033141    2.48054996
     atom    2 type  1   force =     0.09587351   -0.00088023   -0.41178090
     atom    3 type  1   force =    -8.21662875    0.00099646   -0.58530288
     atom    4 type  1   force =     3.77389002    0.00078135   -0.35240916
     atom    5 type  1   force =     8.51105460   -0.00113566    0.54191424
     atom    6 type  4   force =    -3.47353106   -0.00025273    0.27017024
     atom    7 type  4   force =     0.69756971    0.00021869    0.35822591
     atom    8 type  4   force =     5.25488927    0.00025237   -0.53335941
     atom    9 type  4   force =    -2.75065264   -0.00022276   -0.65753188
     atom   10 type  3   force =   -10.18108799   -0.00027892    2.69456420
     atom   11 type  3   force =     3.82364108    0.00027171    1.34909019
     atom   12 type  3   force =    12.27070028    0.00026200   -2.82522130
     atom   13 type  3   force =    -8.36417646   -0.00031626   -2.17605270
     atom   14 type  3   force =     0.69274999   -0.00022798    5.32618581
     atom   15 type  3   force =    -1.85017264    0.00026362    6.81038382
     atom   16 type  3   force =    -2.02979893    0.00017500   -2.55056501
     atom   17 type  3   force =     3.55460639   -0.00027247   -5.98988811
     atom   18 type  3   force =    -4.12144923    2.71448499   -2.99919859
     atom   19 type  3   force =     1.00227848   -4.04655430   -2.60870508
     atom   20 type  3   force =     5.49562100    4.34456774    2.38225745
     atom   21 type  3   force =    -1.38927368   -1.25732909    1.35108943
     atom   22 type  3   force =     5.49586942   -4.34402499    2.38237941
     atom   23 type  3   force =    -1.38949050    1.25700327    1.35099918
     atom   24 type  3   force =    -4.12120804   -2.71501684   -2.99904063
     atom   25 type  3   force =     1.00204136    4.04690361   -2.60875418
     The local contribution  to forces
     atom    1 type  2   force =     3.65572841   -0.00033002   -2.45195721
     atom    2 type  1   force =    -0.15882729    0.00088235    0.28606279
     atom    3 type  1   force =     8.18095695   -0.00100935    0.48732797
     atom    4 type  1   force =    -3.55585883   -0.00078495    0.41697955
     atom    5 type  1   force =    -8.49634480    0.00114700   -0.43275135
     atom    6 type  4   force =     3.49863814    0.00024438   -0.23582859
     atom    7 type  4   force =    -0.73906006   -0.00020936   -0.35065490
     atom    8 type  4   force =    -5.26015355   -0.00024480    0.49563277
     atom    9 type  4   force =     2.75209718    0.00021492    0.61631690
     atom   10 type  3   force =     9.87994506    0.00028420   -1.21912444
     atom   11 type  3   force =    -3.72347384   -0.00027486    0.05171461
     atom   12 type  3   force =   -11.88241965   -0.00026755    1.34996889
     atom   13 type  3   force =     8.14283793    0.00031887    0.70006293
     atom   14 type  3   force =    -1.91974485    0.00023482   -4.73447349
     atom   15 type  3   force =     3.05980741   -0.00026653   -6.04291844
     atom   16 type  3   force =     3.23455182   -0.00018323    2.25170478
     atom   17 type  3   force =    -4.73179777    0.00027477    5.38213326
     atom   18 type  3   force =     4.64949667   -1.62205693    2.23655405
     atom   19 type  3   force =    -1.53954252    2.88954616    1.81320443
     atom   20 type  3   force =    -6.04990428   -3.24129479   -1.71870550
     atom   21 type  3   force =     1.93761599    0.19166603   -0.66824687
     atom   22 type  3   force =    -6.05013180    3.24079285   -1.71882841
     atom   23 type  3   force =     1.93781348   -0.19136369   -0.66816865
     atom   24 type  3   force =     4.64927711    1.62254977    2.23639764
     atom   25 type  3   force =    -1.53932181   -2.88987001    1.81324482
     The core correction contribution to forces
     atom    1 type  2   force =     0.00000000    0.00000000    0.00000000
     atom    2 type  1   force =    -0.00083564   -0.00000388   -0.00046080
     atom    3 type  1   force =     0.00007688    0.00000275    0.00027254
     atom    4 type  1   force =     0.00418667    0.00000267   -0.00109226
     atom    5 type  1   force =    -0.00009754   -0.00000360    0.00045853
     atom    6 type  4   force =     0.00212457   -0.00000030    0.00275381
     atom    7 type  4   force =    -0.00335983    0.00000038    0.00059017
     atom    8 type  4   force =    -0.00058339    0.00000028   -0.00268738
     atom    9 type  4   force =    -0.00000208   -0.00000037   -0.00323814
     atom   10 type  3   force =    -0.00334755    0.00000007    0.01299827
     atom   11 type  3   force =     0.00160168   -0.00000003    0.01219006
     atom   12 type  3   force =     0.00413987   -0.00000006   -0.01295236
     atom   13 type  3   force =    -0.00264968    0.00000004   -0.01297213
     atom   14 type  3   force =    -0.01043758    0.00000007    0.00574262
     atom   15 type  3   force =     0.01026309   -0.00000005    0.00732943
     atom   16 type  3   force =     0.01025444   -0.00000008   -0.00298962
     atom   17 type  3   force =    -0.01011616    0.00000005   -0.00586297
     atom   18 type  3   force =     0.00460922    0.00957168   -0.00700067
     atom   19 type  3   force =    -0.00464232   -0.01010600   -0.00730666
     atom   20 type  3   force =    -0.00491734    0.00963731    0.00606625
     atom   21 type  3   force =     0.00481693   -0.00939504    0.00628417
     atom   22 type  3   force =    -0.00491716   -0.00963695    0.00606624
     atom   23 type  3   force =     0.00481674    0.00939484    0.00628407
     atom   24 type  3   force =     0.00460942   -0.00957203   -0.00700068
     atom   25 type  3   force =    -0.00464247    0.01010617   -0.00730678
     The Hubbard contrib.    to forces
     atom    1 type  2   force =     0.00000000    0.00000000    0.00000000
     atom    2 type  1   force =     0.00000000    0.00000000    0.00000000
     atom    3 type  1   force =     0.00000000    0.00000000    0.00000000
     atom    4 type  1   force =     0.00000000    0.00000000    0.00000000
     atom    5 type  1   force =     0.00000000    0.00000000    0.00000000
     atom    6 type  4   force =     0.00000000    0.00000000    0.00000000
     atom    7 type  4   force =     0.00000000    0.00000000    0.00000000
     atom    8 type  4   force =     0.00000000    0.00000000    0.00000000
     atom    9 type  4   force =     0.00000000    0.00000000    0.00000000
     atom   10 type  3   force =     0.00000000    0.00000000    0.00000000
     atom   11 type  3   force =     0.00000000    0.00000000    0.00000000
     atom   12 type  3   force =     0.00000000    0.00000000    0.00000000
     atom   13 type  3   force =     0.00000000    0.00000000    0.00000000
     atom   14 type  3   force =     0.00000000    0.00000000    0.00000000
     atom   15 type  3   force =     0.00000000    0.00000000    0.00000000
     atom   16 type  3   force =     0.00000000    0.00000000    0.00000000
     atom   17 type  3   force =     0.00000000    0.00000000    0.00000000
     atom   18 type  3   force =     0.00000000    0.00000000    0.00000000
     atom   19 type  3   force =     0.00000000    0.00000000    0.00000000
     atom   20 type  3   force =     0.00000000    0.00000000    0.00000000
     atom   21 type  3   force =     0.00000000    0.00000000    0.00000000
     atom   22 type  3   force =     0.00000000    0.00000000    0.00000000
     atom   23 type  3   force =     0.00000000    0.00000000    0.00000000
     atom   24 type  3   force =     0.00000000    0.00000000    0.00000000
     atom   25 type  3   force =     0.00000000    0.00000000    0.00000000
     The SCF correction term to forces
     atom    1 type  2   force =     0.00000321    0.00000000   -0.00000108
     atom    2 type  1   force =     0.00000213    0.00000001    0.00000007
     atom    3 type  1   force =     0.00000067   -0.00000001   -0.00000007
     atom    4 type  1   force =    -0.00000395    0.00000003    0.00000012
     atom    5 type  1   force =    -0.00000468   -0.00000001    0.00000003
     atom    6 type  4   force =    -0.00000093    0.00000000    0.00000035
     atom    7 type  4   force =     0.00000167   -0.00000001   -0.00000032
     atom    8 type  4   force =    -0.00000227    0.00000001    0.00000063
     atom    9 type  4   force =     0.00000095   -0.00000000   -0.00000022
     atom   10 type  3   force =    -0.00000268    0.00000001   -0.00000100
     atom   11 type  3   force =     0.00000052   -0.00000000    0.00000155
     atom   12 type  3   force =    -0.00000469   -0.00000001   -0.00000280
     atom   13 type  3   force =    -0.00000130   -0.00000001    0.00000210
     atom   14 type  3   force =     0.00000483    0.00000000    0.00000101
     atom   15 type  3   force =     0.00000123    0.00000000   -0.00000065
     atom   16 type  3   force =     0.00000464    0.00000001    0.00000094
     atom   17 type  3   force =     0.00000061   -0.00000001   -0.00000108
     atom   18 type  3   force =    -0.00000082    0.00000448    0.00000184
     atom   19 type  3   force =     0.00000086    0.00000383   -0.00000222
     atom   20 type  3   force =    -0.00000293   -0.00000414    0.00000309
     atom   21 type  3   force =    -0.00000037   -0.00000419   -0.00000263
     atom   22 type  3   force =    -0.00000291    0.00000414    0.00000308
     atom   23 type  3   force =    -0.00000036    0.00000420   -0.00000262
     atom   24 type  3   force =    -0.00000082   -0.00000448    0.00000184
     atom   25 type  3   force =     0.00000086   -0.00000383   -0.00000222

     Total force =     0.011659     Total SCF correction =     0.000019


     Computing stress (Cartesian axis) and pressure


     negative rho (up, down):  0.000E+00 9.549E-04
          total   stress  (Ry/bohr**3)                   (kbar)     P=      -25.77
  -0.00030456   0.00000001  -0.00002009          -44.80        0.00       -2.96
   0.00000001  -0.00022045   0.00000000            0.00      -32.43        0.00
  -0.00002009   0.00000000  -0.00000049           -2.96        0.00       -0.07

     kinetic stress (kbar)  26378.73      0.00    -10.79
                                0.00  26615.80      0.00
                              -10.79      0.00  26429.84

     local   stress (kbar)  -4180.45     -0.12   1199.13
                               -0.12 -13706.26     -0.04
                             1199.13     -0.04  -9056.91

     nonloc. stress (kbar)  -6724.33     -0.00      0.06
                               -0.00  -6666.55     -0.00
                                0.06     -0.00  -6679.32

     hartree stress (kbar)  12342.65      0.05   -492.69
                                0.05  17670.67      0.02
                             -492.69      0.02  15144.84

     exc-cor stress (kbar)  -2797.47     -0.00     -0.82
                               -0.00  -2805.18      0.00
                               -0.82      0.00  -2802.13

     corecor stress (kbar)  -3115.13      0.00      1.00
                                0.00  -3114.44     -0.00
                                1.00     -0.00  -3115.88

     ewald   stress (kbar) -21948.81      0.07   -698.84
                                0.07 -18026.46      0.03
                             -698.84      0.03 -19920.51

     hubbard stress (kbar)      0.00      0.00      0.00
                                0.00      0.00      0.00
                                0.00      0.00      0.00

     DFT-D   stress (kbar)      0.00      0.00      0.00
                                0.00      0.00      0.00
                                0.00      0.00      0.00

     XDM     stress (kbar)      0.00      0.00      0.00
                                0.00      0.00      0.00
                                0.00      0.00      0.00

     dft-nl  stress (kbar)      0.00      0.00      0.00
                                0.00      0.00      0.00
                                0.00      0.00      0.00

     TS-vdW  stress (kbar)      0.00      0.00      0.00
                                0.00      0.00      0.00
                                0.00      0.00      0.00



     init_run     :    189.77s CPU    194.58s WALL (       1 calls)
     electrons    :  22853.38s CPU  23294.86s WALL (       1 calls)
     forces       :    148.12s CPU    155.28s WALL (       1 calls)
     stress       :    790.47s CPU    797.75s WALL (       1 calls)

     Called by init_run:
     wfcinit      :    179.37s CPU    183.10s WALL (       1 calls)
     wfcinit:atom :      3.96s CPU      4.07s WALL (     316 calls)
     wfcinit:wfcr :    164.63s CPU    168.01s WALL (     316 calls)
     potinit      :      3.80s CPU      4.03s WALL (       1 calls)
     hinit0       :      3.39s CPU      3.57s WALL (       1 calls)

     Called by electrons:
     c_bands      :  20091.89s CPU  20413.62s WALL (      33 calls)
     sum_band     :   2650.96s CPU   2747.96s WALL (      33 calls)
     v_of_rho     :     34.39s CPU     36.21s WALL (      34 calls)
     v_h          :      1.81s CPU      1.90s WALL (      34 calls)
     v_xc         :     34.42s CPU     36.21s WALL (      36 calls)
     newd         :     48.14s CPU     68.51s WALL (      34 calls)
     PAW_pot      :     15.47s CPU     15.66s WALL (      34 calls)
     mix_rho      :     11.35s CPU     12.05s WALL (      33 calls)

     Called by c_bands:
     init_us_2    :    311.56s CPU    322.04s WALL (   21804 calls)
     cegterg      :  19558.18s CPU  19863.33s WALL (   10428 calls)

     Called by sum_band:
     sum_band:wei :      0.56s CPU      0.57s WALL (      33 calls)
     sum_band:loo :   2495.22s CPU   2564.23s WALL (      33 calls)
     sum_band:buf :     78.91s CPU     81.51s WALL (   10428 calls)
     sum_band:ini :    149.56s CPU    154.09s WALL (   10428 calls)
     sum_band:cal :    757.20s CPU    769.70s WALL (   10428 calls)
     sum_band:bec :      5.69s CPU      5.81s WALL (   10428 calls)
     addusdens    :    148.45s CPU    176.17s WALL (      33 calls)
     addusd:skk   :      0.95s CPU      1.01s WALL (      99 calls)
     addusd:dgemm :     66.04s CPU     87.97s WALL (     198 calls)
     addusd:qvan2 :     79.59s CPU     81.05s WALL (     198 calls)

     Called by *egterg:
     cdiaghg      :    984.29s CPU   1008.68s WALL (   38073 calls)
     cegterg:over :   1641.72s CPU   1674.35s WALL (   27645 calls)
     cegterg:upda :    764.81s CPU    772.13s WALL (   27645 calls)
     cegterg:last :   1589.27s CPU   1604.19s WALL (   17675 calls)
     h_psi        :  11767.03s CPU  11959.28s WALL (   38389 calls)
     s_psi        :   1731.72s CPU   1747.26s WALL (   38389 calls)
     g_psi        :     14.99s CPU     15.28s WALL (   27645 calls)

     Called by h_psi:
     h_psi:calbec :   1981.14s CPU   2011.03s WALL (   38389 calls)
     vloc_psi     :   7777.02s CPU   7915.18s WALL (   38389 calls)
     add_vuspsi   :   1835.62s CPU   1853.00s WALL (   38389 calls)

     General routines
     calbec       :   2876.20s CPU   2924.40s WALL (   50397 calls)
     fft          :     34.59s CPU     36.63s WALL (     888 calls)
     ffts         :      0.58s CPU      0.69s WALL (     134 calls)
     fftw         :   9041.48s CPU   9225.32s WALL ( 6525270 calls)
     interpolate  :      2.90s CPU      3.08s WALL (      68 calls)

     Parallel routines
     fft_scatt_xy :    289.28s CPU    292.45s WALL ( 6526292 calls)
     fft_scatt_yz :   6875.49s CPU   7037.58s WALL ( 6526292 calls)

     PAW routines
     PAW_pot      :     15.47s CPU     15.66s WALL (      34 calls)

     PWSCF        :      6h39m CPU      6h47m WALL


   This run was terminated on:  10:49:55  14Dec2022            

=------------------------------------------------------------------------------=
   JOB DONE.
=------------------------------------------------------------------------------=
Note: The following floating-point exceptions are signalling: IEEE_INVALID_FLAG IEEE_UNDERFLOW_FLAG IEEE_DENORMAL
Note: The following floating-point exceptions are signalling: IEEE_DENORMAL
Note: The following floating-point exceptions are signalling: IEEE_DENORMAL
Note: The following floating-point exceptions are signalling: IEEE_DENORMAL
Note: The following floating-point exceptions are signalling: IEEE_DENORMAL
Note: The following floating-point exceptions are signalling: IEEE_DENORMAL
Note: The following floating-point exceptions are signalling: IEEE_DENORMAL
Note: The following floating-point exceptions are signalling: IEEE_DENORMAL
Note: The following floating-point exceptions are signalling: IEEE_DENORMAL
Note: The following floating-point exceptions are signalling: IEEE_DENORMAL
Note: The following floating-point exceptions are signalling: IEEE_DENORMAL
Note: The following floating-point exceptions are signalling: IEEE_DENORMAL
Note: The following floating-point exceptions are signalling: IEEE_DENORMAL
Note: The following floating-point exceptions are signalling: IEEE_INVALID_FLAG IEEE_DENORMAL
Note: The following floating-point exceptions are signalling: IEEE_DENORMAL
Note: The following floating-point exceptions are signalling: IEEE_DENORMAL
Note: The following floating-point exceptions are signalling: IEEE_DENORMAL
Note: The following floating-point exceptions are signalling: IEEE_DENORMAL
Note: The following floating-point exceptions are signalling: IEEE_DENORMAL
Note: The following floating-point exceptions are signalling: IEEE_DENORMAL
Note: The following floating-point exceptions are signalling: IEEE_DENORMAL
Note: The following floating-point exceptions are signalling: IEEE_DENORMAL
Note: The following floating-point exceptions are signalling: IEEE_DENORMAL
Note: The following floating-point exceptions are signalling: IEEE_DENORMAL
