
     Program PWSCF v.6.7MaX starts on 21Dec2022 at  6:31:15 

     This program is part of the open-source Quantum ESPRESSO suite
     for quantum simulation of materials; please cite
         "P. Giannozzi et al., J. Phys.:Condens. Matter 21 395502 (2009);
         "P. Giannozzi et al., J. Phys.:Condens. Matter 29 465901 (2017);
          URL http://www.quantum-espresso.org", 
     in publications or presentations arising from this work. More details at
     http://www.quantum-espresso.org/quote

     Parallel version (MPI), running on    24 processors

     MPI processes distributed on     1 nodes
     R & G space division:  proc/nbgrp/npool/nimage =      24
     Reading input from scale_3d-03.in

     Current dimensions of program PWSCF are:
     Max number of different atomic species (ntypx) = 10
     Max number of k-points (npk) =  40000
     Max angular momentum in pseudopotentials (lmaxx) =  3
     Message from routine read_pp_mesh:
     mesh size missing, using the one in header
     file Fe.pbe-spn-kjpaw_psl.0.2.1.UPF: wavefunction(s)  3D renormalized
     file O.pbe-n-kjpaw_psl.0.1.UPF: wavefunction(s)  2P renormalized

     Subspace diagonalization in iterative solution of the eigenvalue problem:
     a serial algorithm will be used


     Parallelization info
     --------------------
     sticks:   dense  smooth     PW     G-vecs:    dense   smooth      PW
     Min         854     316     85                56700    12780    1793
     Max         856     317     86                56703    12783    1795
     Sum       20521    7599   2049              1360823   306739   43063



     bravais-lattice index     =            0
     lattice parameter (alat)  =      19.9928  a.u.
     unit-cell volume          =    2270.1860 (a.u.)^3
     number of atoms/cell      =           25
     number of atomic types    =            4
     number of electrons       =       189.00
     number of Kohn-Sham states=          114
     kinetic-energy cutoff     =     100.0000  Ry
     charge density cutoff     =    1080.0000  Ry
     scf convergence threshold =      2.0E-10
     mixing beta               =       0.4000
     number of iterations used =            8  plain     mixing
     Exchange-correlation= PBE
                           (   1   4   3   4   0   0   0)

     celldm(1)=  19.992808  celldm(2)=   0.000000  celldm(3)=   0.000000
     celldm(4)=   0.000000  celldm(5)=   0.000000  celldm(6)=   0.000000

     crystal axes: (cart. coord. in units of alat)
               a(1) = (   1.000000   0.000000   0.000000 )  
               a(2) = (   0.000000   0.597590   0.000000 )  
               a(3) = (   0.000000   0.000000   0.475375 )  

     reciprocal axes: (cart. coord. in units 2 pi/alat)
               b(1) = (  1.000000  0.000000  0.000000 )  
               b(2) = (  0.000000  1.673388  0.000000 )  
               b(3) = (  0.000000  0.000000  2.103600 )  


     PseudoPot. # 1 for Fe read from file:
     /opt/QEpot/SSSP_precision_pseudos/Fe.pbe-spn-kjpaw_psl.0.2.1.UPF
     MD5 check sum: e86618425769142926afa95317d90200
     Pseudo is Projector augmented-wave + core cor, Zval = 16.0
     Generated using "atomic" code by A. Dal Corso  v.5.0.99 svn rev. 10869
     Shape of augmentation charge: PSQ
     Using radial grid of 1191 points,  6 beta functions with: 
                l(1) =   0
                l(2) =   0
                l(3) =   1
                l(4) =   1
                l(5) =   2
                l(6) =   2
     Q(r) pseudized with 0 coefficients 


     PseudoPot. # 2 for Na read from file:
     /opt/QEpot/SSSP_precision_pseudos/Na_ONCV_PBE-1.0.oncvpsp.upf
     MD5 check sum: 24a298df0a6742ae313db96548fdb2a4
     Pseudo is Norm-conserving, Zval =  9.0
     Generated using ONCVPSP code by D. R. Hamann
     Using radial grid of 1992 points,  4 beta functions with: 
                l(1) =   0
                l(2) =   0
                l(3) =   1
                l(4) =   1

     PseudoPot. # 3 for O  read from file:
     /opt/QEpot/SSSP_precision_pseudos/O.pbe-n-kjpaw_psl.0.1.UPF
     MD5 check sum: 0234752ac141de4415c5fc33072bef88
     Pseudo is Projector augmented-wave + core cor, Zval =  6.0
     Generated using "atomic" code by A. Dal Corso  v.5.0.99 svn rev. 10869
     Shape of augmentation charge: BESSEL
     Using radial grid of 1095 points,  4 beta functions with: 
                l(1) =   0
                l(2) =   0
                l(3) =   1
                l(4) =   1
     Q(r) pseudized with 0 coefficients 


     PseudoPot. # 4 for P  read from file:
     /opt/QEpot/SSSP_precision_pseudos/P.pbe-n-rrkjus_psl.1.0.0.UPF
     MD5 check sum: 8b930f418f0a4573dca56cd030ffe088
     Pseudo is Ultrasoft + core correction, Zval =  5.0
     Generated using "atomic" code by A. Dal Corso  v.5.1
     Using radial grid of 1147 points,  6 beta functions with: 
                l(1) =   0
                l(2) =   0
                l(3) =   1
                l(4) =   1
                l(5) =   2
                l(6) =   2
     Q(r) pseudized with 0 coefficients 


     atomic species   valence    mass     pseudopotential
        Fe            16.00    55.84500     Fe( 1.00)
        Na             9.00    22.98977     Na( 1.00)
        O              6.00    15.99940     O ( 1.00)
        P              5.00    30.97376     P ( 1.00)

     Starting magnetic structure 
     atomic species   magnetization
        Fe           0.312
        Na           0.000
        O            0.000
        P            0.000

     No symmetry found


                                    s                        frac. trans.

      isym =  1     identity                                     

 cryst.   s( 1) = (     1          0          0      )
                  (     0          1          0      )
                  (     0          0          1      )

 cart.    s( 1) = (  1.0000000  0.0000000  0.0000000 )
                  (  0.0000000  1.0000000  0.0000000 )
                  (  0.0000000  0.0000000  1.0000000 )


   Cartesian axes

     site n.     atom                  positions (alat units)
         1           Na  tau(   1) = (   0.5574590   0.1493981   0.2117218  )
         2           Fe  tau(   2) = (   0.2771150   0.4481954   0.4712830  )
         3           Fe  tau(   3) = (   0.2107060   0.1493969   0.2331517  )
         4           Fe  tau(   4) = (   0.7302140   0.1493975   0.0000509  )
         5           Fe  tau(   5) = (   0.7810190   0.4481960   0.2445945  )
         6           P   tau(   6) = (   0.1051510   0.4481942   0.2110135  )
         7           P   tau(   7) = (   0.3871250   0.1493987   0.4475898  )
         8           P   tau(   8) = (   0.8922730   0.1493987   0.2646059  )
         9           P   tau(   9) = (   0.6039150   0.4481942   0.0314295  )
        10           O   tau(  10) = (   0.1313210   0.4481948   0.3569352  )
        11           O   tau(  11) = (   0.3628270   0.1493981   0.1186442  )
        12           O   tau(  12) = (   0.8714480   0.1493981   0.1180971  )
        13           O   tau(  13) = (   0.6323650   0.4481948   0.3613614  )
        14           O   tau(  14) = (   0.4574600   0.4481948   0.0568269  )
        15           O   tau(  15) = (   0.0361810   0.1493981   0.2982587  )
        16           O   tau(  16) = (   0.5358400   0.1493975   0.4259246  )
        17           O   tau(  17) = (   0.9582930   0.4481948   0.1859797  )
        18           O   tau(  18) = (   0.1741600   0.5648814   0.1424125  )
        19           O   tau(  19) = (   0.3208130   0.0329153   0.3780219  )
        20           O   tau(  20) = (   0.8175190   0.2646445   0.3306455  )
        21           O   tau(  21) = (   0.6721860   0.3307857   0.1012997  )
        22           O   tau(  22) = (   0.8175190   0.0341529   0.3306460  )
        23           O   tau(  23) = (   0.6721870   0.5656027   0.1013006  )
        24           O   tau(  24) = (   0.1741600   0.3315070   0.1424125  )
        25           O   tau(  25) = (   0.3208140   0.2658821   0.3780229  )

   Crystallographic axes

     site n.     atom                  positions (cryst. coord.)
         1           Na  tau(   1) = (  0.5574590  0.2500010  0.4453780  )
         2           Fe  tau(   2) = (  0.2771150  0.7500050  0.9913910  )
         3           Fe  tau(   3) = (  0.2107060  0.2499990  0.4904580  )
         4           Fe  tau(   4) = (  0.7302140  0.2500000  0.0001070  )
         5           Fe  tau(   5) = (  0.7810190  0.7500060  0.5145290  )
         6           P   tau(   6) = (  0.1051510  0.7500030  0.4438880  )
         7           P   tau(   7) = (  0.3871250  0.2500020  0.9415500  )
         8           P   tau(   8) = (  0.8922730  0.2500020  0.5566250  )
         9           P   tau(   9) = (  0.6039150  0.7500030  0.0661150  )
        10           O   tau(  10) = (  0.1313210  0.7500040  0.7508490  )
        11           O   tau(  11) = (  0.3628270  0.2500010  0.2495800  )
        12           O   tau(  12) = (  0.8714480  0.2500010  0.2484290  )
        13           O   tau(  13) = (  0.6323650  0.7500040  0.7601600  )
        14           O   tau(  14) = (  0.4574600  0.7500040  0.1195410  )
        15           O   tau(  15) = (  0.0361810  0.2500010  0.6274170  )
        16           O   tau(  16) = (  0.5358400  0.2500000  0.8959750  )
        17           O   tau(  17) = (  0.9582930  0.7500040  0.3912270  )
        18           O   tau(  18) = (  0.1741600  0.9452660  0.2995790  )
        19           O   tau(  19) = (  0.3208130  0.0550800  0.7952070  )
        20           O   tau(  20) = (  0.8175190  0.4428530  0.6955460  )
        21           O   tau(  21) = (  0.6721860  0.5535330  0.2130940  )
        22           O   tau(  22) = (  0.8175190  0.0571510  0.6955470  )
        23           O   tau(  23) = (  0.6721870  0.9464730  0.2130960  )
        24           O   tau(  24) = (  0.1741600  0.5547400  0.2995790  )
        25           O   tau(  25) = (  0.3208140  0.4449240  0.7952090  )

     number of k points=   158  Marzari-Vanderbilt smearing, width (Ry)=  0.0073
                       cart. coord. in units 2pi/alat
        k(    1) = (   0.0000000   0.0000000   0.0000000), wk =   0.0031746
        k(    2) = (   0.0000000   0.0000000   0.2337334), wk =   0.0063492
        k(    3) = (   0.0000000   0.0000000   0.4674667), wk =   0.0063492
        k(    4) = (   0.0000000   0.0000000   0.7012001), wk =   0.0063492
        k(    5) = (   0.0000000   0.0000000   0.9349334), wk =   0.0063492
        k(    6) = (   0.0000000   0.2390555   0.0000000), wk =   0.0063492
        k(    7) = (   0.0000000   0.2390555   0.2337334), wk =   0.0063492
        k(    8) = (   0.0000000   0.2390555   0.4674667), wk =   0.0063492
        k(    9) = (   0.0000000   0.2390555   0.7012001), wk =   0.0063492
        k(   10) = (   0.0000000   0.2390555   0.9349334), wk =   0.0063492
        k(   11) = (   0.0000000   0.4781110   0.0000000), wk =   0.0063492
        k(   12) = (   0.0000000   0.4781110   0.2337334), wk =   0.0063492
        k(   13) = (   0.0000000   0.4781110   0.4674667), wk =   0.0063492
        k(   14) = (   0.0000000   0.4781110   0.7012001), wk =   0.0063492
        k(   15) = (   0.0000000   0.4781110   0.9349334), wk =   0.0063492
        k(   16) = (   0.0000000   0.7171664   0.0000000), wk =   0.0063492
        k(   17) = (   0.0000000   0.7171664   0.2337334), wk =   0.0063492
        k(   18) = (   0.0000000   0.7171664   0.4674667), wk =   0.0063492
        k(   19) = (   0.0000000   0.7171664   0.7012001), wk =   0.0063492
        k(   20) = (   0.0000000   0.7171664   0.9349334), wk =   0.0063492
        k(   21) = (   0.2000000   0.0000000   0.0000000), wk =   0.0063492
        k(   22) = (   0.2000000   0.0000000   0.2337334), wk =   0.0063492
        k(   23) = (   0.2000000   0.0000000   0.4674667), wk =   0.0063492
        k(   24) = (   0.2000000   0.0000000   0.7012001), wk =   0.0063492
        k(   25) = (   0.2000000   0.0000000   0.9349334), wk =   0.0063492
        k(   26) = (   0.2000000   0.2390555   0.0000000), wk =   0.0063492
        k(   27) = (   0.2000000   0.2390555   0.2337334), wk =   0.0063492
        k(   28) = (   0.2000000   0.2390555   0.4674667), wk =   0.0063492
        k(   29) = (   0.2000000   0.2390555   0.7012001), wk =   0.0063492
        k(   30) = (   0.2000000   0.2390555   0.9349334), wk =   0.0063492
        k(   31) = (   0.2000000   0.4781110   0.0000000), wk =   0.0063492
        k(   32) = (   0.2000000   0.4781110   0.2337334), wk =   0.0063492
        k(   33) = (   0.2000000   0.4781110   0.4674667), wk =   0.0063492
        k(   34) = (   0.2000000   0.4781110   0.7012001), wk =   0.0063492
        k(   35) = (   0.2000000   0.4781110   0.9349334), wk =   0.0063492
        k(   36) = (   0.2000000   0.7171664   0.0000000), wk =   0.0063492
        k(   37) = (   0.2000000   0.7171664   0.2337334), wk =   0.0063492
        k(   38) = (   0.2000000   0.7171664   0.4674667), wk =   0.0063492
        k(   39) = (   0.2000000   0.7171664   0.7012001), wk =   0.0063492
        k(   40) = (   0.2000000   0.7171664   0.9349334), wk =   0.0063492
        k(   41) = (   0.4000000   0.0000000   0.0000000), wk =   0.0063492
        k(   42) = (   0.4000000   0.0000000   0.2337334), wk =   0.0063492
        k(   43) = (   0.4000000   0.0000000   0.4674667), wk =   0.0063492
        k(   44) = (   0.4000000   0.0000000   0.7012001), wk =   0.0063492
        k(   45) = (   0.4000000   0.0000000   0.9349334), wk =   0.0063492
        k(   46) = (   0.4000000   0.2390555   0.0000000), wk =   0.0063492
        k(   47) = (   0.4000000   0.2390555   0.2337334), wk =   0.0063492
        k(   48) = (   0.4000000   0.2390555   0.4674667), wk =   0.0063492
        k(   49) = (   0.4000000   0.2390555   0.7012001), wk =   0.0063492
        k(   50) = (   0.4000000   0.2390555   0.9349334), wk =   0.0063492
        k(   51) = (   0.4000000   0.4781110   0.0000000), wk =   0.0063492
        k(   52) = (   0.4000000   0.4781110   0.2337334), wk =   0.0063492
        k(   53) = (   0.4000000   0.4781110   0.4674667), wk =   0.0063492
        k(   54) = (   0.4000000   0.4781110   0.7012001), wk =   0.0063492
        k(   55) = (   0.4000000   0.4781110   0.9349334), wk =   0.0063492
        k(   56) = (   0.4000000   0.7171664   0.0000000), wk =   0.0063492
        k(   57) = (   0.4000000   0.7171664   0.2337334), wk =   0.0063492
        k(   58) = (   0.4000000   0.7171664   0.4674667), wk =   0.0063492
        k(   59) = (   0.4000000   0.7171664   0.7012001), wk =   0.0063492
        k(   60) = (   0.4000000   0.7171664   0.9349334), wk =   0.0063492
        k(   61) = (   0.0000000  -0.2390555   0.2337334), wk =   0.0063492
        k(   62) = (   0.0000000  -0.2390555   0.4674667), wk =   0.0063492
        k(   63) = (   0.0000000  -0.2390555   0.7012001), wk =   0.0063492
        k(   64) = (   0.0000000  -0.2390555   0.9349334), wk =   0.0063492
        k(   65) = (   0.0000000  -0.4781110   0.2337334), wk =   0.0063492
        k(   66) = (   0.0000000  -0.4781110   0.4674667), wk =   0.0063492
        k(   67) = (   0.0000000  -0.4781110   0.7012001), wk =   0.0063492
        k(   68) = (   0.0000000  -0.4781110   0.9349334), wk =   0.0063492
        k(   69) = (   0.0000000  -0.7171664   0.2337334), wk =   0.0063492
        k(   70) = (   0.0000000  -0.7171664   0.4674667), wk =   0.0063492
        k(   71) = (   0.0000000  -0.7171664   0.7012001), wk =   0.0063492
        k(   72) = (   0.0000000  -0.7171664   0.9349334), wk =   0.0063492
        k(   73) = (  -0.2000000   0.0000000   0.2337334), wk =   0.0063492
        k(   74) = (  -0.2000000   0.0000000   0.4674667), wk =   0.0063492
        k(   75) = (  -0.2000000   0.0000000   0.7012001), wk =   0.0063492
        k(   76) = (  -0.2000000   0.0000000   0.9349334), wk =   0.0063492
        k(   77) = (  -0.2000000   0.2390555   0.0000000), wk =   0.0063492
        k(   78) = (  -0.2000000  -0.2390555   0.2337334), wk =   0.0063492
        k(   79) = (  -0.2000000   0.2390555  -0.2337334), wk =   0.0063492
        k(   80) = (   0.2000000  -0.2390555  -0.2337334), wk =   0.0063492
        k(   81) = (  -0.2000000  -0.2390555   0.4674667), wk =   0.0063492
        k(   82) = (  -0.2000000   0.2390555  -0.4674667), wk =   0.0063492
        k(   83) = (   0.2000000  -0.2390555  -0.4674667), wk =   0.0063492
        k(   84) = (  -0.2000000  -0.2390555   0.7012001), wk =   0.0063492
        k(   85) = (  -0.2000000   0.2390555  -0.7012001), wk =   0.0063492
        k(   86) = (   0.2000000  -0.2390555  -0.7012001), wk =   0.0063492
        k(   87) = (  -0.2000000  -0.2390555   0.9349334), wk =   0.0063492
        k(   88) = (  -0.2000000   0.2390555  -0.9349334), wk =   0.0063492
        k(   89) = (   0.2000000  -0.2390555  -0.9349334), wk =   0.0063492
        k(   90) = (  -0.2000000   0.4781110   0.0000000), wk =   0.0063492
        k(   91) = (  -0.2000000  -0.4781110   0.2337334), wk =   0.0063492
        k(   92) = (  -0.2000000   0.4781110  -0.2337334), wk =   0.0063492
        k(   93) = (   0.2000000  -0.4781110  -0.2337334), wk =   0.0063492
        k(   94) = (  -0.2000000  -0.4781110   0.4674667), wk =   0.0063492
        k(   95) = (  -0.2000000   0.4781110  -0.4674667), wk =   0.0063492
        k(   96) = (   0.2000000  -0.4781110  -0.4674667), wk =   0.0063492
        k(   97) = (  -0.2000000  -0.4781110   0.7012001), wk =   0.0063492
        k(   98) = (  -0.2000000   0.4781110  -0.7012001), wk =   0.0063492
        k(   99) = (   0.2000000  -0.4781110  -0.7012001), wk =   0.0063492
        k(  100) = (  -0.2000000  -0.4781110   0.9349334), wk =   0.0063492
        k(  101) = (  -0.2000000   0.4781110  -0.9349334), wk =   0.0063492
        k(  102) = (   0.2000000  -0.4781110  -0.9349334), wk =   0.0063492
        k(  103) = (  -0.2000000   0.7171664   0.0000000), wk =   0.0063492
        k(  104) = (  -0.2000000  -0.7171664   0.2337334), wk =   0.0063492
        k(  105) = (  -0.2000000   0.7171664  -0.2337334), wk =   0.0063492
        k(  106) = (   0.2000000  -0.7171664  -0.2337334), wk =   0.0063492
        k(  107) = (  -0.2000000  -0.7171664   0.4674667), wk =   0.0063492
        k(  108) = (  -0.2000000   0.7171664  -0.4674667), wk =   0.0063492
        k(  109) = (   0.2000000  -0.7171664  -0.4674667), wk =   0.0063492
        k(  110) = (  -0.2000000  -0.7171664   0.7012001), wk =   0.0063492
        k(  111) = (  -0.2000000   0.7171664  -0.7012001), wk =   0.0063492
        k(  112) = (   0.2000000  -0.7171664  -0.7012001), wk =   0.0063492
        k(  113) = (  -0.2000000  -0.7171664   0.9349334), wk =   0.0063492
        k(  114) = (  -0.2000000   0.7171664  -0.9349334), wk =   0.0063492
        k(  115) = (   0.2000000  -0.7171664  -0.9349334), wk =   0.0063492
        k(  116) = (  -0.4000000   0.0000000   0.2337334), wk =   0.0063492
        k(  117) = (  -0.4000000   0.0000000   0.4674667), wk =   0.0063492
        k(  118) = (  -0.4000000   0.0000000   0.7012001), wk =   0.0063492
        k(  119) = (  -0.4000000   0.0000000   0.9349334), wk =   0.0063492
        k(  120) = (  -0.4000000   0.2390555   0.0000000), wk =   0.0063492
        k(  121) = (  -0.4000000  -0.2390555   0.2337334), wk =   0.0063492
        k(  122) = (  -0.4000000   0.2390555  -0.2337334), wk =   0.0063492
        k(  123) = (   0.4000000  -0.2390555  -0.2337334), wk =   0.0063492
        k(  124) = (  -0.4000000  -0.2390555   0.4674667), wk =   0.0063492
        k(  125) = (  -0.4000000   0.2390555  -0.4674667), wk =   0.0063492
        k(  126) = (   0.4000000  -0.2390555  -0.4674667), wk =   0.0063492
        k(  127) = (  -0.4000000  -0.2390555   0.7012001), wk =   0.0063492
        k(  128) = (  -0.4000000   0.2390555  -0.7012001), wk =   0.0063492
        k(  129) = (   0.4000000  -0.2390555  -0.7012001), wk =   0.0063492
        k(  130) = (  -0.4000000  -0.2390555   0.9349334), wk =   0.0063492
        k(  131) = (  -0.4000000   0.2390555  -0.9349334), wk =   0.0063492
        k(  132) = (   0.4000000  -0.2390555  -0.9349334), wk =   0.0063492
        k(  133) = (  -0.4000000   0.4781110   0.0000000), wk =   0.0063492
        k(  134) = (  -0.4000000  -0.4781110   0.2337334), wk =   0.0063492
        k(  135) = (  -0.4000000   0.4781110  -0.2337334), wk =   0.0063492
        k(  136) = (   0.4000000  -0.4781110  -0.2337334), wk =   0.0063492
        k(  137) = (  -0.4000000  -0.4781110   0.4674667), wk =   0.0063492
        k(  138) = (  -0.4000000   0.4781110  -0.4674667), wk =   0.0063492
        k(  139) = (   0.4000000  -0.4781110  -0.4674667), wk =   0.0063492
        k(  140) = (  -0.4000000  -0.4781110   0.7012001), wk =   0.0063492
        k(  141) = (  -0.4000000   0.4781110  -0.7012001), wk =   0.0063492
        k(  142) = (   0.4000000  -0.4781110  -0.7012001), wk =   0.0063492
        k(  143) = (  -0.4000000  -0.4781110   0.9349334), wk =   0.0063492
        k(  144) = (  -0.4000000   0.4781110  -0.9349334), wk =   0.0063492
        k(  145) = (   0.4000000  -0.4781110  -0.9349334), wk =   0.0063492
        k(  146) = (  -0.4000000   0.7171664   0.0000000), wk =   0.0063492
        k(  147) = (  -0.4000000  -0.7171664   0.2337334), wk =   0.0063492
        k(  148) = (  -0.4000000   0.7171664  -0.2337334), wk =   0.0063492
        k(  149) = (   0.4000000  -0.7171664  -0.2337334), wk =   0.0063492
        k(  150) = (  -0.4000000  -0.7171664   0.4674667), wk =   0.0063492
        k(  151) = (  -0.4000000   0.7171664  -0.4674667), wk =   0.0063492
        k(  152) = (   0.4000000  -0.7171664  -0.4674667), wk =   0.0063492
        k(  153) = (  -0.4000000  -0.7171664   0.7012001), wk =   0.0063492
        k(  154) = (  -0.4000000   0.7171664  -0.7012001), wk =   0.0063492
        k(  155) = (   0.4000000  -0.7171664  -0.7012001), wk =   0.0063492
        k(  156) = (  -0.4000000  -0.7171664   0.9349334), wk =   0.0063492
        k(  157) = (  -0.4000000   0.7171664  -0.9349334), wk =   0.0063492
        k(  158) = (   0.4000000  -0.7171664  -0.9349334), wk =   0.0063492

                       cryst. coord.
        k(    1) = (   0.0000000   0.0000000   0.0000000), wk =   0.0031746
        k(    2) = (   0.0000000   0.0000000   0.1111111), wk =   0.0063492
        k(    3) = (   0.0000000   0.0000000   0.2222222), wk =   0.0063492
        k(    4) = (   0.0000000   0.0000000   0.3333333), wk =   0.0063492
        k(    5) = (   0.0000000   0.0000000   0.4444444), wk =   0.0063492
        k(    6) = (   0.0000000   0.1428571   0.0000000), wk =   0.0063492
        k(    7) = (   0.0000000   0.1428571   0.1111111), wk =   0.0063492
        k(    8) = (   0.0000000   0.1428571   0.2222222), wk =   0.0063492
        k(    9) = (   0.0000000   0.1428571   0.3333333), wk =   0.0063492
        k(   10) = (   0.0000000   0.1428571   0.4444444), wk =   0.0063492
        k(   11) = (   0.0000000   0.2857143   0.0000000), wk =   0.0063492
        k(   12) = (   0.0000000   0.2857143   0.1111111), wk =   0.0063492
        k(   13) = (   0.0000000   0.2857143   0.2222222), wk =   0.0063492
        k(   14) = (   0.0000000   0.2857143   0.3333333), wk =   0.0063492
        k(   15) = (   0.0000000   0.2857143   0.4444444), wk =   0.0063492
        k(   16) = (   0.0000000   0.4285714   0.0000000), wk =   0.0063492
        k(   17) = (   0.0000000   0.4285714   0.1111111), wk =   0.0063492
        k(   18) = (   0.0000000   0.4285714   0.2222222), wk =   0.0063492
        k(   19) = (   0.0000000   0.4285714   0.3333333), wk =   0.0063492
        k(   20) = (   0.0000000   0.4285714   0.4444444), wk =   0.0063492
        k(   21) = (   0.2000000   0.0000000   0.0000000), wk =   0.0063492
        k(   22) = (   0.2000000   0.0000000   0.1111111), wk =   0.0063492
        k(   23) = (   0.2000000   0.0000000   0.2222222), wk =   0.0063492
        k(   24) = (   0.2000000   0.0000000   0.3333333), wk =   0.0063492
        k(   25) = (   0.2000000   0.0000000   0.4444444), wk =   0.0063492
        k(   26) = (   0.2000000   0.1428571   0.0000000), wk =   0.0063492
        k(   27) = (   0.2000000   0.1428571   0.1111111), wk =   0.0063492
        k(   28) = (   0.2000000   0.1428571   0.2222222), wk =   0.0063492
        k(   29) = (   0.2000000   0.1428571   0.3333333), wk =   0.0063492
        k(   30) = (   0.2000000   0.1428571   0.4444444), wk =   0.0063492
        k(   31) = (   0.2000000   0.2857143   0.0000000), wk =   0.0063492
        k(   32) = (   0.2000000   0.2857143   0.1111111), wk =   0.0063492
        k(   33) = (   0.2000000   0.2857143   0.2222222), wk =   0.0063492
        k(   34) = (   0.2000000   0.2857143   0.3333333), wk =   0.0063492
        k(   35) = (   0.2000000   0.2857143   0.4444444), wk =   0.0063492
        k(   36) = (   0.2000000   0.4285714   0.0000000), wk =   0.0063492
        k(   37) = (   0.2000000   0.4285714   0.1111111), wk =   0.0063492
        k(   38) = (   0.2000000   0.4285714   0.2222222), wk =   0.0063492
        k(   39) = (   0.2000000   0.4285714   0.3333333), wk =   0.0063492
        k(   40) = (   0.2000000   0.4285714   0.4444444), wk =   0.0063492
        k(   41) = (   0.4000000   0.0000000   0.0000000), wk =   0.0063492
        k(   42) = (   0.4000000   0.0000000   0.1111111), wk =   0.0063492
        k(   43) = (   0.4000000   0.0000000   0.2222222), wk =   0.0063492
        k(   44) = (   0.4000000   0.0000000   0.3333333), wk =   0.0063492
        k(   45) = (   0.4000000   0.0000000   0.4444444), wk =   0.0063492
        k(   46) = (   0.4000000   0.1428571   0.0000000), wk =   0.0063492
        k(   47) = (   0.4000000   0.1428571   0.1111111), wk =   0.0063492
        k(   48) = (   0.4000000   0.1428571   0.2222222), wk =   0.0063492
        k(   49) = (   0.4000000   0.1428571   0.3333333), wk =   0.0063492
        k(   50) = (   0.4000000   0.1428571   0.4444444), wk =   0.0063492
        k(   51) = (   0.4000000   0.2857143   0.0000000), wk =   0.0063492
        k(   52) = (   0.4000000   0.2857143   0.1111111), wk =   0.0063492
        k(   53) = (   0.4000000   0.2857143   0.2222222), wk =   0.0063492
        k(   54) = (   0.4000000   0.2857143   0.3333333), wk =   0.0063492
        k(   55) = (   0.4000000   0.2857143   0.4444444), wk =   0.0063492
        k(   56) = (   0.4000000   0.4285714   0.0000000), wk =   0.0063492
        k(   57) = (   0.4000000   0.4285714   0.1111111), wk =   0.0063492
        k(   58) = (   0.4000000   0.4285714   0.2222222), wk =   0.0063492
        k(   59) = (   0.4000000   0.4285714   0.3333333), wk =   0.0063492
        k(   60) = (   0.4000000   0.4285714   0.4444444), wk =   0.0063492
        k(   61) = (   0.0000000  -0.1428571   0.1111111), wk =   0.0063492
        k(   62) = (   0.0000000  -0.1428571   0.2222222), wk =   0.0063492
        k(   63) = (   0.0000000  -0.1428571   0.3333333), wk =   0.0063492
        k(   64) = (   0.0000000  -0.1428571   0.4444444), wk =   0.0063492
        k(   65) = (   0.0000000  -0.2857143   0.1111111), wk =   0.0063492
        k(   66) = (   0.0000000  -0.2857143   0.2222222), wk =   0.0063492
        k(   67) = (   0.0000000  -0.2857143   0.3333333), wk =   0.0063492
        k(   68) = (   0.0000000  -0.2857143   0.4444444), wk =   0.0063492
        k(   69) = (   0.0000000  -0.4285714   0.1111111), wk =   0.0063492
        k(   70) = (   0.0000000  -0.4285714   0.2222222), wk =   0.0063492
        k(   71) = (   0.0000000  -0.4285714   0.3333333), wk =   0.0063492
        k(   72) = (   0.0000000  -0.4285714   0.4444444), wk =   0.0063492
        k(   73) = (  -0.2000000   0.0000000   0.1111111), wk =   0.0063492
        k(   74) = (  -0.2000000   0.0000000   0.2222222), wk =   0.0063492
        k(   75) = (  -0.2000000   0.0000000   0.3333333), wk =   0.0063492
        k(   76) = (  -0.2000000   0.0000000   0.4444444), wk =   0.0063492
        k(   77) = (  -0.2000000   0.1428571   0.0000000), wk =   0.0063492
        k(   78) = (  -0.2000000  -0.1428571   0.1111111), wk =   0.0063492
        k(   79) = (  -0.2000000   0.1428571  -0.1111111), wk =   0.0063492
        k(   80) = (   0.2000000  -0.1428571  -0.1111111), wk =   0.0063492
        k(   81) = (  -0.2000000  -0.1428571   0.2222222), wk =   0.0063492
        k(   82) = (  -0.2000000   0.1428571  -0.2222222), wk =   0.0063492
        k(   83) = (   0.2000000  -0.1428571  -0.2222222), wk =   0.0063492
        k(   84) = (  -0.2000000  -0.1428571   0.3333333), wk =   0.0063492
        k(   85) = (  -0.2000000   0.1428571  -0.3333333), wk =   0.0063492
        k(   86) = (   0.2000000  -0.1428571  -0.3333333), wk =   0.0063492
        k(   87) = (  -0.2000000  -0.1428571   0.4444444), wk =   0.0063492
        k(   88) = (  -0.2000000   0.1428571  -0.4444444), wk =   0.0063492
        k(   89) = (   0.2000000  -0.1428571  -0.4444444), wk =   0.0063492
        k(   90) = (  -0.2000000   0.2857143   0.0000000), wk =   0.0063492
        k(   91) = (  -0.2000000  -0.2857143   0.1111111), wk =   0.0063492
        k(   92) = (  -0.2000000   0.2857143  -0.1111111), wk =   0.0063492
        k(   93) = (   0.2000000  -0.2857143  -0.1111111), wk =   0.0063492
        k(   94) = (  -0.2000000  -0.2857143   0.2222222), wk =   0.0063492
        k(   95) = (  -0.2000000   0.2857143  -0.2222222), wk =   0.0063492
        k(   96) = (   0.2000000  -0.2857143  -0.2222222), wk =   0.0063492
        k(   97) = (  -0.2000000  -0.2857143   0.3333333), wk =   0.0063492
        k(   98) = (  -0.2000000   0.2857143  -0.3333333), wk =   0.0063492
        k(   99) = (   0.2000000  -0.2857143  -0.3333333), wk =   0.0063492
        k(  100) = (  -0.2000000  -0.2857143   0.4444444), wk =   0.0063492
        k(  101) = (  -0.2000000   0.2857143  -0.4444444), wk =   0.0063492
        k(  102) = (   0.2000000  -0.2857143  -0.4444444), wk =   0.0063492
        k(  103) = (  -0.2000000   0.4285714   0.0000000), wk =   0.0063492
        k(  104) = (  -0.2000000  -0.4285714   0.1111111), wk =   0.0063492
        k(  105) = (  -0.2000000   0.4285714  -0.1111111), wk =   0.0063492
        k(  106) = (   0.2000000  -0.4285714  -0.1111111), wk =   0.0063492
        k(  107) = (  -0.2000000  -0.4285714   0.2222222), wk =   0.0063492
        k(  108) = (  -0.2000000   0.4285714  -0.2222222), wk =   0.0063492
        k(  109) = (   0.2000000  -0.4285714  -0.2222222), wk =   0.0063492
        k(  110) = (  -0.2000000  -0.4285714   0.3333333), wk =   0.0063492
        k(  111) = (  -0.2000000   0.4285714  -0.3333333), wk =   0.0063492
        k(  112) = (   0.2000000  -0.4285714  -0.3333333), wk =   0.0063492
        k(  113) = (  -0.2000000  -0.4285714   0.4444444), wk =   0.0063492
        k(  114) = (  -0.2000000   0.4285714  -0.4444444), wk =   0.0063492
        k(  115) = (   0.2000000  -0.4285714  -0.4444444), wk =   0.0063492
        k(  116) = (  -0.4000000   0.0000000   0.1111111), wk =   0.0063492
        k(  117) = (  -0.4000000   0.0000000   0.2222222), wk =   0.0063492
        k(  118) = (  -0.4000000   0.0000000   0.3333333), wk =   0.0063492
        k(  119) = (  -0.4000000   0.0000000   0.4444444), wk =   0.0063492
        k(  120) = (  -0.4000000   0.1428571   0.0000000), wk =   0.0063492
        k(  121) = (  -0.4000000  -0.1428571   0.1111111), wk =   0.0063492
        k(  122) = (  -0.4000000   0.1428571  -0.1111111), wk =   0.0063492
        k(  123) = (   0.4000000  -0.1428571  -0.1111111), wk =   0.0063492
        k(  124) = (  -0.4000000  -0.1428571   0.2222222), wk =   0.0063492
        k(  125) = (  -0.4000000   0.1428571  -0.2222222), wk =   0.0063492
        k(  126) = (   0.4000000  -0.1428571  -0.2222222), wk =   0.0063492
        k(  127) = (  -0.4000000  -0.1428571   0.3333333), wk =   0.0063492
        k(  128) = (  -0.4000000   0.1428571  -0.3333333), wk =   0.0063492
        k(  129) = (   0.4000000  -0.1428571  -0.3333333), wk =   0.0063492
        k(  130) = (  -0.4000000  -0.1428571   0.4444444), wk =   0.0063492
        k(  131) = (  -0.4000000   0.1428571  -0.4444444), wk =   0.0063492
        k(  132) = (   0.4000000  -0.1428571  -0.4444444), wk =   0.0063492
        k(  133) = (  -0.4000000   0.2857143   0.0000000), wk =   0.0063492
        k(  134) = (  -0.4000000  -0.2857143   0.1111111), wk =   0.0063492
        k(  135) = (  -0.4000000   0.2857143  -0.1111111), wk =   0.0063492
        k(  136) = (   0.4000000  -0.2857143  -0.1111111), wk =   0.0063492
        k(  137) = (  -0.4000000  -0.2857143   0.2222222), wk =   0.0063492
        k(  138) = (  -0.4000000   0.2857143  -0.2222222), wk =   0.0063492
        k(  139) = (   0.4000000  -0.2857143  -0.2222222), wk =   0.0063492
        k(  140) = (  -0.4000000  -0.2857143   0.3333333), wk =   0.0063492
        k(  141) = (  -0.4000000   0.2857143  -0.3333333), wk =   0.0063492
        k(  142) = (   0.4000000  -0.2857143  -0.3333333), wk =   0.0063492
        k(  143) = (  -0.4000000  -0.2857143   0.4444444), wk =   0.0063492
        k(  144) = (  -0.4000000   0.2857143  -0.4444444), wk =   0.0063492
        k(  145) = (   0.4000000  -0.2857143  -0.4444444), wk =   0.0063492
        k(  146) = (  -0.4000000   0.4285714   0.0000000), wk =   0.0063492
        k(  147) = (  -0.4000000  -0.4285714   0.1111111), wk =   0.0063492
        k(  148) = (  -0.4000000   0.4285714  -0.1111111), wk =   0.0063492
        k(  149) = (   0.4000000  -0.4285714  -0.1111111), wk =   0.0063492
        k(  150) = (  -0.4000000  -0.4285714   0.2222222), wk =   0.0063492
        k(  151) = (  -0.4000000   0.4285714  -0.2222222), wk =   0.0063492
        k(  152) = (   0.4000000  -0.4285714  -0.2222222), wk =   0.0063492
        k(  153) = (  -0.4000000  -0.4285714   0.3333333), wk =   0.0063492
        k(  154) = (  -0.4000000   0.4285714  -0.3333333), wk =   0.0063492
        k(  155) = (   0.4000000  -0.4285714  -0.3333333), wk =   0.0063492
        k(  156) = (  -0.4000000  -0.4285714   0.4444444), wk =   0.0063492
        k(  157) = (  -0.4000000   0.4285714  -0.4444444), wk =   0.0063492
        k(  158) = (   0.4000000  -0.4285714  -0.4444444), wk =   0.0063492

     Dense  grid:  1360823 G-vectors     FFT dimensions: ( 216, 125, 100)

     Smooth grid:   306739 G-vectors     FFT dimensions: ( 128,  80,  64)

     Dynamical RAM for                 wfc:       2.78 MB

     Dynamical RAM for     wfc (w. buffer):     880.62 MB

     Dynamical RAM for           str. fact:       3.46 MB

     Dynamical RAM for           local pot:       0.00 MB

     Dynamical RAM for          nlocal pot:       6.82 MB

     Dynamical RAM for                qrad:      10.54 MB

     Dynamical RAM for          rho,v,vnew:      11.37 MB

     Dynamical RAM for               rhoin:       3.79 MB

     Dynamical RAM for            rho*nmix:      27.69 MB

     Dynamical RAM for           G-vectors:       3.34 MB

     Dynamical RAM for          h,s,v(r/c):       2.38 MB

     Dynamical RAM for          <psi|beta>:       0.49 MB

     Dynamical RAM for                 psi:       5.56 MB

     Dynamical RAM for                hpsi:       5.56 MB

     Dynamical RAM for                spsi:       5.56 MB

     Dynamical RAM for      wfcinit/wfcrot:       7.11 MB

     Dynamical RAM for           addusdens:     175.63 MB

     Dynamical RAM for          addusforce:     201.71 MB

     Dynamical RAM for         addusstress:     175.20 MB

     Estimated static dynamical RAM per process >     958.14 MB

     Estimated max dynamical RAM per process >       1.13 GB

     Estimated total dynamical RAM >      27.18 GB

     Check: negative core charge=   -0.000003
     Generating pointlists ...
     new r_m :   0.0759 (alat units)  1.5180 (a.u.) for type    1
     new r_m :   0.0888 (alat units)  1.7755 (a.u.) for type    2
     new r_m :   0.0610 (alat units)  1.2188 (a.u.) for type    3
     new r_m :   0.0610 (alat units)  1.2188 (a.u.) for type    4

     Initial potential from superposition of free atoms

     starting charge  188.99132, renormalised to  189.00000
     Starting wfcs are  137 randomized atomic wfcs
     Checking if some PAW data can be deallocated... 
       PAW data deallocated on   20 nodes for type:  1
       PAW data deallocated on    8 nodes for type:  3

     total cpu time spent up to now is      200.5 secs

     Self-consistent Calculation

     iteration #  1     ecut=   100.00 Ry     beta= 0.40
     Davidson diagonalization with overlap
     ethr =  1.00E-02,  avg # of iterations =  2.9

     negative rho (up, down):  0.000E+00 1.016E-04

     total cpu time spent up to now is      817.5 secs

     total energy              =   -2123.74331474 Ry
     estimated scf accuracy    <       7.17040715 Ry

     total magnetization       =    19.00 Bohr mag/cell
     absolute magnetization    =    19.00 Bohr mag/cell

     iteration #  2     ecut=   100.00 Ry     beta= 0.40
     Davidson diagonalization with overlap
     ethr =  3.79E-03,  avg # of iterations =  2.0

     negative rho (up, down):  0.000E+00 4.130E-05

     total cpu time spent up to now is     1399.5 secs

     total energy              =   -2120.21037451 Ry
     estimated scf accuracy    <      52.63342290 Ry

     total magnetization       =     6.14 Bohr mag/cell
     absolute magnetization    =     7.75 Bohr mag/cell

     iteration #  3     ecut=   100.00 Ry     beta= 0.40
     Davidson diagonalization with overlap
     ethr =  3.79E-03,  avg # of iterations =  2.9

     negative rho (up, down):  0.000E+00 3.029E-05

     total cpu time spent up to now is     1924.0 secs

     total energy              =   -2123.25153950 Ry
     estimated scf accuracy    <      56.07743744 Ry

     total magnetization       =     4.41 Bohr mag/cell
     absolute magnetization    =     8.36 Bohr mag/cell

     iteration #  4     ecut=   100.00 Ry     beta= 0.40
     Davidson diagonalization with overlap
     ethr =  3.79E-03,  avg # of iterations =  1.5

     negative rho (up, down):  0.000E+00 2.458E-05

     total cpu time spent up to now is     2372.4 secs

     total energy              =   -2124.50040688 Ry
     estimated scf accuracy    <      30.97100844 Ry

     total magnetization       =     9.00 Bohr mag/cell
     absolute magnetization    =     9.34 Bohr mag/cell

     iteration #  5     ecut=   100.00 Ry     beta= 0.40
     Davidson diagonalization with overlap
     ethr =  3.79E-03,  avg # of iterations =  1.9

     negative rho (up, down):  0.000E+00 1.062E-04

     total cpu time spent up to now is     2849.0 secs

     total energy              =   -2125.96935283 Ry
     estimated scf accuracy    <       2.02103696 Ry

     total magnetization       =    19.10 Bohr mag/cell
     absolute magnetization    =    19.10 Bohr mag/cell

     iteration #  6     ecut=   100.00 Ry     beta= 0.40
     Davidson diagonalization with overlap
     ethr =  1.07E-03,  avg # of iterations =  2.0

     negative rho (up, down):  0.000E+00 1.710E-04

     total cpu time spent up to now is     3351.8 secs

     total energy              =   -2126.00558234 Ry
     estimated scf accuracy    <       0.92274114 Ry

     total magnetization       =    19.00 Bohr mag/cell
     absolute magnetization    =    19.00 Bohr mag/cell

     iteration #  7     ecut=   100.00 Ry     beta= 0.40
     Davidson diagonalization with overlap
     ethr =  4.88E-04,  avg # of iterations =  1.5

     negative rho (up, down):  0.000E+00 2.941E-04

     total cpu time spent up to now is     3799.6 secs

     total energy              =   -2126.06333339 Ry
     estimated scf accuracy    <       0.70350072 Ry

     total magnetization       =    19.00 Bohr mag/cell
     absolute magnetization    =    19.00 Bohr mag/cell

     iteration #  8     ecut=   100.00 Ry     beta= 0.40
     Davidson diagonalization with overlap
     ethr =  3.72E-04,  avg # of iterations =  1.0

     negative rho (up, down):  0.000E+00 4.906E-04

     total cpu time spent up to now is     4208.2 secs

     total energy              =   -2126.06234255 Ry
     estimated scf accuracy    <       0.38340948 Ry

     total magnetization       =    19.00 Bohr mag/cell
     absolute magnetization    =    19.01 Bohr mag/cell

     iteration #  9     ecut=   100.00 Ry     beta= 0.40
     Davidson diagonalization with overlap
     ethr =  2.03E-04,  avg # of iterations =  3.4

     negative rho (up, down):  0.000E+00 6.701E-04

     total cpu time spent up to now is     4703.0 secs

     total energy              =   -2126.06267856 Ry
     estimated scf accuracy    <       0.11908880 Ry

     total magnetization       =    19.00 Bohr mag/cell
     absolute magnetization    =    19.01 Bohr mag/cell

     iteration # 10     ecut=   100.00 Ry     beta= 0.40
     Davidson diagonalization with overlap
     c_bands:  1 eigenvalues not converged
     c_bands:  1 eigenvalues not converged
     c_bands:  1 eigenvalues not converged
     c_bands:  1 eigenvalues not converged
     c_bands:  1 eigenvalues not converged
     c_bands:  1 eigenvalues not converged
     c_bands:  1 eigenvalues not converged
     c_bands:  1 eigenvalues not converged
     c_bands:  1 eigenvalues not converged
     c_bands:  2 eigenvalues not converged
     c_bands:  1 eigenvalues not converged
     c_bands:  1 eigenvalues not converged
     c_bands:  1 eigenvalues not converged
     ethr =  6.30E-05,  avg # of iterations = 13.5

     negative rho (up, down):  0.000E+00 8.595E-04

     total cpu time spent up to now is     5564.7 secs

     total energy              =   -2126.06869426 Ry
     estimated scf accuracy    <       0.13068734 Ry

     total magnetization       =    19.00 Bohr mag/cell
     absolute magnetization    =    19.02 Bohr mag/cell

     iteration # 11     ecut=   100.00 Ry     beta= 0.40
     Davidson diagonalization with overlap
     ethr =  6.30E-05,  avg # of iterations =  1.2

     negative rho (up, down):  0.000E+00 9.577E-04

     total cpu time spent up to now is     5982.0 secs

     total energy              =   -2126.07555731 Ry
     estimated scf accuracy    <       0.18099644 Ry

     total magnetization       =    19.00 Bohr mag/cell
     absolute magnetization    =    19.03 Bohr mag/cell

     iteration # 12     ecut=   100.00 Ry     beta= 0.40
     Davidson diagonalization with overlap
     ethr =  6.30E-05,  avg # of iterations =  1.0

     negative rho (up, down):  0.000E+00 1.010E-03

     total cpu time spent up to now is     6388.6 secs

     total energy              =   -2126.07724797 Ry
     estimated scf accuracy    <       0.03570644 Ry

     total magnetization       =    19.00 Bohr mag/cell
     absolute magnetization    =    19.04 Bohr mag/cell

     iteration # 13     ecut=   100.00 Ry     beta= 0.40
     Davidson diagonalization with overlap
     c_bands:  1 eigenvalues not converged
     c_bands:  1 eigenvalues not converged
     c_bands:  1 eigenvalues not converged
     c_bands:  1 eigenvalues not converged
     c_bands:  1 eigenvalues not converged
     c_bands:  1 eigenvalues not converged
     c_bands:  1 eigenvalues not converged
     c_bands:  2 eigenvalues not converged
     ethr =  1.89E-05,  avg # of iterations =  3.5

     negative rho (up, down):  0.000E+00 1.003E-03

     total cpu time spent up to now is     6875.2 secs

     total energy              =   -2126.07983163 Ry
     estimated scf accuracy    <       0.02613612 Ry

     total magnetization       =    19.00 Bohr mag/cell
     absolute magnetization    =    19.04 Bohr mag/cell

     iteration # 14     ecut=   100.00 Ry     beta= 0.40
     Davidson diagonalization with overlap
     c_bands:  1 eigenvalues not converged
     ethr =  1.38E-05,  avg # of iterations =  1.8

     negative rho (up, down):  0.000E+00 9.882E-04

     total cpu time spent up to now is     7313.6 secs

     total energy              =   -2126.07977708 Ry
     estimated scf accuracy    <       0.02265268 Ry

     total magnetization       =    19.00 Bohr mag/cell
     absolute magnetization    =    19.04 Bohr mag/cell

     iteration # 15     ecut=   100.00 Ry     beta= 0.40
     Davidson diagonalization with overlap
     c_bands:  1 eigenvalues not converged
     c_bands:  1 eigenvalues not converged
     c_bands:  1 eigenvalues not converged
     ethr =  1.20E-05,  avg # of iterations =  1.6

     negative rho (up, down):  0.000E+00 9.870E-04

     total cpu time spent up to now is     7743.1 secs

     total energy              =   -2126.08025387 Ry
     estimated scf accuracy    <       0.00344911 Ry

     total magnetization       =    19.00 Bohr mag/cell
     absolute magnetization    =    19.04 Bohr mag/cell

     iteration # 16     ecut=   100.00 Ry     beta= 0.40
     Davidson diagonalization with overlap
     c_bands:  1 eigenvalues not converged
     c_bands:  1 eigenvalues not converged
     c_bands:  1 eigenvalues not converged
     c_bands:  1 eigenvalues not converged
     c_bands:  1 eigenvalues not converged
     c_bands:  1 eigenvalues not converged
     c_bands:  1 eigenvalues not converged
     c_bands:  1 eigenvalues not converged
     c_bands:  1 eigenvalues not converged
     c_bands:  1 eigenvalues not converged
     c_bands:  1 eigenvalues not converged
     c_bands:  1 eigenvalues not converged
     c_bands:  1 eigenvalues not converged
     c_bands:  1 eigenvalues not converged
     c_bands:  1 eigenvalues not converged
     c_bands:  1 eigenvalues not converged
     c_bands:  1 eigenvalues not converged
     c_bands:  1 eigenvalues not converged
     c_bands:  1 eigenvalues not converged
     c_bands:  1 eigenvalues not converged
     c_bands:  1 eigenvalues not converged
     c_bands:  1 eigenvalues not converged
     c_bands:  1 eigenvalues not converged
     c_bands:  1 eigenvalues not converged
     c_bands:  1 eigenvalues not converged
     c_bands:  1 eigenvalues not converged
     c_bands:  1 eigenvalues not converged
     c_bands:  1 eigenvalues not converged
     c_bands:  1 eigenvalues not converged
     c_bands:  1 eigenvalues not converged
     c_bands:  1 eigenvalues not converged
     c_bands:  1 eigenvalues not converged
     c_bands:  1 eigenvalues not converged
     c_bands:  1 eigenvalues not converged
     c_bands:  1 eigenvalues not converged
     c_bands:  1 eigenvalues not converged
     c_bands:  1 eigenvalues not converged
     c_bands:  1 eigenvalues not converged
     c_bands:  1 eigenvalues not converged
     c_bands:  1 eigenvalues not converged
     c_bands:  1 eigenvalues not converged
     ethr =  1.82E-06,  avg # of iterations = 13.9

     negative rho (up, down):  0.000E+00 9.985E-04

     total cpu time spent up to now is     8677.9 secs

     total energy              =   -2126.08045706 Ry
     estimated scf accuracy    <       0.00183305 Ry

     total magnetization       =    19.00 Bohr mag/cell
     absolute magnetization    =    19.05 Bohr mag/cell

     iteration # 17     ecut=   100.00 Ry     beta= 0.40
     Davidson diagonalization with overlap
     ethr =  9.70E-07,  avg # of iterations =  2.1

     negative rho (up, down):  0.000E+00 9.884E-04

     total cpu time spent up to now is     9162.9 secs

     total energy              =   -2126.08060061 Ry
     estimated scf accuracy    <       0.00182959 Ry

     total magnetization       =    19.00 Bohr mag/cell
     absolute magnetization    =    19.05 Bohr mag/cell

     iteration # 18     ecut=   100.00 Ry     beta= 0.40
     Davidson diagonalization with overlap
     ethr =  9.68E-07,  avg # of iterations =  1.0

     negative rho (up, down):  0.000E+00 9.849E-04

     total cpu time spent up to now is     9569.3 secs

     total energy              =   -2126.08068227 Ry
     estimated scf accuracy    <       0.00010472 Ry

     total magnetization       =    19.00 Bohr mag/cell
     absolute magnetization    =    19.05 Bohr mag/cell

     iteration # 19     ecut=   100.00 Ry     beta= 0.40
     Davidson diagonalization with overlap
     ethr =  5.54E-08,  avg # of iterations =  5.4

     negative rho (up, down):  0.000E+00 9.797E-04

     total cpu time spent up to now is    10509.1 secs

     total energy              =   -2126.08075430 Ry
     estimated scf accuracy    <       0.00005261 Ry

     total magnetization       =    19.00 Bohr mag/cell
     absolute magnetization    =    19.05 Bohr mag/cell

     iteration # 20     ecut=   100.00 Ry     beta= 0.40
     Davidson diagonalization with overlap
     ethr =  2.78E-08,  avg # of iterations =  2.0

     negative rho (up, down):  0.000E+00 9.779E-04

     total cpu time spent up to now is    10979.7 secs

     total energy              =   -2126.08076116 Ry
     estimated scf accuracy    <       0.00000968 Ry

     total magnetization       =    19.00 Bohr mag/cell
     absolute magnetization    =    19.05 Bohr mag/cell

     iteration # 21     ecut=   100.00 Ry     beta= 0.40
     Davidson diagonalization with overlap
     ethr =  5.12E-09,  avg # of iterations =  2.0

     negative rho (up, down):  0.000E+00 9.779E-04

     total cpu time spent up to now is    11478.3 secs

     total energy              =   -2126.08076380 Ry
     estimated scf accuracy    <       0.00001287 Ry

     total magnetization       =    19.00 Bohr mag/cell
     absolute magnetization    =    19.05 Bohr mag/cell

     iteration # 22     ecut=   100.00 Ry     beta= 0.40
     Davidson diagonalization with overlap
     ethr =  5.12E-09,  avg # of iterations =  2.0

     negative rho (up, down):  0.000E+00 9.781E-04

     total cpu time spent up to now is    11950.4 secs

     total energy              =   -2126.08076494 Ry
     estimated scf accuracy    <       0.00000767 Ry

     total magnetization       =    19.00 Bohr mag/cell
     absolute magnetization    =    19.05 Bohr mag/cell

     iteration # 23     ecut=   100.00 Ry     beta= 0.40
     Davidson diagonalization with overlap
     ethr =  4.06E-09,  avg # of iterations =  1.0

     negative rho (up, down):  0.000E+00 9.788E-04

     total cpu time spent up to now is    12355.0 secs

     total energy              =   -2126.08076505 Ry
     estimated scf accuracy    <       0.00000486 Ry

     total magnetization       =    19.00 Bohr mag/cell
     absolute magnetization    =    19.05 Bohr mag/cell

     iteration # 24     ecut=   100.00 Ry     beta= 0.40
     Davidson diagonalization with overlap
     ethr =  2.57E-09,  avg # of iterations =  1.1

     negative rho (up, down):  0.000E+00 9.786E-04

     total cpu time spent up to now is    12765.8 secs

     total energy              =   -2126.08076547 Ry
     estimated scf accuracy    <       0.00000245 Ry

     total magnetization       =    19.00 Bohr mag/cell
     absolute magnetization    =    19.05 Bohr mag/cell

     iteration # 25     ecut=   100.00 Ry     beta= 0.40
     Davidson diagonalization with overlap
     ethr =  1.30E-09,  avg # of iterations =  2.0

     negative rho (up, down):  0.000E+00 9.788E-04

     total cpu time spent up to now is    13231.6 secs

     total energy              =   -2126.08076574 Ry
     estimated scf accuracy    <       0.00000049 Ry

     total magnetization       =    19.00 Bohr mag/cell
     absolute magnetization    =    19.05 Bohr mag/cell

     iteration # 26     ecut=   100.00 Ry     beta= 0.40
     Davidson diagonalization with overlap
     ethr =  2.57E-10,  avg # of iterations =  4.5

     negative rho (up, down):  0.000E+00 9.790E-04

     total cpu time spent up to now is    13838.3 secs

     total energy              =   -2126.08076587 Ry
     estimated scf accuracy    <       0.00000007 Ry

     total magnetization       =    19.00 Bohr mag/cell
     absolute magnetization    =    19.05 Bohr mag/cell

     iteration # 27     ecut=   100.00 Ry     beta= 0.40
     Davidson diagonalization with overlap
     ethr =  3.84E-11,  avg # of iterations =  3.7

     negative rho (up, down):  0.000E+00 9.789E-04

     total cpu time spent up to now is    14517.4 secs

     total energy              =   -2126.08076591 Ry
     estimated scf accuracy    <       0.00000007 Ry

     total magnetization       =    19.00 Bohr mag/cell
     absolute magnetization    =    19.05 Bohr mag/cell

     iteration # 28     ecut=   100.00 Ry     beta= 0.40
     Davidson diagonalization with overlap
     ethr =  3.64E-11,  avg # of iterations =  2.0

     negative rho (up, down):  0.000E+00 9.791E-04

     total cpu time spent up to now is    14996.7 secs

     total energy              =   -2126.08076592 Ry
     estimated scf accuracy    <       0.00000012 Ry

     total magnetization       =    19.00 Bohr mag/cell
     absolute magnetization    =    19.05 Bohr mag/cell

     iteration # 29     ecut=   100.00 Ry     beta= 0.40
     Davidson diagonalization with overlap
     ethr =  3.64E-11,  avg # of iterations =  2.0

     negative rho (up, down):  0.000E+00 9.791E-04

     total cpu time spent up to now is    15505.6 secs

     total energy              =   -2126.08076594 Ry
     estimated scf accuracy    <       0.00000001 Ry

     total magnetization       =    19.00 Bohr mag/cell
     absolute magnetization    =    19.05 Bohr mag/cell

     iteration # 30     ecut=   100.00 Ry     beta= 0.40
     Davidson diagonalization with overlap
     ethr =  7.55E-12,  avg # of iterations =  2.1

     negative rho (up, down):  0.000E+00 9.791E-04

     total cpu time spent up to now is    16012.6 secs

     total energy              =   -2126.08076594 Ry
     estimated scf accuracy    <       0.00000002 Ry

     total magnetization       =    19.00 Bohr mag/cell
     absolute magnetization    =    19.05 Bohr mag/cell

     iteration # 31     ecut=   100.00 Ry     beta= 0.40
     Davidson diagonalization with overlap
     ethr =  7.55E-12,  avg # of iterations =  2.0

     negative rho (up, down):  0.000E+00 9.791E-04

     total cpu time spent up to now is    16517.8 secs

     total energy              =   -2126.08076595 Ry
     estimated scf accuracy    <          6.5E-09 Ry

     total magnetization       =    19.00 Bohr mag/cell
     absolute magnetization    =    19.05 Bohr mag/cell

     iteration # 32     ecut=   100.00 Ry     beta= 0.40
     Davidson diagonalization with overlap
     ethr =  3.43E-12,  avg # of iterations =  2.0

     negative rho (up, down):  0.000E+00 9.791E-04

     total cpu time spent up to now is    17006.5 secs

     total energy              =   -2126.08076595 Ry
     estimated scf accuracy    <          1.7E-09 Ry

     total magnetization       =    19.00 Bohr mag/cell
     absolute magnetization    =    19.05 Bohr mag/cell

     iteration # 33     ecut=   100.00 Ry     beta= 0.40
     Davidson diagonalization with overlap
     ethr =  9.25E-13,  avg # of iterations =  2.7

     negative rho (up, down):  0.000E+00 9.791E-04

     total cpu time spent up to now is    17552.6 secs

     total energy              =   -2126.08076595 Ry
     estimated scf accuracy    <          4.2E-09 Ry

     total magnetization       =    19.00 Bohr mag/cell
     absolute magnetization    =    19.05 Bohr mag/cell

     iteration # 34     ecut=   100.00 Ry     beta= 0.40
     Davidson diagonalization with overlap
     ethr =  9.25E-13,  avg # of iterations =  1.3

     negative rho (up, down):  0.000E+00 9.791E-04

     total cpu time spent up to now is    17976.5 secs

     total energy              =   -2126.08076595 Ry
     estimated scf accuracy    <          4.2E-10 Ry

     total magnetization       =    19.00 Bohr mag/cell
     absolute magnetization    =    19.05 Bohr mag/cell

     iteration # 35     ecut=   100.00 Ry     beta= 0.40
     Davidson diagonalization with overlap
     ethr =  2.21E-13,  avg # of iterations =  4.0

     negative rho (up, down):  0.000E+00 9.791E-04

     total cpu time spent up to now is    18560.1 secs

     total energy              =   -2126.08076595 Ry
     estimated scf accuracy    <          3.2E-10 Ry

     total magnetization       =    19.00 Bohr mag/cell
     absolute magnetization    =    19.05 Bohr mag/cell

     iteration # 36     ecut=   100.00 Ry     beta= 0.40
     Davidson diagonalization with overlap
     ethr =  1.69E-13,  avg # of iterations =  1.3

     negative rho (up, down):  0.000E+00 9.791E-04

     Magnetic moment per site:
     atom:    1    charge:    7.9142    magn:    0.0004    constr:    0.0000
     atom:    2    charge:   12.9068    magn:    3.6913    constr:    0.0000
     atom:    3    charge:   12.9134    magn:    3.6760    constr:    0.0000
     atom:    4    charge:   12.9576    magn:    3.5660    constr:    0.0000
     atom:    5    charge:   12.9142    magn:    3.6779    constr:    0.0000
     atom:    6    charge:    0.8751    magn:    0.0100    constr:    0.0000
     atom:    7    charge:    0.8791    magn:    0.0080    constr:    0.0000
     atom:    8    charge:    0.8783    magn:    0.0110    constr:    0.0000
     atom:    9    charge:    0.8729    magn:    0.0087    constr:    0.0000
     atom:   10    charge:    4.3256    magn:    0.1413    constr:    0.0000
     atom:   11    charge:    4.3419    magn:    0.0906    constr:    0.0000
     atom:   12    charge:    4.3293    magn:    0.1269    constr:    0.0000
     atom:   13    charge:    4.3254    magn:    0.1141    constr:    0.0000
     atom:   14    charge:    4.3190    magn:    0.1195    constr:    0.0000
     atom:   15    charge:    4.3256    magn:    0.1311    constr:    0.0000
     atom:   16    charge:    4.3237    magn:    0.0764    constr:    0.0000
     atom:   17    charge:    4.3191    magn:    0.1438    constr:    0.0000
     atom:   18    charge:    4.2972    magn:    0.1536    constr:    0.0000
     atom:   19    charge:    4.3014    magn:    0.1340    constr:    0.0000
     atom:   20    charge:    4.3048    magn:    0.1453    constr:    0.0000
     atom:   21    charge:    4.2978    magn:    0.1250    constr:    0.0000
     atom:   22    charge:    4.3045    magn:    0.1453    constr:    0.0000
     atom:   23    charge:    4.2979    magn:    0.1250    constr:    0.0000
     atom:   24    charge:    4.2975    magn:    0.1536    constr:    0.0000
     atom:   25    charge:    4.3019    magn:    0.1340    constr:    0.0000

     total cpu time spent up to now is    18983.1 secs

     End of self-consistent calculation

 ------ SPIN UP ------------


          k = 0.0000 0.0000 0.0000 ( 38251 PWs)   bands (ev):

   -85.9368 -85.8998 -85.8933 -85.4709 -52.0389 -51.9940 -51.9864 -51.8835
   -51.8775 -51.8592 -51.8174 -51.8096 -51.7983 -51.7890 -51.4118 -51.2051
   -45.7057 -17.7101 -17.6568 -17.6321 -16.4081 -16.2633 -16.0626 -15.9875
   -14.1846 -14.0990 -14.0109 -13.9169 -13.8725 -13.8579 -13.8353 -13.7584
   -13.7555 -13.6930 -13.6487 -13.5535  -4.5931  -4.1249  -4.0726  -3.6908
    -2.6027  -2.2856  -2.2327  -2.0294  -1.8302  -1.7886  -1.6378  -1.5857
    -1.4763  -1.3410  -1.0832  -0.8571  -0.7140  -0.6981  -0.2386  -0.2009
    -0.1259  -0.0498   0.0929   0.2626   0.3044   0.3952   0.4394   0.4525
     0.5654   0.7538   0.7601   0.9942   1.1078   1.1707   1.2518   1.3173
     1.4076   1.4480   1.5899   1.6835   1.7768   1.7906   1.8312   1.9316
     2.0579   2.1192   2.1409   2.2597   2.3876   2.3903   2.5186   2.6218
     2.7267   2.7869   2.8562   2.8604   2.9066   3.1107   3.1909   3.2749
     3.3854   3.4256   3.5170   3.6098   3.6923   3.7673   4.0855   4.1926
     8.1127  10.0987  10.6612  11.0153  11.2398  12.0630  12.1423  12.3220
    12.5305  12.7776

     occupation numbers 
     1.0000   1.0000   1.0000   1.0000   1.0000   1.0000   1.0000   1.0000
     1.0000   1.0000   1.0000   1.0000   1.0000   1.0000   1.0000   1.0000
     1.0000   1.0000   1.0000   1.0000   1.0000   1.0000   1.0000   1.0000
     1.0000   1.0000   1.0000   1.0000   1.0000   1.0000   1.0000   1.0000
     1.0000   1.0000   1.0000   1.0000   1.0000   1.0000   1.0000   1.0000
     1.0000   1.0000   1.0000   1.0000   1.0000   1.0000   1.0000   1.0000
     1.0000   1.0000   1.0000   1.0000   1.0000   1.0000   1.0000   1.0000
     1.0000   1.0000   1.0000   1.0000   1.0000   1.0000   1.0000   1.0000
     1.0000   1.0000   1.0000   1.0000   1.0000   1.0000   1.0000   1.0000
     1.0000   1.0000   1.0000   1.0000   1.0000   1.0000   1.0000   1.0000
     1.0000   1.0000   1.0000   1.0000   1.0000   1.0000   1.0000   1.0000
     1.0000   1.0000   1.0000   1.0000   1.0000   1.0000   1.0000   1.0000
     1.0000   1.0000   1.0000   1.0000   1.0000   1.0000   1.0000   1.0000
     0.0000   0.0000   0.0000   0.0000   0.0000   0.0000   0.0000   0.0000
     0.0000   0.0000

          k = 0.0000 0.0000 0.2337 ( 38277 PWs)   bands (ev):

   -85.9368 -85.8998 -85.8933 -85.4709 -52.0389 -51.9940 -51.9864 -51.8835
   -51.8775 -51.8592 -51.8174 -51.8096 -51.7983 -51.7890 -51.4118 -51.2051
   -45.7057 -17.7101 -17.6602 -17.6321 -16.3958 -16.2553 -16.0570 -15.9840
   -14.1917 -14.1065 -14.0210 -13.9220 -13.8765 -13.8543 -13.8382 -13.7631
   -13.7517 -13.6977 -13.6519 -13.5569  -4.5713  -4.1228  -4.0671  -3.6997
    -2.5631  -2.2655  -2.2263  -2.0188  -1.8243  -1.7974  -1.6607  -1.5202
    -1.4703  -1.3101  -1.1247  -0.8308  -0.7416  -0.6940  -0.2281  -0.1789
    -0.1248  -0.0107   0.0968   0.2560   0.2951   0.3698   0.4202   0.4841
     0.5582   0.7453   0.7592   0.9811   1.0836   1.1098   1.1998   1.2703
     1.4260   1.5088   1.5235   1.6500   1.7335   1.7433   1.8723   2.0099
     2.0403   2.1200   2.1683   2.2484   2.3855   2.4607   2.4622   2.5821
     2.7304   2.7360   2.8601   2.8757   2.8775   3.1633   3.1951   3.2770
     3.3858   3.4457   3.5423   3.6056   3.6824   3.7728   4.0622   4.1731
     8.2586  10.1754  10.6972  11.0267  11.2844  11.9245  12.1640  12.3399
    12.4474  12.7128

     occupation numbers 
     1.0000   1.0000   1.0000   1.0000   1.0000   1.0000   1.0000   1.0000
     1.0000   1.0000   1.0000   1.0000   1.0000   1.0000   1.0000   1.0000
     1.0000   1.0000   1.0000   1.0000   1.0000   1.0000   1.0000   1.0000
     1.0000   1.0000   1.0000   1.0000   1.0000   1.0000   1.0000   1.0000
     1.0000   1.0000   1.0000   1.0000   1.0000   1.0000   1.0000   1.0000
     1.0000   1.0000   1.0000   1.0000   1.0000   1.0000   1.0000   1.0000
     1.0000   1.0000   1.0000   1.0000   1.0000   1.0000   1.0000   1.0000
     1.0000   1.0000   1.0000   1.0000   1.0000   1.0000   1.0000   1.0000
     1.0000   1.0000   1.0000   1.0000   1.0000   1.0000   1.0000   1.0000
     1.0000   1.0000   1.0000   1.0000   1.0000   1.0000   1.0000   1.0000
     1.0000   1.0000   1.0000   1.0000   1.0000   1.0000   1.0000   1.0000
     1.0000   1.0000   1.0000   1.0000   1.0000   1.0000   1.0000   1.0000
     1.0000   1.0000   1.0000   1.0000   1.0000   1.0000   1.0000   1.0000
     0.0000   0.0000   0.0000   0.0000   0.0000   0.0000   0.0000   0.0000
     0.0000   0.0000

          k = 0.0000 0.0000 0.4675 ( 38350 PWs)   bands (ev):

   -85.9368 -85.8998 -85.8933 -85.4709 -52.0389 -51.9940 -51.9864 -51.8835
   -51.8775 -51.8592 -51.8174 -51.8096 -51.7983 -51.7890 -51.4118 -51.2052
   -45.7057 -17.7105 -17.6684 -17.6320 -16.3634 -16.2353 -16.0421 -15.9763
   -14.2114 -14.1284 -14.0436 -13.9353 -13.8909 -13.8458 -13.8446 -13.7705
   -13.7414 -13.7083 -13.6606 -13.5665  -4.5090  -4.1231  -4.0513  -3.7331
    -2.4543  -2.2351  -2.1861  -2.0084  -1.8105  -1.8027  -1.6628  -1.4514
    -1.3940  -1.2304  -1.2296  -0.8560  -0.7511  -0.6309  -0.1860  -0.1325
    -0.1057   0.0703   0.1154   0.2474   0.2619   0.3402   0.3606   0.5199
     0.5535   0.7158   0.7756   0.9348   0.9580   1.0281   1.1452   1.2188
     1.2674   1.3742   1.5871   1.6054   1.6957   1.7393   1.9173   1.9621
     2.0990   2.1211   2.1938   2.2750   2.2846   2.3887   2.4877   2.5918
     2.6238   2.7568   2.8759   2.9051   2.9546   3.2082   3.2122   3.2826
     3.4284   3.4994   3.5816   3.5913   3.6640   3.7907   3.9911   4.1130
     8.6479  10.3802  10.7619  11.0730  11.4119  11.7650  12.0142  12.2861
    12.3164  12.4356

     occupation numbers 
     1.0000   1.0000   1.0000   1.0000   1.0000   1.0000   1.0000   1.0000
     1.0000   1.0000   1.0000   1.0000   1.0000   1.0000   1.0000   1.0000
     1.0000   1.0000   1.0000   1.0000   1.0000   1.0000   1.0000   1.0000
     1.0000   1.0000   1.0000   1.0000   1.0000   1.0000   1.0000   1.0000
     1.0000   1.0000   1.0000   1.0000   1.0000   1.0000   1.0000   1.0000
     1.0000   1.0000   1.0000   1.0000   1.0000   1.0000   1.0000   1.0000
     1.0000   1.0000   1.0000   1.0000   1.0000   1.0000   1.0000   1.0000
     1.0000   1.0000   1.0000   1.0000   1.0000   1.0000   1.0000   1.0000
     1.0000   1.0000   1.0000   1.0000   1.0000   1.0000   1.0000   1.0000
     1.0000   1.0000   1.0000   1.0000   1.0000   1.0000   1.0000   1.0000
     1.0000   1.0000   1.0000   1.0000   1.0000   1.0000   1.0000   1.0000
     1.0000   1.0000   1.0000   1.0000   1.0000   1.0000   1.0000   1.0000
     1.0000   1.0000   1.0000   1.0000   1.0000   1.0000   1.0000   1.0000
     0.0000   0.0000   0.0000   0.0000   0.0000   0.0000   0.0000   0.0000
     0.0000   0.0000

          k = 0.0000 0.0000 0.7012 ( 38330 PWs)   bands (ev):

   -85.9368 -85.8998 -85.8933 -85.4709 -52.0389 -51.9940 -51.9864 -51.8835
   -51.8775 -51.8592 -51.8174 -51.8096 -51.7983 -51.7890 -51.4118 -51.2052
   -45.7057 -17.7116 -17.6768 -17.6320 -16.3234 -16.2135 -16.0223 -15.9708
   -14.2363 -14.1579 -14.0654 -13.9529 -13.9138 -13.8508 -13.8322 -13.7735
   -13.7283 -13.7185 -13.6714 -13.5790  -4.4168  -4.1404  -4.0266  -3.7934
    -2.3247  -2.2100  -2.1188  -2.0131  -1.8131  -1.7567  -1.6486  -1.4468
    -1.3267  -1.2565  -1.1256  -1.0065  -0.6145  -0.5085  -0.1137  -0.0755
    -0.0708   0.0711   0.1857   0.1974   0.2649   0.2663   0.3380   0.5199
     0.5733   0.6657   0.8140   0.8244   0.8276   0.9382   0.9889   1.0667
     1.2466   1.2483   1.5243   1.5807   1.6576   1.8216   1.8999   2.0236
     2.0513   2.1091   2.1324   2.1487   2.3030   2.3332   2.3916   2.5652
     2.6508   2.7741   2.9243   3.0567   3.1387   3.2145   3.2320   3.2927
     3.4782   3.5539   3.5861   3.6030   3.6774   3.8112   3.8692   4.0114
     9.1791  10.5908  10.7662  11.1816  11.5202  11.6681  11.8391  12.1628
    12.1684  12.2924

     occupation numbers 
     1.0000   1.0000   1.0000   1.0000   1.0000   1.0000   1.0000   1.0000
     1.0000   1.0000   1.0000   1.0000   1.0000   1.0000   1.0000   1.0000
     1.0000   1.0000   1.0000   1.0000   1.0000   1.0000   1.0000   1.0000
     1.0000   1.0000   1.0000   1.0000   1.0000   1.0000   1.0000   1.0000
     1.0000   1.0000   1.0000   1.0000   1.0000   1.0000   1.0000   1.0000
     1.0000   1.0000   1.0000   1.0000   1.0000   1.0000   1.0000   1.0000
     1.0000   1.0000   1.0000   1.0000   1.0000   1.0000   1.0000   1.0000
     1.0000   1.0000   1.0000   1.0000   1.0000   1.0000   1.0000   1.0000
     1.0000   1.0000   1.0000   1.0000   1.0000   1.0000   1.0000   1.0000
     1.0000   1.0000   1.0000   1.0000   1.0000   1.0000   1.0000   1.0000
     1.0000   1.0000   1.0000   1.0000   1.0000   1.0000   1.0000   1.0000
     1.0000   1.0000   1.0000   1.0000   1.0000   1.0000   1.0000   1.0000
     1.0000   1.0000   1.0000   1.0000   1.0000   1.0000   1.0000   1.0000
     0.0000   0.0000   0.0000   0.0000   0.0000   0.0000   0.0000   0.0000
     0.0000   0.0000

          k = 0.0000 0.0000 0.9349 ( 38332 PWs)   bands (ev):

   -85.9368 -85.8998 -85.8933 -85.4709 -52.0389 -51.9940 -51.9864 -51.8835
   -51.8775 -51.8592 -51.8174 -51.8096 -51.7983 -51.7890 -51.4118 -51.2052
   -45.7057 -17.7129 -17.6814 -17.6319 -16.2944 -16.2009 -16.0049 -15.9718
   -14.2538 -14.1791 -14.0782 -13.9678 -13.9295 -13.8518 -13.8230 -13.7737
   -13.7243 -13.7189 -13.6791 -13.5886  -4.3208  -4.1852  -3.9969  -3.8546
    -2.2500  -2.1904  -2.0679  -2.0107  -1.8006  -1.6837  -1.6511  -1.5441
    -1.2766  -1.1658  -1.1563  -1.0523  -0.4450  -0.3123  -0.1004  -0.0432
    -0.0281   0.0039   0.1114   0.1627   0.2058   0.3225   0.4042   0.4689
     0.6172   0.6271   0.6646   0.7158   0.7628   0.8727   0.8886   1.0180
     1.2509   1.2972   1.4349   1.5585   1.6445   1.7715   1.9100   2.0187
     2.0249   2.0755   2.0880   2.1934   2.2025   2.2986   2.3796   2.5412
     2.6723   2.7773   2.9695   3.1852   3.2050   3.2241   3.3092   3.4125
     3.4869   3.5185   3.6147   3.6576   3.7128   3.7222   3.8197   3.8861
     9.7464  10.3135  11.0031  11.3069  11.4112  11.5761  11.8653  12.1265
    12.1432  12.2685

     occupation numbers 
     1.0000   1.0000   1.0000   1.0000   1.0000   1.0000   1.0000   1.0000
     1.0000   1.0000   1.0000   1.0000   1.0000   1.0000   1.0000   1.0000
     1.0000   1.0000   1.0000   1.0000   1.0000   1.0000   1.0000   1.0000
     1.0000   1.0000   1.0000   1.0000   1.0000   1.0000   1.0000   1.0000
     1.0000   1.0000   1.0000   1.0000   1.0000   1.0000   1.0000   1.0000
     1.0000   1.0000   1.0000   1.0000   1.0000   1.0000   1.0000   1.0000
     1.0000   1.0000   1.0000   1.0000   1.0000   1.0000   1.0000   1.0000
     1.0000   1.0000   1.0000   1.0000   1.0000   1.0000   1.0000   1.0000
     1.0000   1.0000   1.0000   1.0000   1.0000   1.0000   1.0000   1.0000
     1.0000   1.0000   1.0000   1.0000   1.0000   1.0000   1.0000   1.0000
     1.0000   1.0000   1.0000   1.0000   1.0000   1.0000   1.0000   1.0000
     1.0000   1.0000   1.0000   1.0000   1.0000   1.0000   1.0000   1.0000
     1.0000   1.0000   1.0000   1.0000   1.0000   1.0000   1.0000   1.0000
     0.0000   0.0000   0.0000   0.0000   0.0000   0.0000   0.0000   0.0000
     0.0000   0.0000

          k = 0.0000 0.2391 0.0000 ( 38300 PWs)   bands (ev):

   -85.9368 -85.8998 -85.8933 -85.4709 -52.0389 -51.9940 -51.9864 -51.8835
   -51.8775 -51.8592 -51.8174 -51.8096 -51.7983 -51.7890 -51.4118 -51.2051
   -45.7057 -17.7100 -17.6567 -17.6325 -16.3953 -16.2603 -16.0618 -16.0008
   -14.1848 -14.0966 -14.0115 -13.9276 -13.8925 -13.8791 -13.8184 -13.7804
   -13.7142 -13.6877 -13.6461 -13.5559  -4.5691  -4.1428  -4.0525  -3.6987
    -2.5794  -2.2908  -2.2257  -2.0328  -1.8231  -1.7705  -1.6243  -1.5793
    -1.4262  -1.3440  -1.0687  -0.8360  -0.7655  -0.6574  -0.2060  -0.1714
    -0.1053  -0.0708   0.0058   0.1380   0.2465   0.4118   0.4830   0.5191
     0.6539   0.7478   0.7550   0.9521   1.0283   1.0781   1.1548   1.2426
     1.3984   1.5778   1.6304   1.6790   1.7715   1.7936   1.8424   1.8856
     2.0853   2.1115   2.1228   2.2201   2.2966   2.5198   2.5781   2.6146
     2.6888   2.7576   2.7826   2.9099   2.9872   3.1153   3.1871   3.2816
     3.3353   3.4330   3.5211   3.6058   3.6483   3.7976   4.1043   4.1769
     8.2674  10.1877  10.7278  10.9241  11.3048  12.0293  12.1959  12.4013
    12.4550  12.7465

     occupation numbers 
     1.0000   1.0000   1.0000   1.0000   1.0000   1.0000   1.0000   1.0000
     1.0000   1.0000   1.0000   1.0000   1.0000   1.0000   1.0000   1.0000
     1.0000   1.0000   1.0000   1.0000   1.0000   1.0000   1.0000   1.0000
     1.0000   1.0000   1.0000   1.0000   1.0000   1.0000   1.0000   1.0000
     1.0000   1.0000   1.0000   1.0000   1.0000   1.0000   1.0000   1.0000
     1.0000   1.0000   1.0000   1.0000   1.0000   1.0000   1.0000   1.0000
     1.0000   1.0000   1.0000   1.0000   1.0000   1.0000   1.0000   1.0000
     1.0000   1.0000   1.0000   1.0000   1.0000   1.0000   1.0000   1.0000
     1.0000   1.0000   1.0000   1.0000   1.0000   1.0000   1.0000   1.0000
     1.0000   1.0000   1.0000   1.0000   1.0000   1.0000   1.0000   1.0000
     1.0000   1.0000   1.0000   1.0000   1.0000   1.0000   1.0000   1.0000
     1.0000   1.0000   1.0000   1.0000   1.0000   1.0000   1.0000   1.0000
     1.0000   1.0000   1.0000   1.0000   1.0000   1.0000   1.0000   1.0000
     0.0000   0.0000   0.0000   0.0000   0.0000   0.0000   0.0000   0.0000
     0.0000   0.0000

          k = 0.0000 0.2391 0.2337 ( 38294 PWs)   bands (ev):

   -85.9368 -85.8998 -85.8933 -85.4709 -52.0389 -51.9940 -51.9864 -51.8835
   -51.8775 -51.8592 -51.8174 -51.8096 -51.7983 -51.7890 -51.4118 -51.2051
   -45.7057 -17.7100 -17.6601 -17.6325 -16.3835 -16.2523 -16.0562 -15.9967
   -14.1920 -14.1040 -14.0225 -13.9328 -13.8933 -13.8783 -13.8232 -13.7818
   -13.7148 -13.6904 -13.6485 -13.5586  -4.5478  -4.1383  -4.0486  -3.7071
    -2.5412  -2.2697  -2.2181  -2.0221  -1.8195  -1.7774  -1.6377  -1.5244
    -1.4176  -1.3156  -1.1095  -0.8391  -0.7683  -0.6515  -0.1936  -0.1670
    -0.1105  -0.0293   0.0116   0.1403   0.2434   0.4232   0.4644   0.5113
     0.6325   0.7372   0.7617   0.9356   0.9966   1.0355   1.1328   1.2212
     1.4658   1.5381   1.6158   1.6690   1.7146   1.7591   1.8416   1.9571
     2.0338   2.1199   2.1489   2.2344   2.3126   2.4607   2.5450   2.6162
     2.6770   2.7369   2.8057   2.8917   2.9678   3.1578   3.1983   3.2893
     3.3435   3.4514   3.5420   3.6007   3.6442   3.8005   4.0893   4.1624
     8.4072  10.2641  10.7616  10.9615  11.3346  11.9315  12.2007  12.3280
    12.4628  12.6947

     occupation numbers 
     1.0000   1.0000   1.0000   1.0000   1.0000   1.0000   1.0000   1.0000
     1.0000   1.0000   1.0000   1.0000   1.0000   1.0000   1.0000   1.0000
     1.0000   1.0000   1.0000   1.0000   1.0000   1.0000   1.0000   1.0000
     1.0000   1.0000   1.0000   1.0000   1.0000   1.0000   1.0000   1.0000
     1.0000   1.0000   1.0000   1.0000   1.0000   1.0000   1.0000   1.0000
     1.0000   1.0000   1.0000   1.0000   1.0000   1.0000   1.0000   1.0000
     1.0000   1.0000   1.0000   1.0000   1.0000   1.0000   1.0000   1.0000
     1.0000   1.0000   1.0000   1.0000   1.0000   1.0000   1.0000   1.0000
     1.0000   1.0000   1.0000   1.0000   1.0000   1.0000   1.0000   1.0000
     1.0000   1.0000   1.0000   1.0000   1.0000   1.0000   1.0000   1.0000
     1.0000   1.0000   1.0000   1.0000   1.0000   1.0000   1.0000   1.0000
     1.0000   1.0000   1.0000   1.0000   1.0000   1.0000   1.0000   1.0000
     1.0000   1.0000   1.0000   1.0000   1.0000   1.0000   1.0000   1.0000
     0.0000   0.0000   0.0000   0.0000   0.0000   0.0000   0.0000   0.0000
     0.0000   0.0000

          k = 0.0000 0.2391 0.4675 ( 38323 PWs)   bands (ev):

   -85.9368 -85.8998 -85.8933 -85.4709 -52.0389 -51.9940 -51.9864 -51.8835
   -51.8775 -51.8592 -51.8174 -51.8096 -51.7983 -51.7890 -51.4118 -51.2052
   -45.7057 -17.7103 -17.6683 -17.6324 -16.3526 -16.2318 -16.0415 -15.9868
   -14.2120 -14.1263 -14.0469 -13.9450 -13.9036 -13.8753 -13.8345 -13.7797
   -13.7183 -13.6937 -13.6550 -13.5664  -4.4873  -4.1327  -4.0360  -3.7386
    -2.4361  -2.2299  -2.1825  -2.0087  -1.8150  -1.7716  -1.6359  -1.4280
    -1.3840  -1.2354  -1.2099  -0.9061  -0.7227  -0.6179  -0.1662  -0.1455
    -0.0843  -0.0310   0.0921   0.1570   0.2524   0.3918   0.4421   0.5060
     0.5903   0.7302   0.7619   0.8706   0.9090   0.9984   1.0795   1.2178
     1.3163   1.4811   1.5398   1.6527   1.7009   1.7276   1.8830   1.9508
     2.0375   2.1495   2.1710   2.2187   2.2976   2.3632   2.4694   2.5685
     2.6497   2.7168   2.8739   2.9345   2.9813   3.1991   3.2188   3.2983
     3.3964   3.4942   3.5420   3.6076   3.6614   3.8085   4.0446   4.1173
     8.7830  10.4687  10.8329  11.0492  11.4429  11.7967  12.0484  12.2262
    12.3874  12.4846

     occupation numbers 
     1.0000   1.0000   1.0000   1.0000   1.0000   1.0000   1.0000   1.0000
     1.0000   1.0000   1.0000   1.0000   1.0000   1.0000   1.0000   1.0000
     1.0000   1.0000   1.0000   1.0000   1.0000   1.0000   1.0000   1.0000
     1.0000   1.0000   1.0000   1.0000   1.0000   1.0000   1.0000   1.0000
     1.0000   1.0000   1.0000   1.0000   1.0000   1.0000   1.0000   1.0000
     1.0000   1.0000   1.0000   1.0000   1.0000   1.0000   1.0000   1.0000
     1.0000   1.0000   1.0000   1.0000   1.0000   1.0000   1.0000   1.0000
     1.0000   1.0000   1.0000   1.0000   1.0000   1.0000   1.0000   1.0000
     1.0000   1.0000   1.0000   1.0000   1.0000   1.0000   1.0000   1.0000
     1.0000   1.0000   1.0000   1.0000   1.0000   1.0000   1.0000   1.0000
     1.0000   1.0000   1.0000   1.0000   1.0000   1.0000   1.0000   1.0000
     1.0000   1.0000   1.0000   1.0000   1.0000   1.0000   1.0000   1.0000
     1.0000   1.0000   1.0000   1.0000   1.0000   1.0000   1.0000   1.0000
     0.0000   0.0000   0.0000   0.0000   0.0000   0.0000   0.0000   0.0000
     0.0000   0.0000

          k = 0.0000 0.2391 0.7012 ( 38349 PWs)   bands (ev):

   -85.9368 -85.8998 -85.8933 -85.4709 -52.0389 -51.9940 -51.9864 -51.8835
   -51.8775 -51.8592 -51.8174 -51.8096 -51.7983 -51.7890 -51.4118 -51.2052
   -45.7057 -17.7113 -17.6767 -17.6323 -16.3150 -16.2088 -16.0228 -15.9779
   -14.2375 -14.1570 -14.0697 -13.9587 -13.9286 -13.8713 -13.8381 -13.7733
   -13.7247 -13.6926 -13.6626 -13.5766  -4.3987  -4.1424  -4.0152  -3.7951
    -2.3089  -2.2015  -2.1158  -2.0089  -1.8093  -1.7325  -1.6208  -1.4215
    -1.3139  -1.2600  -1.1243  -1.0238  -0.6216  -0.5325  -0.1734  -0.0905
    -0.0739  -0.0138   0.1423   0.2618   0.2870   0.3268   0.3861   0.5145
     0.5644   0.6988   0.7445   0.7940   0.8582   0.9428   0.9824   1.0570
     1.2244   1.3220   1.4622   1.6452   1.6700   1.7966   1.8474   1.9882
     2.0147   2.1029   2.1604   2.2091   2.2416   2.3002   2.3885   2.5376
     2.6385   2.7115   2.9401   3.0345   3.1140   3.2104   3.2421   3.3112
     3.4192   3.5217   3.5782   3.6101   3.7122   3.8163   3.9728   4.0428
     9.3008  10.6967  10.8358  11.1863  11.5670  11.7298  11.8571  12.1030
    12.2269  12.3032

     occupation numbers 
     1.0000   1.0000   1.0000   1.0000   1.0000   1.0000   1.0000   1.0000
     1.0000   1.0000   1.0000   1.0000   1.0000   1.0000   1.0000   1.0000
     1.0000   1.0000   1.0000   1.0000   1.0000   1.0000   1.0000   1.0000
     1.0000   1.0000   1.0000   1.0000   1.0000   1.0000   1.0000   1.0000
     1.0000   1.0000   1.0000   1.0000   1.0000   1.0000   1.0000   1.0000
     1.0000   1.0000   1.0000   1.0000   1.0000   1.0000   1.0000   1.0000
     1.0000   1.0000   1.0000   1.0000   1.0000   1.0000   1.0000   1.0000
     1.0000   1.0000   1.0000   1.0000   1.0000   1.0000   1.0000   1.0000
     1.0000   1.0000   1.0000   1.0000   1.0000   1.0000   1.0000   1.0000
     1.0000   1.0000   1.0000   1.0000   1.0000   1.0000   1.0000   1.0000
     1.0000   1.0000   1.0000   1.0000   1.0000   1.0000   1.0000   1.0000
     1.0000   1.0000   1.0000   1.0000   1.0000   1.0000   1.0000   1.0000
     1.0000   1.0000   1.0000   1.0000   1.0000   1.0000   1.0000   1.0000
     0.0000   0.0000   0.0000   0.0000   0.0000   0.0000   0.0000   0.0000
     0.0000   0.0000

          k = 0.0000 0.2391 0.9349 ( 38302 PWs)   bands (ev):

   -85.9368 -85.8998 -85.8933 -85.4709 -52.0389 -51.9940 -51.9864 -51.8835
   -51.8775 -51.8592 -51.8174 -51.8096 -51.7983 -51.7890 -51.4118 -51.2052
   -45.7057 -17.7127 -17.6814 -17.6322 -16.2884 -16.1945 -16.0080 -15.9748
   -14.2554 -14.1791 -14.0831 -13.9697 -13.9478 -13.8686 -13.8356 -13.7681
   -13.7292 -13.6914 -13.6666 -13.5845  -4.3092  -4.1767  -3.9921  -3.8503
    -2.2325  -2.1827  -2.0642  -2.0071  -1.7933  -1.6755  -1.6133  -1.5141
    -1.2738  -1.1888  -1.1445  -1.0402  -0.5001  -0.3798  -0.2322  -0.1953
     0.0116   0.0942   0.1635   0.2325   0.2775   0.3717   0.4247   0.4667
     0.5848   0.6173   0.6788   0.7609   0.7802   0.8163   0.9091   0.9669
     1.2397   1.3079   1.4047   1.5672   1.6678   1.7696   1.8538   1.9564
     2.0298   2.0521   2.1115   2.2010   2.2298   2.2906   2.3691   2.5142
     2.6393   2.7088   2.9655   3.1495   3.2062   3.2318   3.2609   3.3320
     3.4106   3.5216   3.5975   3.6731   3.7532   3.8115   3.8971   3.9670
     9.8602  10.4183  11.0814  11.3536  11.4752  11.6218  11.8903  12.0693
    12.1699  12.2385

     occupation numbers 
     1.0000   1.0000   1.0000   1.0000   1.0000   1.0000   1.0000   1.0000
     1.0000   1.0000   1.0000   1.0000   1.0000   1.0000   1.0000   1.0000
     1.0000   1.0000   1.0000   1.0000   1.0000   1.0000   1.0000   1.0000
     1.0000   1.0000   1.0000   1.0000   1.0000   1.0000   1.0000   1.0000
     1.0000   1.0000   1.0000   1.0000   1.0000   1.0000   1.0000   1.0000
[...]
     atom   24 type  3   force =    -0.01087981    0.02653756    0.01423259
     atom   25 type  3   force =     0.01091007   -0.02549925    0.01528245
     The non-local contrib.  to forces
     atom    1 type  2   force =     0.12789060    0.00000141   -0.02817005
     atom    2 type  1   force =     0.06426033   -0.00000793    0.12041439
     atom    3 type  1   force =     0.03098268    0.00002023    0.09314501
     atom    4 type  1   force =    -0.22166811    0.00000994   -0.05650325
     atom    5 type  1   force =    -0.00958032   -0.00001817   -0.10436099
     atom    6 type  4   force =    -0.02904383    0.00000267   -0.03537653
     atom    7 type  4   force =     0.04719301   -0.00001010   -0.00671830
     atom    8 type  4   force =     0.00434684   -0.00000389    0.03729386
     atom    9 type  4   force =    -0.00309673    0.00000902    0.04310776
     atom   10 type  3   force =     0.32041576   -0.00000630   -1.49790092
     atom   11 type  3   force =    -0.11110417    0.00000180   -1.41892895
     atom   12 type  3   force =    -0.40835162    0.00000491    1.49816937
     atom   13 type  3   force =     0.23945170    0.00000016    1.49985746
     atom   14 type  3   force =     1.24588880    0.00000038   -0.61310678
     atom   15 type  3   force =    -1.22488466    0.00000443   -0.79424214
     atom   16 type  3   force =    -1.22845992    0.00001701    0.30687641
     atom   17 type  3   force =     1.19597368   -0.00000347    0.63037779
     atom   18 type  3   force =    -0.53382892   -1.11180137    0.77575641
     atom   19 type  3   force =     0.54150698    1.17221118    0.80970897
     atom   20 type  3   force =     0.56097157   -1.11855241   -0.67564907
     atom   21 type  3   force =    -0.55730746    1.08181642   -0.69133810
     atom   22 type  3   force =     0.56094824    1.11851589   -0.67565414
     atom   23 type  3   force =    -0.55728725   -1.08178775   -0.69132804
     atom   24 type  3   force =    -0.53384965    1.11183643    0.77575489
     atom   25 type  3   force =     0.54152897   -1.17224244    0.80971447
     The ionic contribution  to forces
     atom    1 type  2   force =    -3.66023402    0.00032093    2.39991629
     atom    2 type  1   force =     0.09273037   -0.00079890   -0.39834061
     atom    3 type  1   force =    -7.94945577    0.00096200   -0.56628496
     atom    4 type  1   force =     3.65118945    0.00076402   -0.34091151
     atom    5 type  1   force =     8.23421663   -0.00107519    0.52428849
     atom    6 type  4   force =    -3.36057494   -0.00026323    0.26130403
     atom    7 type  4   force =     0.67488481    0.00017192    0.34652510
     atom    8 type  4   force =     5.08398552    0.00024624   -0.51598888
     atom    9 type  4   force =    -2.66118789   -0.00016894   -0.63615761
     atom   10 type  3   force =    -9.85003916   -0.00027299    2.60693677
     atom   11 type  3   force =     3.69926980    0.00025100    1.30527094
     atom   12 type  3   force =    11.87164810    0.00025654   -2.73335852
     atom   13 type  3   force =    -8.09215316   -0.00029774   -2.10529187
     atom   14 type  3   force =     0.67021918   -0.00021822    5.15299053
     atom   15 type  3   force =    -1.78999431    0.00025525    6.58891028
     atom   16 type  3   force =    -1.96374765    0.00013874   -2.46764229
     atom   17 type  3   force =     3.43906421   -0.00026377   -5.79513000
     atom   18 type  3   force =    -3.98742724    2.62615931   -2.90167369
     atom   19 type  3   force =     0.96972624   -3.91492969   -2.52384488
     atom   20 type  3   force =     5.31689006    4.20326615    2.30474800
     atom   21 type  3   force =    -1.34408341   -1.21645180    1.30717162
     atom   22 type  3   force =     5.31713994   -4.20279053    2.30488490
     atom   23 type  3   force =    -1.34430629    1.21609003    1.30706962
     atom   24 type  3   force =    -3.98722870   -2.62664906   -2.90148243
     atom   25 type  3   force =     0.96946824    3.91529791   -2.52390932
     The local contribution  to forces
     atom    1 type  2   force =     3.53163810   -0.00032170   -2.37196018
     atom    2 type  1   force =    -0.16164438    0.00080341    0.27409006
     atom    3 type  1   force =     7.91761682   -0.00097870    0.47144760
     atom    4 type  1   force =    -3.42198346   -0.00077026    0.40154624
     atom    5 type  1   force =    -8.22380786    0.00108875   -0.41769734
     atom    6 type  4   force =     3.38902069    0.00025595   -0.22758149
     atom    7 type  4   force =    -0.71820515   -0.00016359   -0.33983963
     atom    8 type  4   force =    -5.09233287   -0.00023894    0.47848728
     atom    9 type  4   force =     2.66480811    0.00016027    0.59527799
     atom   10 type  3   force =     9.53870471    0.00027819   -1.15123589
     atom   11 type  3   force =    -3.59082454   -0.00025271    0.07337561
     atom   12 type  3   force =   -11.47405102   -0.00026081    1.27846313
     atom   13 type  3   force =     7.85848667    0.00029761    0.64938608
     atom   14 type  3   force =    -1.87803247    0.00021837   -4.55590345
     atom   15 type  3   force =     2.97999712   -0.00025898   -5.81832763
     atom   16 type  3   force =     3.14877450   -0.00015464    2.16777932
     atom   17 type  3   force =    -4.59876779    0.00026664    5.18191261
     atom   18 type  3   force =     4.50555321   -1.55096032    2.14747445
     atom   19 type  3   force =    -1.49547811    2.77880643    1.73708109
     atom   20 type  3   force =    -5.86074753   -3.11914051   -1.64895028
     atom   21 type  3   force =     1.88403092    0.16982642   -0.63365140
     atom   22 type  3   force =    -5.86097482    3.11869949   -1.64908223
     atom   23 type  3   force =     1.88423164   -0.16949584   -0.63356204
     atom   24 type  3   force =     4.50537313    1.55141820    2.14728715
     atom   25 type  3   force =    -1.49524398   -2.77914000    1.73713691
     The core correction contribution to forces
     atom    1 type  2   force =     0.00000000    0.00000000    0.00000000
     atom    2 type  1   force =    -0.00072930   -0.00000290   -0.00040592
     atom    3 type  1   force =     0.00012882    0.00000187    0.00031346
     atom    4 type  1   force =     0.00390441   -0.00000281   -0.00110053
     atom    5 type  1   force =    -0.00010063   -0.00000367    0.00045472
     atom    6 type  4   force =     0.00211873   -0.00000005    0.00261801
     atom    7 type  4   force =    -0.00326367    0.00000079    0.00052622
     atom    8 type  4   force =    -0.00059738    0.00000019   -0.00259840
     atom    9 type  4   force =     0.00006880   -0.00000076   -0.00309773
     atom   10 type  3   force =    -0.00359335    0.00000004    0.01363787
     atom   11 type  3   force =     0.00170193    0.00000002    0.01279140
     atom   12 type  3   force =     0.00441607   -0.00000007   -0.01359435
     atom   13 type  3   force =    -0.00287110    0.00000006   -0.01363001
     atom   14 type  3   force =    -0.01102361   -0.00000002    0.00612576
     atom   15 type  3   force =     0.01082349   -0.00000007    0.00778515
     atom   16 type  3   force =     0.01084246   -0.00000016   -0.00315658
     atom   17 type  3   force =    -0.01066604    0.00000004   -0.00625843
     atom   18 type  3   force =     0.00482890    0.01006339   -0.00732556
     atom   19 type  3   force =    -0.00484525   -0.01058976   -0.00765283
     atom   20 type  3   force =    -0.00513800    0.01010655    0.00634023
     atom   21 type  3   force =     0.00505408   -0.00985184    0.00655803
     atom   22 type  3   force =    -0.00513777   -0.01010618    0.00634027
     atom   23 type  3   force =     0.00505393    0.00985162    0.00655798
     atom   24 type  3   force =     0.00482913   -0.01006374   -0.00732558
     atom   25 type  3   force =    -0.00484543    0.01058988   -0.00765280
     The Hubbard contrib.    to forces
     atom    1 type  2   force =     0.00000000    0.00000000    0.00000000
     atom    2 type  1   force =     0.00000000    0.00000000    0.00000000
     atom    3 type  1   force =     0.00000000    0.00000000    0.00000000
     atom    4 type  1   force =     0.00000000    0.00000000    0.00000000
     atom    5 type  1   force =     0.00000000    0.00000000    0.00000000
     atom    6 type  4   force =     0.00000000    0.00000000    0.00000000
     atom    7 type  4   force =     0.00000000    0.00000000    0.00000000
     atom    8 type  4   force =     0.00000000    0.00000000    0.00000000
     atom    9 type  4   force =     0.00000000    0.00000000    0.00000000
     atom   10 type  3   force =     0.00000000    0.00000000    0.00000000
     atom   11 type  3   force =     0.00000000    0.00000000    0.00000000
     atom   12 type  3   force =     0.00000000    0.00000000    0.00000000
     atom   13 type  3   force =     0.00000000    0.00000000    0.00000000
     atom   14 type  3   force =     0.00000000    0.00000000    0.00000000
     atom   15 type  3   force =     0.00000000    0.00000000    0.00000000
     atom   16 type  3   force =     0.00000000    0.00000000    0.00000000
     atom   17 type  3   force =     0.00000000    0.00000000    0.00000000
     atom   18 type  3   force =     0.00000000    0.00000000    0.00000000
     atom   19 type  3   force =     0.00000000    0.00000000    0.00000000
     atom   20 type  3   force =     0.00000000    0.00000000    0.00000000
     atom   21 type  3   force =     0.00000000    0.00000000    0.00000000
     atom   22 type  3   force =     0.00000000    0.00000000    0.00000000
     atom   23 type  3   force =     0.00000000    0.00000000    0.00000000
     atom   24 type  3   force =     0.00000000    0.00000000    0.00000000
     atom   25 type  3   force =     0.00000000    0.00000000    0.00000000
     The SCF correction term to forces
     atom    1 type  2   force =     0.00000662   -0.00000001   -0.00000071
     atom    2 type  1   force =     0.00000287    0.00000000   -0.00000048
     atom    3 type  1   force =    -0.00000082   -0.00000001    0.00000087
     atom    4 type  1   force =     0.00000008   -0.00000002   -0.00000010
     atom    5 type  1   force =    -0.00000415    0.00000004    0.00000008
     atom    6 type  4   force =    -0.00000406    0.00000000    0.00000074
     atom    7 type  4   force =     0.00000321   -0.00000000   -0.00000022
     atom    8 type  4   force =    -0.00000361   -0.00000001    0.00000009
     atom    9 type  4   force =     0.00000429    0.00000001    0.00000043
     atom   10 type  3   force =    -0.00000770    0.00000000   -0.00000325
     atom   11 type  3   force =     0.00000264   -0.00000000    0.00000138
     atom   12 type  3   force =    -0.00000510   -0.00000000   -0.00000144
     atom   13 type  3   force =     0.00000586    0.00000000   -0.00000178
     atom   14 type  3   force =     0.00001016    0.00000000    0.00000198
     atom   15 type  3   force =    -0.00000313   -0.00000001   -0.00000018
     atom   16 type  3   force =     0.00000606   -0.00000001    0.00000058
     atom   17 type  3   force =    -0.00000792    0.00000001    0.00000097
     atom   18 type  3   force =    -0.00000372    0.00000455    0.00000275
     atom   19 type  3   force =     0.00000228    0.00000486   -0.00000263
     atom   20 type  3   force =    -0.00000347    0.00000150    0.00000002
     atom   21 type  3   force =     0.00000374   -0.00000034    0.00000079
     atom   22 type  3   force =    -0.00000348   -0.00000152    0.00000003
     atom   23 type  3   force =     0.00000375    0.00000035    0.00000079
     atom   24 type  3   force =    -0.00000372   -0.00000455    0.00000275
     atom   25 type  3   force =     0.00000228   -0.00000487   -0.00000262

     Total force =     0.122175     Total SCF correction =     0.000027


     Computing stress (Cartesian axis) and pressure


     negative rho (up, down):  0.000E+00 9.791E-04
          total   stress  (Ry/bohr**3)                   (kbar)     P=      -91.81
  -0.00080710   0.00000001  -0.00001710         -118.73        0.00       -2.52
   0.00000001  -0.00060075  -0.00000000            0.00      -88.37       -0.00
  -0.00001710  -0.00000000  -0.00046446           -2.52       -0.00      -68.32

     kinetic stress (kbar)  24943.37      0.00     -9.71
                                0.00  25182.55      0.00
                               -9.71      0.00  25001.78

     local   stress (kbar)  -4534.72     -0.09   1126.53
                               -0.09 -13432.54     -0.00
                             1126.53     -0.00  -9074.40

     nonloc. stress (kbar)  -6336.75     -0.00     -0.37
                               -0.00  -6287.09     -0.00
                               -0.37     -0.00  -6300.33

     hartree stress (kbar)  11965.09      0.04   -465.03
                                0.04  16939.93      0.00
                             -465.03      0.00  14566.89

     exc-cor stress (kbar)  -2648.52     -0.00     -0.75
                               -0.00  -2655.66     -0.00
                               -0.75     -0.00  -2652.74

     corecor stress (kbar)  -2962.65      0.00      0.93
                                0.00  -2962.39      0.00
                                0.93      0.00  -2963.51

     ewald   stress (kbar) -20544.54      0.05   -654.11
                                0.05 -16873.16      0.00
                             -654.11      0.00 -18646.01

     hubbard stress (kbar)      0.00      0.00      0.00
                                0.00      0.00      0.00
                                0.00      0.00      0.00

     DFT-D   stress (kbar)      0.00      0.00      0.00
                                0.00      0.00      0.00
                                0.00      0.00      0.00

     XDM     stress (kbar)      0.00      0.00      0.00
                                0.00      0.00      0.00
                                0.00      0.00      0.00

     dft-nl  stress (kbar)      0.00      0.00      0.00
                                0.00      0.00      0.00
                                0.00      0.00      0.00

     TS-vdW  stress (kbar)      0.00      0.00      0.00
                                0.00      0.00      0.00
                                0.00      0.00      0.00



     init_run     :    195.38s CPU    199.32s WALL (       1 calls)
     electrons    :  18539.94s CPU  18782.79s WALL (       1 calls)
     forces       :    127.98s CPU    129.44s WALL (       1 calls)
     stress       :    834.50s CPU    841.84s WALL (       1 calls)

     Called by init_run:
     wfcinit      :    184.70s CPU    187.78s WALL (       1 calls)
     wfcinit:atom :      3.47s CPU      3.48s WALL (     316 calls)
     wfcinit:wfcr :    170.40s CPU    173.40s WALL (     316 calls)
     potinit      :      3.64s CPU      3.76s WALL (       1 calls)
     hinit0       :      3.59s CPU      3.69s WALL (       1 calls)

     Called by electrons:
     c_bands      :  16502.73s CPU  16657.02s WALL (      36 calls)
     sum_band     :   1919.68s CPU   1981.63s WALL (      36 calls)
     v_of_rho     :     35.12s CPU     36.24s WALL (      37 calls)
     v_h          :      1.92s CPU      1.98s WALL (      37 calls)
     v_xc         :     35.09s CPU     36.19s WALL (      39 calls)
     newd         :     55.02s CPU     80.31s WALL (      37 calls)
     PAW_pot      :     16.37s CPU     16.42s WALL (      37 calls)
     mix_rho      :      9.54s CPU      9.96s WALL (      36 calls)

     Called by c_bands:
     init_us_2    :    358.23s CPU    360.37s WALL (   23700 calls)
     cegterg      :  15954.13s CPU  16103.70s WALL (   11376 calls)

     Called by sum_band:
     sum_band:wei :      0.59s CPU      0.59s WALL (      36 calls)
     sum_band:loo :   1748.90s CPU   1771.67s WALL (      36 calls)
     sum_band:buf :     95.37s CPU     95.94s WALL (   11376 calls)
     sum_band:ini :    172.52s CPU    173.27s WALL (   11376 calls)
     sum_band:cal :    827.21s CPU    832.99s WALL (   11376 calls)
     sum_band:bec :      6.95s CPU      7.10s WALL (   11376 calls)
     addusdens    :    159.65s CPU    198.31s WALL (      36 calls)
     addusd:skk   :      1.14s CPU      1.17s WALL (     108 calls)
     addusd:dgemm :     67.76s CPU    101.13s WALL (     216 calls)
     addusd:qvan2 :     88.35s CPU     89.55s WALL (     216 calls)

     Called by *egterg:
     cdiaghg      :    948.44s CPU    972.65s WALL (   43585 calls)
     cegterg:over :   1584.28s CPU   1598.29s WALL (   32209 calls)
     cegterg:upda :    955.60s CPU    957.90s WALL (   32209 calls)
     cegterg:last :   2066.23s CPU   2070.22s WALL (   20250 calls)
     h_psi        :   7425.75s CPU   7521.67s WALL (   43901 calls)
     s_psi        :   2056.36s CPU   2060.66s WALL (   43901 calls)
     g_psi        :     18.71s CPU     18.88s WALL (   32209 calls)

     Called by h_psi:
     h_psi:calbec :   2182.91s CPU   2200.15s WALL (   43901 calls)
     vloc_psi     :   2792.51s CPU   2862.82s WALL (   43901 calls)
     add_vuspsi   :   2246.66s CPU   2252.34s WALL (   43901 calls)

     General routines
     calbec       :   3121.77s CPU   3145.84s WALL (   56857 calls)
     fft          :     35.04s CPU     36.89s WALL (     963 calls)
     ffts         :      0.62s CPU      0.73s WALL (     146 calls)
     fftw         :   3155.56s CPU   3233.83s WALL ( 7035904 calls)
     interpolate  :      2.60s CPU      2.78s WALL (      74 calls)

     Parallel routines
     fft_scatt_xy :    378.61s CPU    387.87s WALL ( 7037013 calls)
     fft_scatt_yz :   1131.05s CPU   1161.96s WALL ( 7037013 calls)

     PAW routines
     PAW_pot      :     16.37s CPU     16.42s WALL (      37 calls)

     PWSCF        :      5h28m CPU      5h32m WALL


   This run was terminated on:  12: 3:50  21Dec2022            

=------------------------------------------------------------------------------=
   JOB DONE.
=------------------------------------------------------------------------------=
Note: The following floating-point exceptions are signalling: IEEE_INVALID_FLAG IEEE_DENORMAL
Note: The following floating-point exceptions are signalling: IEEE_DENORMAL
Note: The following floating-point exceptions are signalling: IEEE_DENORMAL
Note: The following floating-point exceptions are signalling: IEEE_DENORMAL
Note: The following floating-point exceptions are signalling: IEEE_INVALID_FLAG IEEE_DENORMAL
Note: The following floating-point exceptions are signalling: IEEE_DENORMAL
Note: The following floating-point exceptions are signalling: IEEE_DENORMAL
Note: The following floating-point exceptions are signalling: IEEE_INVALID_FLAG IEEE_DENORMAL
Note: The following floating-point exceptions are signalling: IEEE_DENORMAL
Note: The following floating-point exceptions are signalling: IEEE_DENORMAL
Note: The following floating-point exceptions are signalling: IEEE_DENORMAL
Note: The following floating-point exceptions are signalling: IEEE_DENORMAL
Note: The following floating-point exceptions are signalling: IEEE_DENORMAL
Note: The following floating-point exceptions are signalling: IEEE_DENORMAL
Note: The following floating-point exceptions are signalling: IEEE_INVALID_FLAG IEEE_DENORMAL
Note: The following floating-point exceptions are signalling: IEEE_DENORMAL
Note: The following floating-point exceptions are signalling: IEEE_DENORMAL
Note: The following floating-point exceptions are signalling: IEEE_UNDERFLOW_FLAG IEEE_DENORMAL
Note: The following floating-point exceptions are signalling: IEEE_DENORMAL
Note: The following floating-point exceptions are signalling: IEEE_DENORMAL
Note: The following floating-point exceptions are signalling: IEEE_DENORMAL
Note: The following floating-point exceptions are signalling: IEEE_DENORMAL
Note: The following floating-point exceptions are signalling: IEEE_DENORMAL
Note: The following floating-point exceptions are signalling: IEEE_DENORMAL
