
     Program PWSCF v.6.7MaX starts on 18Dec2022 at  7: 2:20 

     This program is part of the open-source Quantum ESPRESSO suite
     for quantum simulation of materials; please cite
         "P. Giannozzi et al., J. Phys.:Condens. Matter 21 395502 (2009);
         "P. Giannozzi et al., J. Phys.:Condens. Matter 29 465901 (2017);
          URL http://www.quantum-espresso.org", 
     in publications or presentations arising from this work. More details at
     http://www.quantum-espresso.org/quote

     Parallel version (MPI), running on    24 processors

     MPI processes distributed on     1 nodes
     R & G space division:  proc/nbgrp/npool/nimage =      24
     Reading input from scale_1da-02.in

     Current dimensions of program PWSCF are:
     Max number of different atomic species (ntypx) = 10
     Max number of k-points (npk) =  40000
     Max angular momentum in pseudopotentials (lmaxx) =  3
     Message from routine read_pp_mesh:
     mesh size missing, using the one in header
     file Fe.pbe-spn-kjpaw_psl.0.2.1.UPF: wavefunction(s)  3D renormalized
     file O.pbe-n-kjpaw_psl.0.1.UPF: wavefunction(s)  2P renormalized

     Subspace diagonalization in iterative solution of the eigenvalue problem:
     a serial algorithm will be used

     Message from routine setup:
     using ibrav=0 with symmetry is DISCOURAGED, use correct ibrav instead

     Parallelization info
     --------------------
     sticks:   dense  smooth     PW     G-vecs:    dense   smooth      PW
     Min         814     301     81                53060    11960    1683
     Max         815     303     82                53063    11961    1686
     Sum       19549    7233   1959              1273469   287059   40409



     bravais-lattice index     =            0
     lattice parameter (alat)  =      19.3373  a.u.
     unit-cell volume          =    2124.3518 (a.u.)^3
     number of atoms/cell      =           25
     number of atomic types    =            4
     number of electrons       =       189.00
     number of Kohn-Sham states=          114
     kinetic-energy cutoff     =     100.0000  Ry
     charge density cutoff     =    1080.0000  Ry
     scf convergence threshold =      2.0E-10
     mixing beta               =       0.4000
     number of iterations used =            8  plain     mixing
     Exchange-correlation= PBE
                           (   1   4   3   4   0   0   0)

     celldm(1)=  19.337306  celldm(2)=   0.000000  celldm(3)=   0.000000
     celldm(4)=   0.000000  celldm(5)=   0.000000  celldm(6)=   0.000000

     crystal axes: (cart. coord. in units of alat)
               a(1) = (   1.000000   0.000000   0.000000 )  
               a(2) = (   0.000000   0.607719   0.000000 )  
               a(3) = (   0.000000   0.000000   0.483433 )  

     reciprocal axes: (cart. coord. in units 2 pi/alat)
               b(1) = (  1.000000  0.000000  0.000000 )  
               b(2) = (  0.000000  1.645499  0.000000 )  
               b(3) = (  0.000000  0.000000  2.068540 )  


     PseudoPot. # 1 for Fe read from file:
     /opt/QEpot/SSSP_precision_pseudos/Fe.pbe-spn-kjpaw_psl.0.2.1.UPF
     MD5 check sum: e86618425769142926afa95317d90200
     Pseudo is Projector augmented-wave + core cor, Zval = 16.0
     Generated using "atomic" code by A. Dal Corso  v.5.0.99 svn rev. 10869
     Shape of augmentation charge: PSQ
     Using radial grid of 1191 points,  6 beta functions with: 
                l(1) =   0
                l(2) =   0
                l(3) =   1
                l(4) =   1
                l(5) =   2
                l(6) =   2
     Q(r) pseudized with 0 coefficients 


     PseudoPot. # 2 for Na read from file:
     /opt/QEpot/SSSP_precision_pseudos/Na_ONCV_PBE-1.0.oncvpsp.upf
     MD5 check sum: 24a298df0a6742ae313db96548fdb2a4
     Pseudo is Norm-conserving, Zval =  9.0
     Generated using ONCVPSP code by D. R. Hamann
     Using radial grid of 1992 points,  4 beta functions with: 
                l(1) =   0
                l(2) =   0
                l(3) =   1
                l(4) =   1

     PseudoPot. # 3 for O  read from file:
     /opt/QEpot/SSSP_precision_pseudos/O.pbe-n-kjpaw_psl.0.1.UPF
     MD5 check sum: 0234752ac141de4415c5fc33072bef88
     Pseudo is Projector augmented-wave + core cor, Zval =  6.0
     Generated using "atomic" code by A. Dal Corso  v.5.0.99 svn rev. 10869
     Shape of augmentation charge: BESSEL
     Using radial grid of 1095 points,  4 beta functions with: 
                l(1) =   0
                l(2) =   0
                l(3) =   1
                l(4) =   1
     Q(r) pseudized with 0 coefficients 


     PseudoPot. # 4 for P  read from file:
     /opt/QEpot/SSSP_precision_pseudos/P.pbe-n-rrkjus_psl.1.0.0.UPF
     MD5 check sum: 8b930f418f0a4573dca56cd030ffe088
     Pseudo is Ultrasoft + core correction, Zval =  5.0
     Generated using "atomic" code by A. Dal Corso  v.5.1
     Using radial grid of 1147 points,  6 beta functions with: 
                l(1) =   0
                l(2) =   0
                l(3) =   1
                l(4) =   1
                l(5) =   2
                l(6) =   2
     Q(r) pseudized with 0 coefficients 


     atomic species   valence    mass     pseudopotential
        Fe            16.00    55.84500     Fe( 1.00)
        Na             9.00    22.98977     Na( 1.00)
        O              6.00    15.99940     O ( 1.00)
        P              5.00    30.97376     P ( 1.00)

     Starting magnetic structure 
     atomic species   magnetization
        Fe           0.312
        Na           0.000
        O            0.000
        P            0.000

      2 Sym. Ops. (no inversion) found ( 1 have fractional translation)


                                    s                        frac. trans.

      isym =  1     identity                                     

 cryst.   s( 1) = (     1          0          0      )
                  (     0          1          0      )
                  (     0          0          1      )

 cart.    s( 1) = (  1.0000000  0.0000000  0.0000000 )
                  (  0.0000000  1.0000000  0.0000000 )
                  (  0.0000000  0.0000000  1.0000000 )


      isym =  2     inv. 180 deg rotation - cart. axis [0,1,0]   

 cryst.   s( 2) = (     1          0          0      )    f =(  0.0000000 )
                  (     0         -1          0      )       (  0.4999980 )
                  (     0          0          1      )       (  0.0000000 )

 cart.    s( 2) = (  1.0000000  0.0000000  0.0000000 )    f =(  0.0000000 )
                  (  0.0000000 -1.0000000  0.0000000 )       (  0.3038581 )
                  (  0.0000000  0.0000000  1.0000000 )       (  0.0000000 )


   Cartesian axes

     site n.     atom                  positions (alat units)
         1           Na  tau(   1) = (   0.5574590   0.1519302   0.2153103  )
         2           Fe  tau(   2) = (   0.2771150   0.4557920   0.4792708  )
         3           Fe  tau(   3) = (   0.2107060   0.1519290   0.2371034  )
         4           Fe  tau(   4) = (   0.7302140   0.1519296   0.0000517  )
         5           Fe  tau(   5) = (   0.7810190   0.4557926   0.2487401  )
         6           P   tau(   6) = (   0.1051510   0.4557907   0.2145900  )
         7           P   tau(   7) = (   0.3871250   0.1519309   0.4551761  )
         8           P   tau(   8) = (   0.8922730   0.1519309   0.2690907  )
         9           P   tau(   9) = (   0.6039150   0.4557907   0.0319622  )
        10           O   tau(  10) = (   0.1313210   0.4557914   0.3629850  )
        11           O   tau(  11) = (   0.3628270   0.1519302   0.1206551  )
        12           O   tau(  12) = (   0.8714480   0.1519302   0.1200987  )
        13           O   tau(  13) = (   0.6323650   0.4557914   0.3674862  )
        14           O   tau(  14) = (   0.4574600   0.4557914   0.0577900  )
        15           O   tau(  15) = (   0.0361810   0.1519302   0.3033139  )
        16           O   tau(  16) = (   0.5358400   0.1519296   0.4331436  )
        17           O   tau(  17) = (   0.9582930   0.4557914   0.1891319  )
        18           O   tau(  18) = (   0.1741600   0.5744557   0.1448263  )
        19           O   tau(  19) = (   0.3208130   0.0334731   0.3844291  )
        20           O   tau(  20) = (   0.8175190   0.2691300   0.3362497  )
        21           O   tau(  21) = (   0.6721860   0.3363923   0.1030166  )
        22           O   tau(  22) = (   0.8175190   0.0347317   0.3362502  )
        23           O   tau(  23) = (   0.6721870   0.5751892   0.1030176  )
        24           O   tau(  24) = (   0.1741600   0.3371258   0.1448263  )
        25           O   tau(  25) = (   0.3208140   0.2703886   0.3844300  )

   Crystallographic axes

     site n.     atom                  positions (cryst. coord.)
         1           Na  tau(   1) = (  0.5574590  0.2500010  0.4453780  )
         2           Fe  tau(   2) = (  0.2771150  0.7500050  0.9913910  )
         3           Fe  tau(   3) = (  0.2107060  0.2499990  0.4904580  )
         4           Fe  tau(   4) = (  0.7302140  0.2500000  0.0001070  )
         5           Fe  tau(   5) = (  0.7810190  0.7500060  0.5145290  )
         6           P   tau(   6) = (  0.1051510  0.7500030  0.4438880  )
         7           P   tau(   7) = (  0.3871250  0.2500020  0.9415500  )
         8           P   tau(   8) = (  0.8922730  0.2500020  0.5566250  )
         9           P   tau(   9) = (  0.6039150  0.7500030  0.0661150  )
        10           O   tau(  10) = (  0.1313210  0.7500040  0.7508490  )
        11           O   tau(  11) = (  0.3628270  0.2500010  0.2495800  )
        12           O   tau(  12) = (  0.8714480  0.2500010  0.2484290  )
        13           O   tau(  13) = (  0.6323650  0.7500040  0.7601600  )
        14           O   tau(  14) = (  0.4574600  0.7500040  0.1195410  )
        15           O   tau(  15) = (  0.0361810  0.2500010  0.6274170  )
        16           O   tau(  16) = (  0.5358400  0.2500000  0.8959750  )
        17           O   tau(  17) = (  0.9582930  0.7500040  0.3912270  )
        18           O   tau(  18) = (  0.1741600  0.9452660  0.2995790  )
        19           O   tau(  19) = (  0.3208130  0.0550800  0.7952070  )
        20           O   tau(  20) = (  0.8175190  0.4428530  0.6955460  )
        21           O   tau(  21) = (  0.6721860  0.5535330  0.2130940  )
        22           O   tau(  22) = (  0.8175190  0.0571510  0.6955470  )
        23           O   tau(  23) = (  0.6721870  0.9464730  0.2130960  )
        24           O   tau(  24) = (  0.1741600  0.5547400  0.2995790  )
        25           O   tau(  25) = (  0.3208140  0.4449240  0.7952090  )

     number of k points=    92  Marzari-Vanderbilt smearing, width (Ry)=  0.0073
                       cart. coord. in units 2pi/alat
        k(    1) = (   0.0000000   0.0000000   0.0000000), wk =   0.0031746
        k(    2) = (   0.0000000   0.0000000   0.2298378), wk =   0.0063492
        k(    3) = (   0.0000000   0.0000000   0.4596756), wk =   0.0063492
        k(    4) = (   0.0000000   0.0000000   0.6895134), wk =   0.0063492
        k(    5) = (   0.0000000   0.0000000   0.9193512), wk =   0.0063492
        k(    6) = (   0.0000000   0.2350712   0.0000000), wk =   0.0063492
        k(    7) = (   0.0000000   0.2350712   0.2298378), wk =   0.0126984
        k(    8) = (   0.0000000   0.2350712   0.4596756), wk =   0.0126984
        k(    9) = (   0.0000000   0.2350712   0.6895134), wk =   0.0126984
        k(   10) = (   0.0000000   0.2350712   0.9193512), wk =   0.0126984
        k(   11) = (   0.0000000   0.4701424   0.0000000), wk =   0.0063492
        k(   12) = (   0.0000000   0.4701424   0.2298378), wk =   0.0126984
        k(   13) = (   0.0000000   0.4701424   0.4596756), wk =   0.0126984
        k(   14) = (   0.0000000   0.4701424   0.6895134), wk =   0.0126984
        k(   15) = (   0.0000000   0.4701424   0.9193512), wk =   0.0126984
        k(   16) = (   0.0000000   0.7052137   0.0000000), wk =   0.0063492
        k(   17) = (   0.0000000   0.7052137   0.2298378), wk =   0.0126984
        k(   18) = (   0.0000000   0.7052137   0.4596756), wk =   0.0126984
        k(   19) = (   0.0000000   0.7052137   0.6895134), wk =   0.0126984
        k(   20) = (   0.0000000   0.7052137   0.9193512), wk =   0.0126984
        k(   21) = (   0.2000000   0.0000000   0.0000000), wk =   0.0063492
        k(   22) = (   0.2000000   0.0000000   0.2298378), wk =   0.0063492
        k(   23) = (   0.2000000   0.0000000   0.4596756), wk =   0.0063492
        k(   24) = (   0.2000000   0.0000000   0.6895134), wk =   0.0063492
        k(   25) = (   0.2000000   0.0000000   0.9193512), wk =   0.0063492
        k(   26) = (   0.2000000   0.2350712   0.0000000), wk =   0.0126984
        k(   27) = (   0.2000000   0.2350712   0.2298378), wk =   0.0126984
        k(   28) = (   0.2000000   0.2350712   0.4596756), wk =   0.0126984
        k(   29) = (   0.2000000   0.2350712   0.6895134), wk =   0.0126984
        k(   30) = (   0.2000000   0.2350712   0.9193512), wk =   0.0126984
        k(   31) = (   0.2000000   0.4701424   0.0000000), wk =   0.0126984
        k(   32) = (   0.2000000   0.4701424   0.2298378), wk =   0.0126984
        k(   33) = (   0.2000000   0.4701424   0.4596756), wk =   0.0126984
        k(   34) = (   0.2000000   0.4701424   0.6895134), wk =   0.0126984
        k(   35) = (   0.2000000   0.4701424   0.9193512), wk =   0.0126984
        k(   36) = (   0.2000000   0.7052137   0.0000000), wk =   0.0126984
        k(   37) = (   0.2000000   0.7052137   0.2298378), wk =   0.0126984
        k(   38) = (   0.2000000   0.7052137   0.4596756), wk =   0.0126984
        k(   39) = (   0.2000000   0.7052137   0.6895134), wk =   0.0126984
        k(   40) = (   0.2000000   0.7052137   0.9193512), wk =   0.0126984
        k(   41) = (   0.4000000   0.0000000   0.0000000), wk =   0.0063492
        k(   42) = (   0.4000000   0.0000000   0.2298378), wk =   0.0063492
        k(   43) = (   0.4000000   0.0000000   0.4596756), wk =   0.0063492
        k(   44) = (   0.4000000   0.0000000   0.6895134), wk =   0.0063492
        k(   45) = (   0.4000000   0.0000000   0.9193512), wk =   0.0063492
        k(   46) = (   0.4000000   0.2350712   0.0000000), wk =   0.0126984
        k(   47) = (   0.4000000   0.2350712   0.2298378), wk =   0.0126984
        k(   48) = (   0.4000000   0.2350712   0.4596756), wk =   0.0126984
        k(   49) = (   0.4000000   0.2350712   0.6895134), wk =   0.0126984
        k(   50) = (   0.4000000   0.2350712   0.9193512), wk =   0.0126984
        k(   51) = (   0.4000000   0.4701424   0.0000000), wk =   0.0126984
        k(   52) = (   0.4000000   0.4701424   0.2298378), wk =   0.0126984
        k(   53) = (   0.4000000   0.4701424   0.4596756), wk =   0.0126984
        k(   54) = (   0.4000000   0.4701424   0.6895134), wk =   0.0126984
        k(   55) = (   0.4000000   0.4701424   0.9193512), wk =   0.0126984
        k(   56) = (   0.4000000   0.7052137   0.0000000), wk =   0.0126984
        k(   57) = (   0.4000000   0.7052137   0.2298378), wk =   0.0126984
        k(   58) = (   0.4000000   0.7052137   0.4596756), wk =   0.0126984
        k(   59) = (   0.4000000   0.7052137   0.6895134), wk =   0.0126984
        k(   60) = (   0.4000000   0.7052137   0.9193512), wk =   0.0126984
        k(   61) = (   0.2000000   0.0000000  -0.2298378), wk =   0.0063492
        k(   62) = (   0.2000000   0.0000000  -0.4596756), wk =   0.0063492
        k(   63) = (   0.2000000   0.0000000  -0.6895134), wk =   0.0063492
        k(   64) = (   0.2000000   0.0000000  -0.9193512), wk =   0.0063492
        k(   65) = (   0.2000000  -0.2350712  -0.2298378), wk =   0.0126984
        k(   66) = (   0.2000000  -0.2350712  -0.4596756), wk =   0.0126984
        k(   67) = (   0.2000000  -0.2350712  -0.6895134), wk =   0.0126984
        k(   68) = (   0.2000000  -0.2350712  -0.9193512), wk =   0.0126984
        k(   69) = (   0.2000000  -0.4701424  -0.2298378), wk =   0.0126984
        k(   70) = (   0.2000000  -0.4701424  -0.4596756), wk =   0.0126984
        k(   71) = (   0.2000000  -0.4701424  -0.6895134), wk =   0.0126984
        k(   72) = (   0.2000000  -0.4701424  -0.9193512), wk =   0.0126984
        k(   73) = (   0.2000000  -0.7052137  -0.2298378), wk =   0.0126984
        k(   74) = (   0.2000000  -0.7052137  -0.4596756), wk =   0.0126984
        k(   75) = (   0.2000000  -0.7052137  -0.6895134), wk =   0.0126984
        k(   76) = (   0.2000000  -0.7052137  -0.9193512), wk =   0.0126984
        k(   77) = (   0.4000000   0.0000000  -0.2298378), wk =   0.0063492
        k(   78) = (   0.4000000   0.0000000  -0.4596756), wk =   0.0063492
        k(   79) = (   0.4000000   0.0000000  -0.6895134), wk =   0.0063492
        k(   80) = (   0.4000000   0.0000000  -0.9193512), wk =   0.0063492
        k(   81) = (   0.4000000  -0.2350712  -0.2298378), wk =   0.0126984
        k(   82) = (   0.4000000  -0.2350712  -0.4596756), wk =   0.0126984
        k(   83) = (   0.4000000  -0.2350712  -0.6895134), wk =   0.0126984
        k(   84) = (   0.4000000  -0.2350712  -0.9193512), wk =   0.0126984
        k(   85) = (   0.4000000  -0.4701424  -0.2298378), wk =   0.0126984
        k(   86) = (   0.4000000  -0.4701424  -0.4596756), wk =   0.0126984
        k(   87) = (   0.4000000  -0.4701424  -0.6895134), wk =   0.0126984
        k(   88) = (   0.4000000  -0.4701424  -0.9193512), wk =   0.0126984
        k(   89) = (   0.4000000  -0.7052137  -0.2298378), wk =   0.0126984
        k(   90) = (   0.4000000  -0.7052137  -0.4596756), wk =   0.0126984
        k(   91) = (   0.4000000  -0.7052137  -0.6895134), wk =   0.0126984
        k(   92) = (   0.4000000  -0.7052137  -0.9193512), wk =   0.0126984

                       cryst. coord.
        k(    1) = (   0.0000000   0.0000000   0.0000000), wk =   0.0031746
        k(    2) = (   0.0000000   0.0000000   0.1111111), wk =   0.0063492
        k(    3) = (   0.0000000   0.0000000   0.2222222), wk =   0.0063492
        k(    4) = (   0.0000000   0.0000000   0.3333333), wk =   0.0063492
        k(    5) = (   0.0000000   0.0000000   0.4444444), wk =   0.0063492
        k(    6) = (   0.0000000   0.1428571   0.0000000), wk =   0.0063492
        k(    7) = (   0.0000000   0.1428571   0.1111111), wk =   0.0126984
        k(    8) = (   0.0000000   0.1428571   0.2222222), wk =   0.0126984
        k(    9) = (   0.0000000   0.1428571   0.3333333), wk =   0.0126984
        k(   10) = (   0.0000000   0.1428571   0.4444444), wk =   0.0126984
        k(   11) = (   0.0000000   0.2857143   0.0000000), wk =   0.0063492
        k(   12) = (   0.0000000   0.2857143   0.1111111), wk =   0.0126984
        k(   13) = (   0.0000000   0.2857143   0.2222222), wk =   0.0126984
        k(   14) = (   0.0000000   0.2857143   0.3333333), wk =   0.0126984
        k(   15) = (   0.0000000   0.2857143   0.4444444), wk =   0.0126984
        k(   16) = (   0.0000000   0.4285714   0.0000000), wk =   0.0063492
        k(   17) = (   0.0000000   0.4285714   0.1111111), wk =   0.0126984
        k(   18) = (   0.0000000   0.4285714   0.2222222), wk =   0.0126984
        k(   19) = (   0.0000000   0.4285714   0.3333333), wk =   0.0126984
        k(   20) = (   0.0000000   0.4285714   0.4444444), wk =   0.0126984
        k(   21) = (   0.2000000   0.0000000   0.0000000), wk =   0.0063492
        k(   22) = (   0.2000000   0.0000000   0.1111111), wk =   0.0063492
        k(   23) = (   0.2000000   0.0000000   0.2222222), wk =   0.0063492
        k(   24) = (   0.2000000   0.0000000   0.3333333), wk =   0.0063492
        k(   25) = (   0.2000000   0.0000000   0.4444444), wk =   0.0063492
        k(   26) = (   0.2000000   0.1428571   0.0000000), wk =   0.0126984
        k(   27) = (   0.2000000   0.1428571   0.1111111), wk =   0.0126984
        k(   28) = (   0.2000000   0.1428571   0.2222222), wk =   0.0126984
        k(   29) = (   0.2000000   0.1428571   0.3333333), wk =   0.0126984
        k(   30) = (   0.2000000   0.1428571   0.4444444), wk =   0.0126984
        k(   31) = (   0.2000000   0.2857143   0.0000000), wk =   0.0126984
        k(   32) = (   0.2000000   0.2857143   0.1111111), wk =   0.0126984
        k(   33) = (   0.2000000   0.2857143   0.2222222), wk =   0.0126984
        k(   34) = (   0.2000000   0.2857143   0.3333333), wk =   0.0126984
        k(   35) = (   0.2000000   0.2857143   0.4444444), wk =   0.0126984
        k(   36) = (   0.2000000   0.4285714   0.0000000), wk =   0.0126984
        k(   37) = (   0.2000000   0.4285714   0.1111111), wk =   0.0126984
        k(   38) = (   0.2000000   0.4285714   0.2222222), wk =   0.0126984
        k(   39) = (   0.2000000   0.4285714   0.3333333), wk =   0.0126984
        k(   40) = (   0.2000000   0.4285714   0.4444444), wk =   0.0126984
        k(   41) = (   0.4000000   0.0000000   0.0000000), wk =   0.0063492
        k(   42) = (   0.4000000   0.0000000   0.1111111), wk =   0.0063492
        k(   43) = (   0.4000000   0.0000000   0.2222222), wk =   0.0063492
        k(   44) = (   0.4000000   0.0000000   0.3333333), wk =   0.0063492
        k(   45) = (   0.4000000   0.0000000   0.4444444), wk =   0.0063492
        k(   46) = (   0.4000000   0.1428571   0.0000000), wk =   0.0126984
        k(   47) = (   0.4000000   0.1428571   0.1111111), wk =   0.0126984
        k(   48) = (   0.4000000   0.1428571   0.2222222), wk =   0.0126984
        k(   49) = (   0.4000000   0.1428571   0.3333333), wk =   0.0126984
        k(   50) = (   0.4000000   0.1428571   0.4444444), wk =   0.0126984
        k(   51) = (   0.4000000   0.2857143   0.0000000), wk =   0.0126984
        k(   52) = (   0.4000000   0.2857143   0.1111111), wk =   0.0126984
        k(   53) = (   0.4000000   0.2857143   0.2222222), wk =   0.0126984
        k(   54) = (   0.4000000   0.2857143   0.3333333), wk =   0.0126984
        k(   55) = (   0.4000000   0.2857143   0.4444444), wk =   0.0126984
        k(   56) = (   0.4000000   0.4285714   0.0000000), wk =   0.0126984
        k(   57) = (   0.4000000   0.4285714   0.1111111), wk =   0.0126984
        k(   58) = (   0.4000000   0.4285714   0.2222222), wk =   0.0126984
        k(   59) = (   0.4000000   0.4285714   0.3333333), wk =   0.0126984
        k(   60) = (   0.4000000   0.4285714   0.4444444), wk =   0.0126984
        k(   61) = (   0.2000000   0.0000000  -0.1111111), wk =   0.0063492
        k(   62) = (   0.2000000   0.0000000  -0.2222222), wk =   0.0063492
        k(   63) = (   0.2000000   0.0000000  -0.3333333), wk =   0.0063492
        k(   64) = (   0.2000000   0.0000000  -0.4444444), wk =   0.0063492
        k(   65) = (   0.2000000  -0.1428571  -0.1111111), wk =   0.0126984
        k(   66) = (   0.2000000  -0.1428571  -0.2222222), wk =   0.0126984
        k(   67) = (   0.2000000  -0.1428571  -0.3333333), wk =   0.0126984
        k(   68) = (   0.2000000  -0.1428571  -0.4444444), wk =   0.0126984
        k(   69) = (   0.2000000  -0.2857143  -0.1111111), wk =   0.0126984
        k(   70) = (   0.2000000  -0.2857143  -0.2222222), wk =   0.0126984
        k(   71) = (   0.2000000  -0.2857143  -0.3333333), wk =   0.0126984
        k(   72) = (   0.2000000  -0.2857143  -0.4444444), wk =   0.0126984
        k(   73) = (   0.2000000  -0.4285714  -0.1111111), wk =   0.0126984
        k(   74) = (   0.2000000  -0.4285714  -0.2222222), wk =   0.0126984
        k(   75) = (   0.2000000  -0.4285714  -0.3333333), wk =   0.0126984
        k(   76) = (   0.2000000  -0.4285714  -0.4444444), wk =   0.0126984
        k(   77) = (   0.4000000   0.0000000  -0.1111111), wk =   0.0063492
        k(   78) = (   0.4000000   0.0000000  -0.2222222), wk =   0.0063492
        k(   79) = (   0.4000000   0.0000000  -0.3333333), wk =   0.0063492
        k(   80) = (   0.4000000   0.0000000  -0.4444444), wk =   0.0063492
        k(   81) = (   0.4000000  -0.1428571  -0.1111111), wk =   0.0126984
        k(   82) = (   0.4000000  -0.1428571  -0.2222222), wk =   0.0126984
        k(   83) = (   0.4000000  -0.1428571  -0.3333333), wk =   0.0126984
        k(   84) = (   0.4000000  -0.1428571  -0.4444444), wk =   0.0126984
        k(   85) = (   0.4000000  -0.2857143  -0.1111111), wk =   0.0126984
        k(   86) = (   0.4000000  -0.2857143  -0.2222222), wk =   0.0126984
        k(   87) = (   0.4000000  -0.2857143  -0.3333333), wk =   0.0126984
        k(   88) = (   0.4000000  -0.2857143  -0.4444444), wk =   0.0126984
        k(   89) = (   0.4000000  -0.4285714  -0.1111111), wk =   0.0126984
        k(   90) = (   0.4000000  -0.4285714  -0.2222222), wk =   0.0126984
        k(   91) = (   0.4000000  -0.4285714  -0.3333333), wk =   0.0126984
        k(   92) = (   0.4000000  -0.4285714  -0.4444444), wk =   0.0126984

     Dense  grid:  1273469 G-vectors     FFT dimensions: ( 216, 128, 100)

     Smooth grid:   287059 G-vectors     FFT dimensions: ( 125,  80,  60)

     Dynamical RAM for                 wfc:       2.60 MB

     Dynamical RAM for     wfc (w. buffer):     480.78 MB

     Dynamical RAM for           str. fact:       3.24 MB

     Dynamical RAM for           local pot:       0.00 MB

     Dynamical RAM for          nlocal pot:       6.38 MB

     Dynamical RAM for                qrad:      10.54 MB

     Dynamical RAM for          rho,v,vnew:      11.19 MB

     Dynamical RAM for               rhoin:       3.73 MB

     Dynamical RAM for            rho*nmix:      25.91 MB

     Dynamical RAM for           G-vectors:       3.13 MB

     Dynamical RAM for          h,s,v(r/c):       2.38 MB

     Dynamical RAM for          <psi|beta>:       0.49 MB

     Dynamical RAM for                 psi:       5.20 MB

     Dynamical RAM for                hpsi:       5.20 MB

     Dynamical RAM for                spsi:       5.20 MB

     Dynamical RAM for      wfcinit/wfcrot:       6.68 MB

     Dynamical RAM for           addusdens:     164.36 MB

     Dynamical RAM for          addusforce:     188.78 MB

     Dynamical RAM for         addusstress:     163.96 MB

     Estimated static dynamical RAM per process >     555.27 MB

     Estimated max dynamical RAM per process >     744.05 MB

     Estimated total dynamical RAM >      17.44 GB

     Check: negative core charge=   -0.000003
     Generating pointlists ...
     new r_m :   0.0765 (alat units)  1.4785 (a.u.) for type    1
     new r_m :   0.0893 (alat units)  1.7264 (a.u.) for type    2
     new r_m :   0.0610 (alat units)  1.1799 (a.u.) for type    3
     new r_m :   0.0610 (alat units)  1.1799 (a.u.) for type    4

     Initial potential from superposition of free atoms

     starting charge  188.99132, renormalised to  189.00000
     Starting wfcs are  137 randomized atomic wfcs
     Checking if some PAW data can be deallocated... 
       PAW data deallocated on   20 nodes for type:  1
       PAW data deallocated on    8 nodes for type:  3

     total cpu time spent up to now is      120.7 secs

     Self-consistent Calculation

     iteration #  1     ecut=   100.00 Ry     beta= 0.40
     Davidson diagonalization with overlap
     ethr =  1.00E-02,  avg # of iterations =  3.0

     negative rho (up, down):  0.000E+00 1.299E-04

     total cpu time spent up to now is      492.9 secs

     total energy              =   -2123.89389518 Ry
     estimated scf accuracy    <       7.01363362 Ry

     total magnetization       =    19.00 Bohr mag/cell
     absolute magnetization    =    19.01 Bohr mag/cell

     iteration #  2     ecut=   100.00 Ry     beta= 0.40
     Davidson diagonalization with overlap
     ethr =  3.71E-03,  avg # of iterations =  2.0

     negative rho (up, down):  0.000E+00 6.922E-05

     total cpu time spent up to now is      824.1 secs

     total energy              =   -2120.56591354 Ry
     estimated scf accuracy    <      48.03744032 Ry

     total magnetization       =     6.76 Bohr mag/cell
     absolute magnetization    =     8.13 Bohr mag/cell

     iteration #  3     ecut=   100.00 Ry     beta= 0.40
     Davidson diagonalization with overlap
     ethr =  3.71E-03,  avg # of iterations =  2.9

     negative rho (up, down):  0.000E+00 5.127E-05

     total cpu time spent up to now is     1121.3 secs

     total energy              =   -2123.44101568 Ry
     estimated scf accuracy    <      56.70463978 Ry

     total magnetization       =     3.96 Bohr mag/cell
     absolute magnetization    =     7.93 Bohr mag/cell

     iteration #  4     ecut=   100.00 Ry     beta= 0.40
     Davidson diagonalization with overlap
     ethr =  3.71E-03,  avg # of iterations =  1.6

     negative rho (up, down):  0.000E+00 4.715E-05

     total cpu time spent up to now is     1380.5 secs

     total energy              =   -2124.62030690 Ry
     estimated scf accuracy    <      29.45573974 Ry

     total magnetization       =     9.00 Bohr mag/cell
     absolute magnetization    =     9.32 Bohr mag/cell

     iteration #  5     ecut=   100.00 Ry     beta= 0.40
     Davidson diagonalization with overlap
     ethr =  3.71E-03,  avg # of iterations =  2.0

     negative rho (up, down):  0.000E+00 1.462E-04

     total cpu time spent up to now is     1660.9 secs

     total energy              =   -2126.00010922 Ry
     estimated scf accuracy    <       1.85514147 Ry

     total magnetization       =    19.00 Bohr mag/cell
     absolute magnetization    =    19.00 Bohr mag/cell

     iteration #  6     ecut=   100.00 Ry     beta= 0.40
     Davidson diagonalization with overlap
     ethr =  9.82E-04,  avg # of iterations =  2.0

     negative rho (up, down):  0.000E+00 2.545E-04

     total cpu time spent up to now is     1940.8 secs

     total energy              =   -2126.09564342 Ry
     estimated scf accuracy    <       0.61703011 Ry

     total magnetization       =    19.00 Bohr mag/cell
     absolute magnetization    =    19.00 Bohr mag/cell

     iteration #  7     ecut=   100.00 Ry     beta= 0.40
     Davidson diagonalization with overlap
     ethr =  3.26E-04,  avg # of iterations =  1.8

     negative rho (up, down):  0.000E+00 3.816E-04

     total cpu time spent up to now is     2199.0 secs

     total energy              =   -2126.10249939 Ry
     estimated scf accuracy    <       0.21919596 Ry

     total magnetization       =    19.00 Bohr mag/cell
     absolute magnetization    =    19.00 Bohr mag/cell

     iteration #  8     ecut=   100.00 Ry     beta= 0.40
     Davidson diagonalization with overlap
     c_bands:  1 eigenvalues not converged
     c_bands:  1 eigenvalues not converged
     c_bands:  1 eigenvalues not converged
     c_bands:  1 eigenvalues not converged
     c_bands:  1 eigenvalues not converged
     ethr =  1.16E-04,  avg # of iterations = 11.2

     negative rho (up, down):  0.000E+00 5.023E-04

     total cpu time spent up to now is     2631.4 secs

     total energy              =   -2126.09708043 Ry
     estimated scf accuracy    <       0.29687983 Ry

     total magnetization       =    19.00 Bohr mag/cell
     absolute magnetization    =    19.01 Bohr mag/cell

     iteration #  9     ecut=   100.00 Ry     beta= 0.40
     Davidson diagonalization with overlap
     ethr =  1.16E-04,  avg # of iterations =  1.6

     negative rho (up, down):  0.000E+00 6.912E-04

     total cpu time spent up to now is     2883.3 secs

     total energy              =   -2126.11821413 Ry
     estimated scf accuracy    <       0.12661886 Ry

     total magnetization       =    19.00 Bohr mag/cell
     absolute magnetization    =    19.01 Bohr mag/cell

     iteration # 10     ecut=   100.00 Ry     beta= 0.40
     Davidson diagonalization with overlap
     ethr =  6.70E-05,  avg # of iterations =  2.2

     negative rho (up, down):  0.000E+00 7.035E-04

     total cpu time spent up to now is     3147.4 secs

     total energy              =   -2126.12245783 Ry
     estimated scf accuracy    <       0.09730869 Ry

     total magnetization       =    19.00 Bohr mag/cell
     absolute magnetization    =    19.02 Bohr mag/cell

     iteration # 11     ecut=   100.00 Ry     beta= 0.40
     Davidson diagonalization with overlap
     ethr =  5.15E-05,  avg # of iterations =  1.8

     negative rho (up, down):  0.000E+00 8.075E-04

     total cpu time spent up to now is     3397.4 secs

     total energy              =   -2126.12671472 Ry
     estimated scf accuracy    <       0.02771612 Ry

     total magnetization       =    19.00 Bohr mag/cell
     absolute magnetization    =    19.02 Bohr mag/cell

     iteration # 12     ecut=   100.00 Ry     beta= 0.40
     Davidson diagonalization with overlap
     c_bands:  1 eigenvalues not converged
     c_bands:  1 eigenvalues not converged
     c_bands:  1 eigenvalues not converged
     c_bands:  2 eigenvalues not converged
     c_bands:  1 eigenvalues not converged
     c_bands:  1 eigenvalues not converged
     ethr =  1.47E-05,  avg # of iterations = 10.0

     negative rho (up, down):  0.000E+00 8.327E-04

     total cpu time spent up to now is     3823.2 secs

     total energy              =   -2126.12716334 Ry
     estimated scf accuracy    <       0.01567054 Ry

     total magnetization       =    19.00 Bohr mag/cell
     absolute magnetization    =    19.03 Bohr mag/cell

     iteration # 13     ecut=   100.00 Ry     beta= 0.40
     Davidson diagonalization with overlap
     ethr =  8.29E-06,  avg # of iterations =  4.9

     negative rho (up, down):  0.000E+00 8.336E-04

     total cpu time spent up to now is     4129.0 secs

     total energy              =   -2126.12818631 Ry
     estimated scf accuracy    <       0.00608949 Ry

     total magnetization       =    19.00 Bohr mag/cell
     absolute magnetization    =    19.04 Bohr mag/cell

     iteration # 14     ecut=   100.00 Ry     beta= 0.40
     Davidson diagonalization with overlap
     c_bands:  1 eigenvalues not converged
     c_bands:  1 eigenvalues not converged
     c_bands:  1 eigenvalues not converged
     c_bands:  1 eigenvalues not converged
     c_bands:  1 eigenvalues not converged
     ethr =  3.22E-06,  avg # of iterations =  6.9

     negative rho (up, down):  0.000E+00 8.383E-04

     total cpu time spent up to now is     4490.3 secs

     total energy              =   -2126.12848677 Ry
     estimated scf accuracy    <       0.00420272 Ry

     total magnetization       =    19.00 Bohr mag/cell
     absolute magnetization    =    19.04 Bohr mag/cell

     iteration # 15     ecut=   100.00 Ry     beta= 0.40
     Davidson diagonalization with overlap
     ethr =  2.22E-06,  avg # of iterations =  1.9

     negative rho (up, down):  0.000E+00 8.382E-04

     total cpu time spent up to now is     4745.9 secs

     total energy              =   -2126.12868438 Ry
     estimated scf accuracy    <       0.00048764 Ry

     total magnetization       =    19.00 Bohr mag/cell
     absolute magnetization    =    19.04 Bohr mag/cell

     iteration # 16     ecut=   100.00 Ry     beta= 0.40
     Davidson diagonalization with overlap
     ethr =  2.58E-07,  avg # of iterations =  5.0

     negative rho (up, down):  0.000E+00 8.306E-04

     total cpu time spent up to now is     5216.6 secs

     total energy              =   -2126.12891446 Ry
     estimated scf accuracy    <       0.00014359 Ry

     total magnetization       =    19.00 Bohr mag/cell
     absolute magnetization    =    19.05 Bohr mag/cell

     iteration # 17     ecut=   100.00 Ry     beta= 0.40
     Davidson diagonalization with overlap
     ethr =  7.60E-08,  avg # of iterations =  1.0

     negative rho (up, down):  0.000E+00 8.241E-04

     total cpu time spent up to now is     5451.5 secs

     total energy              =   -2126.12892116 Ry
     estimated scf accuracy    <       0.00003287 Ry

     total magnetization       =    19.00 Bohr mag/cell
     absolute magnetization    =    19.05 Bohr mag/cell

     iteration # 18     ecut=   100.00 Ry     beta= 0.40
     Davidson diagonalization with overlap
     ethr =  1.74E-08,  avg # of iterations =  1.8

     negative rho (up, down):  0.000E+00 8.221E-04

     total cpu time spent up to now is     5719.5 secs

     total energy              =   -2126.12892612 Ry
     estimated scf accuracy    <       0.00001842 Ry

     total magnetization       =    19.00 Bohr mag/cell
     absolute magnetization    =    19.05 Bohr mag/cell

     iteration # 19     ecut=   100.00 Ry     beta= 0.40
     Davidson diagonalization with overlap
     ethr =  9.75E-09,  avg # of iterations =  1.5

     negative rho (up, down):  0.000E+00 8.205E-04

     total cpu time spent up to now is     5972.4 secs

     total energy              =   -2126.12892746 Ry
     estimated scf accuracy    <       0.00000837 Ry

     total magnetization       =    19.00 Bohr mag/cell
     absolute magnetization    =    19.05 Bohr mag/cell

     iteration # 20     ecut=   100.00 Ry     beta= 0.40
     Davidson diagonalization with overlap
     ethr =  4.43E-09,  avg # of iterations =  3.0

     negative rho (up, down):  0.000E+00 8.207E-04

     total cpu time spent up to now is     6266.5 secs

     total energy              =   -2126.12892856 Ry
     estimated scf accuracy    <       0.00000052 Ry

     total magnetization       =    19.00 Bohr mag/cell
     absolute magnetization    =    19.05 Bohr mag/cell

     iteration # 21     ecut=   100.00 Ry     beta= 0.40
     Davidson diagonalization with overlap
     ethr =  2.76E-10,  avg # of iterations =  6.5

     negative rho (up, down):  0.000E+00 8.209E-04

     total cpu time spent up to now is     6914.1 secs

     total energy              =   -2126.12892930 Ry
     estimated scf accuracy    <       0.00000034 Ry

     total magnetization       =    19.00 Bohr mag/cell
     absolute magnetization    =    19.05 Bohr mag/cell

     iteration # 22     ecut=   100.00 Ry     beta= 0.40
     Davidson diagonalization with overlap
     ethr =  1.82E-10,  avg # of iterations =  2.0

     negative rho (up, down):  0.000E+00 8.214E-04

     total cpu time spent up to now is     7185.7 secs

     total energy              =   -2126.12892935 Ry
     estimated scf accuracy    <       0.00000018 Ry

     total magnetization       =    19.00 Bohr mag/cell
     absolute magnetization    =    19.05 Bohr mag/cell

     iteration # 23     ecut=   100.00 Ry     beta= 0.40
     Davidson diagonalization with overlap
     ethr =  9.47E-11,  avg # of iterations =  2.0

     negative rho (up, down):  0.000E+00 8.217E-04

     total cpu time spent up to now is     7471.1 secs

     total energy              =   -2126.12892939 Ry
     estimated scf accuracy    <       0.00000006 Ry

     total magnetization       =    19.00 Bohr mag/cell
     absolute magnetization    =    19.05 Bohr mag/cell

     iteration # 24     ecut=   100.00 Ry     beta= 0.40
     Davidson diagonalization with overlap
     ethr =  3.35E-11,  avg # of iterations =  2.0

     negative rho (up, down):  0.000E+00 8.219E-04

     total cpu time spent up to now is     7752.1 secs

     total energy              =   -2126.12892940 Ry
     estimated scf accuracy    <       0.00000013 Ry

     total magnetization       =    19.00 Bohr mag/cell
     absolute magnetization    =    19.05 Bohr mag/cell

     iteration # 25     ecut=   100.00 Ry     beta= 0.40
     Davidson diagonalization with overlap
     ethr =  3.35E-11,  avg # of iterations =  1.0

     negative rho (up, down):  0.000E+00 8.219E-04

     total cpu time spent up to now is     7986.9 secs

     total energy              =   -2126.12892940 Ry
     estimated scf accuracy    <       0.00000002 Ry

     total magnetization       =    19.00 Bohr mag/cell
     absolute magnetization    =    19.05 Bohr mag/cell

     iteration # 26     ecut=   100.00 Ry     beta= 0.40
     Davidson diagonalization with overlap
     ethr =  1.26E-11,  avg # of iterations =  1.1

     negative rho (up, down):  0.000E+00 8.219E-04

     total cpu time spent up to now is     8223.8 secs

     total energy              =   -2126.12892941 Ry
     estimated scf accuracy    <          3.6E-09 Ry

     total magnetization       =    19.00 Bohr mag/cell
     absolute magnetization    =    19.05 Bohr mag/cell

     iteration # 27     ecut=   100.00 Ry     beta= 0.40
     Davidson diagonalization with overlap
     ethr =  1.89E-12,  avg # of iterations =  2.9

     negative rho (up, down):  0.000E+00 8.219E-04

     total cpu time spent up to now is     8538.7 secs

     total energy              =   -2126.12892941 Ry
     estimated scf accuracy    <          5.6E-09 Ry

     total magnetization       =    19.00 Bohr mag/cell
     absolute magnetization    =    19.05 Bohr mag/cell

     iteration # 28     ecut=   100.00 Ry     beta= 0.40
     Davidson diagonalization with overlap
     ethr =  1.89E-12,  avg # of iterations =  2.0

     negative rho (up, down):  0.000E+00 8.219E-04

     total cpu time spent up to now is     8826.3 secs

     total energy              =   -2126.12892941 Ry
     estimated scf accuracy    <          2.3E-09 Ry

     total magnetization       =    19.00 Bohr mag/cell
     absolute magnetization    =    19.05 Bohr mag/cell

     iteration # 29     ecut=   100.00 Ry     beta= 0.40
     Davidson diagonalization with overlap
     ethr =  1.20E-12,  avg # of iterations =  2.0

     negative rho (up, down):  0.000E+00 8.218E-04

     total cpu time spent up to now is     9113.2 secs

     total energy              =   -2126.12892941 Ry
     estimated scf accuracy    <          9.3E-10 Ry

     total magnetization       =    19.00 Bohr mag/cell
     absolute magnetization    =    19.05 Bohr mag/cell

     iteration # 30     ecut=   100.00 Ry     beta= 0.40
     Davidson diagonalization with overlap
     ethr =  4.93E-13,  avg # of iterations =  2.0

     negative rho (up, down):  0.000E+00 8.218E-04

     Magnetic moment per site:
     atom:    1    charge:    7.8893    magn:    0.0006    constr:    0.0000
     atom:    2    charge:   12.7943    magn:    3.6526    constr:    0.0000
     atom:    3    charge:   12.8005    magn:    3.6381    constr:    0.0000
     atom:    4    charge:   12.8444    magn:    3.5228    constr:    0.0000
     atom:    5    charge:   12.8014    magn:    3.6402    constr:    0.0000
     atom:    6    charge:    0.8051    magn:    0.0103    constr:    0.0000
     atom:    7    charge:    0.8082    magn:    0.0082    constr:    0.0000
     atom:    8    charge:    0.8087    magn:    0.0112    constr:    0.0000
     atom:    9    charge:    0.8029    magn:    0.0089    constr:    0.0000
     atom:   10    charge:    4.1823    magn:    0.1358    constr:    0.0000
     atom:   11    charge:    4.1983    magn:    0.0894    constr:    0.0000
     atom:   12    charge:    4.1854    magn:    0.1236    constr:    0.0000
     atom:   13    charge:    4.1812    magn:    0.1108    constr:    0.0000
     atom:   14    charge:    4.1930    magn:    0.1125    constr:    0.0000
     atom:   15    charge:    4.1999    magn:    0.1241    constr:    0.0000
     atom:   16    charge:    4.1946    magn:    0.0748    constr:    0.0000
     atom:   17    charge:    4.1937    magn:    0.1349    constr:    0.0000
     atom:   18    charge:    4.1542    magn:    0.1508    constr:    0.0000
     atom:   19    charge:    4.1583    magn:    0.1321    constr:    0.0000
     atom:   20    charge:    4.1621    magn:    0.1438    constr:    0.0000
     atom:   21    charge:    4.1543    magn:    0.1241    constr:    0.0000
     atom:   22    charge:    4.1621    magn:    0.1438    constr:    0.0000
     atom:   23    charge:    4.1543    magn:    0.1241    constr:    0.0000
     atom:   24    charge:    4.1542    magn:    0.1508    constr:    0.0000
     atom:   25    charge:    4.1583    magn:    0.1321    constr:    0.0000

     total cpu time spent up to now is     9398.2 secs

     End of self-consistent calculation

 ------ SPIN UP ------------


          k = 0.0000 0.0000 0.0000 ( 35837 PWs)   bands (ev):

   -85.0360 -85.0207 -85.0033 -84.5580 -51.1670 -51.1035 -51.1001 -50.9861
   -50.9820 -50.9818 -50.9566 -50.9094 -50.9001 -50.8954 -50.4995 -50.3070
   -44.9481 -16.9879 -16.9283 -16.8817 -16.1691 -15.9936 -15.7826 -15.7013
   -13.8324 -13.6900 -13.5650 -13.5219 -13.4705 -13.4515 -13.3631 -13.2877
   -13.2586 -13.2167 -13.1321 -13.0257  -4.0425  -3.5551  -3.4145  -2.9968
    -2.2174  -1.8845  -1.7207  -1.5386  -1.4006  -1.3191  -1.1600  -1.1047
    -0.9676  -0.8546  -0.5933  -0.3517  -0.1845  -0.1422   0.3755   0.4107
     0.4450   0.5453   0.7247   0.8161   0.9071   0.9715   1.0819   1.1159
     1.2437   1.4928   1.4997   1.6632   1.7202   1.7522   1.8513   1.8948
     1.9814   2.1597   2.3269   2.3776   2.4381   2.4430   2.5660   2.6289
     2.7429   2.8197   2.8689   3.0103   3.0122   3.2353   3.3450   3.3707
     3.4095   3.5682   3.5979   3.6317   3.7233   3.8844   3.8943   4.0240
     4.1460   4.3270   4.3576   4.3661   4.6278   4.7586   4.9784   5.0994
     9.3836  11.4181  11.8971  12.2873  12.5275  13.1151  13.5928  13.6930
    13.7599  13.9944

     occupation numbers 
     1.0000   1.0000   1.0000   1.0000   1.0000   1.0000   1.0000   1.0000
     1.0000   1.0000   1.0000   1.0000   1.0000   1.0000   1.0000   1.0000
     1.0000   1.0000   1.0000   1.0000   1.0000   1.0000   1.0000   1.0000
     1.0000   1.0000   1.0000   1.0000   1.0000   1.0000   1.0000   1.0000
     1.0000   1.0000   1.0000   1.0000   1.0000   1.0000   1.0000   1.0000
     1.0000   1.0000   1.0000   1.0000   1.0000   1.0000   1.0000   1.0000
     1.0000   1.0000   1.0000   1.0000   1.0000   1.0000   1.0000   1.0000
     1.0000   1.0000   1.0000   1.0000   1.0000   1.0000   1.0000   1.0000
     1.0000   1.0000   1.0000   1.0000   1.0000   1.0000   1.0000   1.0000
     1.0000   1.0000   1.0000   1.0000   1.0000   1.0000   1.0000   1.0000
     1.0000   1.0000   1.0000   1.0000   1.0000   1.0000   1.0000   1.0000
     1.0000   1.0000   1.0000   1.0000   1.0000   1.0000   1.0000   1.0000
     1.0000   1.0000   1.0000   1.0000   1.0000   1.0000   1.0000   1.0000
     0.0000   0.0000   0.0000   0.0000   0.0000   0.0000   0.0000   0.0000
     0.0000   0.0000

          k = 0.0000 0.0000 0.2298 ( 35841 PWs)   bands (ev):

   -85.0360 -85.0207 -85.0033 -84.5580 -51.1670 -51.1035 -51.1001 -50.9861
   -50.9820 -50.9818 -50.9566 -50.9094 -50.9001 -50.8954 -50.4995 -50.3070
   -44.9481 -16.9886 -16.9344 -16.8816 -16.1542 -15.9850 -15.7766 -15.6975
   -13.8344 -13.6928 -13.5828 -13.5271 -13.4702 -13.4511 -13.3589 -13.3003
   -13.2543 -13.2264 -13.1359 -13.0296  -4.0181  -3.5487  -3.4121  -3.0081
    -2.1733  -1.8621  -1.7203  -1.5279  -1.3947  -1.3318  -1.1747  -1.0437
    -0.9622  -0.8208  -0.6384  -0.3235  -0.1834  -0.1643   0.3870   0.4111
     0.4565   0.5847   0.7231   0.8192   0.9025   0.9436   1.0602   1.1525
     1.2294   1.4843   1.4844   1.6285   1.7037   1.7246   1.7868   1.8368
     2.1112   2.1570   2.2568   2.2991   2.4319   2.4723   2.5088   2.6918
     2.7153   2.7958   2.8931   3.0189   3.1331   3.2169   3.2726   3.3393
     3.4136   3.5712   3.5736   3.6151   3.7207   3.8873   3.9591   4.0246
     4.1739   4.3259   4.3493   4.3958   4.6271   4.7425   4.9528   5.0783
     9.5333  11.4907  11.9578  12.2903  12.5773  13.0572  13.5286  13.6504
    13.6583  13.9084

     occupation numbers 
     1.0000   1.0000   1.0000   1.0000   1.0000   1.0000   1.0000   1.0000
     1.0000   1.0000   1.0000   1.0000   1.0000   1.0000   1.0000   1.0000
     1.0000   1.0000   1.0000   1.0000   1.0000   1.0000   1.0000   1.0000
     1.0000   1.0000   1.0000   1.0000   1.0000   1.0000   1.0000   1.0000
     1.0000   1.0000   1.0000   1.0000   1.0000   1.0000   1.0000   1.0000
     1.0000   1.0000   1.0000   1.0000   1.0000   1.0000   1.0000   1.0000
     1.0000   1.0000   1.0000   1.0000   1.0000   1.0000   1.0000   1.0000
     1.0000   1.0000   1.0000   1.0000   1.0000   1.0000   1.0000   1.0000
     1.0000   1.0000   1.0000   1.0000   1.0000   1.0000   1.0000   1.0000
     1.0000   1.0000   1.0000   1.0000   1.0000   1.0000   1.0000   1.0000
     1.0000   1.0000   1.0000   1.0000   1.0000   1.0000   1.0000   1.0000
     1.0000   1.0000   1.0000   1.0000   1.0000   1.0000   1.0000   1.0000
     1.0000   1.0000   1.0000   1.0000   1.0000   1.0000   1.0000   1.0000
     0.0000   0.0000   0.0000   0.0000   0.0000   0.0000   0.0000   0.0000
     0.0000   0.0000

          k = 0.0000 0.0000 0.4597 ( 35884 PWs)   bands (ev):

   -85.0360 -85.0207 -85.0034 -84.5580 -51.1670 -51.1035 -51.1001 -50.9861
   -50.9820 -50.9818 -50.9566 -50.9094 -50.9001 -50.8953 -50.4995 -50.3070
   -44.9481 -16.9924 -16.9472 -16.8815 -16.1160 -15.9631 -15.7606 -15.6889
   -13.8409 -13.7018 -13.6238 -13.5397 -13.4726 -13.4505 -13.3474 -13.3313
   -13.2500 -13.2428 -13.1459 -13.0404  -3.9483  -3.5408  -3.4017  -3.0497
    -2.0523  -1.8103  -1.7119  -1.5198  -1.3723  -1.3475  -1.1704  -0.9463
    -0.9140  -0.7510  -0.7368  -0.2988  -0.2383  -0.0990   0.4218   0.4264
     0.4881   0.6572   0.7501   0.8203   0.8799   0.9174   0.9918   1.1996
     1.2137   1.4350   1.5035   1.5387   1.6166   1.6615   1.7077   1.7874
     1.9821   2.0971   2.2264   2.2966   2.3931   2.4003   2.5973   2.6086
     2.7525   2.7967   2.9807   3.0338   3.0673   3.2073   3.2585   3.2876
     3.4399   3.4417   3.6155   3.7142   3.7502   3.9011   4.0257   4.0533
     4.2496   4.3242   4.3420   4.4537   4.6204   4.7119   4.8748   5.0132
     9.9354  11.6847  12.0951  12.3396  12.6874  12.9587  13.2794  13.4670
    13.5407  13.6018

     occupation numbers 
     1.0000   1.0000   1.0000   1.0000   1.0000   1.0000   1.0000   1.0000
     1.0000   1.0000   1.0000   1.0000   1.0000   1.0000   1.0000   1.0000
     1.0000   1.0000   1.0000   1.0000   1.0000   1.0000   1.0000   1.0000
     1.0000   1.0000   1.0000   1.0000   1.0000   1.0000   1.0000   1.0000
     1.0000   1.0000   1.0000   1.0000   1.0000   1.0000   1.0000   1.0000
     1.0000   1.0000   1.0000   1.0000   1.0000   1.0000   1.0000   1.0000
     1.0000   1.0000   1.0000   1.0000   1.0000   1.0000   1.0000   1.0000
     1.0000   1.0000   1.0000   1.0000   1.0000   1.0000   1.0000   1.0000
     1.0000   1.0000   1.0000   1.0000   1.0000   1.0000   1.0000   1.0000
     1.0000   1.0000   1.0000   1.0000   1.0000   1.0000   1.0000   1.0000
     1.0000   1.0000   1.0000   1.0000   1.0000   1.0000   1.0000   1.0000
     1.0000   1.0000   1.0000   1.0000   1.0000   1.0000   1.0000   1.0000
     1.0000   1.0000   1.0000   1.0000   1.0000   1.0000   1.0000   1.0000
     0.0000   0.0000   0.0000   0.0000   0.0000   0.0000   0.0000   0.0000
     0.0000   0.0000

          k = 0.0000 0.0000 0.6895 ( 35896 PWs)   bands (ev):

   -85.0360 -85.0207 -85.0034 -84.5580 -51.1670 -51.1035 -51.1001 -50.9861
   -50.9820 -50.9818 -50.9566 -50.9094 -50.9001 -50.8953 -50.4995 -50.3070
   -44.9480 -17.0011 -16.9562 -16.8814 -16.0709 -15.9384 -15.7395 -15.6826
   -13.8516 -13.7162 -13.6652 -13.5514 -13.4815 -13.4506 -13.3630 -13.3327
   -13.2750 -13.2284 -13.1587 -13.0544  -3.8456  -3.5538  -3.3792  -3.1216
    -1.9090  -1.7738  -1.6690  -1.5293  -1.3459  -1.3232  -1.1518  -0.9724
    -0.8269  -0.7719  -0.6311  -0.4590  -0.0917   0.0309   0.4413   0.4945
     0.5444   0.6550   0.8083   0.8238   0.8361   0.8829   0.9518   1.1982
     1.2288   1.3513   1.4017   1.4714   1.5693   1.5994   1.6789   1.6859
     1.7844   1.9378   2.1686   2.2547   2.3190   2.5047   2.5602   2.7214
     2.7863   2.8048   2.8535   2.9388   3.0942   3.1164   3.2195   3.3027
     3.3904   3.4544   3.7353   3.7975   3.8873   3.9754   4.0358   4.0999
     4.2821   4.3633   4.3877   4.4891   4.6102   4.6997   4.7416   4.9030
    10.4899  11.9273  12.1227  12.4777  12.7124  12.9501  13.1028  13.3026
    13.3291  13.3717

     occupation numbers 
     1.0000   1.0000   1.0000   1.0000   1.0000   1.0000   1.0000   1.0000
     1.0000   1.0000   1.0000   1.0000   1.0000   1.0000   1.0000   1.0000
     1.0000   1.0000   1.0000   1.0000   1.0000   1.0000   1.0000   1.0000
     1.0000   1.0000   1.0000   1.0000   1.0000   1.0000   1.0000   1.0000
     1.0000   1.0000   1.0000   1.0000   1.0000   1.0000   1.0000   1.0000
     1.0000   1.0000   1.0000   1.0000   1.0000   1.0000   1.0000   1.0000
     1.0000   1.0000   1.0000   1.0000   1.0000   1.0000   1.0000   1.0000
     1.0000   1.0000   1.0000   1.0000   1.0000   1.0000   1.0000   1.0000
     1.0000   1.0000   1.0000   1.0000   1.0000   1.0000   1.0000   1.0000
     1.0000   1.0000   1.0000   1.0000   1.0000   1.0000   1.0000   1.0000
     1.0000   1.0000   1.0000   1.0000   1.0000   1.0000   1.0000   1.0000
     1.0000   1.0000   1.0000   1.0000   1.0000   1.0000   1.0000   1.0000
     1.0000   1.0000   1.0000   1.0000   1.0000   1.0000   1.0000   1.0000
     0.0000   0.0000   0.0000   0.0000   0.0000   0.0000   0.0000   0.0000
     0.0000   0.0000

          k = 0.0000 0.0000 0.9194 ( 35906 PWs)   bands (ev):

   -85.0360 -85.0207 -85.0034 -84.5580 -51.1670 -51.1035 -51.1001 -50.9861
   -50.9820 -50.9818 -50.9566 -50.9094 -50.9001 -50.8953 -50.4995 -50.3070
   -44.9480 -17.0090 -16.9592 -16.8813 -16.0397 -15.9231 -15.7216 -15.6829
   -13.8608 -13.7296 -13.6877 -13.5577 -13.4926 -13.4513 -13.3797 -13.3217
   -13.2902 -13.2183 -13.1676 -13.0652  -3.7387  -3.6002  -3.3500  -3.1913
    -1.8230  -1.7654  -1.6192  -1.5316  -1.3237  -1.2426  -1.1559  -1.0973
    -0.7557  -0.6796  -0.6224  -0.5580   0.0900   0.2386   0.4418   0.5259
     0.5785   0.6232   0.7376   0.7705   0.7719   0.8933   1.0164   1.1453
     1.2588   1.2731   1.3194   1.3668   1.4359   1.5681   1.6237   1.6962
     1.8265   1.9328   2.0112   2.1752   2.3000   2.4471   2.6998   2.7062
     2.7658   2.8201   2.8645   2.8809   3.0133   3.0500   3.2147   3.3194
     3.3754   3.4575   3.8322   3.8554   3.9153   4.0207   4.1176   4.2290
     4.2565   4.4121   4.4871   4.4984   4.5689   4.6156   4.7007   4.7673
    11.0967  11.6929  12.2515  12.5734  12.7430  12.8761  13.1104  13.1709
    13.2972  13.3879

     occupation numbers 
     1.0000   1.0000   1.0000   1.0000   1.0000   1.0000   1.0000   1.0000
     1.0000   1.0000   1.0000   1.0000   1.0000   1.0000   1.0000   1.0000
     1.0000   1.0000   1.0000   1.0000   1.0000   1.0000   1.0000   1.0000
     1.0000   1.0000   1.0000   1.0000   1.0000   1.0000   1.0000   1.0000
     1.0000   1.0000   1.0000   1.0000   1.0000   1.0000   1.0000   1.0000
     1.0000   1.0000   1.0000   1.0000   1.0000   1.0000   1.0000   1.0000
     1.0000   1.0000   1.0000   1.0000   1.0000   1.0000   1.0000   1.0000
     1.0000   1.0000   1.0000   1.0000   1.0000   1.0000   1.0000   1.0000
     1.0000   1.0000   1.0000   1.0000   1.0000   1.0000   1.0000   1.0000
     1.0000   1.0000   1.0000   1.0000   1.0000   1.0000   1.0000   1.0000
     1.0000   1.0000   1.0000   1.0000   1.0000   1.0000   1.0000   1.0000
     1.0000   1.0000   1.0000   1.0000   1.0000   1.0000   1.0000   1.0000
     1.0000   1.0000   1.0000   1.0000   1.0000   1.0000   1.0000   1.0000
     0.0000   0.0000   0.0000   0.0000   0.0000   0.0000   0.0000   0.0000
     0.0000   0.0000

          k = 0.0000 0.2351 0.0000 ( 35823 PWs)   bands (ev):

   -85.0360 -85.0207 -85.0033 -84.5580 -51.1670 -51.1035 -51.1001 -50.9861
   -50.9820 -50.9818 -50.9566 -50.9094 -50.9001 -50.8954 -50.4995 -50.3070
   -44.9481 -16.9876 -16.9283 -16.8827 -16.1542 -15.9905 -15.7816 -15.7166
   -13.8333 -13.6876 -13.5638 -13.5266 -13.5054 -13.4582 -13.3458 -13.2912
   -13.2458 -13.2051 -13.1319 -13.0297  -4.0179  -3.5758  -3.3900  -3.0038
    -2.1946  -1.8906  -1.7199  -1.5432  -1.3709  -1.3081  -1.1604  -1.0936
    -0.9181  -0.8525  -0.5672  -0.3262  -0.2383  -0.1022   0.3926   0.4166
     0.4819   0.5078   0.6182   0.7267   0.8120   1.0416   1.0941   1.1806
     1.3338   1.4890   1.5001   1.6239   1.6699   1.7102   1.7825   1.8078
     2.0103   2.1938   2.3117   2.3897   2.4534   2.4900   2.5720   2.5996
     2.7840   2.7920   2.8325   2.8985   3.0297   3.2572   3.3326   3.3748
     3.4171   3.5061   3.5384   3.7217   3.7784   3.8724   3.9324   4.0342
     4.1465   4.2757   4.3569   4.4008   4.6103   4.7067   5.0369   5.1035
     9.5380  11.5071  11.9737  12.2504  12.5552  13.1939  13.5221  13.6520
    13.7508  13.9454

     occupation numbers 
     1.0000   1.0000   1.0000   1.0000   1.0000   1.0000   1.0000   1.0000
     1.0000   1.0000   1.0000   1.0000   1.0000   1.0000   1.0000   1.0000
     1.0000   1.0000   1.0000   1.0000   1.0000   1.0000   1.0000   1.0000
     1.0000   1.0000   1.0000   1.0000   1.0000   1.0000   1.0000   1.0000
     1.0000   1.0000   1.0000   1.0000   1.0000   1.0000   1.0000   1.0000
     1.0000   1.0000   1.0000   1.0000   1.0000   1.0000   1.0000   1.0000
     1.0000   1.0000   1.0000   1.0000   1.0000   1.0000   1.0000   1.0000
     1.0000   1.0000   1.0000   1.0000   1.0000   1.0000   1.0000   1.0000
     1.0000   1.0000   1.0000   1.0000   1.0000   1.0000   1.0000   1.0000
     1.0000   1.0000   1.0000   1.0000   1.0000   1.0000   1.0000   1.0000
     1.0000   1.0000   1.0000   1.0000   1.0000   1.0000   1.0000   1.0000
     1.0000   1.0000   1.0000   1.0000   1.0000   1.0000   1.0000   1.0000
     1.0000   1.0000   1.0000   1.0000   1.0000   1.0000   1.0000   1.0000
     0.0000   0.0000   0.0000   0.0000   0.0000   0.0000   0.0000   0.0000
     0.0000   0.0000

          k = 0.0000 0.2351 0.2298 ( 35841 PWs)   bands (ev):

   -85.0360 -85.0207 -85.0033 -84.5580 -51.1670 -51.1035 -51.1001 -50.9861
   -50.9820 -50.9818 -50.9566 -50.9094 -50.9001 -50.8954 -50.4995 -50.3070
   -44.9481 -16.9883 -16.9343 -16.8826 -16.1399 -15.9817 -15.7758 -15.7120
   -13.8350 -13.6902 -13.5822 -13.5318 -13.5035 -13.4580 -13.3489 -13.2981
   -13.2500 -13.2078 -13.1348 -13.0327  -3.9939  -3.5676  -3.3886  -3.0146
    -2.1525  -1.8677  -1.7166  -1.5324  -1.3656  -1.3191  -1.1619  -1.0472
    -0.9059  -0.8266  -0.6122  -0.3262  -0.2368  -0.1011   0.3851   0.4193
     0.4934   0.5434   0.6263   0.7335   0.8076   1.0291   1.1125   1.1690
     1.2958   1.4757   1.5041   1.5754   1.6587   1.6742   1.7571   1.7917
     2.1117   2.1909   2.2559   2.3573   2.4263   2.4915   2.5036   2.6346
     2.7440   2.8038   2.8437   2.9717   3.0443   3.2440   3.2624   3.3699
     3.3834   3.5175   3.5666   3.6764   3.7808   3.8855   3.9729   4.0395
     4.1705   4.2725   4.3748   4.4135   4.5914   4.7059   5.0198   5.0884
     9.6821  11.5794  12.0340  12.2812  12.5824  13.1237  13.4820  13.5823
    13.7105  13.8729

     occupation numbers 
     1.0000   1.0000   1.0000   1.0000   1.0000   1.0000   1.0000   1.0000
     1.0000   1.0000   1.0000   1.0000   1.0000   1.0000   1.0000   1.0000
     1.0000   1.0000   1.0000   1.0000   1.0000   1.0000   1.0000   1.0000
     1.0000   1.0000   1.0000   1.0000   1.0000   1.0000   1.0000   1.0000
     1.0000   1.0000   1.0000   1.0000   1.0000   1.0000   1.0000   1.0000
     1.0000   1.0000   1.0000   1.0000   1.0000   1.0000   1.0000   1.0000
     1.0000   1.0000   1.0000   1.0000   1.0000   1.0000   1.0000   1.0000
     1.0000   1.0000   1.0000   1.0000   1.0000   1.0000   1.0000   1.0000
     1.0000   1.0000   1.0000   1.0000   1.0000   1.0000   1.0000   1.0000
     1.0000   1.0000   1.0000   1.0000   1.0000   1.0000   1.0000   1.0000
     1.0000   1.0000   1.0000   1.0000   1.0000   1.0000   1.0000   1.0000
     1.0000   1.0000   1.0000   1.0000   1.0000   1.0000   1.0000   1.0000
     1.0000   1.0000   1.0000   1.0000   1.0000   1.0000   1.0000   1.0000
     0.0000   0.0000   0.0000   0.0000   0.0000   0.0000   0.0000   0.0000
     0.0000   0.0000

          k = 0.0000 0.2351 0.4597 ( 35884 PWs)   bands (ev):

   -85.0360 -85.0207 -85.0034 -84.5580 -51.1670 -51.1035 -51.1001 -50.9861
   -50.9820 -50.9818 -50.9566 -50.9094 -50.9001 -50.8953 -50.4995 -50.3070
   -44.9481 -16.9920 -16.9470 -16.8824 -16.1036 -15.9590 -15.7605 -15.7011
   -13.8410 -13.6990 -13.6244 -13.5437 -13.5016 -13.4583 -13.3685 -13.3037
   -13.2654 -13.2074 -13.1428 -13.0413  -3.9258  -3.5539  -3.3818  -3.0544
    -2.0364  -1.8128  -1.7034  -1.5205  -1.3530  -1.3220  -1.1523  -0.9398
    -0.8847  -0.7447  -0.7210  -0.3753  -0.1933  -0.0790   0.3756   0.4497
     0.5194   0.5492   0.7206   0.7534   0.8161   0.9846   1.1013   1.1801
     1.2358   1.4437   1.4835   1.5173   1.5708   1.6454   1.6979   1.7842
     2.0163   2.1128   2.2696   2.3001   2.3669   2.4199   2.5419   2.6344
     2.6917   2.8476   2.9213   2.9948   3.0655   3.1109   3.2320   3.3166
     3.3681   3.4964   3.6269   3.6930   3.7973   3.9187   4.0206   4.0727
     4.2251   4.2888   4.3477   4.4799   4.5595   4.7055   4.9688   5.0420
    10.0713  11.7733  12.1769  12.3705  12.6658  13.0191  13.2743  13.4629
    13.5436  13.6706

     occupation numbers 
     1.0000   1.0000   1.0000   1.0000   1.0000   1.0000   1.0000   1.0000
     1.0000   1.0000   1.0000   1.0000   1.0000   1.0000   1.0000   1.0000
     1.0000   1.0000   1.0000   1.0000   1.0000   1.0000   1.0000   1.0000
     1.0000   1.0000   1.0000   1.0000   1.0000   1.0000   1.0000   1.0000
     1.0000   1.0000   1.0000   1.0000   1.0000   1.0000   1.0000   1.0000
     1.0000   1.0000   1.0000   1.0000   1.0000   1.0000   1.0000   1.0000
     1.0000   1.0000   1.0000   1.0000   1.0000   1.0000   1.0000   1.0000
     1.0000   1.0000   1.0000   1.0000   1.0000   1.0000   1.0000   1.0000
     1.0000   1.0000   1.0000   1.0000   1.0000   1.0000   1.0000   1.0000
     1.0000   1.0000   1.0000   1.0000   1.0000   1.0000   1.0000   1.0000
     1.0000   1.0000   1.0000   1.0000   1.0000   1.0000   1.0000   1.0000
     1.0000   1.0000   1.0000   1.0000   1.0000   1.0000   1.0000   1.0000
     1.0000   1.0000   1.0000   1.0000   1.0000   1.0000   1.0000   1.0000
     0.0000   0.0000   0.0000   0.0000   0.0000   0.0000   0.0000   0.0000
     0.0000   0.0000

          k = 0.0000 0.2351 0.6895 ( 35919 PWs)   bands (ev):

   -85.0360 -85.0207 -85.0034 -84.5580 -51.1670 -51.1035 -51.1001 -50.9861
   -50.9820 -50.9818 -50.9566 -50.9094 -50.9001 -50.8953 -50.4995 -50.3070
   -44.9480 -17.0005 -16.9560 -16.8822 -16.0612 -15.9327 -15.7412 -15.6910
   -13.8513 -13.7135 -13.6671 -13.5536 -13.5058 -13.4591 -13.3996 -13.2999
   -13.2837 -13.2007 -13.1529 -13.0526  -3.8266  -3.5571  -3.3658  -3.1230
    -1.8966  -1.7675  -1.6627  -1.5241  -1.3389  -1.2832  -1.1331  -0.9437
    -0.8140  -0.7740  -0.6293  -0.4869  -0.0896   0.0027   0.3632   0.4732
     0.5122   0.6060   0.7622   0.8342   0.8930   0.9387   1.0337   1.1686
     1.2296   1.3452   1.4074   1.4807   1.5466   1.6071   1.6398   1.7186
     1.7939   1.9532   2.1422   2.2952   2.3215   2.4884   2.5424   2.6843
     2.6939   2.8447   2.8862   2.9828   3.0155   3.0935   3.1437   3.3166
     3.3579   3.4487   3.7457   3.7973   3.8638   3.9533   4.0382   4.1096
     4.2551   4.3140   4.3546   4.4854   4.5977   4.7073   4.8884   4.9674
    10.6128  12.0289  12.2093  12.5133  12.7564  12.9896  13.1290  13.2598
    13.3443  13.4026

     occupation numbers 
     1.0000   1.0000   1.0000   1.0000   1.0000   1.0000   1.0000   1.0000
     1.0000   1.0000   1.0000   1.0000   1.0000   1.0000   1.0000   1.0000
     1.0000   1.0000   1.0000   1.0000   1.0000   1.0000   1.0000   1.0000
     1.0000   1.0000   1.0000   1.0000   1.0000   1.0000   1.0000   1.0000
     1.0000   1.0000   1.0000   1.0000   1.0000   1.0000   1.0000   1.0000
     1.0000   1.0000   1.0000   1.0000   1.0000   1.0000   1.0000   1.0000
     1.0000   1.0000   1.0000   1.0000   1.0000   1.0000   1.0000   1.0000
     1.0000   1.0000   1.0000   1.0000   1.0000   1.0000   1.0000   1.0000
     1.0000   1.0000   1.0000   1.0000   1.0000   1.0000   1.0000   1.0000
     1.0000   1.0000   1.0000   1.0000   1.0000   1.0000   1.0000   1.0000
     1.0000   1.0000   1.0000   1.0000   1.0000   1.0000   1.0000   1.0000
     1.0000   1.0000   1.0000   1.0000   1.0000   1.0000   1.0000   1.0000
     1.0000   1.0000   1.0000   1.0000   1.0000   1.0000   1.0000   1.0000
     0.0000   0.0000   0.0000   0.0000   0.0000   0.0000   0.0000   0.0000
     0.0000   0.0000

          k = 0.0000 0.2351 0.9194 ( 35896 PWs)   bands (ev):

   -85.0360 -85.0207 -85.0034 -84.5580 -51.1670 -51.1035 -51.1001 -50.9862
   -50.9820 -50.9818 -50.9566 -50.9094 -50.9001 -50.8953 -50.4995 -50.3070
   -44.9480 -17.0083 -16.9591 -16.8820 -16.0325 -15.9155 -15.7261 -15.6872
   -13.8604 -13.7276 -13.6899 -13.5571 -13.5160 -13.4594 -13.4176 -13.3045
   -13.2853 -13.1953 -13.1595 -13.0614  -3.7261  -3.5915  -3.3451  -3.1872
    -1.8095  -1.7538  -1.6162  -1.5255  -1.3129  -1.2103  -1.1354  -1.0623
    -0.7601  -0.6956  -0.6243  -0.5382   0.0384   0.1629   0.3219   0.3569
     0.5869   0.7225   0.7563   0.8511   0.9063   0.9404   1.0344   1.1109
     1.2165   1.2629   1.3536   1.4218   1.4489   1.5443   1.6116   1.6463
     1.8153   1.9301   2.0055   2.1764   2.3262   2.4467   2.6236   2.6778
     2.7479   2.8238   2.8507   2.9192   3.0136   3.0505   3.1453   3.3151
     3.3559   3.4301   3.8067   3.8767   3.9349   4.0036   4.0732   4.1267
     4.2211   4.3007   4.4207   4.5002   4.6509   4.7026   4.8079   4.8931
    11.2118  11.8003  12.3377  12.6626  12.7915  12.9217  13.1283  13.1999
    13.2343  13.3901

     occupation numbers 
     1.0000   1.0000   1.0000   1.0000   1.0000   1.0000   1.0000   1.0000
     1.0000   1.0000   1.0000   1.0000   1.0000   1.0000   1.0000   1.0000
     1.0000   1.0000   1.0000   1.0000   1.0000   1.0000   1.0000   1.0000
     1.0000   1.0000   1.0000   1.0000   1.0000   1.0000   1.0000   1.0000
     1.0000   1.0000   1.0000   1.0000   1.0000   1.0000   1.0000   1.0000
     1.0000   1.0000   1.0000   1.0000   1.0000   1.0000   1.0000   1.0000
     1.0000   1.0000   1.0000   1.0000   1.0000   1.0000   1.0000   1.0000
     1.0000   1.0000   1.0000   1.0000   1.0000   1.0000   1.0000   1.0000
     1.0000   1.0000   1.0000   1.0000   1.0000   1.0000   1.0000   1.0000
     1.0000   1.0000   1.0000   1.0000   1.0000   1.0000   1.0000   1.0000
     1.0000   1.0000   1.0000   1.0000   1.0000   1.0000   1.0000   1.0000
     1.0000   1.0000   1.0000   1.0000   1.0000   1.0000   1.0000   1.0000
     1.0000   1.0000   1.0000   1.0000   1.0000   1.0000   1.0000   1.0000
     0.0000   0.0000   0.0000   0.0000   0.0000   0.0000   0.0000   0.0000
     0.0000   0.0000

          k = 0.0000 0.4701 0.0000 ( 35853 PWs)   bands (ev):

   -85.0360 -85.0207 -85.0034 -84.5580 -51.1670 -51.1035 -51.1001 -50.9861
   -50.9820 -50.9818 -50.9566 -50.9094 -50.9001 -50.8954 -50.4995 -50.3070
   -44.9481 -16.9870 -16.9281 -16.8848 -16.1159 -15.9823 -15.7910 -15.7454
   -13.8339 -13.6806 -13.5935 -13.5560 -13.5084 -13.4664 -13.3400 -13.2879
   -13.2392 -13.1646 -13.1367 -13.0377  -3.9508  -3.6341  -3.3250  -3.0315
    -2.1365  -1.9080  -1.7167  -1.5511  -1.3455  -1.2537  -1.1528  -1.0192
    -0.8992  -0.7586  -0.5441  -0.3508  -0.2348  -0.0122   0.3430   0.4101
     0.4654   0.5087   0.5639   0.6122   0.6891   0.9884   1.1699   1.2910
     1.3302   1.4063   1.4228   1.5021   1.5835   1.6612   1.8051   1.8611
     2.0574   2.1742   2.3149   2.3460   2.4396   2.4902   2.5276   2.5673
     2.7667   2.8012   2.8346   2.9217   3.0381   3.1985   3.2552   3.3037
     3.3479   3.4689   3.7036   3.7655   3.8370   3.8888   3.9695   4.0823
     4.1299   4.2003   4.3064   4.4029   4.5051   4.8260   5.0689   5.1086
     9.9581  11.7151  11.9017  12.1885  12.7272  13.3042  13.4121  13.5049
    13.8789  13.9857

     occupation numbers 
     1.0000   1.0000   1.0000   1.0000   1.0000   1.0000   1.0000   1.0000
     1.0000   1.0000   1.0000   1.0000   1.0000   1.0000   1.0000   1.0000
     1.0000   1.0000   1.0000   1.0000   1.0000   1.0000   1.0000   1.0000
     1.0000   1.0000   1.0000   1.0000   1.0000   1.0000   1.0000   1.0000
     1.0000   1.0000   1.0000   1.0000   1.0000   1.0000   1.0000   1.0000
     1.0000   1.0000   1.0000   1.0000   1.0000   1.0000   1.0000   1.0000
     1.0000   1.0000   1.0000   1.0000   1.0000   1.0000   1.0000   1.0000
     1.0000   1.0000   1.0000   1.0000   1.0000   1.0000   1.0000   1.0000
     1.0000   1.0000   1.0000   1.0000   1.0000   1.0000   1.0000   1.0000
     1.0000   1.0000   1.0000   1.0000   1.0000   1.0000   1.0000   1.0000
     1.0000   1.0000   1.0000   1.0000   1.0000   1.0000   1.0000   1.0000
     1.0000   1.0000   1.0000   1.0000   1.0000   1.0000   1.0000   1.0000
     1.0000   1.0000   1.0000   1.0000   1.0000   1.0000   1.0000   1.0000
     0.0000   0.0000   0.0000   0.0000   0.0000   0.0000   0.0000   0.0000
     0.0000   0.0000

          k = 0.0000 0.4701 0.2298 ( 35845 PWs)   bands (ev):

   -85.0360 -85.0207 -85.0034 -84.5580 -51.1670 -51.1035 -51.1001 -50.9861
   -50.9820 -50.9818 -50.9566 -50.9094 -50.9001 -50.8953 -50.4995 -50.3070
   -44.9481 -16.9877 -16.9340 -16.8847 -16.1036 -15.9728 -15.7850 -15.7394
   -13.8351 -13.6827 -13.5965 -13.5718 -13.5114 -13.4680 -13.3565 -13.2872
   -13.2444 -13.1644 -13.1370 -13.0391  -3.9284  -3.6219  -3.3263  -3.0403
    -2.0992  -1.8832  -1.7075  -1.5398  -1.3428  -1.2579  -1.1202  -1.0106
    -0.8566  -0.7682  -0.5838  -0.3955  -0.2028  -0.0139   0.3158   0.3898
     0.4690   0.5321   0.5812   0.6348   0.7194   1.0218   1.1372   1.2471
     1.2978   1.3752   1.4436   1.5001   1.5664   1.6684   1.7857   1.8809
     2.0882   2.1946   2.2671   2.3734   2.4233   2.4844   2.5040   2.5624
     2.7217   2.7763   2.8454   2.9091   3.0368   3.1779   3.2374   3.2687
     3.3235   3.4920   3.6986   3.7677   3.8256   3.9114   3.9896   4.0892
     4.1342   4.2035   4.2947   4.3928   4.5457   4.8275   5.0605   5.1058
    10.0869  11.7771  11.9643  12.2642  12.7478  13.2278  13.3714  13.5038
    13.7735  13.9225

     occupation numbers 
     1.0000   1.0000   1.0000   1.0000   1.0000   1.0000   1.0000   1.0000
     1.0000   1.0000   1.0000   1.0000   1.0000   1.0000   1.0000   1.0000
     1.0000   1.0000   1.0000   1.0000   1.0000   1.0000   1.0000   1.0000
     1.0000   1.0000   1.0000   1.0000   1.0000   1.0000   1.0000   1.0000
     1.0000   1.0000   1.0000   1.0000   1.0000   1.0000   1.0000   1.0000
     1.0000   1.0000   1.0000   1.0000   1.0000   1.0000   1.0000   1.0000
     1.0000   1.0000   1.0000   1.0000   1.0000   1.0000   1.0000   1.0000
     1.0000   1.0000   1.0000   1.0000   1.0000   1.0000   1.0000   1.0000
     1.0000   1.0000   1.0000   1.0000   1.0000   1.0000   1.0000   1.0000
     1.0000   1.0000   1.0000   1.0000   1.0000   1.0000   1.0000   1.0000
     1.0000   1.0000   1.0000   1.0000   1.0000   1.0000   1.0000   1.0000
     1.0000   1.0000   1.0000   1.0000   1.0000   1.0000   1.0000   1.0000
     1.0000   1.0000   1.0000   1.0000   1.0000   1.0000   1.0000   1.0000
     0.0000   0.0000   0.0000   0.0000   0.0000   0.0000   0.0000   0.0000
     0.0000   0.0000

          k = 0.0000 0.4701 0.4597 ( 35838 PWs)   bands (ev):

   -85.0360 -85.0207 -85.0033 -84.5580 -51.1670 -51.1035 -51.1001 -50.9861
   -50.9820 -50.9818 -50.9566 -50.9094 -50.9001 -50.8953 -50.4995 -50.3070
   -44.9481 -16.9912 -16.9465 -16.8843 -16.0726 -15.9478 -15.7695 -15.7243
   -13.8399 -13.6906 -13.6262 -13.5865 -13.5182 -13.4729 -13.3969 -13.2930
   -13.2503 -13.1631 -13.1389 -13.0432  -3.8658  -3.5941  -3.3293  -3.0732
    -1.9960  -1.8196  -1.6841  -1.5194  -1.3346  -1.2451  -1.0797  -0.9398
    -0.8057  -0.7432  -0.6791  -0.4788  -0.1568  -0.0145   0.2684   0.3499
     0.4468   0.5889   0.6581   0.7043   0.8053   1.0410   1.1116   1.1825
     1.2346   1.3190   1.4550   1.4909   1.5404   1.6607   1.7481   1.8786
     2.0574   2.1040   2.2739   2.3443   2.4069   2.4262   2.4907   2.5607
     2.6544   2.7488   2.8798   2.9056   3.0231   3.0855   3.1553   3.2499
     3.3174   3.5103   3.6444   3.8005   3.8463   3.9573   4.0234   4.0892
     4.1564   4.2195   4.2913   4.3709   4.6322   4.8345   5.0345   5.0952
    10.4402  11.9472  12.1455  12.4503  12.8151  13.1203  13.2082  13.4992
    13.5630  13.7712

     occupation numbers 
     1.0000   1.0000   1.0000   1.0000   1.0000   1.0000   1.0000   1.0000
     1.0000   1.0000   1.0000   1.0000   1.0000   1.0000   1.0000   1.0000
     1.0000   1.0000   1.0000   1.0000   1.0000   1.0000   1.0000   1.0000
     1.0000   1.0000   1.0000   1.0000   1.0000   1.0000   1.0000   1.0000
     1.0000   1.0000   1.0000   1.0000   1.0000   1.0000   1.0000   1.0000
     1.0000   1.0000   1.0000   1.0000   1.0000   1.0000   1.0000   1.0000
     1.0000   1.0000   1.0000   1.0000   1.0000   1.0000   1.0000   1.0000
     1.0000   1.0000   1.0000   1.0000   1.0000   1.0000   1.0000   1.0000
     1.0000   1.0000   1.0000   1.0000   1.0000   1.0000   1.0000   1.0000
     1.0000   1.0000   1.0000   1.0000   1.0000   1.0000   1.0000   1.0000
     1.0000   1.0000   1.0000   1.0000   1.0000   1.0000   1.0000   1.0000
     1.0000   1.0000   1.0000   1.0000   1.0000   1.0000   1.0000   1.0000
     1.0000   1.0000   1.0000   1.0000   1.0000   1.0000   1.0000   1.0000
     0.0000   0.0000   0.0000   0.0000   0.0000   0.0000   0.0000   0.0000
     0.0000   0.0000

          k = 0.0000 0.4701 0.6895 ( 35861 PWs)   bands (ev):

   -85.0360 -85.0207 -85.0034 -84.5580 -51.1670 -51.1035 -51.1001 -50.9861
   -50.9820 -50.9818 -50.9566 -50.9094 -50.9001 -50.8953 -50.4995 -50.3070
   -44.9480 -16.9992 -16.9557 -16.8839 -16.0378 -15.9174 -15.7516 -15.7075
   -13.8491 -13.7055 -13.6689 -13.5882 -13.5252 -13.4810 -13.4391 -13.3081
   -13.2471 -13.1619 -13.1416 -13.0488  -3.7779  -3.5717  -3.3322  -3.1292
    -1.8686  -1.7521  -1.6489  -1.5076  -1.3141  -1.2045  -1.0600  -0.8813
    -0.8101  -0.7634  -0.6252  -0.5531  -0.1134   0.0041   0.1928   0.2959
     0.4796   0.6731   0.7386   0.8430   0.9202   0.9593   1.1256   1.1592
     1.1996   1.2780   1.4208   1.4823   1.5196   1.6233   1.6965   1.8003
     1.8531   1.9795   2.1272   2.3045   2.3748   2.4561   2.4744   2.5861
     2.6717   2.7591   2.8456   2.9203   2.9788   3.0405   3.0776   3.2402
     3.3287   3.4502   3.7189   3.7964   3.9076   3.9859   4.0410   4.0729
     4.1662   4.2456   4.3098   4.3892   4.7153   4.8515   4.9918   5.0738
    10.9427  12.1988  12.3621  12.5817  12.9022  13.0466  13.1446  13.2973
    13.3781  13.4797

     occupation numbers 
     1.0000   1.0000   1.0000   1.0000   1.0000   1.0000   1.0000   1.0000
     1.0000   1.0000   1.0000   1.0000   1.0000   1.0000   1.0000   1.0000
     1.0000   1.0000   1.0000   1.0000   1.0000   1.0000   1.0000   1.0000
     1.0000   1.0000   1.0000   1.0000   1.0000   1.0000   1.0000   1.0000
     1.0000   1.0000   1.0000   1.0000   1.0000   1.0000   1.0000   1.0000
     1.0000   1.0000   1.0000   1.0000   1.0000   1.0000   1.0000   1.0000
     1.0000   1.0000   1.0000   1.0000   1.0000   1.0000   1.0000   1.0000
     1.0000   1.0000   1.0000   1.0000   1.0000   1.0000   1.0000   1.0000
     1.0000   1.0000   1.0000   1.0000   1.0000   1.0000   1.0000   1.0000
     1.0000   1.0000   1.0000   1.0000   1.0000   1.0000   1.0000   1.0000
     1.0000   1.0000   1.0000   1.0000   1.0000   1.0000   1.0000   1.0000
     1.0000   1.0000   1.0000   1.0000   1.0000   1.0000   1.0000   1.0000
     1.0000   1.0000   1.0000   1.0000   1.0000   1.0000   1.0000   1.0000
     0.0000   0.0000   0.0000   0.0000   0.0000   0.0000   0.0000   0.0000
     0.0000   0.0000

          k = 0.0000 0.4701 0.9194 ( 35903 PWs)   bands (ev):

   -85.0360 -85.0207 -85.0034 -84.5580 -51.1670 -51.1035 -51.1001 -50.9862
   -50.9820 -50.9818 -50.9566 -50.9094 -50.9001 -50.8953 -50.4995 -50.3070
   -44.9480 -17.0067 -16.9589 -16.8836 -16.0153 -15.8962 -15.7396 -15.6970
   -13.8576 -13.7227 -13.6899 -13.5862 -13.5366 -13.4886 -13.4588 -13.3191
   -13.2425 -13.1625 -13.1424 -13.0531  -3.6973  -3.5728  -3.3344  -3.1777
    -1.7845  -1.7189  -1.6129  -1.5026  -1.2842  -1.1495  -1.0553  -0.9769
    -0.7765  -0.7328  -0.6373  -0.5126  -0.0670   0.0658   0.1198   0.2027
     0.5805   0.7663   0.8207   0.8837   0.9523   1.0173   1.0866   1.1227
     1.2036   1.2764   1.3904   1.4624   1.4976   1.5314   1.5887   1.6831
     1.8171   1.9198   2.0127   2.1503   2.3807   2.4467   2.5176   2.6198
     2.7094   2.7384   2.8313   2.8896   2.9207   3.0502   3.0843   3.2203
     3.3516   3.4047   3.7718   3.8360   3.9512   3.9991   4.0210   4.0523
     4.1782   4.2586   4.3204   4.4326   4.7687   4.8791   4.9436   5.0504
    11.5121  12.0720  12.5155  12.8103  12.8923  13.0375  13.1112  13.1808
    13.2571  13.3561

     occupation numbers 
     1.0000   1.0000   1.0000   1.0000   1.0000   1.0000   1.0000   1.0000
     1.0000   1.0000   1.0000   1.0000   1.0000   1.0000   1.0000   1.0000
     1.0000   1.0000   1.0000   1.0000   1.0000   1.0000   1.0000   1.0000
     1.0000   1.0000   1.0000   1.0000   1.0000   1.0000   1.0000   1.0000
     1.0000   1.0000   1.0000   1.0000   1.0000   1.0000   1.0000   1.0000
     1.0000   1.0000   1.0000   1.0000   1.0000   1.0000   1.0000   1.0000
     1.0000   1.0000   1.0000   1.0000   1.0000   1.0000   1.0000   1.0000
     1.0000   1.0000   1.0000   1.0000   1.0000   1.0000   1.0000   1.0000
     1.0000   1.0000   1.0000   1.0000   1.0000   1.0000   1.0000   1.0000
     1.0000   1.0000   1.0000   1.0000   1.0000   1.0000   1.0000   1.0000
     1.0000   1.0000   1.0000   1.0000   1.0000   1.0000   1.0000   1.0000
     1.0000   1.0000   1.0000   1.0000   1.0000   1.0000   1.0000   1.0000
     1.0000   1.0000   1.0000   1.0000   1.0000   1.0000   1.0000   1.0000
     0.0000   0.0000   0.0000   0.0000   0.0000   0.0000   0.0000   0.0000
     0.0000   0.0000

          k = 0.0000 0.7052 0.0000 ( 35904 PWs)   bands (ev):

   -85.0360 -85.0207 -85.0034 -84.5580 -51.1670 -51.1035 -51.1001 -50.9861
   -50.9820 -50.9818 -50.9566 -50.9094 -50.9001 -50.8954 -50.4995 -50.3070
   -44.9481 -16.9865 -16.9279 -16.8866 -16.0781 -15.9718 -15.8263 -15.7517
   -13.8324 -13.6714 -13.6450 -13.5529 -13.4960 -13.4797 -13.3456 -13.2846
   -13.2296 -13.1487 -13.1314 -13.0439  -3.8660  -3.7121  -3.2511  -3.0774
    -2.0785  -1.9305  -1.7132  -1.5555  -1.3406  -1.2164  -1.1419  -0.9203
    -0.8364  -0.6364  -0.6122  -0.4828  -0.0841   0.1352   0.2035   0.2992
     0.3861   0.4625   0.5536   0.6781   0.8237   0.8847   1.0253   1.1113
     1.3177   1.3528   1.4701   1.4880   1.6649   1.6833   1.8128   1.8892
     1.9858   2.1442   2.2695   2.3427   2.3654   2.5157   2.5246   2.5659
     2.7466   2.7977   2.9081   2.9835   3.1020   3.1168   3.1551   3.2492
     3.3071   3.4516   3.7490   3.8244   3.8727   3.9618   4.0069   4.0409
     4.1315   4.1482   4.2294   4.2518   4.6742   4.8980   5.0254   5.1207
    10.5338  11.2574  12.0908  12.3803  12.7039  13.0392  13.6273  13.7099
    13.8261  13.9814

     occupation numbers 
     1.0000   1.0000   1.0000   1.0000   1.0000   1.0000   1.0000   1.0000
     1.0000   1.0000   1.0000   1.0000   1.0000   1.0000   1.0000   1.0000
     1.0000   1.0000   1.0000   1.0000   1.0000   1.0000   1.0000   1.0000
     1.0000   1.0000   1.0000   1.0000   1.0000   1.0000   1.0000   1.0000
     1.0000   1.0000   1.0000   1.0000   1.0000   1.0000   1.0000   1.0000
     1.0000   1.0000   1.0000   1.0000   1.0000   1.0000   1.0000   1.0000
     1.0000   1.0000   1.0000   1.0000   1.0000   1.0000   1.0000   1.0000
     1.0000   1.0000   1.0000   1.0000   1.0000   1.0000   1.0000   1.0000
     1.0000   1.0000   1.0000   1.0000   1.0000   1.0000   1.0000   1.0000
     1.0000   1.0000   1.0000   1.0000   1.0000   1.0000   1.0000   1.0000
     1.0000   1.0000   1.0000   1.0000   1.0000   1.0000   1.0000   1.0000
     1.0000   1.0000   1.0000   1.0000   1.0000   1.0000   1.0000   1.0000
     1.0000   1.0000   1.0000   1.0000   1.0000   1.0000   1.0000   1.0000
     0.0000   0.0000   0.0000   0.0000   0.0000   0.0000   0.0000   0.0000
     0.0000   0.0000

          k = 0.0000 0.7052 0.2298 ( 35885 PWs)   bands (ev):

   -85.0360 -85.0207 -85.0034 -84.5580 -51.1670 -51.1035 -51.1001 -50.9861
   -50.9820 -50.9818 -50.9566 -50.9094 -50.9001 -50.8953 -50.4995 -50.3070
   -44.9481 -16.9871 -16.9337 -16.8864 -16.0682 -15.9613 -15.8184 -15.7459
[...]
     atom   24 type  3   force =     0.00402611   -0.00048357   -0.00134401
     atom   25 type  3   force =    -0.00380959    0.00252579   -0.00130470
     The non-local contrib.  to forces
     atom    1 type  2   force =     0.13384121    0.00000000   -0.02117453
     atom    2 type  1   force =     0.05561612    0.00000000    0.12163765
     atom    3 type  1   force =     0.04130813    0.00000000    0.09308770
     atom    4 type  1   force =    -0.20872419    0.00000000   -0.06302255
     atom    5 type  1   force =    -0.01953337    0.00000000   -0.10554595
     atom    6 type  4   force =     0.00036452    0.00000000   -0.02578948
     atom    7 type  4   force =     0.02158232    0.00000000    0.00339030
     atom    8 type  4   force =    -0.02510727    0.00000000    0.02417466
     atom    9 type  4   force =     0.02833855    0.00000000    0.03438437
     atom   10 type  3   force =     0.30934573    0.00000000   -1.47051057
     atom   11 type  3   force =    -0.11109625    0.00000000   -1.39201319
     atom   12 type  3   force =    -0.39423532    0.00000000    1.47214544
     atom   13 type  3   force =     0.23137655    0.00000000    1.47335907
     atom   14 type  3   force =     1.21951499    0.00000000   -0.60968204
     atom   15 type  3   force =    -1.19900008    0.00000000   -0.78833993
     atom   16 type  3   force =    -1.20356133    0.00000000    0.31636094
     atom   17 type  3   force =     1.17174588    0.00000000    0.62368899
     atom   18 type  3   force =    -0.52080171   -1.12031016    0.77072379
     atom   19 type  3   force =     0.53224463    1.18396647    0.80206294
     atom   20 type  3   force =     0.54786354   -1.13113975   -0.67762611
     atom   21 type  3   force =    -0.54298288    1.09193445   -0.68873609
     atom   22 type  3   force =     0.54786354    1.13113975   -0.67762611
     atom   23 type  3   force =    -0.54298288   -1.09193445   -0.68873609
     atom   24 type  3   force =    -0.52080171    1.12031016    0.77072379
     atom   25 type  3   force =     0.53224463   -1.18396647    0.80206294
     The ionic contribution  to forces
     atom    1 type  2   force =    -3.57031361    0.00034091    2.57479433
     atom    2 type  1   force =    -0.26788441   -0.00083185   -0.51555747
     atom    3 type  1   force =    -7.86248610    0.00099686   -0.71847570
     atom    4 type  1   force =     4.11150580    0.00079618   -0.38356349
     atom    5 type  1   force =     7.98060967   -0.00111842    0.68479268
     atom    6 type  4   force =    -3.02763034   -0.00027828    0.37982519
     atom    7 type  4   force =     0.28973494    0.00018476    0.46532015
     atom    8 type  4   force =     4.85086826    0.00026051   -0.66807677
     atom    9 type  4   force =    -2.32249298   -0.00018047   -0.76688462
     atom   10 type  3   force =   -10.19364049   -0.00028889    2.49829248
     atom   11 type  3   force =     3.75137395    0.00026685    1.06106831
     atom   12 type  3   force =    12.29763774    0.00027168   -2.65078650
     atom   13 type  3   force =    -8.39766976   -0.00031545   -1.98364110
     atom   14 type  3   force =     0.72537359   -0.00023070    5.55406698
     atom   15 type  3   force =    -1.84800133    0.00027184    7.08370239
     atom   16 type  3   force =    -1.99924825    0.00014572   -2.71919123
     atom   17 type  3   force =     3.56041464   -0.00028103   -6.23223103
     atom   18 type  3   force =    -3.97362867    2.76567501   -2.98321651
     atom   19 type  3   force =     0.86929363   -4.14611997   -2.55732552
     atom   20 type  3   force =     5.34121203    4.45473450    2.40019035
     atom   21 type  3   force =    -1.27593370   -1.27747377    1.30854630
     atom   22 type  3   force =     5.34146806   -4.45423952    2.40033054
     atom   23 type  3   force =    -1.27616432    1.27709635    1.30843639
     atom   24 type  3   force =    -3.97342594   -2.76618460   -2.98301972
     atom   25 type  3   force =     0.86902761    4.14650181   -2.55739641
     The local contribution  to forces
     atom    1 type  2   force =     3.44221807    0.00000000   -2.55161108
     atom    2 type  1   force =     0.20588691   -0.00891690    0.39435262
     atom    3 type  1   force =     7.82824686    0.00447356    0.62420625
     atom    4 type  1   force =    -3.90415400    0.00227726    0.44710116
     atom    5 type  1   force =    -7.96772237   -0.01101637   -0.57865967
     atom    6 type  4   force =     3.05753292   -0.00002512   -0.35118548
     atom    7 type  4   force =    -0.33389163   -0.00001889   -0.46445657
     atom    8 type  4   force =    -4.86214804   -0.00002256    0.63584947
     atom    9 type  4   force =     2.32782721   -0.00001317    0.73118906
     atom   10 type  3   force =     9.88335429   -0.00162153   -1.04229547
     atom   11 type  3   force =    -3.64234661    0.00000000    0.31854373
     atom   12 type  3   force =   -11.90208822    0.00000000    1.19464962
     atom   13 type  3   force =     8.16536360   -0.00157779    0.52443390
     atom   14 type  3   force =    -1.97139378   -0.00159757   -4.94153852
     atom   15 type  3   force =     3.07456146   -0.00000000   -6.29281072
     atom   16 type  3   force =     3.22492744    0.00055598    2.39941109
     atom   17 type  3   force =    -4.75518203   -0.00162739    5.60555156
     atom   18 type  3   force =     4.49395862   -1.65566028    2.21809393
     atom   19 type  3   force =    -1.40028362    2.96960705    1.76156615
     atom   20 type  3   force =    -5.88797296   -3.32993916   -1.72974402
     atom   21 type  3   force =     1.81699918    0.19311856   -0.62306653
     atom   22 type  3   force =    -5.88797019    3.32912264   -1.73004176
     atom   23 type  3   force =     1.81621465   -0.19485245   -0.62389462
     atom   24 type  3   force =     4.49387395    1.65394731    2.21793549
     atom   25 type  3   force =    -1.40114627   -2.97045552    1.76092201
     The core correction contribution to forces
     atom    1 type  2   force =     0.00000000    0.00000000    0.00000000
     atom    2 type  1   force =    -0.00057809    0.00030421   -0.00034909
     atom    3 type  1   force =     0.00011216   -0.00015318    0.00053642
     atom    4 type  1   force =     0.00398074   -0.00007621   -0.00122742
     atom    5 type  1   force =     0.00008766    0.00038311    0.00027422
     atom    6 type  4   force =    -0.00064503    0.00000270    0.00152733
     atom    7 type  4   force =    -0.00063033    0.00000141   -0.00058507
     atom    8 type  4   force =     0.00200459    0.00000127   -0.00114797
     atom    9 type  4   force =    -0.00284335    0.00000263   -0.00205534
     atom   10 type  3   force =    -0.00331314   -0.00000089    0.01283238
     atom   11 type  3   force =     0.00166413   -0.00000000    0.01201743
     atom   12 type  3   force =     0.00408277    0.00000000   -0.01280706
     atom   13 type  3   force =    -0.00266127   -0.00000088   -0.01281720
     atom   14 type  3   force =    -0.00975100   -0.00000098    0.00569727
     atom   15 type  3   force =     0.00958647    0.00000000    0.00721250
     atom   16 type  3   force =     0.00957420    0.00000027   -0.00304351
     atom   17 type  3   force =    -0.00946812   -0.00000099   -0.00578014
     atom   18 type  3   force =     0.00443734    0.00966635   -0.00696311
     atom   19 type  3   force =    -0.00449747   -0.01021278   -0.00724824
     atom   20 type  3   force =    -0.00472537    0.00974515    0.00608269
     atom   21 type  3   force =     0.00464571   -0.00949305    0.00625394
     atom   22 type  3   force =    -0.00472557   -0.00974634    0.00608234
     atom   23 type  3   force =     0.00464420    0.00949018    0.00625270
     atom   24 type  3   force =     0.00443796   -0.00966889   -0.00696315
     atom   25 type  3   force =    -0.00449806    0.01021184   -0.00724927
     The Hubbard contrib.    to forces
     atom    1 type  2   force =     0.00000000    0.00000000    0.00000000
     atom    2 type  1   force =     0.00000000    0.00000000    0.00000000
     atom    3 type  1   force =     0.00000000    0.00000000    0.00000000
     atom    4 type  1   force =     0.00000000    0.00000000    0.00000000
     atom    5 type  1   force =     0.00000000    0.00000000    0.00000000
     atom    6 type  4   force =     0.00000000    0.00000000    0.00000000
     atom    7 type  4   force =     0.00000000    0.00000000    0.00000000
     atom    8 type  4   force =     0.00000000    0.00000000    0.00000000
     atom    9 type  4   force =     0.00000000    0.00000000    0.00000000
     atom   10 type  3   force =     0.00000000    0.00000000    0.00000000
     atom   11 type  3   force =     0.00000000    0.00000000    0.00000000
     atom   12 type  3   force =     0.00000000    0.00000000    0.00000000
     atom   13 type  3   force =     0.00000000    0.00000000    0.00000000
     atom   14 type  3   force =     0.00000000    0.00000000    0.00000000
     atom   15 type  3   force =     0.00000000    0.00000000    0.00000000
     atom   16 type  3   force =     0.00000000    0.00000000    0.00000000
     atom   17 type  3   force =     0.00000000    0.00000000    0.00000000
     atom   18 type  3   force =     0.00000000    0.00000000    0.00000000
     atom   19 type  3   force =     0.00000000    0.00000000    0.00000000
     atom   20 type  3   force =     0.00000000    0.00000000    0.00000000
     atom   21 type  3   force =     0.00000000    0.00000000    0.00000000
     atom   22 type  3   force =     0.00000000    0.00000000    0.00000000
     atom   23 type  3   force =     0.00000000    0.00000000    0.00000000
     atom   24 type  3   force =     0.00000000    0.00000000    0.00000000
     atom   25 type  3   force =     0.00000000    0.00000000    0.00000000
     The SCF correction term to forces
     atom    1 type  2   force =    -0.00000258   -0.00000000    0.00000053
     atom    2 type  1   force =    -0.00000240    0.00000001   -0.00000167
     atom    3 type  1   force =     0.00000061   -0.00000001    0.00000119
     atom    4 type  1   force =     0.00000160   -0.00000000    0.00000108
     atom    5 type  1   force =    -0.00000074    0.00000002    0.00000126
     atom    6 type  4   force =     0.00000157    0.00000000    0.00000025
     atom    7 type  4   force =    -0.00000164   -0.00000000   -0.00000020
     atom    8 type  4   force =     0.00000106   -0.00000000    0.00000019
     atom    9 type  4   force =    -0.00000155    0.00000000   -0.00000022
     atom   10 type  3   force =     0.00000239    0.00000000   -0.00000011
     atom   11 type  3   force =    -0.00000254   -0.00000000    0.00000037
     atom   12 type  3   force =     0.00000128   -0.00000000   -0.00000045
     atom   13 type  3   force =    -0.00000238    0.00000000    0.00000073
     atom   14 type  3   force =    -0.00000285    0.00000000   -0.00000015
     atom   15 type  3   force =     0.00000379   -0.00000000    0.00000023
     atom   16 type  3   force =    -0.00000201   -0.00000000   -0.00000009
     atom   17 type  3   force =     0.00000413    0.00000000   -0.00000033
     atom   18 type  3   force =     0.00000142    0.00000011    0.00000016
     atom   19 type  3   force =    -0.00000191   -0.00000034   -0.00000056
     atom   20 type  3   force =     0.00000074   -0.00000022    0.00000033
     atom   21 type  3   force =    -0.00000132   -0.00000013   -0.00000045
     atom   22 type  3   force =     0.00000074    0.00000022    0.00000033
     atom   23 type  3   force =    -0.00000132    0.00000013   -0.00000045
     atom   24 type  3   force =     0.00000142   -0.00000011    0.00000016
     atom   25 type  3   force =    -0.00000191    0.00000034   -0.00000056

     Total force =     0.095607     Total SCF correction =     0.000011


     Computing stress (Cartesian axis) and pressure


     negative rho (up, down):  0.000E+00 8.218E-04
          total   stress  (Ry/bohr**3)                   (kbar)     P=        4.28
   0.00012812   0.00000000  -0.00001787           18.85        0.00       -2.63
   0.00000000  -0.00013421   0.00000000            0.00      -19.74        0.00
  -0.00001787   0.00000000   0.00009330           -2.63        0.00       13.72

     kinetic stress (kbar)  26925.82      0.00     -9.98
                                0.00  27124.28      0.00
                               -9.98      0.00  26932.82

     local   stress (kbar)  -4760.32     -0.06   1196.23
                               -0.06 -13176.90     -0.00
                             1196.23     -0.00  -8889.92

     nonloc. stress (kbar)  -6870.68      0.00      1.65
                                0.00  -6804.43      0.00
                                1.65      0.00  -6827.02

     hartree stress (kbar)  12764.56      0.00   -491.33
                                0.00  17675.54     -0.00
                             -491.33     -0.00  15272.65

     exc-cor stress (kbar)  -2850.21      0.00     -0.76
                                0.00  -2858.59     -0.00
                               -0.76     -0.00  -2855.25

     corecor stress (kbar)  -3169.20     -0.00      0.85
                               -0.00  -3167.81      0.00
                                0.85      0.00  -3168.92

     ewald   stress (kbar) -22021.14      0.05   -699.30
                                0.05 -18811.83      0.00
                             -699.30      0.00 -20450.64

     hubbard stress (kbar)      0.00      0.00      0.00
                                0.00      0.00      0.00
                                0.00      0.00      0.00

     DFT-D   stress (kbar)      0.00      0.00      0.00
                                0.00      0.00      0.00
                                0.00      0.00      0.00

     XDM     stress (kbar)      0.00      0.00      0.00
                                0.00      0.00      0.00
                                0.00      0.00      0.00

     dft-nl  stress (kbar)      0.00      0.00      0.00
                                0.00      0.00      0.00
                                0.00      0.00      0.00

     TS-vdW  stress (kbar)      0.00      0.00      0.00
                                0.00      0.00      0.00
                                0.00      0.00      0.00



     init_run     :    117.10s CPU    119.58s WALL (       1 calls)
     electrons    :   9165.93s CPU   9277.53s WALL (       1 calls)
     forces       :     73.50s CPU     74.53s WALL (       1 calls)
     stress       :    468.54s CPU    470.34s WALL (       1 calls)

     Called by init_run:
     wfcinit      :    106.90s CPU    108.53s WALL (       1 calls)
     wfcinit:atom :      1.59s CPU      1.60s WALL (     184 calls)
     wfcinit:wfcr :    100.08s CPU    101.64s WALL (     184 calls)
     potinit      :      3.64s CPU      3.78s WALL (       1 calls)
     hinit0       :      3.40s CPU      3.53s WALL (       1 calls)

     Called by electrons:
     c_bands      :   8066.71s CPU   8133.96s WALL (      30 calls)
     sum_band     :    993.49s CPU   1023.21s WALL (      30 calls)
     v_of_rho     :     28.36s CPU     29.19s WALL (      31 calls)
     v_h          :      1.23s CPU      1.29s WALL (      31 calls)
     v_xc         :     28.93s CPU     29.74s WALL (      33 calls)
     newd         :     56.99s CPU     70.95s WALL (      31 calls)
     PAW_pot      :     13.64s CPU     13.64s WALL (      31 calls)
     mix_rho      :      6.48s CPU      6.63s WALL (      30 calls)

     Called by c_bands:
     init_us_2    :    164.91s CPU    165.78s WALL (   11592 calls)
     cegterg      :   7812.25s CPU   7877.35s WALL (    5520 calls)

     Called by sum_band:
     sum_band:wei :      0.29s CPU      0.29s WALL (      30 calls)
     sum_band:loo :    834.23s CPU    844.75s WALL (      30 calls)
     sum_band:buf :     42.42s CPU     42.68s WALL (    5520 calls)
     sum_band:ini :     79.50s CPU     79.80s WALL (    5520 calls)
     sum_band:cal :    384.01s CPU    386.77s WALL (    5520 calls)
     sum_band:bec :      2.89s CPU      2.94s WALL (    5520 calls)
     addusdens    :    152.23s CPU    171.01s WALL (      30 calls)
     addusd:skk   :      1.06s CPU      1.08s WALL (      90 calls)
     addusd:dgemm :     75.68s CPU     94.02s WALL (     180 calls)
     addusd:qvan2 :     73.24s CPU     73.48s WALL (     180 calls)

     Called by *egterg:
     cdiaghg      :    488.51s CPU    500.20s WALL (   22404 calls)
     cegterg:over :    762.60s CPU    768.88s WALL (   16884 calls)
     cegterg:upda :    438.20s CPU    438.80s WALL (   16884 calls)
     cegterg:last :   1008.18s CPU   1009.11s WALL (   10427 calls)
     h_psi        :   3694.09s CPU   3736.62s WALL (   22588 calls)
     s_psi        :    983.36s CPU    984.61s WALL (   22588 calls)
     g_psi        :      8.86s CPU      8.93s WALL (   16884 calls)

     Called by h_psi:
     h_psi:calbec :   1048.87s CPU   1056.63s WALL (   22588 calls)
     vloc_psi     :   1486.00s CPU   1518.13s WALL (   22588 calls)
     add_vuspsi   :   1065.09s CPU   1066.73s WALL (   22588 calls)

     General routines
     calbec       :   1495.10s CPU   1506.25s WALL (   29028 calls)
     fft          :     22.68s CPU     23.86s WALL (     813 calls)
     ffts         :      0.53s CPU      0.69s WALL (     122 calls)
     fftw         :   1672.32s CPU   1708.23s WALL ( 3500876 calls)
     interpolate  :      2.22s CPU      2.44s WALL (      62 calls)

     Parallel routines
     fft_scatt_xy :    170.11s CPU    173.64s WALL ( 3501811 calls)
     fft_scatt_yz :    507.29s CPU    520.05s WALL ( 3501811 calls)

     PAW routines
     PAW_pot      :     13.64s CPU     13.64s WALL (      31 calls)
     PAW_symme    :      0.13s CPU      0.13s WALL (      61 calls)

     PWSCF        :      2h43m CPU      2h45m WALL


   This run was terminated on:   9:48: 4  18Dec2022            

=------------------------------------------------------------------------------=
   JOB DONE.
=------------------------------------------------------------------------------=
Note: The following floating-point exceptions are signalling: IEEE_UNDERFLOW_FLAG IEEE_DENORMAL
Note: The following floating-point exceptions are signalling: IEEE_DENORMAL
Note: The following floating-point exceptions are signalling: IEEE_DENORMAL
Note: The following floating-point exceptions are signalling: IEEE_DENORMAL
Note: The following floating-point exceptions are signalling: IEEE_DENORMAL
Note: The following floating-point exceptions are signalling: IEEE_DENORMAL
Note: The following floating-point exceptions are signalling: IEEE_DENORMAL
Note: The following floating-point exceptions are signalling: IEEE_DENORMAL
Note: The following floating-point exceptions are signalling: IEEE_DENORMAL
Note: The following floating-point exceptions are signalling: IEEE_DENORMAL
Note: The following floating-point exceptions are signalling: IEEE_DENORMAL
Note: The following floating-point exceptions are signalling: IEEE_DENORMAL
Note: The following floating-point exceptions are signalling: IEEE_INVALID_FLAG IEEE_DENORMAL
Note: The following floating-point exceptions are signalling: IEEE_DENORMAL
Note: The following floating-point exceptions are signalling: IEEE_DENORMAL
Note: The following floating-point exceptions are signalling: IEEE_INVALID_FLAG IEEE_DENORMAL
Note: The following floating-point exceptions are signalling: IEEE_DENORMAL
Note: The following floating-point exceptions are signalling: IEEE_DENORMAL
Note: The following floating-point exceptions are signalling: IEEE_DENORMAL
Note: The following floating-point exceptions are signalling: IEEE_DENORMAL
Note: The following floating-point exceptions are signalling: IEEE_DENORMAL
Note: The following floating-point exceptions are signalling: IEEE_INVALID_FLAG IEEE_DENORMAL
Note: The following floating-point exceptions are signalling: IEEE_DENORMAL
