
     Program PWSCF v.6.7MaX starts on 21Dec2022 at  6: 3:41 

     This program is part of the open-source Quantum ESPRESSO suite
     for quantum simulation of materials; please cite
         "P. Giannozzi et al., J. Phys.:Condens. Matter 21 395502 (2009);
         "P. Giannozzi et al., J. Phys.:Condens. Matter 29 465901 (2017);
          URL http://www.quantum-espresso.org", 
     in publications or presentations arising from this work. More details at
     http://www.quantum-espresso.org/quote

     Parallel version (MPI), running on    24 processors

     MPI processes distributed on     1 nodes
     R & G space division:  proc/nbgrp/npool/nimage =      24
     Reading input from scale_3d-01.in

     Current dimensions of program PWSCF are:
     Max number of different atomic species (ntypx) = 10
     Max number of k-points (npk) =  40000
     Max angular momentum in pseudopotentials (lmaxx) =  3
     Message from routine read_pp_mesh:
     mesh size missing, using the one in header
     file Fe.pbe-spn-kjpaw_psl.0.2.1.UPF: wavefunction(s)  3D renormalized
     file O.pbe-n-kjpaw_psl.0.1.UPF: wavefunction(s)  2P renormalized

     Subspace diagonalization in iterative solution of the eigenvalue problem:
     a serial algorithm will be used


     Parallelization info
     --------------------
     sticks:   dense  smooth     PW     G-vecs:    dense   smooth      PW
     Min         773     287     77                48734    10983    1547
     Max         775     288     78                48735    10985    1548
     Sum       18565    6893   1863              1169635   263601   37143



     bravais-lattice index     =            0
     lattice parameter (alat)  =      19.0096  a.u.
     unit-cell volume          =    1951.4432 (a.u.)^3
     number of atoms/cell      =           25
     number of atomic types    =            4
     number of electrons       =       189.00
     number of Kohn-Sham states=          114
     kinetic-energy cutoff     =     100.0000  Ry
     charge density cutoff     =    1080.0000  Ry
     scf convergence threshold =      2.0E-10
     mixing beta               =       0.4000
     number of iterations used =            8  plain     mixing
     Exchange-correlation= PBE
                           (   1   4   3   4   0   0   0)

     celldm(1)=  19.009555  celldm(2)=   0.000000  celldm(3)=   0.000000
     celldm(4)=   0.000000  celldm(5)=   0.000000  celldm(6)=   0.000000

     crystal axes: (cart. coord. in units of alat)
               a(1) = (   1.000000   0.000000   0.000000 )  
               a(2) = (   0.000000   0.597590   0.000000 )  
               a(3) = (   0.000000   0.000000   0.475375 )  

     reciprocal axes: (cart. coord. in units 2 pi/alat)
               b(1) = (  1.000000  0.000000  0.000000 )  
               b(2) = (  0.000000  1.673388  0.000000 )  
               b(3) = (  0.000000  0.000000  2.103600 )  


     PseudoPot. # 1 for Fe read from file:
     /opt/QEpot/SSSP_precision_pseudos/Fe.pbe-spn-kjpaw_psl.0.2.1.UPF
     MD5 check sum: e86618425769142926afa95317d90200
     Pseudo is Projector augmented-wave + core cor, Zval = 16.0
     Generated using "atomic" code by A. Dal Corso  v.5.0.99 svn rev. 10869
     Shape of augmentation charge: PSQ
     Using radial grid of 1191 points,  6 beta functions with: 
                l(1) =   0
                l(2) =   0
                l(3) =   1
                l(4) =   1
                l(5) =   2
                l(6) =   2
     Q(r) pseudized with 0 coefficients 


     PseudoPot. # 2 for Na read from file:
     /opt/QEpot/SSSP_precision_pseudos/Na_ONCV_PBE-1.0.oncvpsp.upf
     MD5 check sum: 24a298df0a6742ae313db96548fdb2a4
     Pseudo is Norm-conserving, Zval =  9.0
     Generated using ONCVPSP code by D. R. Hamann
     Using radial grid of 1992 points,  4 beta functions with: 
                l(1) =   0
                l(2) =   0
                l(3) =   1
                l(4) =   1

     PseudoPot. # 3 for O  read from file:
     /opt/QEpot/SSSP_precision_pseudos/O.pbe-n-kjpaw_psl.0.1.UPF
     MD5 check sum: 0234752ac141de4415c5fc33072bef88
     Pseudo is Projector augmented-wave + core cor, Zval =  6.0
     Generated using "atomic" code by A. Dal Corso  v.5.0.99 svn rev. 10869
     Shape of augmentation charge: BESSEL
     Using radial grid of 1095 points,  4 beta functions with: 
                l(1) =   0
                l(2) =   0
                l(3) =   1
                l(4) =   1
     Q(r) pseudized with 0 coefficients 


     PseudoPot. # 4 for P  read from file:
     /opt/QEpot/SSSP_precision_pseudos/P.pbe-n-rrkjus_psl.1.0.0.UPF
     MD5 check sum: 8b930f418f0a4573dca56cd030ffe088
     Pseudo is Ultrasoft + core correction, Zval =  5.0
     Generated using "atomic" code by A. Dal Corso  v.5.1
     Using radial grid of 1147 points,  6 beta functions with: 
                l(1) =   0
                l(2) =   0
                l(3) =   1
                l(4) =   1
                l(5) =   2
                l(6) =   2
     Q(r) pseudized with 0 coefficients 


     atomic species   valence    mass     pseudopotential
        Fe            16.00    55.84500     Fe( 1.00)
        Na             9.00    22.98977     Na( 1.00)
        O              6.00    15.99940     O ( 1.00)
        P              5.00    30.97376     P ( 1.00)

     Starting magnetic structure 
     atomic species   magnetization
        Fe           0.312
        Na           0.000
        O            0.000
        P            0.000

     No symmetry found


                                    s                        frac. trans.

      isym =  1     identity                                     

 cryst.   s( 1) = (     1          0          0      )
                  (     0          1          0      )
                  (     0          0          1      )

 cart.    s( 1) = (  1.0000000  0.0000000  0.0000000 )
                  (  0.0000000  1.0000000  0.0000000 )
                  (  0.0000000  0.0000000  1.0000000 )


   Cartesian axes

     site n.     atom                  positions (alat units)
         1           Na  tau(   1) = (   0.5574590   0.1493981   0.2117218  )
         2           Fe  tau(   2) = (   0.2771150   0.4481954   0.4712830  )
         3           Fe  tau(   3) = (   0.2107060   0.1493969   0.2331517  )
         4           Fe  tau(   4) = (   0.7302140   0.1493975   0.0000509  )
         5           Fe  tau(   5) = (   0.7810190   0.4481960   0.2445945  )
         6           P   tau(   6) = (   0.1051510   0.4481942   0.2110135  )
         7           P   tau(   7) = (   0.3871250   0.1493987   0.4475898  )
         8           P   tau(   8) = (   0.8922730   0.1493987   0.2646059  )
         9           P   tau(   9) = (   0.6039150   0.4481942   0.0314295  )
        10           O   tau(  10) = (   0.1313210   0.4481948   0.3569352  )
        11           O   tau(  11) = (   0.3628270   0.1493981   0.1186442  )
        12           O   tau(  12) = (   0.8714480   0.1493981   0.1180971  )
        13           O   tau(  13) = (   0.6323650   0.4481948   0.3613614  )
        14           O   tau(  14) = (   0.4574600   0.4481948   0.0568269  )
        15           O   tau(  15) = (   0.0361810   0.1493981   0.2982587  )
        16           O   tau(  16) = (   0.5358400   0.1493975   0.4259246  )
        17           O   tau(  17) = (   0.9582930   0.4481948   0.1859797  )
        18           O   tau(  18) = (   0.1741600   0.5648814   0.1424125  )
        19           O   tau(  19) = (   0.3208130   0.0329153   0.3780219  )
        20           O   tau(  20) = (   0.8175190   0.2646445   0.3306455  )
        21           O   tau(  21) = (   0.6721860   0.3307857   0.1012997  )
        22           O   tau(  22) = (   0.8175190   0.0341529   0.3306460  )
        23           O   tau(  23) = (   0.6721870   0.5656027   0.1013006  )
        24           O   tau(  24) = (   0.1741600   0.3315070   0.1424125  )
        25           O   tau(  25) = (   0.3208140   0.2658821   0.3780229  )

   Crystallographic axes

     site n.     atom                  positions (cryst. coord.)
         1           Na  tau(   1) = (  0.5574590  0.2500010  0.4453780  )
         2           Fe  tau(   2) = (  0.2771150  0.7500050  0.9913910  )
         3           Fe  tau(   3) = (  0.2107060  0.2499990  0.4904580  )
         4           Fe  tau(   4) = (  0.7302140  0.2500000  0.0001070  )
         5           Fe  tau(   5) = (  0.7810190  0.7500060  0.5145290  )
         6           P   tau(   6) = (  0.1051510  0.7500030  0.4438880  )
         7           P   tau(   7) = (  0.3871250  0.2500020  0.9415500  )
         8           P   tau(   8) = (  0.8922730  0.2500020  0.5566250  )
         9           P   tau(   9) = (  0.6039150  0.7500030  0.0661150  )
        10           O   tau(  10) = (  0.1313210  0.7500040  0.7508490  )
        11           O   tau(  11) = (  0.3628270  0.2500010  0.2495800  )
        12           O   tau(  12) = (  0.8714480  0.2500010  0.2484290  )
        13           O   tau(  13) = (  0.6323650  0.7500040  0.7601600  )
        14           O   tau(  14) = (  0.4574600  0.7500040  0.1195410  )
        15           O   tau(  15) = (  0.0361810  0.2500010  0.6274170  )
        16           O   tau(  16) = (  0.5358400  0.2500000  0.8959750  )
        17           O   tau(  17) = (  0.9582930  0.7500040  0.3912270  )
        18           O   tau(  18) = (  0.1741600  0.9452660  0.2995790  )
        19           O   tau(  19) = (  0.3208130  0.0550800  0.7952070  )
        20           O   tau(  20) = (  0.8175190  0.4428530  0.6955460  )
        21           O   tau(  21) = (  0.6721860  0.5535330  0.2130940  )
        22           O   tau(  22) = (  0.8175190  0.0571510  0.6955470  )
        23           O   tau(  23) = (  0.6721870  0.9464730  0.2130960  )
        24           O   tau(  24) = (  0.1741600  0.5547400  0.2995790  )
        25           O   tau(  25) = (  0.3208140  0.4449240  0.7952090  )

     number of k points=   158  Marzari-Vanderbilt smearing, width (Ry)=  0.0073
                       cart. coord. in units 2pi/alat
        k(    1) = (   0.0000000   0.0000000   0.0000000), wk =   0.0031746
        k(    2) = (   0.0000000   0.0000000   0.2337334), wk =   0.0063492
        k(    3) = (   0.0000000   0.0000000   0.4674667), wk =   0.0063492
        k(    4) = (   0.0000000   0.0000000   0.7012001), wk =   0.0063492
        k(    5) = (   0.0000000   0.0000000   0.9349334), wk =   0.0063492
        k(    6) = (   0.0000000   0.2390555   0.0000000), wk =   0.0063492
        k(    7) = (   0.0000000   0.2390555   0.2337334), wk =   0.0063492
        k(    8) = (   0.0000000   0.2390555   0.4674667), wk =   0.0063492
        k(    9) = (   0.0000000   0.2390555   0.7012001), wk =   0.0063492
        k(   10) = (   0.0000000   0.2390555   0.9349334), wk =   0.0063492
        k(   11) = (   0.0000000   0.4781110   0.0000000), wk =   0.0063492
        k(   12) = (   0.0000000   0.4781110   0.2337334), wk =   0.0063492
        k(   13) = (   0.0000000   0.4781110   0.4674667), wk =   0.0063492
        k(   14) = (   0.0000000   0.4781110   0.7012001), wk =   0.0063492
        k(   15) = (   0.0000000   0.4781110   0.9349334), wk =   0.0063492
        k(   16) = (   0.0000000   0.7171664   0.0000000), wk =   0.0063492
        k(   17) = (   0.0000000   0.7171664   0.2337334), wk =   0.0063492
        k(   18) = (   0.0000000   0.7171664   0.4674667), wk =   0.0063492
        k(   19) = (   0.0000000   0.7171664   0.7012001), wk =   0.0063492
        k(   20) = (   0.0000000   0.7171664   0.9349334), wk =   0.0063492
        k(   21) = (   0.2000000   0.0000000   0.0000000), wk =   0.0063492
        k(   22) = (   0.2000000   0.0000000   0.2337334), wk =   0.0063492
        k(   23) = (   0.2000000   0.0000000   0.4674667), wk =   0.0063492
        k(   24) = (   0.2000000   0.0000000   0.7012001), wk =   0.0063492
        k(   25) = (   0.2000000   0.0000000   0.9349334), wk =   0.0063492
        k(   26) = (   0.2000000   0.2390555   0.0000000), wk =   0.0063492
        k(   27) = (   0.2000000   0.2390555   0.2337334), wk =   0.0063492
        k(   28) = (   0.2000000   0.2390555   0.4674667), wk =   0.0063492
        k(   29) = (   0.2000000   0.2390555   0.7012001), wk =   0.0063492
        k(   30) = (   0.2000000   0.2390555   0.9349334), wk =   0.0063492
        k(   31) = (   0.2000000   0.4781110   0.0000000), wk =   0.0063492
        k(   32) = (   0.2000000   0.4781110   0.2337334), wk =   0.0063492
        k(   33) = (   0.2000000   0.4781110   0.4674667), wk =   0.0063492
        k(   34) = (   0.2000000   0.4781110   0.7012001), wk =   0.0063492
        k(   35) = (   0.2000000   0.4781110   0.9349334), wk =   0.0063492
        k(   36) = (   0.2000000   0.7171664   0.0000000), wk =   0.0063492
        k(   37) = (   0.2000000   0.7171664   0.2337334), wk =   0.0063492
        k(   38) = (   0.2000000   0.7171664   0.4674667), wk =   0.0063492
        k(   39) = (   0.2000000   0.7171664   0.7012001), wk =   0.0063492
        k(   40) = (   0.2000000   0.7171664   0.9349334), wk =   0.0063492
        k(   41) = (   0.4000000   0.0000000   0.0000000), wk =   0.0063492
        k(   42) = (   0.4000000   0.0000000   0.2337334), wk =   0.0063492
        k(   43) = (   0.4000000   0.0000000   0.4674667), wk =   0.0063492
        k(   44) = (   0.4000000   0.0000000   0.7012001), wk =   0.0063492
        k(   45) = (   0.4000000   0.0000000   0.9349334), wk =   0.0063492
        k(   46) = (   0.4000000   0.2390555   0.0000000), wk =   0.0063492
        k(   47) = (   0.4000000   0.2390555   0.2337334), wk =   0.0063492
        k(   48) = (   0.4000000   0.2390555   0.4674667), wk =   0.0063492
        k(   49) = (   0.4000000   0.2390555   0.7012001), wk =   0.0063492
        k(   50) = (   0.4000000   0.2390555   0.9349334), wk =   0.0063492
        k(   51) = (   0.4000000   0.4781110   0.0000000), wk =   0.0063492
        k(   52) = (   0.4000000   0.4781110   0.2337334), wk =   0.0063492
        k(   53) = (   0.4000000   0.4781110   0.4674667), wk =   0.0063492
        k(   54) = (   0.4000000   0.4781110   0.7012001), wk =   0.0063492
        k(   55) = (   0.4000000   0.4781110   0.9349334), wk =   0.0063492
        k(   56) = (   0.4000000   0.7171664   0.0000000), wk =   0.0063492
        k(   57) = (   0.4000000   0.7171664   0.2337334), wk =   0.0063492
        k(   58) = (   0.4000000   0.7171664   0.4674667), wk =   0.0063492
        k(   59) = (   0.4000000   0.7171664   0.7012001), wk =   0.0063492
        k(   60) = (   0.4000000   0.7171664   0.9349334), wk =   0.0063492
        k(   61) = (   0.0000000  -0.2390555   0.2337334), wk =   0.0063492
        k(   62) = (   0.0000000  -0.2390555   0.4674667), wk =   0.0063492
        k(   63) = (   0.0000000  -0.2390555   0.7012001), wk =   0.0063492
        k(   64) = (   0.0000000  -0.2390555   0.9349334), wk =   0.0063492
        k(   65) = (   0.0000000  -0.4781110   0.2337334), wk =   0.0063492
        k(   66) = (   0.0000000  -0.4781110   0.4674667), wk =   0.0063492
        k(   67) = (   0.0000000  -0.4781110   0.7012001), wk =   0.0063492
        k(   68) = (   0.0000000  -0.4781110   0.9349334), wk =   0.0063492
        k(   69) = (   0.0000000  -0.7171664   0.2337334), wk =   0.0063492
        k(   70) = (   0.0000000  -0.7171664   0.4674667), wk =   0.0063492
        k(   71) = (   0.0000000  -0.7171664   0.7012001), wk =   0.0063492
        k(   72) = (   0.0000000  -0.7171664   0.9349334), wk =   0.0063492
        k(   73) = (  -0.2000000   0.0000000   0.2337334), wk =   0.0063492
        k(   74) = (  -0.2000000   0.0000000   0.4674667), wk =   0.0063492
        k(   75) = (  -0.2000000   0.0000000   0.7012001), wk =   0.0063492
        k(   76) = (  -0.2000000   0.0000000   0.9349334), wk =   0.0063492
        k(   77) = (  -0.2000000   0.2390555   0.0000000), wk =   0.0063492
        k(   78) = (  -0.2000000  -0.2390555   0.2337334), wk =   0.0063492
        k(   79) = (  -0.2000000   0.2390555  -0.2337334), wk =   0.0063492
        k(   80) = (   0.2000000  -0.2390555  -0.2337334), wk =   0.0063492
        k(   81) = (  -0.2000000  -0.2390555   0.4674667), wk =   0.0063492
        k(   82) = (  -0.2000000   0.2390555  -0.4674667), wk =   0.0063492
        k(   83) = (   0.2000000  -0.2390555  -0.4674667), wk =   0.0063492
        k(   84) = (  -0.2000000  -0.2390555   0.7012001), wk =   0.0063492
        k(   85) = (  -0.2000000   0.2390555  -0.7012001), wk =   0.0063492
        k(   86) = (   0.2000000  -0.2390555  -0.7012001), wk =   0.0063492
        k(   87) = (  -0.2000000  -0.2390555   0.9349334), wk =   0.0063492
        k(   88) = (  -0.2000000   0.2390555  -0.9349334), wk =   0.0063492
        k(   89) = (   0.2000000  -0.2390555  -0.9349334), wk =   0.0063492
        k(   90) = (  -0.2000000   0.4781110   0.0000000), wk =   0.0063492
        k(   91) = (  -0.2000000  -0.4781110   0.2337334), wk =   0.0063492
        k(   92) = (  -0.2000000   0.4781110  -0.2337334), wk =   0.0063492
        k(   93) = (   0.2000000  -0.4781110  -0.2337334), wk =   0.0063492
        k(   94) = (  -0.2000000  -0.4781110   0.4674667), wk =   0.0063492
        k(   95) = (  -0.2000000   0.4781110  -0.4674667), wk =   0.0063492
        k(   96) = (   0.2000000  -0.4781110  -0.4674667), wk =   0.0063492
        k(   97) = (  -0.2000000  -0.4781110   0.7012001), wk =   0.0063492
        k(   98) = (  -0.2000000   0.4781110  -0.7012001), wk =   0.0063492
        k(   99) = (   0.2000000  -0.4781110  -0.7012001), wk =   0.0063492
        k(  100) = (  -0.2000000  -0.4781110   0.9349334), wk =   0.0063492
        k(  101) = (  -0.2000000   0.4781110  -0.9349334), wk =   0.0063492
        k(  102) = (   0.2000000  -0.4781110  -0.9349334), wk =   0.0063492
        k(  103) = (  -0.2000000   0.7171664   0.0000000), wk =   0.0063492
        k(  104) = (  -0.2000000  -0.7171664   0.2337334), wk =   0.0063492
        k(  105) = (  -0.2000000   0.7171664  -0.2337334), wk =   0.0063492
        k(  106) = (   0.2000000  -0.7171664  -0.2337334), wk =   0.0063492
        k(  107) = (  -0.2000000  -0.7171664   0.4674667), wk =   0.0063492
        k(  108) = (  -0.2000000   0.7171664  -0.4674667), wk =   0.0063492
        k(  109) = (   0.2000000  -0.7171664  -0.4674667), wk =   0.0063492
        k(  110) = (  -0.2000000  -0.7171664   0.7012001), wk =   0.0063492
        k(  111) = (  -0.2000000   0.7171664  -0.7012001), wk =   0.0063492
        k(  112) = (   0.2000000  -0.7171664  -0.7012001), wk =   0.0063492
        k(  113) = (  -0.2000000  -0.7171664   0.9349334), wk =   0.0063492
        k(  114) = (  -0.2000000   0.7171664  -0.9349334), wk =   0.0063492
        k(  115) = (   0.2000000  -0.7171664  -0.9349334), wk =   0.0063492
        k(  116) = (  -0.4000000   0.0000000   0.2337334), wk =   0.0063492
        k(  117) = (  -0.4000000   0.0000000   0.4674667), wk =   0.0063492
        k(  118) = (  -0.4000000   0.0000000   0.7012001), wk =   0.0063492
        k(  119) = (  -0.4000000   0.0000000   0.9349334), wk =   0.0063492
        k(  120) = (  -0.4000000   0.2390555   0.0000000), wk =   0.0063492
        k(  121) = (  -0.4000000  -0.2390555   0.2337334), wk =   0.0063492
        k(  122) = (  -0.4000000   0.2390555  -0.2337334), wk =   0.0063492
        k(  123) = (   0.4000000  -0.2390555  -0.2337334), wk =   0.0063492
        k(  124) = (  -0.4000000  -0.2390555   0.4674667), wk =   0.0063492
        k(  125) = (  -0.4000000   0.2390555  -0.4674667), wk =   0.0063492
        k(  126) = (   0.4000000  -0.2390555  -0.4674667), wk =   0.0063492
        k(  127) = (  -0.4000000  -0.2390555   0.7012001), wk =   0.0063492
        k(  128) = (  -0.4000000   0.2390555  -0.7012001), wk =   0.0063492
        k(  129) = (   0.4000000  -0.2390555  -0.7012001), wk =   0.0063492
        k(  130) = (  -0.4000000  -0.2390555   0.9349334), wk =   0.0063492
        k(  131) = (  -0.4000000   0.2390555  -0.9349334), wk =   0.0063492
        k(  132) = (   0.4000000  -0.2390555  -0.9349334), wk =   0.0063492
        k(  133) = (  -0.4000000   0.4781110   0.0000000), wk =   0.0063492
        k(  134) = (  -0.4000000  -0.4781110   0.2337334), wk =   0.0063492
        k(  135) = (  -0.4000000   0.4781110  -0.2337334), wk =   0.0063492
        k(  136) = (   0.4000000  -0.4781110  -0.2337334), wk =   0.0063492
        k(  137) = (  -0.4000000  -0.4781110   0.4674667), wk =   0.0063492
        k(  138) = (  -0.4000000   0.4781110  -0.4674667), wk =   0.0063492
        k(  139) = (   0.4000000  -0.4781110  -0.4674667), wk =   0.0063492
        k(  140) = (  -0.4000000  -0.4781110   0.7012001), wk =   0.0063492
        k(  141) = (  -0.4000000   0.4781110  -0.7012001), wk =   0.0063492
        k(  142) = (   0.4000000  -0.4781110  -0.7012001), wk =   0.0063492
        k(  143) = (  -0.4000000  -0.4781110   0.9349334), wk =   0.0063492
        k(  144) = (  -0.4000000   0.4781110  -0.9349334), wk =   0.0063492
        k(  145) = (   0.4000000  -0.4781110  -0.9349334), wk =   0.0063492
        k(  146) = (  -0.4000000   0.7171664   0.0000000), wk =   0.0063492
        k(  147) = (  -0.4000000  -0.7171664   0.2337334), wk =   0.0063492
        k(  148) = (  -0.4000000   0.7171664  -0.2337334), wk =   0.0063492
        k(  149) = (   0.4000000  -0.7171664  -0.2337334), wk =   0.0063492
        k(  150) = (  -0.4000000  -0.7171664   0.4674667), wk =   0.0063492
        k(  151) = (  -0.4000000   0.7171664  -0.4674667), wk =   0.0063492
        k(  152) = (   0.4000000  -0.7171664  -0.4674667), wk =   0.0063492
        k(  153) = (  -0.4000000  -0.7171664   0.7012001), wk =   0.0063492
        k(  154) = (  -0.4000000   0.7171664  -0.7012001), wk =   0.0063492
        k(  155) = (   0.4000000  -0.7171664  -0.7012001), wk =   0.0063492
        k(  156) = (  -0.4000000  -0.7171664   0.9349334), wk =   0.0063492
        k(  157) = (  -0.4000000   0.7171664  -0.9349334), wk =   0.0063492
        k(  158) = (   0.4000000  -0.7171664  -0.9349334), wk =   0.0063492

                       cryst. coord.
        k(    1) = (   0.0000000   0.0000000   0.0000000), wk =   0.0031746
        k(    2) = (   0.0000000   0.0000000   0.1111111), wk =   0.0063492
        k(    3) = (   0.0000000   0.0000000   0.2222222), wk =   0.0063492
        k(    4) = (   0.0000000   0.0000000   0.3333333), wk =   0.0063492
        k(    5) = (   0.0000000   0.0000000   0.4444444), wk =   0.0063492
        k(    6) = (   0.0000000   0.1428571   0.0000000), wk =   0.0063492
        k(    7) = (   0.0000000   0.1428571   0.1111111), wk =   0.0063492
        k(    8) = (   0.0000000   0.1428571   0.2222222), wk =   0.0063492
        k(    9) = (   0.0000000   0.1428571   0.3333333), wk =   0.0063492
        k(   10) = (   0.0000000   0.1428571   0.4444444), wk =   0.0063492
        k(   11) = (   0.0000000   0.2857143   0.0000000), wk =   0.0063492
        k(   12) = (   0.0000000   0.2857143   0.1111111), wk =   0.0063492
        k(   13) = (   0.0000000   0.2857143   0.2222222), wk =   0.0063492
        k(   14) = (   0.0000000   0.2857143   0.3333333), wk =   0.0063492
        k(   15) = (   0.0000000   0.2857143   0.4444444), wk =   0.0063492
        k(   16) = (   0.0000000   0.4285714   0.0000000), wk =   0.0063492
        k(   17) = (   0.0000000   0.4285714   0.1111111), wk =   0.0063492
        k(   18) = (   0.0000000   0.4285714   0.2222222), wk =   0.0063492
        k(   19) = (   0.0000000   0.4285714   0.3333333), wk =   0.0063492
        k(   20) = (   0.0000000   0.4285714   0.4444444), wk =   0.0063492
        k(   21) = (   0.2000000   0.0000000   0.0000000), wk =   0.0063492
        k(   22) = (   0.2000000   0.0000000   0.1111111), wk =   0.0063492
        k(   23) = (   0.2000000   0.0000000   0.2222222), wk =   0.0063492
        k(   24) = (   0.2000000   0.0000000   0.3333333), wk =   0.0063492
        k(   25) = (   0.2000000   0.0000000   0.4444444), wk =   0.0063492
        k(   26) = (   0.2000000   0.1428571   0.0000000), wk =   0.0063492
        k(   27) = (   0.2000000   0.1428571   0.1111111), wk =   0.0063492
        k(   28) = (   0.2000000   0.1428571   0.2222222), wk =   0.0063492
        k(   29) = (   0.2000000   0.1428571   0.3333333), wk =   0.0063492
        k(   30) = (   0.2000000   0.1428571   0.4444444), wk =   0.0063492
        k(   31) = (   0.2000000   0.2857143   0.0000000), wk =   0.0063492
        k(   32) = (   0.2000000   0.2857143   0.1111111), wk =   0.0063492
        k(   33) = (   0.2000000   0.2857143   0.2222222), wk =   0.0063492
        k(   34) = (   0.2000000   0.2857143   0.3333333), wk =   0.0063492
        k(   35) = (   0.2000000   0.2857143   0.4444444), wk =   0.0063492
        k(   36) = (   0.2000000   0.4285714   0.0000000), wk =   0.0063492
        k(   37) = (   0.2000000   0.4285714   0.1111111), wk =   0.0063492
        k(   38) = (   0.2000000   0.4285714   0.2222222), wk =   0.0063492
        k(   39) = (   0.2000000   0.4285714   0.3333333), wk =   0.0063492
        k(   40) = (   0.2000000   0.4285714   0.4444444), wk =   0.0063492
        k(   41) = (   0.4000000   0.0000000   0.0000000), wk =   0.0063492
        k(   42) = (   0.4000000   0.0000000   0.1111111), wk =   0.0063492
        k(   43) = (   0.4000000   0.0000000   0.2222222), wk =   0.0063492
        k(   44) = (   0.4000000   0.0000000   0.3333333), wk =   0.0063492
        k(   45) = (   0.4000000   0.0000000   0.4444444), wk =   0.0063492
        k(   46) = (   0.4000000   0.1428571   0.0000000), wk =   0.0063492
        k(   47) = (   0.4000000   0.1428571   0.1111111), wk =   0.0063492
        k(   48) = (   0.4000000   0.1428571   0.2222222), wk =   0.0063492
        k(   49) = (   0.4000000   0.1428571   0.3333333), wk =   0.0063492
        k(   50) = (   0.4000000   0.1428571   0.4444444), wk =   0.0063492
        k(   51) = (   0.4000000   0.2857143   0.0000000), wk =   0.0063492
        k(   52) = (   0.4000000   0.2857143   0.1111111), wk =   0.0063492
        k(   53) = (   0.4000000   0.2857143   0.2222222), wk =   0.0063492
        k(   54) = (   0.4000000   0.2857143   0.3333333), wk =   0.0063492
        k(   55) = (   0.4000000   0.2857143   0.4444444), wk =   0.0063492
        k(   56) = (   0.4000000   0.4285714   0.0000000), wk =   0.0063492
        k(   57) = (   0.4000000   0.4285714   0.1111111), wk =   0.0063492
        k(   58) = (   0.4000000   0.4285714   0.2222222), wk =   0.0063492
        k(   59) = (   0.4000000   0.4285714   0.3333333), wk =   0.0063492
        k(   60) = (   0.4000000   0.4285714   0.4444444), wk =   0.0063492
        k(   61) = (   0.0000000  -0.1428571   0.1111111), wk =   0.0063492
        k(   62) = (   0.0000000  -0.1428571   0.2222222), wk =   0.0063492
        k(   63) = (   0.0000000  -0.1428571   0.3333333), wk =   0.0063492
        k(   64) = (   0.0000000  -0.1428571   0.4444444), wk =   0.0063492
        k(   65) = (   0.0000000  -0.2857143   0.1111111), wk =   0.0063492
        k(   66) = (   0.0000000  -0.2857143   0.2222222), wk =   0.0063492
        k(   67) = (   0.0000000  -0.2857143   0.3333333), wk =   0.0063492
        k(   68) = (   0.0000000  -0.2857143   0.4444444), wk =   0.0063492
        k(   69) = (   0.0000000  -0.4285714   0.1111111), wk =   0.0063492
        k(   70) = (   0.0000000  -0.4285714   0.2222222), wk =   0.0063492
        k(   71) = (   0.0000000  -0.4285714   0.3333333), wk =   0.0063492
        k(   72) = (   0.0000000  -0.4285714   0.4444444), wk =   0.0063492
        k(   73) = (  -0.2000000   0.0000000   0.1111111), wk =   0.0063492
        k(   74) = (  -0.2000000   0.0000000   0.2222222), wk =   0.0063492
        k(   75) = (  -0.2000000   0.0000000   0.3333333), wk =   0.0063492
        k(   76) = (  -0.2000000   0.0000000   0.4444444), wk =   0.0063492
        k(   77) = (  -0.2000000   0.1428571   0.0000000), wk =   0.0063492
        k(   78) = (  -0.2000000  -0.1428571   0.1111111), wk =   0.0063492
        k(   79) = (  -0.2000000   0.1428571  -0.1111111), wk =   0.0063492
        k(   80) = (   0.2000000  -0.1428571  -0.1111111), wk =   0.0063492
        k(   81) = (  -0.2000000  -0.1428571   0.2222222), wk =   0.0063492
        k(   82) = (  -0.2000000   0.1428571  -0.2222222), wk =   0.0063492
        k(   83) = (   0.2000000  -0.1428571  -0.2222222), wk =   0.0063492
        k(   84) = (  -0.2000000  -0.1428571   0.3333333), wk =   0.0063492
        k(   85) = (  -0.2000000   0.1428571  -0.3333333), wk =   0.0063492
        k(   86) = (   0.2000000  -0.1428571  -0.3333333), wk =   0.0063492
        k(   87) = (  -0.2000000  -0.1428571   0.4444444), wk =   0.0063492
        k(   88) = (  -0.2000000   0.1428571  -0.4444444), wk =   0.0063492
        k(   89) = (   0.2000000  -0.1428571  -0.4444444), wk =   0.0063492
        k(   90) = (  -0.2000000   0.2857143   0.0000000), wk =   0.0063492
        k(   91) = (  -0.2000000  -0.2857143   0.1111111), wk =   0.0063492
        k(   92) = (  -0.2000000   0.2857143  -0.1111111), wk =   0.0063492
        k(   93) = (   0.2000000  -0.2857143  -0.1111111), wk =   0.0063492
        k(   94) = (  -0.2000000  -0.2857143   0.2222222), wk =   0.0063492
        k(   95) = (  -0.2000000   0.2857143  -0.2222222), wk =   0.0063492
        k(   96) = (   0.2000000  -0.2857143  -0.2222222), wk =   0.0063492
        k(   97) = (  -0.2000000  -0.2857143   0.3333333), wk =   0.0063492
        k(   98) = (  -0.2000000   0.2857143  -0.3333333), wk =   0.0063492
        k(   99) = (   0.2000000  -0.2857143  -0.3333333), wk =   0.0063492
        k(  100) = (  -0.2000000  -0.2857143   0.4444444), wk =   0.0063492
        k(  101) = (  -0.2000000   0.2857143  -0.4444444), wk =   0.0063492
        k(  102) = (   0.2000000  -0.2857143  -0.4444444), wk =   0.0063492
        k(  103) = (  -0.2000000   0.4285714   0.0000000), wk =   0.0063492
        k(  104) = (  -0.2000000  -0.4285714   0.1111111), wk =   0.0063492
        k(  105) = (  -0.2000000   0.4285714  -0.1111111), wk =   0.0063492
        k(  106) = (   0.2000000  -0.4285714  -0.1111111), wk =   0.0063492
        k(  107) = (  -0.2000000  -0.4285714   0.2222222), wk =   0.0063492
        k(  108) = (  -0.2000000   0.4285714  -0.2222222), wk =   0.0063492
        k(  109) = (   0.2000000  -0.4285714  -0.2222222), wk =   0.0063492
        k(  110) = (  -0.2000000  -0.4285714   0.3333333), wk =   0.0063492
        k(  111) = (  -0.2000000   0.4285714  -0.3333333), wk =   0.0063492
        k(  112) = (   0.2000000  -0.4285714  -0.3333333), wk =   0.0063492
        k(  113) = (  -0.2000000  -0.4285714   0.4444444), wk =   0.0063492
        k(  114) = (  -0.2000000   0.4285714  -0.4444444), wk =   0.0063492
        k(  115) = (   0.2000000  -0.4285714  -0.4444444), wk =   0.0063492
        k(  116) = (  -0.4000000   0.0000000   0.1111111), wk =   0.0063492
        k(  117) = (  -0.4000000   0.0000000   0.2222222), wk =   0.0063492
        k(  118) = (  -0.4000000   0.0000000   0.3333333), wk =   0.0063492
        k(  119) = (  -0.4000000   0.0000000   0.4444444), wk =   0.0063492
        k(  120) = (  -0.4000000   0.1428571   0.0000000), wk =   0.0063492
        k(  121) = (  -0.4000000  -0.1428571   0.1111111), wk =   0.0063492
        k(  122) = (  -0.4000000   0.1428571  -0.1111111), wk =   0.0063492
        k(  123) = (   0.4000000  -0.1428571  -0.1111111), wk =   0.0063492
        k(  124) = (  -0.4000000  -0.1428571   0.2222222), wk =   0.0063492
        k(  125) = (  -0.4000000   0.1428571  -0.2222222), wk =   0.0063492
        k(  126) = (   0.4000000  -0.1428571  -0.2222222), wk =   0.0063492
        k(  127) = (  -0.4000000  -0.1428571   0.3333333), wk =   0.0063492
        k(  128) = (  -0.4000000   0.1428571  -0.3333333), wk =   0.0063492
        k(  129) = (   0.4000000  -0.1428571  -0.3333333), wk =   0.0063492
        k(  130) = (  -0.4000000  -0.1428571   0.4444444), wk =   0.0063492
        k(  131) = (  -0.4000000   0.1428571  -0.4444444), wk =   0.0063492
        k(  132) = (   0.4000000  -0.1428571  -0.4444444), wk =   0.0063492
        k(  133) = (  -0.4000000   0.2857143   0.0000000), wk =   0.0063492
        k(  134) = (  -0.4000000  -0.2857143   0.1111111), wk =   0.0063492
        k(  135) = (  -0.4000000   0.2857143  -0.1111111), wk =   0.0063492
        k(  136) = (   0.4000000  -0.2857143  -0.1111111), wk =   0.0063492
        k(  137) = (  -0.4000000  -0.2857143   0.2222222), wk =   0.0063492
        k(  138) = (  -0.4000000   0.2857143  -0.2222222), wk =   0.0063492
        k(  139) = (   0.4000000  -0.2857143  -0.2222222), wk =   0.0063492
        k(  140) = (  -0.4000000  -0.2857143   0.3333333), wk =   0.0063492
        k(  141) = (  -0.4000000   0.2857143  -0.3333333), wk =   0.0063492
        k(  142) = (   0.4000000  -0.2857143  -0.3333333), wk =   0.0063492
        k(  143) = (  -0.4000000  -0.2857143   0.4444444), wk =   0.0063492
        k(  144) = (  -0.4000000   0.2857143  -0.4444444), wk =   0.0063492
        k(  145) = (   0.4000000  -0.2857143  -0.4444444), wk =   0.0063492
        k(  146) = (  -0.4000000   0.4285714   0.0000000), wk =   0.0063492
        k(  147) = (  -0.4000000  -0.4285714   0.1111111), wk =   0.0063492
        k(  148) = (  -0.4000000   0.4285714  -0.1111111), wk =   0.0063492
        k(  149) = (   0.4000000  -0.4285714  -0.1111111), wk =   0.0063492
        k(  150) = (  -0.4000000  -0.4285714   0.2222222), wk =   0.0063492
        k(  151) = (  -0.4000000   0.4285714  -0.2222222), wk =   0.0063492
        k(  152) = (   0.4000000  -0.4285714  -0.2222222), wk =   0.0063492
        k(  153) = (  -0.4000000  -0.4285714   0.3333333), wk =   0.0063492
        k(  154) = (  -0.4000000   0.4285714  -0.3333333), wk =   0.0063492
        k(  155) = (   0.4000000  -0.4285714  -0.3333333), wk =   0.0063492
        k(  156) = (  -0.4000000  -0.4285714   0.4444444), wk =   0.0063492
        k(  157) = (  -0.4000000   0.4285714  -0.4444444), wk =   0.0063492
        k(  158) = (   0.4000000  -0.4285714  -0.4444444), wk =   0.0063492

     Dense  grid:  1169635 G-vectors     FFT dimensions: ( 200, 120,  96)

     Smooth grid:   263601 G-vectors     FFT dimensions: ( 125,  75,  60)

     Dynamical RAM for                 wfc:       2.39 MB

     Dynamical RAM for     wfc (w. buffer):     757.10 MB

     Dynamical RAM for           str. fact:       2.97 MB

     Dynamical RAM for           local pot:       0.00 MB

     Dynamical RAM for          nlocal pot:       5.87 MB

     Dynamical RAM for                qrad:      10.54 MB

     Dynamical RAM for          rho,v,vnew:       8.86 MB

     Dynamical RAM for               rhoin:       2.95 MB

     Dynamical RAM for            rho*nmix:      23.80 MB

     Dynamical RAM for           G-vectors:       2.87 MB

     Dynamical RAM for          h,s,v(r/c):       2.38 MB

     Dynamical RAM for          <psi|beta>:       0.49 MB

     Dynamical RAM for                 psi:       4.78 MB

     Dynamical RAM for                hpsi:       4.78 MB

     Dynamical RAM for                spsi:       4.78 MB

     Dynamical RAM for      wfcinit/wfcrot:       6.17 MB

     Dynamical RAM for           addusdens:     150.96 MB

     Dynamical RAM for          addusforce:     173.39 MB

     Dynamical RAM for         addusstress:     150.59 MB

     Estimated static dynamical RAM per process >     823.08 MB

     Estimated max dynamical RAM per process >     996.47 MB

     Estimated total dynamical RAM >      23.35 GB

     Check: negative core charge=   -0.000003
     Generating pointlists ...
     new r_m :   0.0759 (alat units)  1.4434 (a.u.) for type    1
     new r_m :   0.0888 (alat units)  1.6882 (a.u.) for type    2
     new r_m :   0.0610 (alat units)  1.1589 (a.u.) for type    3
     new r_m :   0.0610 (alat units)  1.1589 (a.u.) for type    4

     Initial potential from superposition of free atoms

     starting charge  188.99132, renormalised to  189.00000
     Starting wfcs are  137 randomized atomic wfcs
     Checking if some PAW data can be deallocated... 
       PAW data deallocated on   20 nodes for type:  1
       PAW data deallocated on    8 nodes for type:  3

     total cpu time spent up to now is      187.5 secs

     Self-consistent Calculation

     iteration #  1     ecut=   100.00 Ry     beta= 0.40
     Davidson diagonalization with overlap
     ethr =  1.00E-02,  avg # of iterations =  3.4

     negative rho (up, down):  0.000E+00 1.378E-04

     total cpu time spent up to now is     1556.5 secs

     total energy              =   -2123.91330605 Ry
     estimated scf accuracy    <       6.90039695 Ry

     total magnetization       =    19.00 Bohr mag/cell
     absolute magnetization    =    19.00 Bohr mag/cell

     iteration #  2     ecut=   100.00 Ry     beta= 0.40
     Davidson diagonalization with overlap
     ethr =  3.65E-03,  avg # of iterations =  2.0

     negative rho (up, down):  0.000E+00 9.391E-05

     total cpu time spent up to now is     2094.3 secs

     total energy              =   -2120.88855311 Ry
     estimated scf accuracy    <      43.05384040 Ry

     total magnetization       =     7.64 Bohr mag/cell
     absolute magnetization    =     8.80 Bohr mag/cell

     iteration #  3     ecut=   100.00 Ry     beta= 0.40
     Davidson diagonalization with overlap
     ethr =  3.65E-03,  avg # of iterations =  2.7

     negative rho (up, down):  0.000E+00 6.270E-05

     total cpu time spent up to now is     3541.2 secs

     total energy              =   -2123.51181090 Ry
     estimated scf accuracy    <      59.89627478 Ry

     total magnetization       =     3.30 Bohr mag/cell
     absolute magnetization    =     7.42 Bohr mag/cell

     iteration #  4     ecut=   100.00 Ry     beta= 0.40
     Davidson diagonalization with overlap
     ethr =  3.65E-03,  avg # of iterations =  1.3

     negative rho (up, down):  0.000E+00 5.799E-05

     total cpu time spent up to now is     4311.5 secs

     total energy              =   -2124.51445274 Ry
     estimated scf accuracy    <      30.74205585 Ry

     total magnetization       =     9.00 Bohr mag/cell
     absolute magnetization    =     9.41 Bohr mag/cell

     iteration #  5     ecut=   100.00 Ry     beta= 0.40
     Davidson diagonalization with overlap
     ethr =  3.65E-03,  avg # of iterations =  1.9

     negative rho (up, down):  0.000E+00 1.718E-04

     total cpu time spent up to now is     4761.0 secs

     total energy              =   -2125.90058320 Ry
     estimated scf accuracy    <       1.42491628 Ry

     total magnetization       =    19.00 Bohr mag/cell
     absolute magnetization    =    19.00 Bohr mag/cell

     iteration #  6     ecut=   100.00 Ry     beta= 0.40
     Davidson diagonalization with overlap
     ethr =  7.54E-04,  avg # of iterations =  2.0

     negative rho (up, down):  0.000E+00 2.844E-04

     total cpu time spent up to now is     5730.0 secs

     total energy              =   -2126.00346562 Ry
     estimated scf accuracy    <       0.45525700 Ry

     total magnetization       =    19.05 Bohr mag/cell
     absolute magnetization    =    19.05 Bohr mag/cell

     iteration #  7     ecut=   100.00 Ry     beta= 0.40
     Davidson diagonalization with overlap
     ethr =  2.41E-04,  avg # of iterations =  3.9

     negative rho (up, down):  0.000E+00 4.129E-04

     total cpu time spent up to now is     6208.3 secs

     total energy              =   -2126.01292027 Ry
     estimated scf accuracy    <       0.20330939 Ry

     total magnetization       =    19.00 Bohr mag/cell
     absolute magnetization    =    19.00 Bohr mag/cell

     iteration #  8     ecut=   100.00 Ry     beta= 0.40
     Davidson diagonalization with overlap
     c_bands:  2 eigenvalues not converged
     ethr =  1.08E-04,  avg # of iterations = 10.2

     negative rho (up, down):  0.000E+00 5.158E-04

     total cpu time spent up to now is     6888.6 secs

     total energy              =   -2126.00524997 Ry
     estimated scf accuracy    <       0.47188758 Ry

     total magnetization       =    19.00 Bohr mag/cell
     absolute magnetization    =    19.01 Bohr mag/cell

     iteration #  9     ecut=   100.00 Ry     beta= 0.40
     Davidson diagonalization with overlap
     c_bands:  1 eigenvalues not converged
     ethr =  1.08E-04,  avg # of iterations =  1.4

     negative rho (up, down):  0.000E+00 5.289E-04

     total cpu time spent up to now is     7291.1 secs

     total energy              =   -2126.02494378 Ry
     estimated scf accuracy    <       0.14472291 Ry

     total magnetization       =    19.00 Bohr mag/cell
     absolute magnetization    =    19.01 Bohr mag/cell

     iteration # 10     ecut=   100.00 Ry     beta= 0.40
     Davidson diagonalization with overlap
     ethr =  7.66E-05,  avg # of iterations =  1.2

     negative rho (up, down):  0.000E+00 6.856E-04

     total cpu time spent up to now is     7683.2 secs

     total energy              =   -2126.03228186 Ry
     estimated scf accuracy    <       0.03869857 Ry

     total magnetization       =    19.00 Bohr mag/cell
     absolute magnetization    =    19.01 Bohr mag/cell

     iteration # 11     ecut=   100.00 Ry     beta= 0.40
     Davidson diagonalization with overlap
     c_bands:  1 eigenvalues not converged
     c_bands:  1 eigenvalues not converged
     c_bands:  1 eigenvalues not converged
     c_bands:  1 eigenvalues not converged
     c_bands:  1 eigenvalues not converged
     c_bands:  1 eigenvalues not converged
     c_bands:  1 eigenvalues not converged
     c_bands:  1 eigenvalues not converged
     c_bands:  1 eigenvalues not converged
     c_bands:  1 eigenvalues not converged
     c_bands:  1 eigenvalues not converged
     c_bands:  1 eigenvalues not converged
     c_bands:  1 eigenvalues not converged
     c_bands:  1 eigenvalues not converged
     c_bands:  1 eigenvalues not converged
     c_bands:  1 eigenvalues not converged
     c_bands:  1 eigenvalues not converged
     c_bands:  1 eigenvalues not converged
     ethr =  2.05E-05,  avg # of iterations =  8.0

     negative rho (up, down):  0.000E+00 7.928E-04

     total cpu time spent up to now is     8277.6 secs

     total energy              =   -2126.03610730 Ry
     estimated scf accuracy    <       0.09664387 Ry

     total magnetization       =    19.00 Bohr mag/cell
     absolute magnetization    =    19.02 Bohr mag/cell

     iteration # 12     ecut=   100.00 Ry     beta= 0.40
     Davidson diagonalization with overlap
     c_bands:  1 eigenvalues not converged
     ethr =  2.05E-05,  avg # of iterations =  1.2

     negative rho (up, down):  0.000E+00 8.077E-04

     total cpu time spent up to now is     8666.1 secs

     total energy              =   -2126.03695163 Ry
     estimated scf accuracy    <       0.04831523 Ry

     total magnetization       =    19.00 Bohr mag/cell
     absolute magnetization    =    19.03 Bohr mag/cell

     iteration # 13     ecut=   100.00 Ry     beta= 0.40
     Davidson diagonalization with overlap
     ethr =  2.05E-05,  avg # of iterations =  1.1

     negative rho (up, down):  0.000E+00 8.143E-04

     total cpu time spent up to now is     9049.2 secs

     total energy              =   -2126.03733845 Ry
     estimated scf accuracy    <       0.00536897 Ry

     total magnetization       =    19.00 Bohr mag/cell
     absolute magnetization    =    19.03 Bohr mag/cell

     iteration # 14     ecut=   100.00 Ry     beta= 0.40
     Davidson diagonalization with overlap
     c_bands:  1 eigenvalues not converged
     c_bands:  1 eigenvalues not converged
     c_bands:  1 eigenvalues not converged
     c_bands:  1 eigenvalues not converged
     c_bands:  1 eigenvalues not converged
     c_bands:  1 eigenvalues not converged
     c_bands:  1 eigenvalues not converged
     c_bands:  1 eigenvalues not converged
     c_bands:  1 eigenvalues not converged
     c_bands:  1 eigenvalues not converged
     c_bands:  1 eigenvalues not converged
     c_bands:  1 eigenvalues not converged
     c_bands:  1 eigenvalues not converged
     c_bands:  1 eigenvalues not converged
     c_bands:  1 eigenvalues not converged
     c_bands:  2 eigenvalues not converged
     c_bands:  1 eigenvalues not converged
     c_bands:  1 eigenvalues not converged
     c_bands:  1 eigenvalues not converged
     c_bands:  1 eigenvalues not converged
     c_bands:  1 eigenvalues not converged
     c_bands:  1 eigenvalues not converged
     c_bands:  1 eigenvalues not converged
     c_bands:  1 eigenvalues not converged
     c_bands:  1 eigenvalues not converged
     c_bands:  1 eigenvalues not converged
     c_bands:  1 eigenvalues not converged
     c_bands:  1 eigenvalues not converged
     c_bands:  1 eigenvalues not converged
     c_bands:  1 eigenvalues not converged
     ethr =  2.84E-06,  avg # of iterations = 12.6

     negative rho (up, down):  0.000E+00 8.222E-04

     total cpu time spent up to now is     9829.3 secs

     total energy              =   -2126.03791036 Ry
     estimated scf accuracy    <       0.01583934 Ry

     total magnetization       =    19.00 Bohr mag/cell
     absolute magnetization    =    19.04 Bohr mag/cell

     iteration # 15     ecut=   100.00 Ry     beta= 0.40
     Davidson diagonalization with overlap
     ethr =  2.84E-06,  avg # of iterations =  1.1

     negative rho (up, down):  0.000E+00 8.148E-04

     total cpu time spent up to now is    10212.4 secs

     total energy              =   -2126.03822542 Ry
     estimated scf accuracy    <       0.00061980 Ry

     total magnetization       =    19.00 Bohr mag/cell
     absolute magnetization    =    19.04 Bohr mag/cell

     iteration # 16     ecut=   100.00 Ry     beta= 0.40
     Davidson diagonalization with overlap
     ethr =  3.28E-07,  avg # of iterations =  4.8

     negative rho (up, down):  0.000E+00 8.046E-04

     total cpu time spent up to now is    10870.0 secs

     total energy              =   -2126.03840291 Ry
     estimated scf accuracy    <       0.00020487 Ry

     total magnetization       =    19.00 Bohr mag/cell
     absolute magnetization    =    19.04 Bohr mag/cell

     iteration # 17     ecut=   100.00 Ry     beta= 0.40
     Davidson diagonalization with overlap
     ethr =  1.08E-07,  avg # of iterations =  1.1

     negative rho (up, down):  0.000E+00 8.005E-04

     total cpu time spent up to now is    11255.4 secs

     total energy              =   -2126.03841243 Ry
     estimated scf accuracy    <       0.00003498 Ry

     total magnetization       =    19.00 Bohr mag/cell
     absolute magnetization    =    19.04 Bohr mag/cell

     iteration # 18     ecut=   100.00 Ry     beta= 0.40
     Davidson diagonalization with overlap
     ethr =  1.85E-08,  avg # of iterations =  1.4

     negative rho (up, down):  0.000E+00 7.964E-04

     total cpu time spent up to now is    11657.7 secs

     total energy              =   -2126.03841606 Ry
     estimated scf accuracy    <       0.00001905 Ry

     total magnetization       =    19.00 Bohr mag/cell
     absolute magnetization    =    19.04 Bohr mag/cell

     iteration # 19     ecut=   100.00 Ry     beta= 0.40
     Davidson diagonalization with overlap
     ethr =  1.01E-08,  avg # of iterations =  1.2

     negative rho (up, down):  0.000E+00 7.945E-04

     total cpu time spent up to now is    12048.4 secs

     total energy              =   -2126.03841706 Ry
     estimated scf accuracy    <       0.00002252 Ry

     total magnetization       =    19.00 Bohr mag/cell
     absolute magnetization    =    19.04 Bohr mag/cell

     iteration # 20     ecut=   100.00 Ry     beta= 0.40
     Davidson diagonalization with overlap
     ethr =  1.01E-08,  avg # of iterations =  1.0

     negative rho (up, down):  0.000E+00 7.934E-04

     total cpu time spent up to now is    12428.7 secs

     total energy              =   -2126.03841766 Ry
     estimated scf accuracy    <       0.00000412 Ry

     total magnetization       =    19.00 Bohr mag/cell
     absolute magnetization    =    19.04 Bohr mag/cell

     iteration # 21     ecut=   100.00 Ry     beta= 0.40
     Davidson diagonalization with overlap
     ethr =  2.18E-09,  avg # of iterations =  1.8

     negative rho (up, down):  0.000E+00 7.937E-04

     total cpu time spent up to now is    12859.7 secs

     total energy              =   -2126.03841813 Ry
     estimated scf accuracy    <       0.00000134 Ry

     total magnetization       =    19.00 Bohr mag/cell
     absolute magnetization    =    19.04 Bohr mag/cell

     iteration # 22     ecut=   100.00 Ry     beta= 0.40
     Davidson diagonalization with overlap
     ethr =  7.07E-10,  avg # of iterations =  1.3

     negative rho (up, down):  0.000E+00 7.943E-04

     total cpu time spent up to now is    13253.4 secs

     total energy              =   -2126.03841817 Ry
     estimated scf accuracy    <       0.00000080 Ry

     total magnetization       =    19.00 Bohr mag/cell
     absolute magnetization    =    19.04 Bohr mag/cell

     iteration # 23     ecut=   100.00 Ry     beta= 0.40
     Davidson diagonalization with overlap
     ethr =  4.23E-10,  avg # of iterations =  1.9

     negative rho (up, down):  0.000E+00 7.945E-04

     total cpu time spent up to now is    13685.4 secs

     total energy              =   -2126.03841824 Ry
     estimated scf accuracy    <       0.00000006 Ry

     total magnetization       =    19.00 Bohr mag/cell
     absolute magnetization    =    19.04 Bohr mag/cell

     iteration # 24     ecut=   100.00 Ry     beta= 0.40
     Davidson diagonalization with overlap
     ethr =  3.13E-11,  avg # of iterations =  4.4

     negative rho (up, down):  0.000E+00 7.947E-04

     total cpu time spent up to now is    14347.9 secs

     total energy              =   -2126.03841827 Ry
     estimated scf accuracy    <       0.00000005 Ry

     total magnetization       =    19.00 Bohr mag/cell
     absolute magnetization    =    19.04 Bohr mag/cell

     iteration # 25     ecut=   100.00 Ry     beta= 0.40
     Davidson diagonalization with overlap
     ethr =  2.72E-11,  avg # of iterations =  1.0

     negative rho (up, down):  0.000E+00 7.947E-04

     total cpu time spent up to now is    14726.8 secs

     total energy              =   -2126.03841827 Ry
     estimated scf accuracy    <       0.00000001 Ry

     total magnetization       =    19.00 Bohr mag/cell
     absolute magnetization    =    19.04 Bohr mag/cell

     iteration # 26     ecut=   100.00 Ry     beta= 0.40
     Davidson diagonalization with overlap
     ethr =  7.91E-12,  avg # of iterations =  1.2

     negative rho (up, down):  0.000E+00 7.947E-04

     total cpu time spent up to now is    15115.8 secs

     total energy              =   -2126.03841827 Ry
     estimated scf accuracy    <          5.0E-09 Ry

     total magnetization       =    19.00 Bohr mag/cell
     absolute magnetization    =    19.04 Bohr mag/cell

     iteration # 27     ecut=   100.00 Ry     beta= 0.40
     Davidson diagonalization with overlap
     ethr =  2.67E-12,  avg # of iterations =  2.1

     negative rho (up, down):  0.000E+00 7.947E-04

     total cpu time spent up to now is    15556.1 secs

     total energy              =   -2126.03841827 Ry
     estimated scf accuracy    <          9.7E-10 Ry

     total magnetization       =    19.00 Bohr mag/cell
     absolute magnetization    =    19.04 Bohr mag/cell

     iteration # 28     ecut=   100.00 Ry     beta= 0.40
     Davidson diagonalization with overlap
     ethr =  5.12E-13,  avg # of iterations =  4.0

     negative rho (up, down):  0.000E+00 7.946E-04

     total cpu time spent up to now is    16151.8 secs

     total energy              =   -2126.03841827 Ry
     estimated scf accuracy    <          8.0E-10 Ry

     total magnetization       =    19.00 Bohr mag/cell
     absolute magnetization    =    19.04 Bohr mag/cell

     iteration # 29     ecut=   100.00 Ry     beta= 0.40
     Davidson diagonalization with overlap
     ethr =  4.23E-13,  avg # of iterations =  1.2

     negative rho (up, down):  0.000E+00 7.946E-04

     total cpu time spent up to now is    16544.3 secs

     total energy              =   -2126.03841827 Ry
     estimated scf accuracy    <          1.0E-09 Ry

     total magnetization       =    19.00 Bohr mag/cell
     absolute magnetization    =    19.04 Bohr mag/cell

     iteration # 30     ecut=   100.00 Ry     beta= 0.40
     Davidson diagonalization with overlap
     ethr =  4.23E-13,  avg # of iterations =  1.5

     negative rho (up, down):  0.000E+00 7.947E-04

     Magnetic moment per site:
     atom:    1    charge:    7.8727    magn:    0.0007    constr:    0.0000
     atom:    2    charge:   12.6891    magn:    3.6161    constr:    0.0000
     atom:    3    charge:   12.6948    magn:    3.6029    constr:    0.0000
     atom:    4    charge:   12.7405    magn:    3.4805    constr:    0.0000
     atom:    5    charge:   12.6969    magn:    3.6018    constr:    0.0000
     atom:    6    charge:    0.7934    magn:    0.0115    constr:    0.0000
     atom:    7    charge:    0.7970    magn:    0.0091    constr:    0.0000
     atom:    8    charge:    0.7964    magn:    0.0123    constr:    0.0000
     atom:    9    charge:    0.7908    magn:    0.0098    constr:    0.0000
     atom:   10    charge:    4.1357    magn:    0.1304    constr:    0.0000
     atom:   11    charge:    4.1505    magn:    0.0877    constr:    0.0000
     atom:   12    charge:    4.1383    magn:    0.1214    constr:    0.0000
     atom:   13    charge:    4.1338    magn:    0.1063    constr:    0.0000
     atom:   14    charge:    4.1255    magn:    0.1107    constr:    0.0000
     atom:   15    charge:    4.1337    magn:    0.1236    constr:    0.0000
     atom:   16    charge:    4.1292    magn:    0.0748    constr:    0.0000
     atom:   17    charge:    4.1263    magn:    0.1331    constr:    0.0000
     atom:   18    charge:    4.1049    magn:    0.1511    constr:    0.0000
     atom:   19    charge:    4.1084    magn:    0.1334    constr:    0.0000
     atom:   20    charge:    4.1123    magn:    0.1465    constr:    0.0000
     atom:   21    charge:    4.1033    magn:    0.1249    constr:    0.0000
     atom:   22    charge:    4.1123    magn:    0.1465    constr:    0.0000
     atom:   23    charge:    4.1033    magn:    0.1249    constr:    0.0000
     atom:   24    charge:    4.1049    magn:    0.1511    constr:    0.0000
     atom:   25    charge:    4.1084    magn:    0.1334    constr:    0.0000

     total cpu time spent up to now is    16950.3 secs

     End of self-consistent calculation

 ------ SPIN UP ------------


          k = 0.0000 0.0000 0.0000 ( 32965 PWs)   bands (ev):

   -83.8429 -83.8383 -83.8002 -83.3531 -49.9750 -49.9279 -49.9116 -49.7987
   -49.7881 -49.7835 -49.7828 -49.7527 -49.7112 -49.7036 -49.2984 -49.1132
   -43.8777 -16.0257 -15.9047 -15.8284 -15.8050 -15.5563 -15.3788 -15.2663
   -13.1501 -13.0719 -12.9332 -12.8332 -12.7778 -12.7671 -12.7380 -12.6677
   -12.6377 -12.5336 -12.5126 -12.4047  -3.2465  -2.6864  -2.5555  -2.0420
    -1.5931  -1.1760  -1.0877  -0.9154  -0.8274  -0.6213  -0.4991  -0.4275
    -0.3527  -0.0813   0.0608   0.2784   0.4609   0.5658   1.1183   1.1569
     1.2190   1.3075   1.4800   1.5421   1.7040   1.7179   2.0011   2.0740
     2.2012   2.3634   2.4398   2.5772   2.5833   2.6257   2.6263   2.7053
     2.7847   3.1200   3.2622   3.3028   3.3388   3.3943   3.4684   3.6355
     3.7872   3.8068   3.9092   4.0513   4.0543   4.2389   4.4489   4.4509
     4.5336   4.5979   4.6471   4.7588   4.7978   4.8299   4.9902   5.0907
     5.1600   5.3755   5.5383   5.6852   5.9173   6.1060   6.2488   6.4103
    11.0012  13.1339  13.3714  13.8607  14.1196  14.4620  15.2429  15.3942
    15.5292  15.5777

     occupation numbers 
     1.0000   1.0000   1.0000   1.0000   1.0000   1.0000   1.0000   1.0000
     1.0000   1.0000   1.0000   1.0000   1.0000   1.0000   1.0000   1.0000
     1.0000   1.0000   1.0000   1.0000   1.0000   1.0000   1.0000   1.0000
     1.0000   1.0000   1.0000   1.0000   1.0000   1.0000   1.0000   1.0000
     1.0000   1.0000   1.0000   1.0000   1.0000   1.0000   1.0000   1.0000
     1.0000   1.0000   1.0000   1.0000   1.0000   1.0000   1.0000   1.0000
     1.0000   1.0000   1.0000   1.0000   1.0000   1.0000   1.0000   1.0000
     1.0000   1.0000   1.0000   1.0000   1.0000   1.0000   1.0000   1.0000
     1.0000   1.0000   1.0000   1.0000   1.0000   1.0000   1.0000   1.0000
     1.0000   1.0000   1.0000   1.0000   1.0000   1.0000   1.0000   1.0000
     1.0000   1.0000   1.0000   1.0000   1.0000   1.0000   1.0000   1.0000
     1.0000   1.0000   1.0000   1.0000   1.0000   1.0000   1.0000   1.0000
     1.0000   1.0000   1.0000   1.0000   1.0000   1.0000   1.0000   1.0000
     0.0000   0.0000   0.0000   0.0000   0.0000   0.0000   0.0000   0.0000
     0.0000   0.0000

          k = 0.0000 0.0000 0.2337 ( 32923 PWs)   bands (ev):

   -83.8429 -83.8383 -83.8002 -83.3531 -49.9750 -49.9279 -49.9116 -49.7987
   -49.7881 -49.7835 -49.7828 -49.7527 -49.7112 -49.7036 -49.2984 -49.1132
   -43.8777 -16.0320 -15.9234 -15.8283 -15.7750 -15.5423 -15.3709 -15.2620
   -13.1594 -13.0765 -12.9501 -12.8393 -12.7817 -12.7620 -12.7409 -12.6625
   -12.6465 -12.5409 -12.5170 -12.4094  -3.2196  -2.6760  -2.5544  -2.0570
    -1.5365  -1.1463  -1.0906  -0.9016  -0.8234  -0.6409  -0.5189  -0.3495
    -0.3460  -0.0445   0.0077   0.3088   0.4818   0.5189   1.1282   1.1542
     1.2240   1.3434   1.4599   1.5644   1.6970   1.7044   1.9545   2.1070
     2.1872   2.3205   2.4155   2.5288   2.5391   2.6057   2.6353   2.6798
     2.9156   3.0978   3.2074   3.2987   3.3145   3.3693   3.4939   3.5842
     3.7693   3.8469   3.8640   4.0903   4.1275   4.2452   4.3344   4.4576
     4.5005   4.5994   4.6759   4.6980   4.8360   4.8424   5.0549   5.0852
     5.2115   5.3638   5.5717   5.6801   5.9129   6.0860   6.2201   6.3862
    11.1523  13.1941  13.4494  13.8445  14.1919  14.4478  15.2401  15.2763
    15.3116  15.4467

     occupation numbers 
     1.0000   1.0000   1.0000   1.0000   1.0000   1.0000   1.0000   1.0000
     1.0000   1.0000   1.0000   1.0000   1.0000   1.0000   1.0000   1.0000
     1.0000   1.0000   1.0000   1.0000   1.0000   1.0000   1.0000   1.0000
     1.0000   1.0000   1.0000   1.0000   1.0000   1.0000   1.0000   1.0000
     1.0000   1.0000   1.0000   1.0000   1.0000   1.0000   1.0000   1.0000
     1.0000   1.0000   1.0000   1.0000   1.0000   1.0000   1.0000   1.0000
     1.0000   1.0000   1.0000   1.0000   1.0000   1.0000   1.0000   1.0000
     1.0000   1.0000   1.0000   1.0000   1.0000   1.0000   1.0000   1.0000
     1.0000   1.0000   1.0000   1.0000   1.0000   1.0000   1.0000   1.0000
     1.0000   1.0000   1.0000   1.0000   1.0000   1.0000   1.0000   1.0000
     1.0000   1.0000   1.0000   1.0000   1.0000   1.0000   1.0000   1.0000
     1.0000   1.0000   1.0000   1.0000   1.0000   1.0000   1.0000   1.0000
     1.0000   1.0000   1.0000   1.0000   1.0000   1.0000   1.0000   1.0000
     0.0000   0.0000   0.0000   0.0000   0.0000   0.0000   0.0000   0.0000
     0.0000   0.0000

          k = 0.0000 0.0000 0.4675 ( 32947 PWs)   bands (ev):

   -83.8429 -83.8383 -83.8002 -83.3531 -49.9750 -49.9279 -49.9116 -49.7987
   -49.7881 -49.7836 -49.7829 -49.7527 -49.7112 -49.7036 -49.2984 -49.1132
   -43.8776 -16.0542 -15.9407 -15.8281 -15.7218 -15.5049 -15.3504 -15.2533
   -13.1851 -13.0936 -12.9877 -12.8557 -12.7977 -12.7484 -12.7480 -12.6619
   -12.6486 -12.5575 -12.5291 -12.4222  -3.1421  -2.6628  -2.5437  -2.1129
    -1.3797  -1.1162  -1.0523  -0.8880  -0.8049  -0.6677  -0.5113  -0.3388
    -0.1779  -0.1238   0.0537   0.3843   0.3990   0.5456   1.1507   1.1609
     1.2505   1.3871   1.4875   1.5679   1.6899   1.7069   1.8331   2.1455
     2.1699   2.3207   2.3516   2.3903   2.4504   2.5449   2.6049   2.6734
     2.8741   3.0257   3.1698   3.2509   3.3233   3.3638   3.4643   3.6163
     3.6423   3.8555   4.0443   4.0674   4.1249   4.1800   4.2912   4.4169
     4.4721   4.5646   4.6078   4.7634   4.9108   4.9172   5.0794   5.1776
     5.3173   5.3477   5.6253   5.6955   5.9026   6.0363   6.1330   6.3128
    11.5588  13.3561  13.6562  13.8614  14.3210  14.4389  14.8435  15.0517
    15.1206  15.2220

     occupation numbers 
     1.0000   1.0000   1.0000   1.0000   1.0000   1.0000   1.0000   1.0000
     1.0000   1.0000   1.0000   1.0000   1.0000   1.0000   1.0000   1.0000
     1.0000   1.0000   1.0000   1.0000   1.0000   1.0000   1.0000   1.0000
     1.0000   1.0000   1.0000   1.0000   1.0000   1.0000   1.0000   1.0000
     1.0000   1.0000   1.0000   1.0000   1.0000   1.0000   1.0000   1.0000
     1.0000   1.0000   1.0000   1.0000   1.0000   1.0000   1.0000   1.0000
     1.0000   1.0000   1.0000   1.0000   1.0000   1.0000   1.0000   1.0000
     1.0000   1.0000   1.0000   1.0000   1.0000   1.0000   1.0000   1.0000
     1.0000   1.0000   1.0000   1.0000   1.0000   1.0000   1.0000   1.0000
     1.0000   1.0000   1.0000   1.0000   1.0000   1.0000   1.0000   1.0000
     1.0000   1.0000   1.0000   1.0000   1.0000   1.0000   1.0000   1.0000
     1.0000   1.0000   1.0000   1.0000   1.0000   1.0000   1.0000   1.0000
     1.0000   1.0000   1.0000   1.0000   1.0000   1.0000   1.0000   1.0000
     0.0000   0.0000   0.0000   0.0000   0.0000   0.0000   0.0000   0.0000
     0.0000   0.0000

          k = 0.0000 0.0000 0.7012 ( 32929 PWs)   bands (ev):

   -83.8429 -83.8383 -83.8002 -83.3531 -49.9750 -49.9279 -49.9116 -49.7987
   -49.7881 -49.7836 -49.7829 -49.7527 -49.7112 -49.7036 -49.2984 -49.1132
   -43.8776 -16.0832 -15.9427 -15.8279 -15.6731 -15.4578 -15.3241 -15.2503
   -13.2177 -13.1237 -13.0214 -12.8803 -12.8237 -12.7531 -12.7298 -12.6692
   -12.6311 -12.5736 -12.5445 -12.4392  -3.0256  -2.6796  -2.5148  -2.2065
    -1.2188  -1.0927  -0.9739  -0.8777  -0.7575  -0.6780  -0.4862  -0.3748
    -0.2144   0.0172   0.1843   0.1964   0.5523   0.6718   1.1480   1.2228
     1.3138   1.3581   1.5322   1.5982   1.6300   1.6787   1.7877   2.0778
     2.1801   2.2086   2.2766   2.3193   2.4509   2.4677   2.5465   2.5982
     2.6715   2.8577   3.1353   3.1683   3.2823   3.4266   3.5380   3.6378
     3.7033   3.8671   3.9346   4.0311   4.0768   4.2503   4.2645   4.3324
     4.4610   4.4924   4.6773   4.8276   4.9713   5.0341   5.1810   5.2677
     5.2773   5.5085   5.6595   5.7384   5.8985   5.9814   5.9855   6.1901
    12.1214  13.5811  13.8052  13.9691  14.2038  14.5282  14.6293  14.8640
    14.8896  14.9829

     occupation numbers 
     1.0000   1.0000   1.0000   1.0000   1.0000   1.0000   1.0000   1.0000
     1.0000   1.0000   1.0000   1.0000   1.0000   1.0000   1.0000   1.0000
     1.0000   1.0000   1.0000   1.0000   1.0000   1.0000   1.0000   1.0000
     1.0000   1.0000   1.0000   1.0000   1.0000   1.0000   1.0000   1.0000
     1.0000   1.0000   1.0000   1.0000   1.0000   1.0000   1.0000   1.0000
     1.0000   1.0000   1.0000   1.0000   1.0000   1.0000   1.0000   1.0000
     1.0000   1.0000   1.0000   1.0000   1.0000   1.0000   1.0000   1.0000
     1.0000   1.0000   1.0000   1.0000   1.0000   1.0000   1.0000   1.0000
     1.0000   1.0000   1.0000   1.0000   1.0000   1.0000   1.0000   1.0000
     1.0000   1.0000   1.0000   1.0000   1.0000   1.0000   1.0000   1.0000
     1.0000   1.0000   1.0000   1.0000   1.0000   1.0000   1.0000   1.0000
     1.0000   1.0000   1.0000   1.0000   1.0000   1.0000   1.0000   1.0000
     1.0000   1.0000   1.0000   1.0000   1.0000   1.0000   1.0000   1.0000
     0.0000   0.0000   0.0000   0.0000   0.0000   0.0000   0.0000   0.0000
     0.0000   0.0000

          k = 0.0000 0.0000 0.9349 ( 32952 PWs)   bands (ev):

   -83.8429 -83.8383 -83.8002 -83.3531 -49.9750 -49.9279 -49.9116 -49.7987
   -49.7881 -49.7836 -49.7829 -49.7528 -49.7112 -49.7036 -49.2984 -49.1132
   -43.8776 -16.1019 -15.9407 -15.8277 -15.6435 -15.4238 -15.2991 -15.2589
   -13.2406 -13.1486 -13.0392 -12.9039 -12.8395 -12.7532 -12.7157 -12.6703
   -12.6187 -12.5828 -12.5554 -12.4524  -2.8992  -2.7414  -2.4723  -2.2987
    -1.1696  -1.0594  -0.9129  -0.8319  -0.6728  -0.6684  -0.5165  -0.4876
    -0.1402   0.0084   0.1460   0.2730   0.7574   0.8916   1.1458   1.1952
     1.3084   1.4036   1.4972   1.5149   1.5557   1.6493   1.8157   1.9885
     2.1041   2.2130   2.2138   2.2670   2.2914   2.4763   2.5371   2.6345
     2.6824   2.8051   2.9366   2.9793   3.3157   3.4738   3.6019   3.6989
     3.8029   3.8121   3.9000   3.9936   4.0114   4.1602   4.2833   4.3395
     4.4479   4.4724   4.7853   4.8710   5.0055   5.0097   5.2164   5.3127
     5.4636   5.6778   5.6805   5.7657   5.7901   5.9065   5.9437   6.0432
    12.7468  13.3673  13.8232  14.0827  14.3307  14.4227  14.5998  14.7469
    14.8483  15.0380

     occupation numbers 
     1.0000   1.0000   1.0000   1.0000   1.0000   1.0000   1.0000   1.0000
     1.0000   1.0000   1.0000   1.0000   1.0000   1.0000   1.0000   1.0000
     1.0000   1.0000   1.0000   1.0000   1.0000   1.0000   1.0000   1.0000
     1.0000   1.0000   1.0000   1.0000   1.0000   1.0000   1.0000   1.0000
     1.0000   1.0000   1.0000   1.0000   1.0000   1.0000   1.0000   1.0000
     1.0000   1.0000   1.0000   1.0000   1.0000   1.0000   1.0000   1.0000
     1.0000   1.0000   1.0000   1.0000   1.0000   1.0000   1.0000   1.0000
     1.0000   1.0000   1.0000   1.0000   1.0000   1.0000   1.0000   1.0000
     1.0000   1.0000   1.0000   1.0000   1.0000   1.0000   1.0000   1.0000
     1.0000   1.0000   1.0000   1.0000   1.0000   1.0000   1.0000   1.0000
     1.0000   1.0000   1.0000   1.0000   1.0000   1.0000   1.0000   1.0000
     1.0000   1.0000   1.0000   1.0000   1.0000   1.0000   1.0000   1.0000
     1.0000   1.0000   1.0000   1.0000   1.0000   1.0000   1.0000   1.0000
     0.0000   0.0000   0.0000   0.0000   0.0000   0.0000   0.0000   0.0000
     0.0000   0.0000

          k = 0.0000 0.2391 0.0000 ( 32916 PWs)   bands (ev):

   -83.8429 -83.8383 -83.8002 -83.3531 -49.9750 -49.9279 -49.9116 -49.7987
   -49.7881 -49.7835 -49.7828 -49.7527 -49.7112 -49.7036 -49.2984 -49.1132
   -43.8777 -16.0245 -15.9039 -15.8384 -15.7816 -15.5517 -15.3741 -15.2859
   -13.1529 -13.0705 -12.9343 -12.8519 -12.8232 -12.7778 -12.7159 -12.6763
   -12.5919 -12.5316 -12.5074 -12.4073  -3.2171  -2.7092  -2.5236  -2.0476
    -1.5651  -1.1835  -1.0908  -0.9232  -0.7821  -0.6206  -0.4943  -0.4284
    -0.2877  -0.0879   0.0946   0.3058   0.4265   0.5855   1.1310   1.1616
     1.2218   1.2823   1.3727   1.4575   1.5624   1.8487   2.0177   2.1220
     2.2953   2.4128   2.4175   2.4511   2.5106   2.5498   2.6544   2.6803
     2.8447   3.1082   3.2211   3.3494   3.3686   3.4175   3.5314   3.5601
     3.7357   3.8272   3.9191   3.9701   4.0686   4.2305   4.3822   4.4116
     4.4797   4.5578   4.6679   4.7756   4.8184   4.9125   5.0206   5.0932
     5.1655   5.3505   5.6116   5.6467   5.9167   5.9927   6.3363   6.4286
    11.1598  13.2261  13.4638  13.8709  14.1510  14.5526  15.1550  15.2863
    15.5075  15.5494

     occupation numbers 
     1.0000   1.0000   1.0000   1.0000   1.0000   1.0000   1.0000   1.0000
     1.0000   1.0000   1.0000   1.0000   1.0000   1.0000   1.0000   1.0000
     1.0000   1.0000   1.0000   1.0000   1.0000   1.0000   1.0000   1.0000
     1.0000   1.0000   1.0000   1.0000   1.0000   1.0000   1.0000   1.0000
     1.0000   1.0000   1.0000   1.0000   1.0000   1.0000   1.0000   1.0000
     1.0000   1.0000   1.0000   1.0000   1.0000   1.0000   1.0000   1.0000
     1.0000   1.0000   1.0000   1.0000   1.0000   1.0000   1.0000   1.0000
     1.0000   1.0000   1.0000   1.0000   1.0000   1.0000   1.0000   1.0000
     1.0000   1.0000   1.0000   1.0000   1.0000   1.0000   1.0000   1.0000
     1.0000   1.0000   1.0000   1.0000   1.0000   1.0000   1.0000   1.0000
     1.0000   1.0000   1.0000   1.0000   1.0000   1.0000   1.0000   1.0000
     1.0000   1.0000   1.0000   1.0000   1.0000   1.0000   1.0000   1.0000
     1.0000   1.0000   1.0000   1.0000   1.0000   1.0000   1.0000   1.0000
     0.0000   0.0000   0.0000   0.0000   0.0000   0.0000   0.0000   0.0000
     0.0000   0.0000

          k = 0.0000 0.2391 0.2337 ( 32949 PWs)   bands (ev):

   -83.8429 -83.8383 -83.8002 -83.3531 -49.9750 -49.9279 -49.9116 -49.7987
   -49.7881 -49.7835 -49.7828 -49.7527 -49.7112 -49.7036 -49.2984 -49.1132
   -43.8777 -16.0306 -15.9212 -15.8352 -15.7570 -15.5374 -15.3666 -15.2805
   -13.1622 -13.0746 -12.9535 -12.8570 -12.8203 -12.7791 -12.7205 -12.6805
   -12.5928 -12.5378 -12.5107 -12.4109  -3.1907  -2.6972  -2.5237  -2.0611
    -1.5119  -1.1536  -1.0895  -0.9094  -0.7776  -0.6408  -0.5043  -0.3626
    -0.2753  -0.0550   0.0424   0.3115   0.4267   0.5771   1.1184   1.1640
     1.2453   1.2850   1.3824   1.4764   1.5585   1.8361   2.0388   2.0852
     2.2367   2.3572   2.3980   2.4408   2.5122   2.5592   2.6352   2.6853
     2.9464   3.0901   3.1841   3.3146   3.3452   3.4129   3.4901   3.5467
     3.7689   3.8007   3.8970   4.0067   4.1002   4.2476   4.3085   4.4097
     4.4282   4.5774   4.6711   4.7680   4.8461   4.8987   5.0671   5.0997
     5.2077   5.3431   5.6218   5.6596   5.8949   5.9874   6.3166   6.4113
    11.3050  13.2851  13.5405  13.8805  14.2001  14.5296  15.1104  15.2151
    15.3728  15.3977

     occupation numbers 
     1.0000   1.0000   1.0000   1.0000   1.0000   1.0000   1.0000   1.0000
     1.0000   1.0000   1.0000   1.0000   1.0000   1.0000   1.0000   1.0000
     1.0000   1.0000   1.0000   1.0000   1.0000   1.0000   1.0000   1.0000
     1.0000   1.0000   1.0000   1.0000   1.0000   1.0000   1.0000   1.0000
     1.0000   1.0000   1.0000   1.0000   1.0000   1.0000   1.0000   1.0000
     1.0000   1.0000   1.0000   1.0000   1.0000   1.0000   1.0000   1.0000
     1.0000   1.0000   1.0000   1.0000   1.0000   1.0000   1.0000   1.0000
     1.0000   1.0000   1.0000   1.0000   1.0000   1.0000   1.0000   1.0000
     1.0000   1.0000   1.0000   1.0000   1.0000   1.0000   1.0000   1.0000
     1.0000   1.0000   1.0000   1.0000   1.0000   1.0000   1.0000   1.0000
     1.0000   1.0000   1.0000   1.0000   1.0000   1.0000   1.0000   1.0000
     1.0000   1.0000   1.0000   1.0000   1.0000   1.0000   1.0000   1.0000
     1.0000   1.0000   1.0000   1.0000   1.0000   1.0000   1.0000   1.0000
     0.0000   0.0000   0.0000   0.0000   0.0000   0.0000   0.0000   0.0000
     0.0000   0.0000

          k = 0.0000 0.2391 0.4675 ( 32955 PWs)   bands (ev):

   -83.8429 -83.8383 -83.8002 -83.3531 -49.9750 -49.9279 -49.9116 -49.7987
   -49.7881 -49.7836 -49.7829 -49.7527 -49.7112 -49.7036 -49.2984 -49.1132
   -43.8776 -16.0519 -15.9386 -15.8328 -15.7085 -15.4992 -15.3472 -15.2687
   -13.1882 -13.0911 -12.9951 -12.8685 -12.8250 -12.7803 -12.7381 -12.6779
   -12.5946 -12.5507 -12.5199 -12.4210  -3.1146  -2.6772  -2.5176  -2.1147
    -1.3623  -1.1110  -1.0522  -0.8918  -0.7597  -0.6641  -0.4951  -0.2964
    -0.1762  -0.0905   0.0461   0.2817   0.4569   0.5743   1.0956   1.1872
     1.2456   1.2880   1.4709   1.5091   1.5894   1.7945   1.9622   2.1146
     2.1574   2.3018   2.3491   2.3966   2.4806   2.5183   2.6021   2.6667
     2.8989   3.0214   3.1759   3.2778   3.3044   3.3509   3.4588   3.5766
     3.6506   3.8904   3.9746   4.0355   4.1017   4.1343   4.2912   4.3634
     4.4050   4.5869   4.6816   4.7657   4.8452   4.9878   5.0849   5.1899
     5.3073   5.3202   5.5910   5.7421   5.8422   5.9758   6.2587   6.3597
    11.6981  13.4445  13.7443  13.9318  14.3062  14.5058  14.8420  15.0007
    15.1428  15.2680

     occupation numbers 
     1.0000   1.0000   1.0000   1.0000   1.0000   1.0000   1.0000   1.0000
     1.0000   1.0000   1.0000   1.0000   1.0000   1.0000   1.0000   1.0000
     1.0000   1.0000   1.0000   1.0000   1.0000   1.0000   1.0000   1.0000
     1.0000   1.0000   1.0000   1.0000   1.0000   1.0000   1.0000   1.0000
     1.0000   1.0000   1.0000   1.0000   1.0000   1.0000   1.0000   1.0000
     1.0000   1.0000   1.0000   1.0000   1.0000   1.0000   1.0000   1.0000
     1.0000   1.0000   1.0000   1.0000   1.0000   1.0000   1.0000   1.0000
     1.0000   1.0000   1.0000   1.0000   1.0000   1.0000   1.0000   1.0000
     1.0000   1.0000   1.0000   1.0000   1.0000   1.0000   1.0000   1.0000
     1.0000   1.0000   1.0000   1.0000   1.0000   1.0000   1.0000   1.0000
     1.0000   1.0000   1.0000   1.0000   1.0000   1.0000   1.0000   1.0000
     1.0000   1.0000   1.0000   1.0000   1.0000   1.0000   1.0000   1.0000
     1.0000   1.0000   1.0000   1.0000   1.0000   1.0000   1.0000   1.0000
     0.0000   0.0000   0.0000   0.0000   0.0000   0.0000   0.0000   0.0000
     0.0000   0.0000

          k = 0.0000 0.2391 0.7012 ( 32947 PWs)   bands (ev):

   -83.8429 -83.8383 -83.8002 -83.3531 -49.9750 -49.9279 -49.9116 -49.7987
   -49.7881 -49.7836 -49.7829 -49.7527 -49.7112 -49.7036 -49.2984 -49.1132
   -43.8776 -16.0803 -15.9415 -15.8315 -15.6628 -15.4514 -15.3228 -15.2608
   -13.2216 -13.1220 -13.0314 -12.8840 -12.8515 -12.7757 -12.7474 -12.6658
   -12.5983 -12.5603 -12.5306 -12.4347  -3.0014  -2.6820  -2.4964  -2.2064
    -1.2008  -1.0840  -0.9663  -0.8803  -0.7167  -0.6672  -0.4723  -0.3357
    -0.1903   0.0070   0.1512   0.1983   0.5539   0.6389   1.0575   1.1709
     1.2506   1.3669   1.5250   1.5737   1.6721   1.7743   1.8484   2.0762
     2.1146   2.2014   2.3141   2.3513   2.4457   2.4891   2.5383   2.5977
     2.6534   2.8506   3.0938   3.1895   3.2929   3.4285   3.4952   3.6266
     3.6502   3.9115   3.9368   4.0255   4.0645   4.1485   4.2132   4.3710
     4.3943   4.5316   4.7310   4.8427   4.9343   5.0278   5.1298   5.2667
     5.2827   5.4469   5.5708   5.7526   5.8540   5.9660   6.1696   6.2796
    12.2458  13.6704  13.8991  14.0415  14.2586  14.5746  14.6506  14.8040
    14.8903  15.0089

     occupation numbers 
     1.0000   1.0000   1.0000   1.0000   1.0000   1.0000   1.0000   1.0000
     1.0000   1.0000   1.0000   1.0000   1.0000   1.0000   1.0000   1.0000
     1.0000   1.0000   1.0000   1.0000   1.0000   1.0000   1.0000   1.0000
     1.0000   1.0000   1.0000   1.0000   1.0000   1.0000   1.0000   1.0000
     1.0000   1.0000   1.0000   1.0000   1.0000   1.0000   1.0000   1.0000
     1.0000   1.0000   1.0000   1.0000   1.0000   1.0000   1.0000   1.0000
     1.0000   1.0000   1.0000   1.0000   1.0000   1.0000   1.0000   1.0000
     1.0000   1.0000   1.0000   1.0000   1.0000   1.0000   1.0000   1.0000
     1.0000   1.0000   1.0000   1.0000   1.0000   1.0000   1.0000   1.0000
     1.0000   1.0000   1.0000   1.0000   1.0000   1.0000   1.0000   1.0000
     1.0000   1.0000   1.0000   1.0000   1.0000   1.0000   1.0000   1.0000
     1.0000   1.0000   1.0000   1.0000   1.0000   1.0000   1.0000   1.0000
     1.0000   1.0000   1.0000   1.0000   1.0000   1.0000   1.0000   1.0000
     0.0000   0.0000   0.0000   0.0000   0.0000   0.0000   0.0000   0.0000
     0.0000   0.0000

          k = 0.0000 0.2391 0.9349 ( 32946 PWs)   bands (ev):

   -83.8429 -83.8383 -83.8002 -83.3531 -49.9750 -49.9279 -49.9116 -49.7987
   -49.7881 -49.7836 -49.7829 -49.7528 -49.7112 -49.7036 -49.2984 -49.1132
   -43.8776 -16.0987 -15.9399 -15.8309 -15.6350 -15.4168 -15.3014 -15.2638
   -13.2452 -13.1481 -13.0503 -12.9043 -12.8682 -12.7714 -12.7448 -12.6554
   -12.6026 -12.5658 -12.5357 -12.4456  -2.8818  -2.7292  -2.4650  -2.2930
    -1.1461  -1.0455  -0.9073  -0.8373  -0.6645  -0.6264  -0.4844  -0.4639
    -0.1319  -0.0051   0.1460   0.2850   0.6920   0.8085   0.9870   1.0451
     1.3409   1.5002   1.5207   1.6192   1.6759   1.7079   1.8130   1.9705
     2.0598   2.1766   2.2665   2.3081   2.3267   2.4498   2.5016   2.5952
     2.6551   2.7829   2.9054   3.0251   3.3212   3.4521   3.5787   3.6433
     3.7413   3.8426   3.9354   3.9983   4.0331   4.1413   4.1761   4.3699
     4.4126   4.4964   4.8200   4.8839   4.9880   5.0229   5.2045   5.2602
     5.3289   5.5019   5.6095   5.7103   5.9092   5.9636   6.0837   6.2021
    12.8580  13.4681  13.9154  14.1762  14.3900  14.4714  14.6210  14.7358
    14.8217  15.0183

     occupation numbers 
     1.0000   1.0000   1.0000   1.0000   1.0000   1.0000   1.0000   1.0000
     1.0000   1.0000   1.0000   1.0000   1.0000   1.0000   1.0000   1.0000
     1.0000   1.0000   1.0000   1.0000   1.0000   1.0000   1.0000   1.0000
     1.0000   1.0000   1.0000   1.0000   1.0000   1.0000   1.0000   1.0000
     1.0000   1.0000   1.0000   1.0000   1.0000   1.0000   1.0000   1.0000
     1.0000   1.0000   1.0000   1.0000   1.0000   1.0000   1.0000   1.0000
     1.0000   1.0000   1.0000   1.0000   1.0000   1.0000   1.0000   1.0000
     1.0000   1.0000   1.0000   1.0000   1.0000   1.0000   1.0000   1.0000
     1.0000   1.0000   1.0000   1.0000   1.0000   1.0000   1.0000   1.0000
     1.0000   1.0000   1.0000   1.0000   1.0000   1.0000   1.0000   1.0000
     1.0000   1.0000   1.0000   1.0000   1.0000   1.0000   1.0000   1.0000
     1.0000   1.0000   1.0000   1.0000   1.0000   1.0000   1.0000   1.0000
     1.0000   1.0000   1.0000   1.0000   1.0000   1.0000   1.0000   1.0000
     0.0000   0.0000   0.0000   0.0000   0.0000   0.0000   0.0000   0.0000
     0.0000   0.0000

          k = 0.0000 0.4781 0.0000 ( 33016 PWs)   bands (ev):

   -83.8429 -83.8383 -83.8002 -83.3531 -49.9750 -49.9279 -49.9116 -49.7987
   -49.7881 -49.7835 -49.7829 -49.7527 -49.7112 -49.7036 -49.2984 -49.1132
   -43.8777 -16.0220 -15.9022 -15.8494 -15.7352 -15.5389 -15.3690 -15.3325
   -13.1601 -13.0648 -12.9426 -12.9263 -12.8352 -12.7859 -12.7034 -12.6766
   -12.5602 -12.5101 -12.4981 -12.4079  -3.1373  -2.7745  -2.4385  -2.0796
    -1.4893  -1.2056  -1.0953  -0.9359  -0.7075  -0.6032  -0.4727  -0.3698
    -0.1931  -0.0653   0.1330   0.3281   0.3951   0.6612   1.0318   1.1055
     1.2381   1.2500   1.3030   1.3553   1.4756   1.8536   1.9948   2.1773
     2.2152   2.2768   2.3723   2.4292   2.5341   2.5758   2.6916   2.7309
     2.9751   3.0452   3.2122   3.2942   3.3426   3.4152   3.4591   3.5982
     3.7727   3.8198   3.8217   3.9902   4.0921   4.1664   4.2637   4.2873
     4.4002   4.4731   4.7814   4.8306   4.9124   4.9482   5.0423   5.1445
     5.1894   5.3105   5.4798   5.6834   5.8052   6.1175   6.3834   6.4456
    11.5915  13.4008  13.6243  13.7219  14.3884  14.7893  14.9196  15.0579
    15.4053  15.5746

     occupation numbers 
     1.0000   1.0000   1.0000   1.0000   1.0000   1.0000   1.0000   1.0000
     1.0000   1.0000   1.0000   1.0000   1.0000   1.0000   1.0000   1.0000
     1.0000   1.0000   1.0000   1.0000   1.0000   1.0000   1.0000   1.0000
     1.0000   1.0000   1.0000   1.0000   1.0000   1.0000   1.0000   1.0000
     1.0000   1.0000   1.0000   1.0000   1.0000   1.0000   1.0000   1.0000
     1.0000   1.0000   1.0000   1.0000   1.0000   1.0000   1.0000   1.0000
     1.0000   1.0000   1.0000   1.0000   1.0000   1.0000   1.0000   1.0000
     1.0000   1.0000   1.0000   1.0000   1.0000   1.0000   1.0000   1.0000
     1.0000   1.0000   1.0000   1.0000   1.0000   1.0000   1.0000   1.0000
     1.0000   1.0000   1.0000   1.0000   1.0000   1.0000   1.0000   1.0000
     1.0000   1.0000   1.0000   1.0000   1.0000   1.0000   1.0000   1.0000
     1.0000   1.0000   1.0000   1.0000   1.0000   1.0000   1.0000   1.0000
     1.0000   1.0000   1.0000   1.0000   1.0000   1.0000   1.0000   1.0000
     0.0000   0.0000   0.0000   0.0000   0.0000   0.0000   0.0000   0.0000
     0.0000   0.0000

          k = 0.0000 0.4781 0.2337 ( 32976 PWs)   bands (ev):

   -83.8429 -83.8383 -83.8002 -83.3531 -49.9750 -49.9279 -49.9116 -49.7987
   -49.7881 -49.7835 -49.7829 -49.7527 -49.7112 -49.7036 -49.2984 -49.1132
   -43.8777 -16.0275 -15.9165 -15.8465 -15.7159 -15.5234 -15.3624 -15.3243
   -13.1690 -13.0677 -12.9627 -12.9295 -12.8324 -12.7907 -12.7307 -12.6622
   -12.5653 -12.5129 -12.4975 -12.4102  -3.1122  -2.7588  -2.4413  -2.0897
    -1.4435  -1.1740  -1.0857  -0.9219  -0.7034  -0.6181  -0.4443  -0.3428
    -0.1551  -0.0652   0.0865   0.2669   0.4372   0.6567   1.0078   1.0866
[...]
     atom   19 type  3   force =    -0.02931755   -0.06720630   -0.03875542
     atom   20 type  3   force =    -0.02761169    0.06449105    0.02773153
     atom   21 type  3   force =     0.02678907   -0.06121034    0.03433708
     atom   22 type  3   force =    -0.02760985   -0.06448850    0.02773192
     atom   23 type  3   force =     0.02678346    0.06120171    0.03433176
     atom   24 type  3   force =     0.02937507   -0.06165497   -0.03621417
     atom   25 type  3   force =    -0.02932320    0.06721634   -0.03876085
     The non-local contrib.  to forces
     atom    1 type  2   force =     0.13347432    0.00000109   -0.03138415
     atom    2 type  1   force =     0.05225430   -0.00000492    0.13359144
     atom    3 type  1   force =     0.04513180    0.00001663    0.10769684
     atom    4 type  1   force =    -0.20916873    0.00000719   -0.07184180
     atom    5 type  1   force =    -0.02354610   -0.00001451   -0.11905334
     atom    6 type  4   force =    -0.02374617    0.00000172   -0.04554461
     atom    7 type  4   force =     0.04962330   -0.00001217   -0.01422940
     atom    8 type  4   force =    -0.00447358   -0.00000356    0.04627573
     atom    9 type  4   force =     0.00498941    0.00001119    0.05432156
     atom   10 type  3   force =     0.27164797   -0.00000648   -1.45258995
     atom   11 type  3   force =    -0.08522712    0.00000170   -1.38157254
     atom   12 type  3   force =    -0.35762749    0.00000485    1.45303438
     atom   13 type  3   force =     0.19018280    0.00000036    1.45137704
     atom   14 type  3   force =     1.20206831    0.00000096   -0.55723284
     atom   15 type  3   force =    -1.18541758    0.00000479   -0.73342125
     atom   16 type  3   force =    -1.18587610    0.00001628    0.28603585
     atom   17 type  3   force =     1.15572088   -0.00000364    0.57327872
     atom   18 type  3   force =    -0.52219210   -1.07464769    0.74980374
     atom   19 type  3   force =     0.53477971    1.14136474    0.78086285
     atom   20 type  3   force =     0.55115407   -1.08675268   -0.65699633
     atom   21 type  3   force =    -0.54209201    1.05200776   -0.67258791
     atom   22 type  3   force =     0.55113213    1.08671990   -0.65700039
     atom   23 type  3   force =    -0.54207491   -1.05198398   -0.67258019
     atom   24 type  3   force =    -0.52221231    1.07467984    0.74980485
     atom   25 type  3   force =     0.53479879   -1.14139132    0.78086650
     The ionic contribution  to forces
     atom    1 type  2   force =    -4.04867146    0.00035499    2.65460420
     atom    2 type  1   force =     0.10257125   -0.00088368   -0.44061397
     atom    3 type  1   force =    -8.79308113    0.00106409   -0.62638120
     atom    4 type  1   force =     4.03866705    0.00084510   -0.37709029
     atom    5 type  1   force =     9.10806186   -0.00118929    0.57992790
     atom    6 type  4   force =    -3.71721146   -0.00029117    0.28903457
     atom    7 type  4   force =     0.74650605    0.00019016    0.38329961
     atom    8 type  4   force =     5.62351669    0.00027238   -0.57074751
     atom    9 type  4   force =    -2.94360290   -0.00018686   -0.70366898
     atom   10 type  3   force =   -10.89536139   -0.00030196    2.88359445
     atom   11 type  3   force =     4.09184986    0.00027764    1.44379107
     atom   12 type  3   force =    13.13151088    0.00028376   -3.02343253
     atom   13 type  3   force =    -8.95092209   -0.00032934   -2.32871316
     atom   14 type  3   force =     0.74134530   -0.00024138    5.69984475
     atom   15 type  3   force =    -1.97995507    0.00028234    7.28814957
     atom   16 type  3   force =    -2.17214774    0.00015346   -2.72951752
     atom   17 type  3   force =     3.80403030   -0.00029176   -6.41013042
     atom   18 type  3   force =    -4.41058762    2.90485696   -3.20960993
     atom   19 type  3   force =     1.07263714   -4.33039637   -2.79168454
     atom   20 type  3   force =     5.88113790    4.64933215    2.54933630
     atom   21 type  3   force =    -1.48672247   -1.34554612    1.44589346
     atom   22 type  3   force =     5.88141430   -4.64880606    2.54948773
     atom   23 type  3   force =    -1.48696899    1.34514596    1.44578063
     atom   24 type  3   force =    -4.41036801   -2.90539868   -3.20939837
     atom   25 type  3   force =     1.07235176    4.33080366   -2.79175582
     The local contribution  to forces
     atom    1 type  2   force =     3.92470926   -0.00035492   -2.62470927
     atom    2 type  1   force =    -0.14994106    0.00088182    0.31359057
     atom    3 type  1   force =     8.74996840   -0.00107225    0.52225433
     atom    4 type  1   force =    -3.85086392   -0.00084612    0.44876311
     atom    5 type  1   force =    -9.08442670    0.00119390   -0.46658747
     atom    6 type  4   force =     3.73467036    0.00028281   -0.25438969
     atom    7 type  4   force =    -0.78267607   -0.00018262   -0.37387241
     atom    8 type  4   force =    -5.62218574   -0.00026453    0.53344966
     atom    9 type  4   force =     2.94071390    0.00017881    0.66288358
     atom   10 type  3   force =    10.61360537    0.00030725   -1.36685982
     atom   11 type  3   force =    -4.00731061   -0.00027933    0.00375306
     atom   12 type  3   force =   -12.76002498   -0.00028810    1.50586920
     atom   13 type  3   force =     8.75394619    0.00032922    0.81077986
     atom   14 type  3   force =    -2.00832048    0.00024150   -5.11775039
     atom   15 type  3   force =     3.23005246   -0.00028646   -6.52491029
     atom   16 type  3   force =     3.41862180   -0.00016943    2.43168613
     atom   17 type  3   force =    -5.01755956    0.00029485    5.81169461
     atom   18 type  3   force =     4.95811279   -1.77690272    2.42977812
     atom   19 type  3   force =    -1.63262045    3.13069790    1.97851678
     atom   20 type  3   force =    -6.45556534   -3.50653454   -1.86999255
     atom   21 type  3   force =     2.05139231    0.24057169   -0.74455240
     atom   22 type  3   force =    -6.45581814    3.50604353   -1.87013954
     atom   23 type  3   force =     2.05161623   -0.24020388   -0.74445262
     atom   24 type  3   force =     4.95791237    1.77741219    2.42956960
     atom   25 type  3   force =    -1.63235969   -3.13106865    1.97857894
     The core correction contribution to forces
     atom    1 type  2   force =     0.00000000    0.00000000    0.00000000
     atom    2 type  1   force =    -0.00105128    0.00000020   -0.00047345
     atom    3 type  1   force =    -0.00000350   -0.00000037    0.00028555
     atom    4 type  1   force =     0.00477762   -0.00000018   -0.00110051
     atom    5 type  1   force =    -0.00004982    0.00000040    0.00043876
     atom    6 type  4   force =     0.00213835    0.00000004    0.00299821
     atom    7 type  4   force =    -0.00353133    0.00000091    0.00069847
     atom    8 type  4   force =    -0.00058612    0.00000015   -0.00282490
     atom    9 type  4   force =    -0.00013754   -0.00000091   -0.00348418
     atom   10 type  3   force =    -0.00281095    0.00000007    0.01141671
     atom   11 type  3   force =     0.00140199   -0.00000001    0.01070244
     atom   12 type  3   force =     0.00353955   -0.00000005   -0.01136134
     atom   13 type  3   force =    -0.00217021   -0.00000001   -0.01134916
     atom   14 type  3   force =    -0.00899612   -0.00000003    0.00486475
     atom   15 type  3   force =     0.00887630   -0.00000005    0.00628226
     atom   16 type  3   force =     0.00881357   -0.00000015   -0.00260920
     atom   17 type  3   force =    -0.00876270    0.00000004   -0.00496374
     atom   18 type  3   force =     0.00404370    0.00834309   -0.00619075
     atom   19 type  3   force =    -0.00410935   -0.00887713   -0.00644513
     atom   20 type  3   force =    -0.00434220    0.00845114    0.00538461
     atom   21 type  3   force =     0.00421348   -0.00824049    0.00558863
     atom   22 type  3   force =    -0.00434201   -0.00845087    0.00538463
     atom   23 type  3   force =     0.00421339    0.00824042    0.00558863
     atom   24 type  3   force =     0.00404390   -0.00834339   -0.00619082
     atom   25 type  3   force =    -0.00410946    0.00887721   -0.00644510
     The Hubbard contrib.    to forces
     atom    1 type  2   force =     0.00000000    0.00000000    0.00000000
     atom    2 type  1   force =     0.00000000    0.00000000    0.00000000
     atom    3 type  1   force =     0.00000000    0.00000000    0.00000000
     atom    4 type  1   force =     0.00000000    0.00000000    0.00000000
     atom    5 type  1   force =     0.00000000    0.00000000    0.00000000
     atom    6 type  4   force =     0.00000000    0.00000000    0.00000000
     atom    7 type  4   force =     0.00000000    0.00000000    0.00000000
     atom    8 type  4   force =     0.00000000    0.00000000    0.00000000
     atom    9 type  4   force =     0.00000000    0.00000000    0.00000000
     atom   10 type  3   force =     0.00000000    0.00000000    0.00000000
     atom   11 type  3   force =     0.00000000    0.00000000    0.00000000
     atom   12 type  3   force =     0.00000000    0.00000000    0.00000000
     atom   13 type  3   force =     0.00000000    0.00000000    0.00000000
     atom   14 type  3   force =     0.00000000    0.00000000    0.00000000
     atom   15 type  3   force =     0.00000000    0.00000000    0.00000000
     atom   16 type  3   force =     0.00000000    0.00000000    0.00000000
     atom   17 type  3   force =     0.00000000    0.00000000    0.00000000
     atom   18 type  3   force =     0.00000000    0.00000000    0.00000000
     atom   19 type  3   force =     0.00000000    0.00000000    0.00000000
     atom   20 type  3   force =     0.00000000    0.00000000    0.00000000
     atom   21 type  3   force =     0.00000000    0.00000000    0.00000000
     atom   22 type  3   force =     0.00000000    0.00000000    0.00000000
     atom   23 type  3   force =     0.00000000    0.00000000    0.00000000
     atom   24 type  3   force =     0.00000000    0.00000000    0.00000000
     atom   25 type  3   force =     0.00000000    0.00000000    0.00000000
     The SCF correction term to forces
     atom    1 type  2   force =    -0.00000459   -0.00000000   -0.00000002
     atom    2 type  1   force =    -0.00000797    0.00000001   -0.00000023
     atom    3 type  1   force =    -0.00000307   -0.00000001   -0.00000034
     atom    4 type  1   force =     0.00000404   -0.00000001   -0.00000009
     atom    5 type  1   force =     0.00000631    0.00000001    0.00000013
     atom    6 type  4   force =     0.00000140    0.00000000    0.00000022
     atom    7 type  4   force =    -0.00000363   -0.00000000   -0.00000066
     atom    8 type  4   force =     0.00000397   -0.00000000    0.00000002
     atom    9 type  4   force =    -0.00000199    0.00000000   -0.00000039
     atom   10 type  3   force =    -0.00000091    0.00000000   -0.00000223
     atom   11 type  3   force =    -0.00000667   -0.00000000    0.00000282
     atom   12 type  3   force =     0.00000447   -0.00000001   -0.00000016
     atom   13 type  3   force =    -0.00000489    0.00000001    0.00000258
     atom   14 type  3   force =    -0.00000150    0.00000000    0.00000056
     atom   15 type  3   force =     0.00000645   -0.00000000   -0.00000199
     atom   16 type  3   force =    -0.00000284    0.00000000   -0.00000008
     atom   17 type  3   force =     0.00000922   -0.00000000   -0.00000119
     atom   18 type  3   force =    -0.00000078    0.00000494    0.00000294
     atom   19 type  3   force =    -0.00000450    0.00000456   -0.00000301
     atom   20 type  3   force =     0.00000397   -0.00000502    0.00000187
     atom   21 type  3   force =    -0.00000215   -0.00000318   -0.00000233
     atom   22 type  3   force =     0.00000397    0.00000501    0.00000186
     atom   23 type  3   force =    -0.00000215    0.00000320   -0.00000233
     atom   24 type  3   force =    -0.00000079   -0.00000494    0.00000294
     atom   25 type  3   force =    -0.00000450   -0.00000456   -0.00000301

     Total force =     0.310782     Total SCF correction =     0.000027


     Computing stress (Cartesian axis) and pressure


     negative rho (up, down):  0.000E+00 7.947E-04
          total   stress  (Ry/bohr**3)                   (kbar)     P=      164.90
   0.00114940   0.00000001  -0.00002820          169.08        0.00       -4.15
   0.00000001   0.00088341  -0.00000001            0.00      129.95       -0.00
  -0.00002820  -0.00000001   0.00133002           -4.15       -0.00      195.65

     kinetic stress (kbar)  29623.70      0.00    -13.52
                                0.00  29848.04      0.00
                              -13.52      0.00  29651.34

     local   stress (kbar)  -3267.74     -0.11   1362.31
                               -0.11 -14227.81     -0.00
                             1362.31     -0.00  -8916.70

     nonloc. stress (kbar)  -7604.89     -0.00      1.34
                               -0.00  -7524.81     -0.00
                                1.34     -0.00  -7536.19

     hartree stress (kbar)  13139.73      0.05   -554.14
                                0.05  19271.48      0.00
                             -554.14      0.00  16402.18

     exc-cor stress (kbar)  -3131.66     -0.00     -0.98
                               -0.00  -3140.62     -0.00
                               -0.98     -0.00  -3137.35

     corecor stress (kbar)  -3453.61      0.00      1.14
                                0.00  -3451.85      0.00
                                1.14      0.00  -3454.06

     ewald   stress (kbar) -25136.45      0.06   -800.30
                                0.06 -20644.48      0.00
                             -800.30      0.00 -22813.57

     hubbard stress (kbar)      0.00      0.00      0.00
                                0.00      0.00      0.00
                                0.00      0.00      0.00

     DFT-D   stress (kbar)      0.00      0.00      0.00
                                0.00      0.00      0.00
                                0.00      0.00      0.00

     XDM     stress (kbar)      0.00      0.00      0.00
                                0.00      0.00      0.00
                                0.00      0.00      0.00

     dft-nl  stress (kbar)      0.00      0.00      0.00
                                0.00      0.00      0.00
                                0.00      0.00      0.00

     TS-vdW  stress (kbar)      0.00      0.00      0.00
                                0.00      0.00      0.00
                                0.00      0.00      0.00



     init_run     :    182.74s CPU    186.45s WALL (       1 calls)
     electrons    :  16494.48s CPU  16762.86s WALL (       1 calls)
     forces       :    112.41s CPU    114.81s WALL (       1 calls)
     stress       :    713.13s CPU    718.36s WALL (       1 calls)

     Called by init_run:
     wfcinit      :    173.50s CPU    176.34s WALL (       1 calls)
     wfcinit:atom :      3.54s CPU      3.62s WALL (     316 calls)
     wfcinit:wfcr :    160.79s CPU    163.38s WALL (     316 calls)
     potinit      :      3.41s CPU      3.54s WALL (       1 calls)
     hinit0       :      3.13s CPU      3.27s WALL (       1 calls)

     Called by electrons:
     c_bands      :  14056.78s CPU  14238.69s WALL (      30 calls)
     sum_band     :   2358.97s CPU   2427.62s WALL (      30 calls)
     v_of_rho     :     21.11s CPU     22.32s WALL (      31 calls)
     v_h          :      1.27s CPU      1.34s WALL (      31 calls)
     v_xc         :     21.32s CPU     22.69s WALL (      33 calls)
     newd         :     37.76s CPU     54.36s WALL (      31 calls)
     PAW_pot      :     14.39s CPU     14.45s WALL (      31 calls)
     mix_rho      :      5.72s CPU      6.07s WALL (      30 calls)

     Called by c_bands:
     init_us_2    :    244.20s CPU    250.01s WALL (   19908 calls)
     cegterg      :  13642.42s CPU  13815.28s WALL (    9480 calls)

     Called by sum_band:
     sum_band:wei :      0.51s CPU      0.51s WALL (      30 calls)
     sum_band:loo :   2238.36s CPU   2284.58s WALL (      30 calls)
     sum_band:buf :     65.89s CPU     67.39s WALL (    9480 calls)
     sum_band:ini :    117.38s CPU    120.04s WALL (    9480 calls)
     sum_band:cal :    651.17s CPU    660.97s WALL (    9480 calls)
     sum_band:bec :      8.26s CPU      8.41s WALL (    9480 calls)
     addusdens    :    117.65s CPU    139.84s WALL (      30 calls)
     addusd:skk   :      0.92s CPU      0.95s WALL (      90 calls)
     addusd:dgemm :     58.62s CPU     76.22s WALL (     180 calls)
     addusd:qvan2 :     56.49s CPU     57.12s WALL (     180 calls)

     Called by *egterg:
     cdiaghg      :    885.34s CPU    905.16s WALL (   35999 calls)
     cegterg:over :   1229.94s CPU   1252.64s WALL (   26519 calls)
     cegterg:upda :    679.61s CPU    683.82s WALL (   26519 calls)
     cegterg:last :   1194.01s CPU   1201.45s WALL (   14887 calls)
     h_psi        :   7399.86s CPU   7499.79s WALL (   36315 calls)
     s_psi        :   1524.93s CPU   1533.71s WALL (   36315 calls)
     g_psi        :     12.09s CPU     12.24s WALL (   26519 calls)

     Called by h_psi:
     h_psi:calbec :   1651.87s CPU   1674.39s WALL (   36315 calls)
     vloc_psi     :   3981.17s CPU   4044.95s WALL (   36315 calls)
     add_vuspsi   :   1626.86s CPU   1636.65s WALL (   36315 calls)

     General routines
     calbec       :   2400.94s CPU   2434.72s WALL (   47375 calls)
     fft          :     16.14s CPU     17.95s WALL (     813 calls)
     ffts         :      0.55s CPU      0.60s WALL (     122 calls)
     fftw         :   5154.43s CPU   5247.44s WALL ( 5858224 calls)
     interpolate  :      1.57s CPU      1.71s WALL (      62 calls)

     Parallel routines
     fft_scatt_xy :    270.99s CPU    273.67s WALL ( 5859159 calls)
     fft_scatt_yz :   3089.07s CPU   3163.57s WALL ( 5859159 calls)

     PAW routines
     PAW_pot      :     14.39s CPU     14.45s WALL (      31 calls)

     PWSCF        :      4h51m CPU      4h56m WALL


   This run was terminated on:  11: 0: 5  21Dec2022            

=------------------------------------------------------------------------------=
   JOB DONE.
=------------------------------------------------------------------------------=
Note: The following floating-point exceptions are signalling: IEEE_INVALID_FLAG IEEE_UNDERFLOW_FLAG IEEE_DENORMAL
Note: The following floating-point exceptions are signalling: IEEE_INVALID_FLAG IEEE_DENORMAL
Note: The following floating-point exceptions are signalling: IEEE_DENORMAL
Note: The following floating-point exceptions are signalling: IEEE_DENORMAL
Note: The following floating-point exceptions are signalling: IEEE_DENORMAL
Note: The following floating-point exceptions are signalling: IEEE_INVALID_FLAG IEEE_DENORMAL
Note: The following floating-point exceptions are signalling: IEEE_DENORMAL
Note: The following floating-point exceptions are signalling: IEEE_DENORMAL
Note: The following floating-point exceptions are signalling: IEEE_DENORMAL
Note: The following floating-point exceptions are signalling: IEEE_INVALID_FLAG IEEE_DENORMAL
Note: The following floating-point exceptions are signalling: IEEE_DENORMAL
Note: The following floating-point exceptions are signalling: IEEE_DENORMAL
Note: The following floating-point exceptions are signalling: IEEE_DENORMAL
Note: The following floating-point exceptions are signalling: IEEE_DENORMAL
Note: The following floating-point exceptions are signalling: IEEE_DENORMAL
Note: The following floating-point exceptions are signalling: IEEE_INVALID_FLAG IEEE_DENORMAL
Note: The following floating-point exceptions are signalling: IEEE_DENORMAL
Note: The following floating-point exceptions are signalling: IEEE_DENORMAL
