
     Program PWSCF v.6.7MaX starts on 21Dec2022 at  9:32:11 

     This program is part of the open-source Quantum ESPRESSO suite
     for quantum simulation of materials; please cite
         "P. Giannozzi et al., J. Phys.:Condens. Matter 21 395502 (2009);
         "P. Giannozzi et al., J. Phys.:Condens. Matter 29 465901 (2017);
          URL http://www.quantum-espresso.org", 
     in publications or presentations arising from this work. More details at
     http://www.quantum-espresso.org/quote

     Parallel version (MPI), running on    24 processors

     MPI processes distributed on     1 nodes
     R & G space division:  proc/nbgrp/npool/nimage =      24
     Reading input from scale_3d-05.in

     Current dimensions of program PWSCF are:
     Max number of different atomic species (ntypx) = 10
     Max number of k-points (npk) =  40000
     Max angular momentum in pseudopotentials (lmaxx) =  3
     Message from routine read_pp_mesh:
     mesh size missing, using the one in header
     file Fe.pbe-spn-kjpaw_psl.0.2.1.UPF: wavefunction(s)  3D renormalized
     file O.pbe-n-kjpaw_psl.0.1.UPF: wavefunction(s)  2P renormalized

     Subspace diagonalization in iterative solution of the eigenvalue problem:
     a serial algorithm will be used

     Message from routine setup:
     using ibrav=0 with symmetry is DISCOURAGED, use correct ibrav instead

     Parallelization info
     --------------------
     sticks:   dense  smooth     PW     G-vecs:    dense   smooth      PW
     Min         912     338     91                62459    14078    1965
     Max         914     339     92                62462    14080    1966
     Sum       21895    8121   2193              1499053   337887   47169



     bravais-lattice index     =            0
     lattice parameter (alat)  =      20.6483  a.u.
     unit-cell volume          =    2500.8842 (a.u.)^3
     number of atoms/cell      =           25
     number of atomic types    =            4
     number of electrons       =       189.00
     number of Kohn-Sham states=          114
     kinetic-energy cutoff     =     100.0000  Ry
     charge density cutoff     =    1080.0000  Ry
     scf convergence threshold =      2.0E-10
     mixing beta               =       0.4000
     number of iterations used =            8  plain     mixing
     Exchange-correlation= PBE
                           (   1   4   3   4   0   0   0)

     celldm(1)=  20.648310  celldm(2)=   0.000000  celldm(3)=   0.000000
     celldm(4)=   0.000000  celldm(5)=   0.000000  celldm(6)=   0.000000

     crystal axes: (cart. coord. in units of alat)
               a(1) = (   1.000000   0.000000   0.000000 )  
               a(2) = (   0.000000   0.597590   0.000000 )  
               a(3) = (   0.000000   0.000000   0.475375 )  

     reciprocal axes: (cart. coord. in units 2 pi/alat)
               b(1) = (  1.000000  0.000000  0.000000 )  
               b(2) = (  0.000000  1.673388  0.000000 )  
               b(3) = (  0.000000  0.000000  2.103600 )  


     PseudoPot. # 1 for Fe read from file:
     /opt/QEpot/SSSP_precision_pseudos/Fe.pbe-spn-kjpaw_psl.0.2.1.UPF
     MD5 check sum: e86618425769142926afa95317d90200
     Pseudo is Projector augmented-wave + core cor, Zval = 16.0
     Generated using "atomic" code by A. Dal Corso  v.5.0.99 svn rev. 10869
     Shape of augmentation charge: PSQ
     Using radial grid of 1191 points,  6 beta functions with: 
                l(1) =   0
                l(2) =   0
                l(3) =   1
                l(4) =   1
                l(5) =   2
                l(6) =   2
     Q(r) pseudized with 0 coefficients 


     PseudoPot. # 2 for Na read from file:
     /opt/QEpot/SSSP_precision_pseudos/Na_ONCV_PBE-1.0.oncvpsp.upf
     MD5 check sum: 24a298df0a6742ae313db96548fdb2a4
     Pseudo is Norm-conserving, Zval =  9.0
     Generated using ONCVPSP code by D. R. Hamann
     Using radial grid of 1992 points,  4 beta functions with: 
                l(1) =   0
                l(2) =   0
                l(3) =   1
                l(4) =   1

     PseudoPot. # 3 for O  read from file:
     /opt/QEpot/SSSP_precision_pseudos/O.pbe-n-kjpaw_psl.0.1.UPF
     MD5 check sum: 0234752ac141de4415c5fc33072bef88
     Pseudo is Projector augmented-wave + core cor, Zval =  6.0
     Generated using "atomic" code by A. Dal Corso  v.5.0.99 svn rev. 10869
     Shape of augmentation charge: BESSEL
     Using radial grid of 1095 points,  4 beta functions with: 
                l(1) =   0
                l(2) =   0
                l(3) =   1
                l(4) =   1
     Q(r) pseudized with 0 coefficients 


     PseudoPot. # 4 for P  read from file:
     /opt/QEpot/SSSP_precision_pseudos/P.pbe-n-rrkjus_psl.1.0.0.UPF
     MD5 check sum: 8b930f418f0a4573dca56cd030ffe088
     Pseudo is Ultrasoft + core correction, Zval =  5.0
     Generated using "atomic" code by A. Dal Corso  v.5.1
     Using radial grid of 1147 points,  6 beta functions with: 
                l(1) =   0
                l(2) =   0
                l(3) =   1
                l(4) =   1
                l(5) =   2
                l(6) =   2
     Q(r) pseudized with 0 coefficients 


     atomic species   valence    mass     pseudopotential
        Fe            16.00    55.84500     Fe( 1.00)
        Na             9.00    22.98977     Na( 1.00)
        O              6.00    15.99940     O ( 1.00)
        P              5.00    30.97376     P ( 1.00)

     Starting magnetic structure 
     atomic species   magnetization
        Fe           0.312
        Na           0.000
        O            0.000
        P            0.000

      2 Sym. Ops. (no inversion) found ( 1 have fractional translation)


                                    s                        frac. trans.

      isym =  1     identity                                     

 cryst.   s( 1) = (     1          0          0      )
                  (     0          1          0      )
                  (     0          0          1      )

 cart.    s( 1) = (  1.0000000  0.0000000  0.0000000 )
                  (  0.0000000  1.0000000  0.0000000 )
                  (  0.0000000  0.0000000  1.0000000 )


      isym =  2     inv. 180 deg rotation - cart. axis [0,1,0]   

 cryst.   s( 2) = (     1          0          0      )    f =(  0.0000000 )
                  (     0         -1          0      )       (  0.4999980 )
                  (     0          0          1      )       (  0.0000000 )

 cart.    s( 2) = (  1.0000000  0.0000000  0.0000000 )    f =(  0.0000000 )
                  (  0.0000000 -1.0000000  0.0000000 )       (  0.2987938 )
                  (  0.0000000  0.0000000  1.0000000 )       (  0.0000000 )


   Cartesian axes

     site n.     atom                  positions (alat units)
         1           Na  tau(   1) = (   0.5574590   0.1493981   0.2117218  )
         2           Fe  tau(   2) = (   0.2771150   0.4481954   0.4712830  )
         3           Fe  tau(   3) = (   0.2107060   0.1493969   0.2331517  )
         4           Fe  tau(   4) = (   0.7302140   0.1493975   0.0000509  )
         5           Fe  tau(   5) = (   0.7810190   0.4481960   0.2445945  )
         6           P   tau(   6) = (   0.1051510   0.4481942   0.2110135  )
         7           P   tau(   7) = (   0.3871250   0.1493987   0.4475898  )
         8           P   tau(   8) = (   0.8922730   0.1493987   0.2646059  )
         9           P   tau(   9) = (   0.6039150   0.4481942   0.0314295  )
        10           O   tau(  10) = (   0.1313210   0.4481948   0.3569352  )
        11           O   tau(  11) = (   0.3628270   0.1493981   0.1186442  )
        12           O   tau(  12) = (   0.8714480   0.1493981   0.1180971  )
        13           O   tau(  13) = (   0.6323650   0.4481948   0.3613614  )
        14           O   tau(  14) = (   0.4574600   0.4481948   0.0568269  )
        15           O   tau(  15) = (   0.0361810   0.1493981   0.2982587  )
        16           O   tau(  16) = (   0.5358400   0.1493975   0.4259246  )
        17           O   tau(  17) = (   0.9582930   0.4481948   0.1859797  )
        18           O   tau(  18) = (   0.1741600   0.5648814   0.1424125  )
        19           O   tau(  19) = (   0.3208130   0.0329153   0.3780219  )
        20           O   tau(  20) = (   0.8175190   0.2646445   0.3306455  )
        21           O   tau(  21) = (   0.6721860   0.3307857   0.1012997  )
        22           O   tau(  22) = (   0.8175190   0.0341529   0.3306460  )
        23           O   tau(  23) = (   0.6721870   0.5656027   0.1013006  )
        24           O   tau(  24) = (   0.1741600   0.3315070   0.1424125  )
        25           O   tau(  25) = (   0.3208140   0.2658821   0.3780229  )

   Crystallographic axes

     site n.     atom                  positions (cryst. coord.)
         1           Na  tau(   1) = (  0.5574590  0.2500010  0.4453780  )
         2           Fe  tau(   2) = (  0.2771150  0.7500050  0.9913910  )
         3           Fe  tau(   3) = (  0.2107060  0.2499990  0.4904580  )
         4           Fe  tau(   4) = (  0.7302140  0.2500000  0.0001070  )
         5           Fe  tau(   5) = (  0.7810190  0.7500060  0.5145290  )
         6           P   tau(   6) = (  0.1051510  0.7500030  0.4438880  )
         7           P   tau(   7) = (  0.3871250  0.2500020  0.9415500  )
         8           P   tau(   8) = (  0.8922730  0.2500020  0.5566250  )
         9           P   tau(   9) = (  0.6039150  0.7500030  0.0661150  )
        10           O   tau(  10) = (  0.1313210  0.7500040  0.7508490  )
        11           O   tau(  11) = (  0.3628270  0.2500010  0.2495800  )
        12           O   tau(  12) = (  0.8714480  0.2500010  0.2484290  )
        13           O   tau(  13) = (  0.6323650  0.7500040  0.7601600  )
        14           O   tau(  14) = (  0.4574600  0.7500040  0.1195410  )
        15           O   tau(  15) = (  0.0361810  0.2500010  0.6274170  )
        16           O   tau(  16) = (  0.5358400  0.2500000  0.8959750  )
        17           O   tau(  17) = (  0.9582930  0.7500040  0.3912270  )
        18           O   tau(  18) = (  0.1741600  0.9452660  0.2995790  )
        19           O   tau(  19) = (  0.3208130  0.0550800  0.7952070  )
        20           O   tau(  20) = (  0.8175190  0.4428530  0.6955460  )
        21           O   tau(  21) = (  0.6721860  0.5535330  0.2130940  )
        22           O   tau(  22) = (  0.8175190  0.0571510  0.6955470  )
        23           O   tau(  23) = (  0.6721870  0.9464730  0.2130960  )
        24           O   tau(  24) = (  0.1741600  0.5547400  0.2995790  )
        25           O   tau(  25) = (  0.3208140  0.4449240  0.7952090  )

     number of k points=    92  Marzari-Vanderbilt smearing, width (Ry)=  0.0073
                       cart. coord. in units 2pi/alat
        k(    1) = (   0.0000000   0.0000000   0.0000000), wk =   0.0031746
        k(    2) = (   0.0000000   0.0000000   0.2337334), wk =   0.0063492
        k(    3) = (   0.0000000   0.0000000   0.4674667), wk =   0.0063492
        k(    4) = (   0.0000000   0.0000000   0.7012001), wk =   0.0063492
        k(    5) = (   0.0000000   0.0000000   0.9349334), wk =   0.0063492
        k(    6) = (   0.0000000   0.2390555   0.0000000), wk =   0.0063492
        k(    7) = (   0.0000000   0.2390555   0.2337334), wk =   0.0126984
        k(    8) = (   0.0000000   0.2390555   0.4674667), wk =   0.0126984
        k(    9) = (   0.0000000   0.2390555   0.7012001), wk =   0.0126984
        k(   10) = (   0.0000000   0.2390555   0.9349334), wk =   0.0126984
        k(   11) = (   0.0000000   0.4781110   0.0000000), wk =   0.0063492
        k(   12) = (   0.0000000   0.4781110   0.2337334), wk =   0.0126984
        k(   13) = (   0.0000000   0.4781110   0.4674667), wk =   0.0126984
        k(   14) = (   0.0000000   0.4781110   0.7012001), wk =   0.0126984
        k(   15) = (   0.0000000   0.4781110   0.9349334), wk =   0.0126984
        k(   16) = (   0.0000000   0.7171664   0.0000000), wk =   0.0063492
        k(   17) = (   0.0000000   0.7171664   0.2337334), wk =   0.0126984
        k(   18) = (   0.0000000   0.7171664   0.4674667), wk =   0.0126984
        k(   19) = (   0.0000000   0.7171664   0.7012001), wk =   0.0126984
        k(   20) = (   0.0000000   0.7171664   0.9349334), wk =   0.0126984
        k(   21) = (   0.2000000   0.0000000   0.0000000), wk =   0.0063492
        k(   22) = (   0.2000000   0.0000000   0.2337334), wk =   0.0063492
        k(   23) = (   0.2000000   0.0000000   0.4674667), wk =   0.0063492
        k(   24) = (   0.2000000   0.0000000   0.7012001), wk =   0.0063492
        k(   25) = (   0.2000000   0.0000000   0.9349334), wk =   0.0063492
        k(   26) = (   0.2000000   0.2390555   0.0000000), wk =   0.0126984
        k(   27) = (   0.2000000   0.2390555   0.2337334), wk =   0.0126984
        k(   28) = (   0.2000000   0.2390555   0.4674667), wk =   0.0126984
        k(   29) = (   0.2000000   0.2390555   0.7012001), wk =   0.0126984
        k(   30) = (   0.2000000   0.2390555   0.9349334), wk =   0.0126984
        k(   31) = (   0.2000000   0.4781110   0.0000000), wk =   0.0126984
        k(   32) = (   0.2000000   0.4781110   0.2337334), wk =   0.0126984
        k(   33) = (   0.2000000   0.4781110   0.4674667), wk =   0.0126984
        k(   34) = (   0.2000000   0.4781110   0.7012001), wk =   0.0126984
        k(   35) = (   0.2000000   0.4781110   0.9349334), wk =   0.0126984
        k(   36) = (   0.2000000   0.7171664   0.0000000), wk =   0.0126984
        k(   37) = (   0.2000000   0.7171664   0.2337334), wk =   0.0126984
        k(   38) = (   0.2000000   0.7171664   0.4674667), wk =   0.0126984
        k(   39) = (   0.2000000   0.7171664   0.7012001), wk =   0.0126984
        k(   40) = (   0.2000000   0.7171664   0.9349334), wk =   0.0126984
        k(   41) = (   0.4000000   0.0000000   0.0000000), wk =   0.0063492
        k(   42) = (   0.4000000   0.0000000   0.2337334), wk =   0.0063492
        k(   43) = (   0.4000000   0.0000000   0.4674667), wk =   0.0063492
        k(   44) = (   0.4000000   0.0000000   0.7012001), wk =   0.0063492
        k(   45) = (   0.4000000   0.0000000   0.9349334), wk =   0.0063492
        k(   46) = (   0.4000000   0.2390555   0.0000000), wk =   0.0126984
        k(   47) = (   0.4000000   0.2390555   0.2337334), wk =   0.0126984
        k(   48) = (   0.4000000   0.2390555   0.4674667), wk =   0.0126984
        k(   49) = (   0.4000000   0.2390555   0.7012001), wk =   0.0126984
        k(   50) = (   0.4000000   0.2390555   0.9349334), wk =   0.0126984
        k(   51) = (   0.4000000   0.4781110   0.0000000), wk =   0.0126984
        k(   52) = (   0.4000000   0.4781110   0.2337334), wk =   0.0126984
        k(   53) = (   0.4000000   0.4781110   0.4674667), wk =   0.0126984
        k(   54) = (   0.4000000   0.4781110   0.7012001), wk =   0.0126984
        k(   55) = (   0.4000000   0.4781110   0.9349334), wk =   0.0126984
        k(   56) = (   0.4000000   0.7171664   0.0000000), wk =   0.0126984
        k(   57) = (   0.4000000   0.7171664   0.2337334), wk =   0.0126984
        k(   58) = (   0.4000000   0.7171664   0.4674667), wk =   0.0126984
        k(   59) = (   0.4000000   0.7171664   0.7012001), wk =   0.0126984
        k(   60) = (   0.4000000   0.7171664   0.9349334), wk =   0.0126984
        k(   61) = (   0.2000000   0.0000000  -0.2337334), wk =   0.0063492
        k(   62) = (   0.2000000   0.0000000  -0.4674667), wk =   0.0063492
        k(   63) = (   0.2000000   0.0000000  -0.7012001), wk =   0.0063492
        k(   64) = (   0.2000000   0.0000000  -0.9349334), wk =   0.0063492
        k(   65) = (   0.2000000  -0.2390555  -0.2337334), wk =   0.0126984
        k(   66) = (   0.2000000  -0.2390555  -0.4674667), wk =   0.0126984
        k(   67) = (   0.2000000  -0.2390555  -0.7012001), wk =   0.0126984
        k(   68) = (   0.2000000  -0.2390555  -0.9349334), wk =   0.0126984
        k(   69) = (   0.2000000  -0.4781110  -0.2337334), wk =   0.0126984
        k(   70) = (   0.2000000  -0.4781110  -0.4674667), wk =   0.0126984
        k(   71) = (   0.2000000  -0.4781110  -0.7012001), wk =   0.0126984
        k(   72) = (   0.2000000  -0.4781110  -0.9349334), wk =   0.0126984
        k(   73) = (   0.2000000  -0.7171664  -0.2337334), wk =   0.0126984
        k(   74) = (   0.2000000  -0.7171664  -0.4674667), wk =   0.0126984
        k(   75) = (   0.2000000  -0.7171664  -0.7012001), wk =   0.0126984
        k(   76) = (   0.2000000  -0.7171664  -0.9349334), wk =   0.0126984
        k(   77) = (   0.4000000   0.0000000  -0.2337334), wk =   0.0063492
        k(   78) = (   0.4000000   0.0000000  -0.4674667), wk =   0.0063492
        k(   79) = (   0.4000000   0.0000000  -0.7012001), wk =   0.0063492
        k(   80) = (   0.4000000   0.0000000  -0.9349334), wk =   0.0063492
        k(   81) = (   0.4000000  -0.2390555  -0.2337334), wk =   0.0126984
        k(   82) = (   0.4000000  -0.2390555  -0.4674667), wk =   0.0126984
        k(   83) = (   0.4000000  -0.2390555  -0.7012001), wk =   0.0126984
        k(   84) = (   0.4000000  -0.2390555  -0.9349334), wk =   0.0126984
        k(   85) = (   0.4000000  -0.4781110  -0.2337334), wk =   0.0126984
        k(   86) = (   0.4000000  -0.4781110  -0.4674667), wk =   0.0126984
        k(   87) = (   0.4000000  -0.4781110  -0.7012001), wk =   0.0126984
        k(   88) = (   0.4000000  -0.4781110  -0.9349334), wk =   0.0126984
        k(   89) = (   0.4000000  -0.7171664  -0.2337334), wk =   0.0126984
        k(   90) = (   0.4000000  -0.7171664  -0.4674667), wk =   0.0126984
        k(   91) = (   0.4000000  -0.7171664  -0.7012001), wk =   0.0126984
        k(   92) = (   0.4000000  -0.7171664  -0.9349334), wk =   0.0126984

                       cryst. coord.
        k(    1) = (   0.0000000   0.0000000   0.0000000), wk =   0.0031746
        k(    2) = (   0.0000000   0.0000000   0.1111111), wk =   0.0063492
        k(    3) = (   0.0000000   0.0000000   0.2222222), wk =   0.0063492
        k(    4) = (   0.0000000   0.0000000   0.3333333), wk =   0.0063492
        k(    5) = (   0.0000000   0.0000000   0.4444444), wk =   0.0063492
        k(    6) = (   0.0000000   0.1428571   0.0000000), wk =   0.0063492
        k(    7) = (   0.0000000   0.1428571   0.1111111), wk =   0.0126984
        k(    8) = (   0.0000000   0.1428571   0.2222222), wk =   0.0126984
        k(    9) = (   0.0000000   0.1428571   0.3333333), wk =   0.0126984
        k(   10) = (   0.0000000   0.1428571   0.4444444), wk =   0.0126984
        k(   11) = (   0.0000000   0.2857143   0.0000000), wk =   0.0063492
        k(   12) = (   0.0000000   0.2857143   0.1111111), wk =   0.0126984
        k(   13) = (   0.0000000   0.2857143   0.2222222), wk =   0.0126984
        k(   14) = (   0.0000000   0.2857143   0.3333333), wk =   0.0126984
        k(   15) = (   0.0000000   0.2857143   0.4444444), wk =   0.0126984
        k(   16) = (   0.0000000   0.4285714   0.0000000), wk =   0.0063492
        k(   17) = (   0.0000000   0.4285714   0.1111111), wk =   0.0126984
        k(   18) = (   0.0000000   0.4285714   0.2222222), wk =   0.0126984
        k(   19) = (   0.0000000   0.4285714   0.3333333), wk =   0.0126984
        k(   20) = (   0.0000000   0.4285714   0.4444444), wk =   0.0126984
        k(   21) = (   0.2000000   0.0000000   0.0000000), wk =   0.0063492
        k(   22) = (   0.2000000   0.0000000   0.1111111), wk =   0.0063492
        k(   23) = (   0.2000000   0.0000000   0.2222222), wk =   0.0063492
        k(   24) = (   0.2000000   0.0000000   0.3333333), wk =   0.0063492
        k(   25) = (   0.2000000   0.0000000   0.4444444), wk =   0.0063492
        k(   26) = (   0.2000000   0.1428571   0.0000000), wk =   0.0126984
        k(   27) = (   0.2000000   0.1428571   0.1111111), wk =   0.0126984
        k(   28) = (   0.2000000   0.1428571   0.2222222), wk =   0.0126984
        k(   29) = (   0.2000000   0.1428571   0.3333333), wk =   0.0126984
        k(   30) = (   0.2000000   0.1428571   0.4444444), wk =   0.0126984
        k(   31) = (   0.2000000   0.2857143   0.0000000), wk =   0.0126984
        k(   32) = (   0.2000000   0.2857143   0.1111111), wk =   0.0126984
        k(   33) = (   0.2000000   0.2857143   0.2222222), wk =   0.0126984
        k(   34) = (   0.2000000   0.2857143   0.3333333), wk =   0.0126984
        k(   35) = (   0.2000000   0.2857143   0.4444444), wk =   0.0126984
        k(   36) = (   0.2000000   0.4285714   0.0000000), wk =   0.0126984
        k(   37) = (   0.2000000   0.4285714   0.1111111), wk =   0.0126984
        k(   38) = (   0.2000000   0.4285714   0.2222222), wk =   0.0126984
        k(   39) = (   0.2000000   0.4285714   0.3333333), wk =   0.0126984
        k(   40) = (   0.2000000   0.4285714   0.4444444), wk =   0.0126984
        k(   41) = (   0.4000000   0.0000000   0.0000000), wk =   0.0063492
        k(   42) = (   0.4000000   0.0000000   0.1111111), wk =   0.0063492
        k(   43) = (   0.4000000   0.0000000   0.2222222), wk =   0.0063492
        k(   44) = (   0.4000000   0.0000000   0.3333333), wk =   0.0063492
        k(   45) = (   0.4000000   0.0000000   0.4444444), wk =   0.0063492
        k(   46) = (   0.4000000   0.1428571   0.0000000), wk =   0.0126984
        k(   47) = (   0.4000000   0.1428571   0.1111111), wk =   0.0126984
        k(   48) = (   0.4000000   0.1428571   0.2222222), wk =   0.0126984
        k(   49) = (   0.4000000   0.1428571   0.3333333), wk =   0.0126984
        k(   50) = (   0.4000000   0.1428571   0.4444444), wk =   0.0126984
        k(   51) = (   0.4000000   0.2857143   0.0000000), wk =   0.0126984
        k(   52) = (   0.4000000   0.2857143   0.1111111), wk =   0.0126984
        k(   53) = (   0.4000000   0.2857143   0.2222222), wk =   0.0126984
        k(   54) = (   0.4000000   0.2857143   0.3333333), wk =   0.0126984
        k(   55) = (   0.4000000   0.2857143   0.4444444), wk =   0.0126984
        k(   56) = (   0.4000000   0.4285714   0.0000000), wk =   0.0126984
        k(   57) = (   0.4000000   0.4285714   0.1111111), wk =   0.0126984
        k(   58) = (   0.4000000   0.4285714   0.2222222), wk =   0.0126984
        k(   59) = (   0.4000000   0.4285714   0.3333333), wk =   0.0126984
        k(   60) = (   0.4000000   0.4285714   0.4444444), wk =   0.0126984
        k(   61) = (   0.2000000   0.0000000  -0.1111111), wk =   0.0063492
        k(   62) = (   0.2000000   0.0000000  -0.2222222), wk =   0.0063492
        k(   63) = (   0.2000000   0.0000000  -0.3333333), wk =   0.0063492
        k(   64) = (   0.2000000   0.0000000  -0.4444444), wk =   0.0063492
        k(   65) = (   0.2000000  -0.1428571  -0.1111111), wk =   0.0126984
        k(   66) = (   0.2000000  -0.1428571  -0.2222222), wk =   0.0126984
        k(   67) = (   0.2000000  -0.1428571  -0.3333333), wk =   0.0126984
        k(   68) = (   0.2000000  -0.1428571  -0.4444444), wk =   0.0126984
        k(   69) = (   0.2000000  -0.2857143  -0.1111111), wk =   0.0126984
        k(   70) = (   0.2000000  -0.2857143  -0.2222222), wk =   0.0126984
        k(   71) = (   0.2000000  -0.2857143  -0.3333333), wk =   0.0126984
        k(   72) = (   0.2000000  -0.2857143  -0.4444444), wk =   0.0126984
        k(   73) = (   0.2000000  -0.4285714  -0.1111111), wk =   0.0126984
        k(   74) = (   0.2000000  -0.4285714  -0.2222222), wk =   0.0126984
        k(   75) = (   0.2000000  -0.4285714  -0.3333333), wk =   0.0126984
        k(   76) = (   0.2000000  -0.4285714  -0.4444444), wk =   0.0126984
        k(   77) = (   0.4000000   0.0000000  -0.1111111), wk =   0.0063492
        k(   78) = (   0.4000000   0.0000000  -0.2222222), wk =   0.0063492
        k(   79) = (   0.4000000   0.0000000  -0.3333333), wk =   0.0063492
        k(   80) = (   0.4000000   0.0000000  -0.4444444), wk =   0.0063492
        k(   81) = (   0.4000000  -0.1428571  -0.1111111), wk =   0.0126984
        k(   82) = (   0.4000000  -0.1428571  -0.2222222), wk =   0.0126984
        k(   83) = (   0.4000000  -0.1428571  -0.3333333), wk =   0.0126984
        k(   84) = (   0.4000000  -0.1428571  -0.4444444), wk =   0.0126984
        k(   85) = (   0.4000000  -0.2857143  -0.1111111), wk =   0.0126984
        k(   86) = (   0.4000000  -0.2857143  -0.2222222), wk =   0.0126984
        k(   87) = (   0.4000000  -0.2857143  -0.3333333), wk =   0.0126984
        k(   88) = (   0.4000000  -0.2857143  -0.4444444), wk =   0.0126984
        k(   89) = (   0.4000000  -0.4285714  -0.1111111), wk =   0.0126984
        k(   90) = (   0.4000000  -0.4285714  -0.2222222), wk =   0.0126984
        k(   91) = (   0.4000000  -0.4285714  -0.3333333), wk =   0.0126984
        k(   92) = (   0.4000000  -0.4285714  -0.4444444), wk =   0.0126984

     Dense  grid:  1499053 G-vectors     FFT dimensions: ( 216, 144, 108)

     Smooth grid:   337887 G-vectors     FFT dimensions: ( 135,  80,  64)

     Dynamical RAM for                 wfc:       3.06 MB

     Dynamical RAM for     wfc (w. buffer):     566.06 MB

     Dynamical RAM for           str. fact:       3.81 MB

     Dynamical RAM for           local pot:       0.00 MB

     Dynamical RAM for          nlocal pot:       7.52 MB

     Dynamical RAM for                qrad:      10.54 MB

     Dynamical RAM for          rho,v,vnew:      12.84 MB

     Dynamical RAM for               rhoin:       4.28 MB

     Dynamical RAM for            rho*nmix:      30.50 MB

     Dynamical RAM for           G-vectors:       3.68 MB

     Dynamical RAM for          h,s,v(r/c):       2.38 MB

     Dynamical RAM for          <psi|beta>:       0.49 MB

     Dynamical RAM for                 psi:       6.12 MB

     Dynamical RAM for                hpsi:       6.12 MB

     Dynamical RAM for                spsi:       6.12 MB

     Dynamical RAM for      wfcinit/wfcrot:       7.78 MB

     Dynamical RAM for           addusdens:     193.47 MB

     Dynamical RAM for          addusforce:     222.19 MB

     Dynamical RAM for         addusstress:     193.00 MB

     Estimated static dynamical RAM per process >     651.11 MB

     Estimated max dynamical RAM per process >     873.30 MB

     Estimated total dynamical RAM >      20.47 GB

     Check: negative core charge=   -0.000003
     Generating pointlists ...
     new r_m :   0.0759 (alat units)  1.5678 (a.u.) for type    1
     new r_m :   0.0888 (alat units)  1.8337 (a.u.) for type    2
     new r_m :   0.0610 (alat units)  1.2588 (a.u.) for type    3
     new r_m :   0.0610 (alat units)  1.2588 (a.u.) for type    4

     Initial potential from superposition of free atoms

     starting charge  188.99132, renormalised to  189.00000
     Starting wfcs are  137 randomized atomic wfcs
     Checking if some PAW data can be deallocated... 
       PAW data deallocated on   20 nodes for type:  1
       PAW data deallocated on    8 nodes for type:  3

     total cpu time spent up to now is      126.6 secs

     Self-consistent Calculation

     iteration #  1     ecut=   100.00 Ry     beta= 0.40
     Davidson diagonalization with overlap
     ethr =  1.00E-02,  avg # of iterations =  2.5

     negative rho (up, down):  0.000E+00 1.303E-04

     total cpu time spent up to now is      488.3 secs

     total energy              =   -2123.35844972 Ry
     estimated scf accuracy    <       7.47373869 Ry

     total magnetization       =    19.00 Bohr mag/cell
     absolute magnetization    =    19.00 Bohr mag/cell

     iteration #  2     ecut=   100.00 Ry     beta= 0.40
     Davidson diagonalization with overlap
     ethr =  3.95E-03,  avg # of iterations =  2.0

     negative rho (up, down):  0.000E+00 5.684E-05

     total cpu time spent up to now is      842.0 secs

     total energy              =   -2119.69755240 Ry
     estimated scf accuracy    <      58.33455715 Ry

     total magnetization       =     5.94 Bohr mag/cell
     absolute magnetization    =     7.45 Bohr mag/cell

     iteration #  3     ecut=   100.00 Ry     beta= 0.40
     Davidson diagonalization with overlap
     ethr =  3.95E-03,  avg # of iterations =  2.8

     negative rho (up, down):  0.000E+00 4.951E-05

     total cpu time spent up to now is     1157.2 secs

     total energy              =   -2122.92968724 Ry
     estimated scf accuracy    <      51.43345569 Ry

     total magnetization       =     5.34 Bohr mag/cell
     absolute magnetization    =     9.69 Bohr mag/cell

     iteration #  4     ecut=   100.00 Ry     beta= 0.40
     Davidson diagonalization with overlap
     ethr =  3.95E-03,  avg # of iterations =  1.5

     negative rho (up, down):  0.000E+00 4.863E-05

     total cpu time spent up to now is     1427.9 secs

     total energy              =   -2124.31835835 Ry
     estimated scf accuracy    <      38.21120502 Ry

     total magnetization       =     9.00 Bohr mag/cell
     absolute magnetization    =     9.30 Bohr mag/cell

     iteration #  5     ecut=   100.00 Ry     beta= 0.40
     Davidson diagonalization with overlap
     ethr =  3.95E-03,  avg # of iterations =  1.7

     negative rho (up, down):  0.000E+00 1.107E-04

     total cpu time spent up to now is     1861.8 secs

     total energy              =   -2125.60845350 Ry
     estimated scf accuracy    <       4.13687295 Ry

     total magnetization       =    17.69 Bohr mag/cell
     absolute magnetization    =    17.70 Bohr mag/cell

     iteration #  6     ecut=   100.00 Ry     beta= 0.40
     Davidson diagonalization with overlap
     ethr =  2.19E-03,  avg # of iterations =  1.5

     negative rho (up, down):  0.000E+00 2.016E-04

     total cpu time spent up to now is     2135.8 secs

     total energy              =   -2125.84420564 Ry
     estimated scf accuracy    <       1.34810382 Ry

     total magnetization       =    19.00 Bohr mag/cell
     absolute magnetization    =    19.00 Bohr mag/cell

     iteration #  7     ecut=   100.00 Ry     beta= 0.40
     Davidson diagonalization with overlap
     ethr =  7.13E-04,  avg # of iterations =  1.0

     negative rho (up, down):  0.000E+00 3.236E-04

     total cpu time spent up to now is     2386.8 secs

     total energy              =   -2125.84994381 Ry
     estimated scf accuracy    <       0.62677580 Ry

     total magnetization       =    19.00 Bohr mag/cell
     absolute magnetization    =    19.01 Bohr mag/cell

     iteration #  8     ecut=   100.00 Ry     beta= 0.40
     Davidson diagonalization with overlap
     ethr =  3.32E-04,  avg # of iterations =  1.1

     negative rho (up, down):  0.000E+00 3.777E-04

     total cpu time spent up to now is     2644.8 secs

     total energy              =   -2125.84070972 Ry
     estimated scf accuracy    <       0.26536271 Ry

     total magnetization       =    19.00 Bohr mag/cell
     absolute magnetization    =    19.00 Bohr mag/cell

     iteration #  9     ecut=   100.00 Ry     beta= 0.40
     Davidson diagonalization with overlap
     c_bands:  1 eigenvalues not converged
     ethr =  1.40E-04,  avg # of iterations =  4.0

     negative rho (up, down):  0.000E+00 4.746E-04

     total cpu time spent up to now is     2950.7 secs

     total energy              =   -2125.84305104 Ry
     estimated scf accuracy    <       0.30536201 Ry

     total magnetization       =    19.00 Bohr mag/cell
     absolute magnetization    =    19.01 Bohr mag/cell

     iteration # 10     ecut=   100.00 Ry     beta= 0.40
     Davidson diagonalization with overlap
     ethr =  1.40E-04,  avg # of iterations =  1.2

     negative rho (up, down):  0.000E+00 8.391E-04

     total cpu time spent up to now is     3208.1 secs

     total energy              =   -2125.83399775 Ry
     estimated scf accuracy    <       0.36463193 Ry

     total magnetization       =    19.00 Bohr mag/cell
     absolute magnetization    =    19.01 Bohr mag/cell

     iteration # 11     ecut=   100.00 Ry     beta= 0.40
     Davidson diagonalization with overlap
     ethr =  1.40E-04,  avg # of iterations =  1.6

     negative rho (up, down):  0.000E+00 8.766E-04

     total cpu time spent up to now is     3478.4 secs

     total energy              =   -2125.85733920 Ry
     estimated scf accuracy    <       0.19501076 Ry

     total magnetization       =    19.00 Bohr mag/cell
     absolute magnetization    =    19.03 Bohr mag/cell

     iteration # 12     ecut=   100.00 Ry     beta= 0.40
     Davidson diagonalization with overlap
     ethr =  1.03E-04,  avg # of iterations =  1.5

     negative rho (up, down):  0.000E+00 8.484E-04

     total cpu time spent up to now is     3747.8 secs

     total energy              =   -2125.85546151 Ry
     estimated scf accuracy    <       0.14642697 Ry

     total magnetization       =    19.00 Bohr mag/cell
     absolute magnetization    =    19.03 Bohr mag/cell

     iteration # 13     ecut=   100.00 Ry     beta= 0.40
     Davidson diagonalization with overlap
     c_bands:  1 eigenvalues not converged
     c_bands:  1 eigenvalues not converged
     c_bands:  1 eigenvalues not converged
     c_bands:  1 eigenvalues not converged
     c_bands:  1 eigenvalues not converged
     c_bands:  3 eigenvalues not converged
     c_bands:  1 eigenvalues not converged
     c_bands:  1 eigenvalues not converged
     ethr =  7.75E-05,  avg # of iterations =  4.4

     negative rho (up, down):  0.000E+00 8.723E-04

     total cpu time spent up to now is     4054.1 secs

     total energy              =   -2125.85790634 Ry
     estimated scf accuracy    <       0.00744551 Ry

     total magnetization       =    19.00 Bohr mag/cell
     absolute magnetization    =    19.04 Bohr mag/cell

     iteration # 14     ecut=   100.00 Ry     beta= 0.40
     Davidson diagonalization with overlap
     c_bands:  1 eigenvalues not converged
     c_bands:  1 eigenvalues not converged
     c_bands:  1 eigenvalues not converged
     c_bands:  1 eigenvalues not converged
     c_bands:  1 eigenvalues not converged
     c_bands:  1 eigenvalues not converged
     c_bands:  2 eigenvalues not converged
     c_bands:  1 eigenvalues not converged
     c_bands:  1 eigenvalues not converged
     c_bands:  1 eigenvalues not converged
     c_bands:  1 eigenvalues not converged
     c_bands:  2 eigenvalues not converged
     c_bands:  1 eigenvalues not converged
     c_bands:  1 eigenvalues not converged
     c_bands:  1 eigenvalues not converged
     c_bands:  1 eigenvalues not converged
     c_bands:  1 eigenvalues not converged
     c_bands:  1 eigenvalues not converged
     c_bands:  1 eigenvalues not converged
     c_bands:  1 eigenvalues not converged
     c_bands:  1 eigenvalues not converged
     c_bands:  1 eigenvalues not converged
     c_bands:  1 eigenvalues not converged
     c_bands:  1 eigenvalues not converged
     c_bands:  1 eigenvalues not converged
     c_bands:  1 eigenvalues not converged
     c_bands:  1 eigenvalues not converged
     c_bands:  1 eigenvalues not converged
     c_bands:  1 eigenvalues not converged
     c_bands:  1 eigenvalues not converged
     c_bands:  1 eigenvalues not converged
     c_bands:  1 eigenvalues not converged
     c_bands:  1 eigenvalues not converged
     c_bands:  1 eigenvalues not converged
     c_bands:  1 eigenvalues not converged
     c_bands:  1 eigenvalues not converged
     c_bands:  1 eigenvalues not converged
     c_bands:  1 eigenvalues not converged
     ethr =  3.94E-06,  avg # of iterations = 17.0

     negative rho (up, down):  0.000E+00 8.717E-04

     total cpu time spent up to now is     4714.4 secs

     total energy              =   -2125.85910652 Ry
     estimated scf accuracy    <       0.00684532 Ry

     total magnetization       =    19.00 Bohr mag/cell
     absolute magnetization    =    19.05 Bohr mag/cell

     iteration # 15     ecut=   100.00 Ry     beta= 0.40
     Davidson diagonalization with overlap
     ethr =  3.62E-06,  avg # of iterations =  1.5

     negative rho (up, down):  0.000E+00 8.853E-04

     total cpu time spent up to now is     4973.2 secs

     total energy              =   -2125.85910560 Ry
     estimated scf accuracy    <       0.00685569 Ry

     total magnetization       =    19.00 Bohr mag/cell
     absolute magnetization    =    19.05 Bohr mag/cell

     iteration # 16     ecut=   100.00 Ry     beta= 0.40
     Davidson diagonalization with overlap
     ethr =  3.62E-06,  avg # of iterations =  1.0

     negative rho (up, down):  0.000E+00 8.870E-04

     total cpu time spent up to now is     5224.6 secs

     total energy              =   -2125.85938336 Ry
     estimated scf accuracy    <       0.00260901 Ry

     total magnetization       =    19.00 Bohr mag/cell
     absolute magnetization    =    19.06 Bohr mag/cell

     iteration # 17     ecut=   100.00 Ry     beta= 0.40
     Davidson diagonalization with overlap
     c_bands:  1 eigenvalues not converged
     ethr =  1.38E-06,  avg # of iterations =  1.1

     negative rho (up, down):  0.000E+00 8.841E-04

     total cpu time spent up to now is     5479.1 secs

     total energy              =   -2125.85944955 Ry
     estimated scf accuracy    <       0.00033125 Ry

     total magnetization       =    19.00 Bohr mag/cell
     absolute magnetization    =    19.06 Bohr mag/cell

     iteration # 18     ecut=   100.00 Ry     beta= 0.40
     Davidson diagonalization with overlap
     ethr =  1.75E-07,  avg # of iterations =  4.8

     negative rho (up, down):  0.000E+00 8.786E-04

     total cpu time spent up to now is     5881.0 secs

     total energy              =   -2125.85954954 Ry
     estimated scf accuracy    <       0.00027963 Ry

     total magnetization       =    19.00 Bohr mag/cell
     absolute magnetization    =    19.06 Bohr mag/cell

     iteration # 19     ecut=   100.00 Ry     beta= 0.40
     Davidson diagonalization with overlap
     ethr =  1.48E-07,  avg # of iterations =  1.0

     negative rho (up, down):  0.000E+00 8.779E-04

     total cpu time spent up to now is     6133.3 secs

     total energy              =   -2125.85956174 Ry
     estimated scf accuracy    <       0.00004118 Ry

     total magnetization       =    19.00 Bohr mag/cell
     absolute magnetization    =    19.06 Bohr mag/cell

     iteration # 20     ecut=   100.00 Ry     beta= 0.40
     Davidson diagonalization with overlap
     ethr =  2.18E-08,  avg # of iterations =  2.8

     negative rho (up, down):  0.000E+00 8.769E-04

     total cpu time spent up to now is     6464.7 secs

     total energy              =   -2125.85957054 Ry
     estimated scf accuracy    <       0.00002494 Ry

     total magnetization       =    19.00 Bohr mag/cell
     absolute magnetization    =    19.06 Bohr mag/cell

     iteration # 21     ecut=   100.00 Ry     beta= 0.40
     Davidson diagonalization with overlap
     ethr =  1.32E-08,  avg # of iterations =  1.2

     negative rho (up, down):  0.000E+00 8.782E-04

     total cpu time spent up to now is     6724.3 secs

     total energy              =   -2125.85957288 Ry
     estimated scf accuracy    <       0.00002952 Ry

     total magnetization       =    19.00 Bohr mag/cell
     absolute magnetization    =    19.06 Bohr mag/cell

     iteration # 22     ecut=   100.00 Ry     beta= 0.40
     Davidson diagonalization with overlap
     ethr =  1.32E-08,  avg # of iterations =  1.0

     negative rho (up, down):  0.000E+00 8.778E-04

     total cpu time spent up to now is     6975.9 secs

     total energy              =   -2125.85957427 Ry
     estimated scf accuracy    <       0.00000427 Ry

     total magnetization       =    19.00 Bohr mag/cell
     absolute magnetization    =    19.06 Bohr mag/cell

     iteration # 23     ecut=   100.00 Ry     beta= 0.40
     Davidson diagonalization with overlap
     ethr =  2.26E-09,  avg # of iterations =  2.5

     negative rho (up, down):  0.000E+00 8.784E-04

     total cpu time spent up to now is     7293.7 secs

     total energy              =   -2125.85957552 Ry
     estimated scf accuracy    <       0.00000605 Ry

     total magnetization       =    19.00 Bohr mag/cell
     absolute magnetization    =    19.06 Bohr mag/cell

     iteration # 24     ecut=   100.00 Ry     beta= 0.40
     Davidson diagonalization with overlap
     ethr =  2.26E-09,  avg # of iterations =  1.0

     negative rho (up, down):  0.000E+00 8.787E-04

     total cpu time spent up to now is     7545.0 secs

     total energy              =   -2125.85957578 Ry
     estimated scf accuracy    <       0.00000069 Ry

     total magnetization       =    19.00 Bohr mag/cell
     absolute magnetization    =    19.06 Bohr mag/cell

     iteration # 25     ecut=   100.00 Ry     beta= 0.40
     Davidson diagonalization with overlap
     ethr =  3.64E-10,  avg # of iterations =  3.0

     negative rho (up, down):  0.000E+00 8.788E-04

     total cpu time spent up to now is     7860.9 secs

     total energy              =   -2125.85957590 Ry
     estimated scf accuracy    <       0.00000008 Ry

     total magnetization       =    19.00 Bohr mag/cell
     absolute magnetization    =    19.06 Bohr mag/cell

     iteration # 26     ecut=   100.00 Ry     beta= 0.40
     Davidson diagonalization with overlap
     ethr =  4.23E-11,  avg # of iterations =  4.5

     negative rho (up, down):  0.000E+00 8.789E-04

     total cpu time spent up to now is     8299.9 secs

     total energy              =   -2125.85957595 Ry
     estimated scf accuracy    <       0.00000006 Ry

     total magnetization       =    19.00 Bohr mag/cell
     absolute magnetization    =    19.06 Bohr mag/cell

     iteration # 27     ecut=   100.00 Ry     beta= 0.40
     Davidson diagonalization with overlap
     ethr =  2.99E-11,  avg # of iterations =  1.9

     negative rho (up, down):  0.000E+00 8.789E-04

     total cpu time spent up to now is     8589.0 secs

     total energy              =   -2125.85957597 Ry
     estimated scf accuracy    <       0.00000007 Ry

     total magnetization       =    19.00 Bohr mag/cell
     absolute magnetization    =    19.06 Bohr mag/cell

     iteration # 28     ecut=   100.00 Ry     beta= 0.40
     Davidson diagonalization with overlap
     ethr =  2.99E-11,  avg # of iterations =  1.0

     negative rho (up, down):  0.000E+00 8.789E-04

     total cpu time spent up to now is     8840.6 secs

     total energy              =   -2125.85957597 Ry
     estimated scf accuracy    <       0.00000001 Ry

     total magnetization       =    19.00 Bohr mag/cell
     absolute magnetization    =    19.06 Bohr mag/cell

     iteration # 29     ecut=   100.00 Ry     beta= 0.40
     Davidson diagonalization with overlap
     ethr =  6.33E-12,  avg # of iterations =  2.1

     negative rho (up, down):  0.000E+00 8.789E-04

     total cpu time spent up to now is     9149.9 secs

     total energy              =   -2125.85957598 Ry
     estimated scf accuracy    <       0.00000003 Ry

     total magnetization       =    19.00 Bohr mag/cell
     absolute magnetization    =    19.06 Bohr mag/cell

     iteration # 30     ecut=   100.00 Ry     beta= 0.40
     Davidson diagonalization with overlap
     ethr =  6.33E-12,  avg # of iterations =  1.2

     negative rho (up, down):  0.000E+00 8.789E-04

     total cpu time spent up to now is     9406.7 secs

     total energy              =   -2125.85957598 Ry
     estimated scf accuracy    <          3.1E-09 Ry

     total magnetization       =    19.00 Bohr mag/cell
     absolute magnetization    =    19.06 Bohr mag/cell

     iteration # 31     ecut=   100.00 Ry     beta= 0.40
     Davidson diagonalization with overlap
     ethr =  1.65E-12,  avg # of iterations =  2.4

     negative rho (up, down):  0.000E+00 8.789E-04

     total cpu time spent up to now is     9720.3 secs

     total energy              =   -2125.85957598 Ry
     estimated scf accuracy    <          7.5E-09 Ry

     total magnetization       =    19.00 Bohr mag/cell
     absolute magnetization    =    19.06 Bohr mag/cell

     iteration # 32     ecut=   100.00 Ry     beta= 0.40
     Davidson diagonalization with overlap
     ethr =  1.65E-12,  avg # of iterations =  2.0

     negative rho (up, down):  0.000E+00 8.789E-04

     total cpu time spent up to now is    10022.6 secs

     total energy              =   -2125.85957598 Ry
     estimated scf accuracy    <          6.5E-09 Ry

     total magnetization       =    19.00 Bohr mag/cell
     absolute magnetization    =    19.06 Bohr mag/cell

     iteration # 33     ecut=   100.00 Ry     beta= 0.40
     Davidson diagonalization with overlap
     ethr =  1.65E-12,  avg # of iterations =  1.5

     negative rho (up, down):  0.000E+00 8.789E-04

     total cpu time spent up to now is    10293.5 secs

     total energy              =   -2125.85957598 Ry
     estimated scf accuracy    <          9.7E-09 Ry

     total magnetization       =    19.00 Bohr mag/cell
     absolute magnetization    =    19.06 Bohr mag/cell

     iteration # 34     ecut=   100.00 Ry     beta= 0.40
     Davidson diagonalization with overlap
     ethr =  1.65E-12,  avg # of iterations =  2.0

     negative rho (up, down):  0.000E+00 8.789E-04

     total cpu time spent up to now is    10600.4 secs

     total energy              =   -2125.85957599 Ry
     estimated scf accuracy    <          6.9E-10 Ry

     total magnetization       =    19.00 Bohr mag/cell
     absolute magnetization    =    19.06 Bohr mag/cell

     iteration # 35     ecut=   100.00 Ry     beta= 0.40
     Davidson diagonalization with overlap
     ethr =  3.63E-13,  avg # of iterations =  2.1

     negative rho (up, down):  0.000E+00 8.789E-04

     total cpu time spent up to now is    10907.2 secs

     total energy              =   -2125.85957599 Ry
     estimated scf accuracy    <          6.2E-10 Ry

     total magnetization       =    19.00 Bohr mag/cell
     absolute magnetization    =    19.06 Bohr mag/cell

     iteration # 36     ecut=   100.00 Ry     beta= 0.40
     Davidson diagonalization with overlap
     ethr =  3.30E-13,  avg # of iterations =  2.0

     negative rho (up, down):  0.000E+00 8.789E-04

     total cpu time spent up to now is    11210.1 secs

     total energy              =   -2125.85957599 Ry
     estimated scf accuracy    <          2.9E-10 Ry

     total magnetization       =    19.00 Bohr mag/cell
     absolute magnetization    =    19.06 Bohr mag/cell

     iteration # 37     ecut=   100.00 Ry     beta= 0.40
     Davidson diagonalization with overlap
     ethr =  1.55E-13,  avg # of iterations =  2.0

     negative rho (up, down):  0.000E+00 8.789E-04

     Magnetic moment per site:
     atom:    1    charge:    7.9358    magn:    0.0003    constr:    0.0000
     atom:    2    charge:   13.0383    magn:    3.7238    constr:    0.0000
     atom:    3    charge:   13.0456    magn:    3.7074    constr:    0.0000
     atom:    4    charge:   13.0884    magn:    3.6060    constr:    0.0000
     atom:    5    charge:   13.0452    magn:    3.7111    constr:    0.0000
     atom:    6    charge:    0.9388    magn:    0.0086    constr:    0.0000
     atom:    7    charge:    0.9431    magn:    0.0071    constr:    0.0000
     atom:    8    charge:    0.9419    magn:    0.0098    constr:    0.0000
     atom:    9    charge:    0.9369    magn:    0.0075    constr:    0.0000
     atom:   10    charge:    4.4449    magn:    0.1514    constr:    0.0000
     atom:   11    charge:    4.4626    magn:    0.0940    constr:    0.0000
     atom:   12    charge:    4.4493    magn:    0.1327    constr:    0.0000
     atom:   13    charge:    4.4458    magn:    0.1218    constr:    0.0000
     atom:   14    charge:    4.4402    magn:    0.1282    constr:    0.0000
     atom:   15    charge:    4.4459    magn:    0.1384    constr:    0.0000
     atom:   16    charge:    4.4464    magn:    0.0789    constr:    0.0000
     atom:   17    charge:    4.4395    magn:    0.1541    constr:    0.0000
     atom:   18    charge:    4.4183    magn:    0.1576    constr:    0.0000
     atom:   19    charge:    4.4225    magn:    0.1365    constr:    0.0000
     atom:   20    charge:    4.4253    magn:    0.1462    constr:    0.0000
     atom:   21    charge:    4.4197    magn:    0.1270    constr:    0.0000
     atom:   22    charge:    4.4253    magn:    0.1462    constr:    0.0000
     atom:   23    charge:    4.4197    magn:    0.1270    constr:    0.0000
     atom:   24    charge:    4.4183    magn:    0.1576    constr:    0.0000
     atom:   25    charge:    4.4225    magn:    0.1365    constr:    0.0000

     total cpu time spent up to now is    11515.7 secs

     End of self-consistent calculation

 ------ SPIN UP ------------


          k = 0.0000 0.0000 0.0000 ( 42261 PWs)   bands (ev):

   -87.1010 -87.0568 -87.0419 -86.6511 -53.1917 -53.1447 -53.1432 -53.0471
   -53.0467 -53.0185 -52.9850 -52.9532 -52.9460 -52.9349 -52.5925 -52.3755
   -46.7935 -18.7666 -18.7161 -18.7095 -16.7194 -16.5966 -16.4191 -16.3624
   -14.7595 -14.6695 -14.6108 -14.5208 -14.4809 -14.4679 -14.4420 -14.3882
   -14.3671 -14.3446 -14.2836 -14.2027  -5.3939  -5.0076  -4.9666  -4.6738
    -3.1567  -2.9055  -2.8530  -2.6517  -2.4384  -2.4051  -2.2749  -2.2285
    -2.1165  -2.0380  -1.7380  -1.5230  -1.4116  -1.4027  -1.0540  -1.0477
    -0.9219  -0.8738  -0.7471  -0.6004  -0.5808  -0.5077  -0.4750  -0.4267
    -0.4256  -0.2745  -0.2667   0.0348   0.2538   0.2583   0.3990   0.4848
     0.5129   0.6267   0.6484   0.7353   0.7957   0.9160   0.9553   1.0618
     1.0986   1.1215   1.2751   1.2990   1.3004   1.5134   1.5767   1.6279
     1.7399   1.8237   1.8584   1.9214   1.9335   2.1242   2.2250   2.2577
     2.3489   2.4081   2.4917   2.5124   2.6216   2.6291   2.9054   2.9959
     6.4078   8.2907   8.8780   9.1746   9.6016  10.0367  10.3265  10.7737
    10.8488  11.1256

     occupation numbers 
     1.0000   1.0000   1.0000   1.0000   1.0000   1.0000   1.0000   1.0000
     1.0000   1.0000   1.0000   1.0000   1.0000   1.0000   1.0000   1.0000
     1.0000   1.0000   1.0000   1.0000   1.0000   1.0000   1.0000   1.0000
     1.0000   1.0000   1.0000   1.0000   1.0000   1.0000   1.0000   1.0000
     1.0000   1.0000   1.0000   1.0000   1.0000   1.0000   1.0000   1.0000
     1.0000   1.0000   1.0000   1.0000   1.0000   1.0000   1.0000   1.0000
     1.0000   1.0000   1.0000   1.0000   1.0000   1.0000   1.0000   1.0000
     1.0000   1.0000   1.0000   1.0000   1.0000   1.0000   1.0000   1.0000
     1.0000   1.0000   1.0000   1.0000   1.0000   1.0000   1.0000   1.0000
     1.0000   1.0000   1.0000   1.0000   1.0000   1.0000   1.0000   1.0000
     1.0000   1.0000   1.0000   1.0000   1.0000   1.0000   1.0000   1.0000
     1.0000   1.0000   1.0000   1.0000   1.0000   1.0000   1.0000   1.0000
     1.0000   1.0000   1.0000   1.0000   1.0000   1.0000   1.0000   1.0000
     0.0000   0.0000   0.0000   0.0000   0.0000   0.0000   0.0000   0.0000
     0.0000   0.0000

          k = 0.0000 0.0000 0.2337 ( 42279 PWs)   bands (ev):

   -87.1010 -87.0568 -87.0419 -86.6511 -53.1917 -53.1447 -53.1432 -53.0471
   -53.0467 -53.0185 -52.9850 -52.9532 -52.9460 -52.9349 -52.5925 -52.3755
   -46.7935 -18.7666 -18.7176 -18.7095 -16.7098 -16.5899 -16.4144 -16.3595
   -14.7653 -14.6774 -14.6180 -14.5257 -14.4846 -14.4650 -14.4449 -14.3908
   -14.3639 -14.3478 -14.2861 -14.2056  -5.3758  -5.0071  -4.9616  -4.6809
    -3.1239  -2.8882  -2.8447  -2.6443  -2.4424  -2.3986  -2.2959  -2.1739
    -2.1095  -2.0108  -1.7738  -1.4982  -1.4540  -1.3825  -1.0511  -1.0108
    -0.9194  -0.8397  -0.7375  -0.6088  -0.5814  -0.5173  -0.4885  -0.4287
    -0.4168  -0.2715  -0.2700   0.0325   0.1690   0.2344   0.3898   0.3973
     0.4943   0.5888   0.6761   0.7170   0.8206   0.8325   1.0728   1.0739
     1.1029   1.1132   1.2547   1.3104   1.3404   1.4507   1.5945   1.6099
     1.7026   1.8011   1.8268   1.9263   1.9508   2.1387   2.2497   2.2624
     2.3508   2.4108   2.5043   2.5131   2.6281   2.6407   2.8865   2.9798
     6.5474   8.3710   8.8920   9.1889   9.6332   9.9929  10.2944  10.7731
    10.7865  11.0871

     occupation numbers 
     1.0000   1.0000   1.0000   1.0000   1.0000   1.0000   1.0000   1.0000
     1.0000   1.0000   1.0000   1.0000   1.0000   1.0000   1.0000   1.0000
     1.0000   1.0000   1.0000   1.0000   1.0000   1.0000   1.0000   1.0000
     1.0000   1.0000   1.0000   1.0000   1.0000   1.0000   1.0000   1.0000
     1.0000   1.0000   1.0000   1.0000   1.0000   1.0000   1.0000   1.0000
     1.0000   1.0000   1.0000   1.0000   1.0000   1.0000   1.0000   1.0000
     1.0000   1.0000   1.0000   1.0000   1.0000   1.0000   1.0000   1.0000
     1.0000   1.0000   1.0000   1.0000   1.0000   1.0000   1.0000   1.0000
     1.0000   1.0000   1.0000   1.0000   1.0000   1.0000   1.0000   1.0000
     1.0000   1.0000   1.0000   1.0000   1.0000   1.0000   1.0000   1.0000
     1.0000   1.0000   1.0000   1.0000   1.0000   1.0000   1.0000   1.0000
     1.0000   1.0000   1.0000   1.0000   1.0000   1.0000   1.0000   1.0000
     1.0000   1.0000   1.0000   1.0000   1.0000   1.0000   1.0000   1.0000
     0.0000   0.0000   0.0000   0.0000   0.0000   0.0000   0.0000   0.0000
     0.0000   0.0000

          k = 0.0000 0.0000 0.4675 ( 42247 PWs)   bands (ev):

   -87.1010 -87.0568 -87.0419 -86.6511 -53.1917 -53.1447 -53.1432 -53.0471
   -53.0467 -53.0185 -52.9850 -52.9532 -52.9460 -52.9349 -52.5925 -52.3755
   -46.7935 -18.7666 -18.7213 -18.7094 -16.6845 -16.5732 -16.4017 -16.3528
   -14.7811 -14.6993 -14.6342 -14.5386 -14.4982 -14.4575 -14.4511 -14.3942
   -14.3553 -14.3550 -14.2929 -14.2136  -5.3244  -5.0083  -4.9492  -4.7059
    -3.0354  -2.8530  -2.8133  -2.6375  -2.4473  -2.3760  -2.3013  -2.0876
    -2.0702  -1.9412  -1.8660  -1.5594  -1.4229  -1.3183  -1.0097  -0.9526
    -0.8928  -0.7570  -0.7182  -0.6362  -0.5808  -0.5501  -0.5164  -0.4277
    -0.4058  -0.2806  -0.2544   0.0092   0.0192   0.1851   0.2292   0.3030
     0.4259   0.4967   0.6602   0.7166   0.7312   0.9244   1.0078   1.0688
     1.1465   1.2047   1.2573   1.2961   1.3341   1.3800   1.4886   1.6121
     1.6998   1.7582   1.8412   1.9637   2.0159   2.1148   2.2772   2.3163
     2.3537   2.4355   2.5249   2.5370   2.6223   2.6758   2.8284   2.9306
     6.9173   8.5855   8.9031   9.2295   9.7347   9.8984  10.1882  10.6621
    10.6947  10.9669

     occupation numbers 
     1.0000   1.0000   1.0000   1.0000   1.0000   1.0000   1.0000   1.0000
     1.0000   1.0000   1.0000   1.0000   1.0000   1.0000   1.0000   1.0000
     1.0000   1.0000   1.0000   1.0000   1.0000   1.0000   1.0000   1.0000
     1.0000   1.0000   1.0000   1.0000   1.0000   1.0000   1.0000   1.0000
     1.0000   1.0000   1.0000   1.0000   1.0000   1.0000   1.0000   1.0000
     1.0000   1.0000   1.0000   1.0000   1.0000   1.0000   1.0000   1.0000
     1.0000   1.0000   1.0000   1.0000   1.0000   1.0000   1.0000   1.0000
     1.0000   1.0000   1.0000   1.0000   1.0000   1.0000   1.0000   1.0000
     1.0000   1.0000   1.0000   1.0000   1.0000   1.0000   1.0000   1.0000
     1.0000   1.0000   1.0000   1.0000   1.0000   1.0000   1.0000   1.0000
     1.0000   1.0000   1.0000   1.0000   1.0000   1.0000   1.0000   1.0000
     1.0000   1.0000   1.0000   1.0000   1.0000   1.0000   1.0000   1.0000
     1.0000   1.0000   1.0000   1.0000   1.0000   1.0000   1.0000   1.0000
     0.0000   0.0000   0.0000   0.0000   0.0000   0.0000   0.0000   0.0000
     0.0000   0.0000

          k = 0.0000 0.0000 0.7012 ( 42239 PWs)   bands (ev):

   -87.1010 -87.0568 -87.0419 -86.6511 -53.1917 -53.1447 -53.1432 -53.0471
   -53.0467 -53.0185 -52.9850 -52.9532 -52.9460 -52.9349 -52.5925 -52.3755
   -46.7935 -18.7668 -18.7254 -18.7094 -16.6531 -16.5551 -16.3847 -16.3480
   -14.8011 -14.7265 -14.6504 -14.5546 -14.5198 -14.4544 -14.4481 -14.3949
   -14.3619 -14.3443 -14.3013 -14.2242  -5.2493  -5.0210  -4.9311  -4.7497
    -2.9271  -2.8256  -2.7604  -2.6441  -2.4428  -2.3314  -2.2931  -2.0663
    -1.9613  -1.9595  -1.8541  -1.6919  -1.2952  -1.1968  -0.9419  -0.8861
    -0.8398  -0.7216  -0.6860  -0.6491  -0.6113  -0.6062  -0.5147  -0.4207
    -0.4056  -0.2921  -0.2167  -0.1390  -0.0122   0.0511   0.0802   0.0813
     0.3012   0.5374   0.6256   0.6759   0.7250   0.9368   1.0075   1.0528
     1.0621   1.1713   1.2039   1.2942   1.2968   1.3783   1.4007   1.5597
     1.7704   1.7965   1.8583   2.0644   2.0985   2.1503   2.3038   2.3451
     2.3512   2.4965   2.5502   2.5715   2.6097   2.7024   2.7296   2.8497
     7.4160   8.7356   8.9503   9.3111   9.7392   9.9034  10.0471  10.5655
    10.5712  10.8448

     occupation numbers 
     1.0000   1.0000   1.0000   1.0000   1.0000   1.0000   1.0000   1.0000
     1.0000   1.0000   1.0000   1.0000   1.0000   1.0000   1.0000   1.0000
     1.0000   1.0000   1.0000   1.0000   1.0000   1.0000   1.0000   1.0000
     1.0000   1.0000   1.0000   1.0000   1.0000   1.0000   1.0000   1.0000
     1.0000   1.0000   1.0000   1.0000   1.0000   1.0000   1.0000   1.0000
     1.0000   1.0000   1.0000   1.0000   1.0000   1.0000   1.0000   1.0000
     1.0000   1.0000   1.0000   1.0000   1.0000   1.0000   1.0000   1.0000
     1.0000   1.0000   1.0000   1.0000   1.0000   1.0000   1.0000   1.0000
     1.0000   1.0000   1.0000   1.0000   1.0000   1.0000   1.0000   1.0000
     1.0000   1.0000   1.0000   1.0000   1.0000   1.0000   1.0000   1.0000
     1.0000   1.0000   1.0000   1.0000   1.0000   1.0000   1.0000   1.0000
     1.0000   1.0000   1.0000   1.0000   1.0000   1.0000   1.0000   1.0000
     1.0000   1.0000   1.0000   1.0000   1.0000   1.0000   1.0000   1.0000
     0.0000   0.0000   0.0000   0.0000   0.0000   0.0000   0.0000   0.0000
     0.0000   0.0000

          k = 0.0000 0.0000 0.9349 ( 42234 PWs)   bands (ev):

   -87.1010 -87.0568 -87.0419 -86.6511 -53.1917 -53.1447 -53.1432 -53.0471
   -53.0467 -53.0185 -52.9850 -52.9532 -52.9460 -52.9349 -52.5925 -52.3755
   -46.7935 -18.7669 -18.7280 -18.7094 -16.6305 -16.5444 -16.3691 -16.3494
   -14.8151 -14.7452 -14.6602 -14.5667 -14.5350 -14.4548 -14.4413 -14.3945
   -14.3658 -14.3362 -14.3071 -14.2323  -5.1740  -5.0533  -4.9098  -4.7935
    -2.8522  -2.8150  -2.7195  -2.6508  -2.4266  -2.2966  -2.2653  -2.1362
    -1.9282  -1.8869  -1.8224  -1.7934  -1.1387  -1.0181  -0.8663  -0.8460
    -0.8153  -0.7746  -0.7514  -0.6872  -0.6596  -0.5324  -0.5061  -0.4280
    -0.3619  -0.2917  -0.2500  -0.1942  -0.1644  -0.1198  -0.0233  -0.0175
     0.3125   0.5888   0.6400   0.6848   0.6883   0.8596   0.9036   0.9713
     1.1008   1.1534   1.1907   1.2207   1.3084   1.3733   1.3836   1.5401
     1.7962   1.8505   1.8658   2.0177   2.2493   2.2992   2.3485   2.3519
     2.3704   2.5261   2.5412   2.5745   2.5889   2.6615   2.7114   2.7575
     7.9369   8.4563   9.2466   9.4192   9.6144   9.7083  10.2218  10.4903
    10.5585  10.7089

     occupation numbers 
     1.0000   1.0000   1.0000   1.0000   1.0000   1.0000   1.0000   1.0000
     1.0000   1.0000   1.0000   1.0000   1.0000   1.0000   1.0000   1.0000
     1.0000   1.0000   1.0000   1.0000   1.0000   1.0000   1.0000   1.0000
     1.0000   1.0000   1.0000   1.0000   1.0000   1.0000   1.0000   1.0000
     1.0000   1.0000   1.0000   1.0000   1.0000   1.0000   1.0000   1.0000
     1.0000   1.0000   1.0000   1.0000   1.0000   1.0000   1.0000   1.0000
     1.0000   1.0000   1.0000   1.0000   1.0000   1.0000   1.0000   1.0000
     1.0000   1.0000   1.0000   1.0000   1.0000   1.0000   1.0000   1.0000
     1.0000   1.0000   1.0000   1.0000   1.0000   1.0000   1.0000   1.0000
     1.0000   1.0000   1.0000   1.0000   1.0000   1.0000   1.0000   1.0000
     1.0000   1.0000   1.0000   1.0000   1.0000   1.0000   1.0000   1.0000
     1.0000   1.0000   1.0000   1.0000   1.0000   1.0000   1.0000   1.0000
     1.0000   1.0000   1.0000   1.0000   1.0000   1.0000   1.0000   1.0000
     0.0000   0.0000   0.0000   0.0000   0.0000   0.0000   0.0000   0.0000
     0.0000   0.0000

          k = 0.0000 0.2391 0.0000 ( 42299 PWs)   bands (ev):

   -87.1010 -87.0568 -87.0419 -86.6511 -53.1917 -53.1447 -53.1432 -53.0471
   -53.0467 -53.0185 -52.9850 -52.9532 -52.9460 -52.9349 -52.5925 -52.3755
   -46.7935 -18.7665 -18.7161 -18.7096 -16.7094 -16.5938 -16.4184 -16.3736
   -14.7590 -14.6668 -14.6111 -14.5301 -14.4922 -14.4832 -14.4351 -14.4005
   -14.3484 -14.3308 -14.2816 -14.2048  -5.3738  -5.0169  -4.9569  -4.6807
    -3.1375  -2.9094  -2.8440  -2.6542  -2.4472  -2.3859  -2.2525  -2.2203
    -2.0733  -2.0390  -1.7323  -1.5034  -1.4571  -1.3669  -1.0201  -1.0084
    -0.9068  -0.8819  -0.8195  -0.6823  -0.5847  -0.5471  -0.4638  -0.3964
    -0.3372  -0.2781  -0.2575  -0.0028   0.1127   0.2377   0.2786   0.4645
     0.5082   0.5685   0.6706   0.7057   0.8169   0.9106   0.9544   1.0593
     1.1381   1.2246   1.2528   1.3069   1.4253   1.4963   1.5293   1.6488
     1.7598   1.7938   1.8235   1.9073   1.9846   2.1225   2.1860   2.2441
     2.3445   2.3794   2.4786   2.5178   2.6343   2.6668   2.8993   2.9747
     6.5578   8.3758   8.9259   9.0732   9.6397  10.0099  10.4305  10.7907
    10.8320  11.1089

     occupation numbers 
     1.0000   1.0000   1.0000   1.0000   1.0000   1.0000   1.0000   1.0000
     1.0000   1.0000   1.0000   1.0000   1.0000   1.0000   1.0000   1.0000
     1.0000   1.0000   1.0000   1.0000   1.0000   1.0000   1.0000   1.0000
     1.0000   1.0000   1.0000   1.0000   1.0000   1.0000   1.0000   1.0000
     1.0000   1.0000   1.0000   1.0000   1.0000   1.0000   1.0000   1.0000
     1.0000   1.0000   1.0000   1.0000   1.0000   1.0000   1.0000   1.0000
     1.0000   1.0000   1.0000   1.0000   1.0000   1.0000   1.0000   1.0000
     1.0000   1.0000   1.0000   1.0000   1.0000   1.0000   1.0000   1.0000
     1.0000   1.0000   1.0000   1.0000   1.0000   1.0000   1.0000   1.0000
     1.0000   1.0000   1.0000   1.0000   1.0000   1.0000   1.0000   1.0000
     1.0000   1.0000   1.0000   1.0000   1.0000   1.0000   1.0000   1.0000
     1.0000   1.0000   1.0000   1.0000   1.0000   1.0000   1.0000   1.0000
     1.0000   1.0000   1.0000   1.0000   1.0000   1.0000   1.0000   1.0000
     0.0000   0.0000   0.0000   0.0000   0.0000   0.0000   0.0000   0.0000
     0.0000   0.0000

          k = 0.0000 0.2391 0.2337 ( 42264 PWs)   bands (ev):

   -87.1010 -87.0568 -87.0419 -86.6511 -53.1917 -53.1447 -53.1432 -53.0471
   -53.0467 -53.0185 -52.9850 -52.9532 -52.9460 -52.9349 -52.5925 -52.3755
   -46.7935 -18.7665 -18.7176 -18.7096 -16.7002 -16.5871 -16.4136 -16.3701
   -14.7648 -14.6750 -14.6187 -14.5353 -14.4928 -14.4838 -14.4387 -14.4011
   -14.3508 -14.3300 -14.2835 -14.2072  -5.3562  -5.0150  -4.9526  -4.6873
    -3.1057  -2.8914  -2.8352  -2.6465  -2.4473  -2.3845  -2.2645  -2.1738
    -2.0651  -2.0139  -1.7666  -1.5140  -1.4571  -1.3549  -1.0092  -0.9905
    -0.9126  -0.8399  -0.8148  -0.6852  -0.5879  -0.5330  -0.4743  -0.4072
    -0.3440  -0.2781  -0.2589  -0.0062   0.0672   0.1837   0.2451   0.4344
     0.5133   0.5735   0.6642   0.7216   0.8283   0.8743   0.9543   1.0659
     1.1305   1.2178   1.2409   1.3071   1.4202   1.4673   1.5459   1.6216
     1.7052   1.7813   1.8328   1.9100   1.9803   2.1279   2.2223   2.2570
     2.3478   2.3769   2.4958   2.5312   2.6320   2.6741   2.8883   2.9626
     6.6912   8.4560   8.9385   9.1063   9.6679   9.9736  10.3913  10.7395
    10.8264  11.0660

     occupation numbers 
     1.0000   1.0000   1.0000   1.0000   1.0000   1.0000   1.0000   1.0000
     1.0000   1.0000   1.0000   1.0000   1.0000   1.0000   1.0000   1.0000
     1.0000   1.0000   1.0000   1.0000   1.0000   1.0000   1.0000   1.0000
     1.0000   1.0000   1.0000   1.0000   1.0000   1.0000   1.0000   1.0000
     1.0000   1.0000   1.0000   1.0000   1.0000   1.0000   1.0000   1.0000
     1.0000   1.0000   1.0000   1.0000   1.0000   1.0000   1.0000   1.0000
     1.0000   1.0000   1.0000   1.0000   1.0000   1.0000   1.0000   1.0000
     1.0000   1.0000   1.0000   1.0000   1.0000   1.0000   1.0000   1.0000
     1.0000   1.0000   1.0000   1.0000   1.0000   1.0000   1.0000   1.0000
     1.0000   1.0000   1.0000   1.0000   1.0000   1.0000   1.0000   1.0000
     1.0000   1.0000   1.0000   1.0000   1.0000   1.0000   1.0000   1.0000
     1.0000   1.0000   1.0000   1.0000   1.0000   1.0000   1.0000   1.0000
     1.0000   1.0000   1.0000   1.0000   1.0000   1.0000   1.0000   1.0000
     0.0000   0.0000   0.0000   0.0000   0.0000   0.0000   0.0000   0.0000
     0.0000   0.0000

          k = 0.0000 0.2391 0.4675 ( 42241 PWs)   bands (ev):

   -87.1010 -87.0568 -87.0419 -86.6511 -53.1917 -53.1447 -53.1432 -53.0471
   -53.0467 -53.0185 -52.9850 -52.9532 -52.9460 -52.9349 -52.5925 -52.3755
   -46.7935 -18.7666 -18.7213 -18.7095 -16.6761 -16.5701 -16.4010 -16.3617
   -14.7809 -14.6976 -14.6357 -14.5477 -14.5045 -14.4816 -14.4448 -14.3995
   -14.3568 -14.3267 -14.2885 -14.2138  -5.3065  -5.0135  -4.9405  -4.7106
    -3.0199  -2.8512  -2.8064  -2.6370  -2.4464  -2.3688  -2.2626  -2.0819
    -2.0466  -1.9419  -1.8544  -1.5909  -1.4039  -1.3102  -0.9675  -0.9561
    -0.8910  -0.8168  -0.7532  -0.6899  -0.5754  -0.5276  -0.4882  -0.4381
    -0.3611  -0.2709  -0.2597  -0.0670  -0.0081   0.0953   0.2002   0.3628
     0.4171   0.5371   0.6251   0.7337   0.7730   0.8954   0.9795   1.0335
     1.1541   1.2023   1.2184   1.2885   1.3393   1.4173   1.5062   1.5922
     1.6492   1.7709   1.8601   1.9465   2.0319   2.1078   2.2731   2.2923
     2.3644   2.3958   2.5303   2.5647   2.6263   2.6899   2.8552   2.9245
     7.0473   8.6715   8.9618   9.1775   9.7661   9.8916  10.2759  10.6162
    10.7487  10.9389

     occupation numbers 
     1.0000   1.0000   1.0000   1.0000   1.0000   1.0000   1.0000   1.0000
     1.0000   1.0000   1.0000   1.0000   1.0000   1.0000   1.0000   1.0000
     1.0000   1.0000   1.0000   1.0000   1.0000   1.0000   1.0000   1.0000
     1.0000   1.0000   1.0000   1.0000   1.0000   1.0000   1.0000   1.0000
     1.0000   1.0000   1.0000   1.0000   1.0000   1.0000   1.0000   1.0000
     1.0000   1.0000   1.0000   1.0000   1.0000   1.0000   1.0000   1.0000
     1.0000   1.0000   1.0000   1.0000   1.0000   1.0000   1.0000   1.0000
     1.0000   1.0000   1.0000   1.0000   1.0000   1.0000   1.0000   1.0000
     1.0000   1.0000   1.0000   1.0000   1.0000   1.0000   1.0000   1.0000
     1.0000   1.0000   1.0000   1.0000   1.0000   1.0000   1.0000   1.0000
     1.0000   1.0000   1.0000   1.0000   1.0000   1.0000   1.0000   1.0000
     1.0000   1.0000   1.0000   1.0000   1.0000   1.0000   1.0000   1.0000
     1.0000   1.0000   1.0000   1.0000   1.0000   1.0000   1.0000   1.0000
     0.0000   0.0000   0.0000   0.0000   0.0000   0.0000   0.0000   0.0000
     0.0000   0.0000

          k = 0.0000 0.2391 0.7012 ( 42219 PWs)   bands (ev):

   -87.1010 -87.0568 -87.0419 -86.6511 -53.1917 -53.1447 -53.1432 -53.0471
   -53.0467 -53.0185 -52.9850 -52.9532 -52.9460 -52.9349 -52.5925 -52.3755
   -46.7935 -18.7667 -18.7254 -18.7095 -16.6466 -16.5510 -16.3848 -16.3542
   -14.8012 -14.7261 -14.6524 -14.5615 -14.5289 -14.4772 -14.4450 -14.3953
   -14.3631 -14.3217 -14.2945 -14.2225  -5.2349  -5.0220  -4.9234  -4.7511
    -2.9147  -2.8191  -2.7573  -2.6390  -2.4377  -2.3336  -2.2467  -2.0458
    -1.9723  -1.9409  -1.8503  -1.7027  -1.3041  -1.2198  -0.9328  -0.8955
    -0.8588  -0.8264  -0.7110  -0.6181  -0.5742  -0.5325  -0.5139  -0.4469
    -0.3805  -0.2671  -0.2396  -0.1838  -0.0576   0.0145   0.1213   0.1355
     0.3128   0.5244   0.5596   0.7154   0.7837   0.9082   0.9393   1.0094
     1.0877   1.1319   1.2253   1.2611   1.3118   1.3712   1.4223   1.5474
     1.6943   1.7644   1.8802   2.0235   2.0920   2.1734   2.2942   2.3124
     2.3739   2.4610   2.5692   2.6008   2.6191   2.7003   2.8032   2.8603
     7.5326   8.8323   9.0182   9.2887   9.7546   9.9535  10.0993  10.5208
    10.6111  10.7866

     occupation numbers 
     1.0000   1.0000   1.0000   1.0000   1.0000   1.0000   1.0000   1.0000
     1.0000   1.0000   1.0000   1.0000   1.0000   1.0000   1.0000   1.0000
     1.0000   1.0000   1.0000   1.0000   1.0000   1.0000   1.0000   1.0000
     1.0000   1.0000   1.0000   1.0000   1.0000   1.0000   1.0000   1.0000
     1.0000   1.0000   1.0000   1.0000   1.0000   1.0000   1.0000   1.0000
     1.0000   1.0000   1.0000   1.0000   1.0000   1.0000   1.0000   1.0000
     1.0000   1.0000   1.0000   1.0000   1.0000   1.0000   1.0000   1.0000
     1.0000   1.0000   1.0000   1.0000   1.0000   1.0000   1.0000   1.0000
     1.0000   1.0000   1.0000   1.0000   1.0000   1.0000   1.0000   1.0000
     1.0000   1.0000   1.0000   1.0000   1.0000   1.0000   1.0000   1.0000
     1.0000   1.0000   1.0000   1.0000   1.0000   1.0000   1.0000   1.0000
     1.0000   1.0000   1.0000   1.0000   1.0000   1.0000   1.0000   1.0000
     1.0000   1.0000   1.0000   1.0000   1.0000   1.0000   1.0000   1.0000
     0.0000   0.0000   0.0000   0.0000   0.0000   0.0000   0.0000   0.0000
     0.0000   0.0000

          k = 0.0000 0.2391 0.9349 ( 42236 PWs)   bands (ev):

   -87.1010 -87.0568 -87.0419 -86.6511 -53.1917 -53.1447 -53.1432 -53.0471
   -53.0467 -53.0185 -52.9850 -52.9532 -52.9460 -52.9349 -52.5925 -52.3755
   -46.7935 -18.7668 -18.7280 -18.7095 -16.6258 -16.5391 -16.3714 -16.3520
   -14.8155 -14.7456 -14.6627 -14.5709 -14.5473 -14.4741 -14.4425 -14.3921
   -14.3669 -14.3183 -14.2978 -14.2292  -5.1654  -5.0467  -4.9064  -4.7902
    -2.8407  -2.8078  -2.7179  -2.6435  -2.4201  -2.3029  -2.2190  -2.1120
    -1.9291  -1.8900  -1.8269  -1.7770  -1.1889  -1.0846  -0.9656  -0.9282
    -0.8186  -0.7436  -0.6896  -0.6391  -0.5875  -0.5268  -0.4744  -0.4319
    -0.3518  -0.2888  -0.2516  -0.2048  -0.1617  -0.1016  -0.0437   0.0085
     0.3134   0.5417   0.5804   0.6835   0.7772   0.8419   0.8802   0.9591
     1.0428   1.0741   1.2245   1.2639   1.3140   1.3581   1.4072   1.5206
     1.7163   1.7595   1.8992   2.0137   2.1805   2.2745   2.3060   2.3345
     2.3999   2.4893   2.5839   2.6187   2.6414   2.6934   2.7497   2.7955
     8.0455   8.5555   9.3045   9.4483   9.6302   9.7848  10.2328  10.4755
    10.5617  10.6464

     occupation numbers 
     1.0000   1.0000   1.0000   1.0000   1.0000   1.0000   1.0000   1.0000
     1.0000   1.0000   1.0000   1.0000   1.0000   1.0000   1.0000   1.0000
     1.0000   1.0000   1.0000   1.0000   1.0000   1.0000   1.0000   1.0000
     1.0000   1.0000   1.0000   1.0000   1.0000   1.0000   1.0000   1.0000
     1.0000   1.0000   1.0000   1.0000   1.0000   1.0000   1.0000   1.0000
     1.0000   1.0000   1.0000   1.0000   1.0000   1.0000   1.0000   1.0000
     1.0000   1.0000   1.0000   1.0000   1.0000   1.0000   1.0000   1.0000
     1.0000   1.0000   1.0000   1.0000   1.0000   1.0000   1.0000   1.0000
     1.0000   1.0000   1.0000   1.0000   1.0000   1.0000   1.0000   1.0000
     1.0000   1.0000   1.0000   1.0000   1.0000   1.0000   1.0000   1.0000
     1.0000   1.0000   1.0000   1.0000   1.0000   1.0000   1.0000   1.0000
     1.0000   1.0000   1.0000   1.0000   1.0000   1.0000   1.0000   1.0000
     1.0000   1.0000   1.0000   1.0000   1.0000   1.0000   1.0000   1.0000
     0.0000   0.0000   0.0000   0.0000   0.0000   0.0000   0.0000   0.0000
     0.0000   0.0000

          k = 0.0000 0.4781 0.0000 ( 42263 PWs)   bands (ev):

   -87.1010 -87.0568 -87.0419 -86.6511 -53.1917 -53.1447 -53.1432 -53.0471
   -53.0467 -53.0185 -52.9850 -52.9532 -52.9460 -52.9349 -52.5925 -52.3755
   -46.7935 -18.7664 -18.7160 -18.7099 -16.6844 -16.5860 -16.4232 -16.3961
   -14.7577 -14.6597 -14.6112 -14.5652 -14.5027 -14.4970 -14.4381 -14.3971
   -14.3488 -14.2904 -14.2816 -14.2084  -5.3191  -5.0598  -4.9161  -4.7028
    -3.0905  -2.9208  -2.8243  -2.6584  -2.4546  -2.3640  -2.2403  -2.1225
    -2.0559  -1.9579  -1.7437  -1.5498  -1.4204  -1.2921  -0.9685  -0.9363
    -0.9262  -0.8738  -0.8430  -0.7871  -0.7177  -0.5741  -0.3997  -0.3636
    -0.3167  -0.2422  -0.2183  -0.1615  -0.1253   0.0895   0.1634   0.3215
     0.4528   0.5506   0.6602   0.7500   0.8779   1.0188   1.0660   1.1210
     1.1592   1.1653   1.2211   1.3019   1.3573   1.5098   1.6022   1.6609
     1.7266   1.8351   1.8585   1.8935   2.0339   2.1015   2.1261   2.2420
     2.3003   2.3848   2.4642   2.5162   2.5899   2.7384   2.8673   2.9576
     6.9590   8.5771   8.6945   9.1346   9.6512   9.9365  10.6857  10.7725
    10.9862  11.0910

     occupation numbers 
     1.0000   1.0000   1.0000   1.0000   1.0000   1.0000   1.0000   1.0000
     1.0000   1.0000   1.0000   1.0000   1.0000   1.0000   1.0000   1.0000
     1.0000   1.0000   1.0000   1.0000   1.0000   1.0000   1.0000   1.0000
     1.0000   1.0000   1.0000   1.0000   1.0000   1.0000   1.0000   1.0000
     1.0000   1.0000   1.0000   1.0000   1.0000   1.0000   1.0000   1.0000
     1.0000   1.0000   1.0000   1.0000   1.0000   1.0000   1.0000   1.0000
     1.0000   1.0000   1.0000   1.0000   1.0000   1.0000   1.0000   1.0000
     1.0000   1.0000   1.0000   1.0000   1.0000   1.0000   1.0000   1.0000
     1.0000   1.0000   1.0000   1.0000   1.0000   1.0000   1.0000   1.0000
     1.0000   1.0000   1.0000   1.0000   1.0000   1.0000   1.0000   1.0000
     1.0000   1.0000   1.0000   1.0000   1.0000   1.0000   1.0000   1.0000
     1.0000   1.0000   1.0000   1.0000   1.0000   1.0000   1.0000   1.0000
     1.0000   1.0000   1.0000   1.0000   1.0000   1.0000   1.0000   1.0000
     0.0000   0.0000   0.0000   0.0000   0.0000   0.0000   0.0000   0.0000
     0.0000   0.0000

          k = 0.0000 0.4781 0.2337 ( 42243 PWs)   bands (ev):

   -87.1010 -87.0568 -87.0419 -86.6511 -53.1917 -53.1447 -53.1432 -53.0471
   -53.0467 -53.0185 -52.9850 -52.9532 -52.9460 -52.9349 -52.5925 -52.3755
   -46.7935 -18.7664 -18.7175 -18.7098 -16.6764 -16.5791 -16.4180 -16.3914
   -14.7636 -14.6684 -14.6191 -14.5697 -14.5034 -14.4959 -14.4510 -14.3918
   -14.3515 -14.2910 -14.2811 -14.2098  -5.3033  -5.0535  -4.9145  -4.7079
    -3.0613  -2.9012  -2.8140  -2.6499  -2.4511  -2.3635  -2.2137  -2.1185
    -2.0251  -1.9586  -1.7716  -1.5816  -1.4030  -1.2844  -0.9836  -0.9356
    -0.9134  -0.8786  -0.8226  -0.7803  -0.6941  -0.5566  -0.4172  -0.3717
    -0.3307  -0.2561  -0.2350  -0.1538  -0.1334   0.0759   0.1596   0.3554
     0.4459   0.5538   0.6833   0.7160   0.8755   0.9891   1.0278   1.0907
     1.1493   1.1619   1.2237   1.3001   1.3500   1.4510   1.5587   1.6367
     1.6972   1.8006   1.8684   1.9255   2.0304   2.0933   2.1672   2.2634
     2.3080   2.3899   2.4828   2.5373   2.5930   2.7427   2.8653   2.9562
     7.0764   8.6387   8.7562   9.1761   9.6795   9.9178  10.5788  10.7910
    10.9579  11.0385

     occupation numbers 
     1.0000   1.0000   1.0000   1.0000   1.0000   1.0000   1.0000   1.0000
     1.0000   1.0000   1.0000   1.0000   1.0000   1.0000   1.0000   1.0000
     1.0000   1.0000   1.0000   1.0000   1.0000   1.0000   1.0000   1.0000
     1.0000   1.0000   1.0000   1.0000   1.0000   1.0000   1.0000   1.0000
     1.0000   1.0000   1.0000   1.0000   1.0000   1.0000   1.0000   1.0000
     1.0000   1.0000   1.0000   1.0000   1.0000   1.0000   1.0000   1.0000
     1.0000   1.0000   1.0000   1.0000   1.0000   1.0000   1.0000   1.0000
     1.0000   1.0000   1.0000   1.0000   1.0000   1.0000   1.0000   1.0000
     1.0000   1.0000   1.0000   1.0000   1.0000   1.0000   1.0000   1.0000
     1.0000   1.0000   1.0000   1.0000   1.0000   1.0000   1.0000   1.0000
     1.0000   1.0000   1.0000   1.0000   1.0000   1.0000   1.0000   1.0000
     1.0000   1.0000   1.0000   1.0000   1.0000   1.0000   1.0000   1.0000
     1.0000   1.0000   1.0000   1.0000   1.0000   1.0000   1.0000   1.0000
     0.0000   0.0000   0.0000   0.0000   0.0000   0.0000   0.0000   0.0000
     0.0000   0.0000

          k = 0.0000 0.4781 0.4675 ( 42213 PWs)   bands (ev):

   -87.1010 -87.0568 -87.0419 -86.6511 -53.1917 -53.1447 -53.1432 -53.0471
   -53.0467 -53.0185 -52.9850 -52.9532 -52.9460 -52.9349 -52.5925 -52.3755
   -46.7935 -18.7665 -18.7212 -18.7098 -16.6558 -16.5613 -16.4048 -16.3794
   -14.7799 -14.6933 -14.6365 -14.5800 -14.5116 -14.4951 -14.4707 -14.3831
   -14.3576 -14.2923 -14.2805 -14.2136  -5.2592  -5.0396  -4.9097  -4.7257
    -2.9830  -2.8528  -2.7868  -2.6343  -2.4415  -2.3499  -2.1696  -2.0739
    -1.9857  -1.9272  -1.8417  -1.6537  -1.3675  -1.2630  -1.0012  -0.9531
    -0.9125  -0.8448  -0.7840  -0.7317  -0.6372  -0.5226  -0.4415  -0.3889
    -0.3759  -0.2863  -0.2483  -0.1665  -0.1479   0.0537   0.1629   0.3790
     0.4400   0.5337   0.5800   0.7613   0.8229   0.9109   0.9409   1.0628
     1.1071   1.1623   1.2157   1.2826   1.3294   1.3485   1.4314   1.5806
     1.6536   1.7346   1.9139   1.9406   2.0752   2.1195   2.1917   2.3100
     2.3521   2.4112   2.5114   2.5815   2.6102   2.7547   2.8560   2.9496
     7.3957   8.7888   8.9509   9.2470   9.7842   9.8659  10.4208  10.6683
    10.8620  10.9025

     occupation numbers 
     1.0000   1.0000   1.0000   1.0000   1.0000   1.0000   1.0000   1.0000
     1.0000   1.0000   1.0000   1.0000   1.0000   1.0000   1.0000   1.0000
     1.0000   1.0000   1.0000   1.0000   1.0000   1.0000   1.0000   1.0000
     1.0000   1.0000   1.0000   1.0000   1.0000   1.0000   1.0000   1.0000
     1.0000   1.0000   1.0000   1.0000   1.0000   1.0000   1.0000   1.0000
     1.0000   1.0000   1.0000   1.0000   1.0000   1.0000   1.0000   1.0000
     1.0000   1.0000   1.0000   1.0000   1.0000   1.0000   1.0000   1.0000
     1.0000   1.0000   1.0000   1.0000   1.0000   1.0000   1.0000   1.0000
     1.0000   1.0000   1.0000   1.0000   1.0000   1.0000   1.0000   1.0000
     1.0000   1.0000   1.0000   1.0000   1.0000   1.0000   1.0000   1.0000
     1.0000   1.0000   1.0000   1.0000   1.0000   1.0000   1.0000   1.0000
     1.0000   1.0000   1.0000   1.0000   1.0000   1.0000   1.0000   1.0000
     1.0000   1.0000   1.0000   1.0000   1.0000   1.0000   1.0000   1.0000
     0.0000   0.0000   0.0000   0.0000   0.0000   0.0000   0.0000   0.0000
     0.0000   0.0000

          k = 0.0000 0.4781 0.7012 ( 42214 PWs)   bands (ev):

   -87.1010 -87.0568 -87.0419 -86.6511 -53.1917 -53.1447 -53.1432 -53.0471
   -53.0467 -53.0185 -52.9850 -52.9532 -52.9460 -52.9349 -52.5925 -52.3755
   -46.7935 -18.7666 -18.7254 -18.7097 -16.6315 -16.5403 -16.3893 -16.3660
   -14.8008 -14.7251 -14.6540 -14.5900 -14.5395 -14.4922 -14.4739 -14.3758
   -14.3637 -14.2940 -14.2798 -14.2186  -5.1985  -5.0297  -4.9035  -4.7557
    -2.8873  -2.8051  -2.7492  -2.6250  -2.4242  -2.3186  -2.1451  -2.0036
    -1.9823  -1.9162  -1.8365  -1.7362  -1.3209  -1.2251  -1.0468  -0.9949
    -0.8804  -0.7754  -0.7276  -0.6213  -0.5708  -0.5244  -0.4488  -0.4181
    -0.3994  -0.3042  -0.2815  -0.1786  -0.1523   0.0222   0.1744   0.2590
     0.3455   0.4556   0.5571   0.7352   0.7812   0.8401   0.9027   0.9968
     1.0405   1.1009   1.2007   1.2430   1.2945   1.3142   1.3831   1.5270
     1.6223   1.6754   1.9289   1.9805   2.0794   2.1806   2.2547   2.3466
     2.3907   2.4603   2.5450   2.5933   2.6563   2.7718   2.8342   2.9346
     7.8425   8.9651   9.1577   9.3233   9.7634   9.9960  10.2431  10.5000
    10.6858  10.7257

     occupation numbers 
     1.0000   1.0000   1.0000   1.0000   1.0000   1.0000   1.0000   1.0000
     1.0000   1.0000   1.0000   1.0000   1.0000   1.0000   1.0000   1.0000
     1.0000   1.0000   1.0000   1.0000   1.0000   1.0000   1.0000   1.0000
     1.0000   1.0000   1.0000   1.0000   1.0000   1.0000   1.0000   1.0000
     1.0000   1.0000   1.0000   1.0000   1.0000   1.0000   1.0000   1.0000
     1.0000   1.0000   1.0000   1.0000   1.0000   1.0000   1.0000   1.0000
     1.0000   1.0000   1.0000   1.0000   1.0000   1.0000   1.0000   1.0000
     1.0000   1.0000   1.0000   1.0000   1.0000   1.0000   1.0000   1.0000
     1.0000   1.0000   1.0000   1.0000   1.0000   1.0000   1.0000   1.0000
     1.0000   1.0000   1.0000   1.0000   1.0000   1.0000   1.0000   1.0000
     1.0000   1.0000   1.0000   1.0000   1.0000   1.0000   1.0000   1.0000
     1.0000   1.0000   1.0000   1.0000   1.0000   1.0000   1.0000   1.0000
     1.0000   1.0000   1.0000   1.0000   1.0000   1.0000   1.0000   1.0000
     0.0000   0.0000   0.0000   0.0000   0.0000   0.0000   0.0000   0.0000
     0.0000   0.0000

[...]
     atom   19 type  3   force =     0.02877447    0.06606055    0.03838663
     atom   20 type  3   force =     0.02948028   -0.06330574   -0.03116569
     atom   21 type  3   force =    -0.02957416    0.06338414   -0.03085893
     atom   22 type  3   force =     0.02948028    0.06330574   -0.03116569
     atom   23 type  3   force =    -0.02957416   -0.06338414   -0.03085893
     atom   24 type  3   force =    -0.02887542    0.06543033    0.03580531
     atom   25 type  3   force =     0.02877447   -0.06606055    0.03838663
     The non-local contrib.  to forces
     atom    1 type  2   force =     0.12377736    0.00000000   -0.02618332
     atom    2 type  1   force =     0.06935876    0.00000000    0.11216401
     atom    3 type  1   force =     0.02213100    0.00000000    0.08481772
     atom    4 type  1   force =    -0.22481302    0.00000000   -0.04701254
     atom    5 type  1   force =    -0.00110476    0.00000000   -0.09557590
     atom    6 type  4   force =    -0.03124800    0.00000000   -0.02944353
     atom    7 type  4   force =     0.04477339    0.00000000   -0.00258563
     atom    8 type  4   force =     0.00885601    0.00000000    0.03210603
     atom    9 type  4   force =    -0.00713118    0.00000000    0.03663284
     atom   10 type  3   force =     0.34757463    0.00000000   -1.50315938
     atom   11 type  3   force =    -0.12793334    0.00000000   -1.42057221
     atom   12 type  3   force =    -0.43685790    0.00000000    1.50276645
     atom   13 type  3   force =     0.26747678    0.00000000    1.50629700
     atom   14 type  3   force =     1.25230602    0.00000000   -0.64005081
     atom   15 type  3   force =    -1.22865090    0.00000000   -0.82246021
     atom   16 type  3   force =    -1.23504454    0.00000000    0.31663608
     atom   17 type  3   force =     1.20194154    0.00000000    0.65841956
     atom   18 type  3   force =    -0.53097450   -1.11604186    0.77966430
     atom   19 type  3   force =     0.53562331    1.17044782    0.81461507
     atom   20 type  3   force =     0.55639120   -1.11903814   -0.67741290
     atom   21 type  3   force =    -0.55691344    1.08160515   -0.69129235
     atom   22 type  3   force =     0.55639120    1.11903814   -0.67741290
     atom   23 type  3   force =    -0.55691344   -1.08160515   -0.69129235
     atom   24 type  3   force =    -0.53097450    1.11604186    0.77966430
     atom   25 type  3   force =     0.53562331   -1.17044782    0.81461507
     The ionic contribution  to forces
     atom    1 type  2   force =    -3.43152703    0.00030088    2.24995931
     atom    2 type  1   force =     0.08693618   -0.00074898   -0.37345059
     atom    3 type  1   force =    -7.45273997    0.00090189   -0.53090107
     atom    4 type  1   force =     3.42304761    0.00071628   -0.31960991
     atom    5 type  1   force =     7.71970776   -0.00100800    0.49152871
     atom    6 type  4   force =    -3.15059193   -0.00024679    0.24497665
     atom    7 type  4   force =     0.63271513    0.00016118    0.32487274
     atom    8 type  4   force =     4.76631649    0.00023086   -0.48374770
     atom    9 type  4   force =    -2.49490555   -0.00015838   -0.59640778
     atom   10 type  3   force =    -9.23456682   -0.00025593    2.44404428
     atom   11 type  3   force =     3.46812369    0.00023532    1.22371206
     atom   12 type  3   force =    11.12985704    0.00024051   -2.56256665
     atom   13 type  3   force =    -7.58652101   -0.00027914   -1.97374428
     atom   14 type  3   force =     0.62834104   -0.00020459    4.83100976
     atom   15 type  3   force =    -1.67814786    0.00023931    6.17720714
     atom   16 type  3   force =    -1.84104434    0.00013007   -2.31345350
     atom   17 type  3   force =     3.22417685   -0.00024728   -5.43302563
     atom   18 type  3   force =    -3.73827583    2.46206571   -2.72036478
     atom   19 type  3   force =     0.90913362   -3.67030823   -2.36614432
     atom   20 type  3   force =     4.98466815    3.94062821    2.16073755
     atom   21 type  3   force =    -1.26009937   -1.14044272    1.22549398
     atom   22 type  3   force =     4.98490242   -3.94018231    2.16086589
     atom   23 type  3   force =    -1.26030831    1.14010356    1.22539835
     atom   24 type  3   force =    -3.73808969   -2.46252486   -2.72018547
     atom   25 type  3   force =     0.90889174    3.67065344   -2.36620473
     The local contribution  to forces
     atom    1 type  2   force =     3.30234961   -0.00000000   -2.22335009
     atom    2 type  1   force =    -0.16485716   -0.00944027    0.25310776
     atom    3 type  1   force =     7.42854156    0.00473220    0.44214377
     atom    4 type  1   force =    -3.17782224    0.00240351    0.37223928
     atom    5 type  1   force =    -7.71755444   -0.01168312   -0.39052421
     atom    6 type  4   force =     3.18472466   -0.00002826   -0.21323915
     atom    7 type  4   force =    -0.67820401   -0.00001963   -0.31983326
     atom    8 type  4   force =    -4.78039126   -0.00002321    0.44738896
     atom    9 type  4   force =     2.50285166   -0.00001747    0.55712951
     atom   10 type  3   force =     8.90294340   -0.00167628   -1.02904680
     atom   11 type  3   force =    -3.34290956   -0.00000000    0.11018376
     atom   12 type  3   force =   -10.71313440   -0.00000000    1.14967257
     atom   13 type  3   force =     7.32893428   -0.00163692    0.55918860
     atom   14 type  3   force =    -1.79680248   -0.00164600   -4.22362914
     atom   15 type  3   force =     2.82753004   -0.00000000   -5.40035950
     atom   16 type  3   force =     2.98643250    0.00057001    2.01165229
     atom   17 type  3   force =    -4.34789631   -0.00167297    4.80896495
     atom   18 type  3   force =     4.23516291   -1.42342009    1.98431518
     atom   19 type  3   force =    -1.41027336    2.57694120    1.59848257
     atom   20 type  3   force =    -5.50624455   -2.89592356   -1.52115401
     atom   21 type  3   force =     1.78256535    0.13165317   -0.57154005
     atom   22 type  3   force =    -5.50624449    2.89503785   -1.52147963
     atom   23 type  3   force =     1.78171080   -0.13352344   -0.57240965
     atom   24 type  3   force =     4.23509434    1.42157473    1.98417020
     atom   25 type  3   force =    -1.41118664   -2.57785343    1.59778283
     The core correction contribution to forces
     atom    1 type  2   force =     0.00000000    0.00000000    0.00000000
     atom    2 type  1   force =    -0.00056732    0.00031963   -0.00038566
     atom    3 type  1   force =     0.00021721   -0.00016084    0.00035315
     atom    4 type  1   force =     0.00342698   -0.00008009   -0.00115783
     atom    5 type  1   force =    -0.00014719    0.00040209    0.00037486
     atom    6 type  4   force =     0.00210096    0.00000279    0.00232694
     atom    7 type  4   force =    -0.00304796    0.00000145    0.00038594
     atom    8 type  4   force =    -0.00064552    0.00000133   -0.00239252
     atom    9 type  4   force =     0.00020884    0.00000273   -0.00279476
     atom   10 type  3   force =    -0.00403537   -0.00000078    0.01462639
     atom   11 type  3   force =     0.00190200   -0.00000000    0.01371902
     atom   12 type  3   force =     0.00491654    0.00000000   -0.01458290
     atom   13 type  3   force =    -0.00327488   -0.00000076   -0.01464572
     atom   14 type  3   force =    -0.01193260   -0.00000081    0.00678416
     atom   15 type  3   force =     0.01168518    0.00000000    0.00856098
     atom   16 type  3   force =     0.01175850    0.00000021   -0.00344360
     atom   17 type  3   force =    -0.01152477   -0.00000082   -0.00694064
     atom   18 type  3   force =     0.00514558    0.01081137   -0.00782438
     atom   19 type  3   force =    -0.00513196   -0.01130271   -0.00818574
     atom   20 type  3   force =    -0.00545230    0.01080899    0.00676175
     atom   21 type  3   force =     0.00540884   -0.01053627    0.00696498
     atom   22 type  3   force =    -0.00545265   -0.01081042    0.00676146
     atom   23 type  3   force =     0.00540673    0.01053259    0.00696331
     atom   24 type  3   force =     0.00514661   -0.01081447   -0.00782464
     atom   25 type  3   force =    -0.00513252    0.01130176   -0.00818684
     The Hubbard contrib.    to forces
     atom    1 type  2   force =     0.00000000    0.00000000    0.00000000
     atom    2 type  1   force =     0.00000000    0.00000000    0.00000000
     atom    3 type  1   force =     0.00000000    0.00000000    0.00000000
     atom    4 type  1   force =     0.00000000    0.00000000    0.00000000
     atom    5 type  1   force =     0.00000000    0.00000000    0.00000000
     atom    6 type  4   force =     0.00000000    0.00000000    0.00000000
     atom    7 type  4   force =     0.00000000    0.00000000    0.00000000
     atom    8 type  4   force =     0.00000000    0.00000000    0.00000000
     atom    9 type  4   force =     0.00000000    0.00000000    0.00000000
     atom   10 type  3   force =     0.00000000    0.00000000    0.00000000
     atom   11 type  3   force =     0.00000000    0.00000000    0.00000000
     atom   12 type  3   force =     0.00000000    0.00000000    0.00000000
     atom   13 type  3   force =     0.00000000    0.00000000    0.00000000
     atom   14 type  3   force =     0.00000000    0.00000000    0.00000000
     atom   15 type  3   force =     0.00000000    0.00000000    0.00000000
     atom   16 type  3   force =     0.00000000    0.00000000    0.00000000
     atom   17 type  3   force =     0.00000000    0.00000000    0.00000000
     atom   18 type  3   force =     0.00000000    0.00000000    0.00000000
     atom   19 type  3   force =     0.00000000    0.00000000    0.00000000
     atom   20 type  3   force =     0.00000000    0.00000000    0.00000000
     atom   21 type  3   force =     0.00000000    0.00000000    0.00000000
     atom   22 type  3   force =     0.00000000    0.00000000    0.00000000
     atom   23 type  3   force =     0.00000000    0.00000000    0.00000000
     atom   24 type  3   force =     0.00000000    0.00000000    0.00000000
     atom   25 type  3   force =     0.00000000    0.00000000    0.00000000
     The SCF correction term to forces
     atom    1 type  2   force =    -0.00000585   -0.00000000   -0.00000014
     atom    2 type  1   force =     0.00000576    0.00000000    0.00000092
     atom    3 type  1   force =     0.00000928   -0.00000000    0.00000004
     atom    4 type  1   force =    -0.00000787   -0.00000000   -0.00000031
     atom    5 type  1   force =    -0.00000550    0.00000001    0.00000056
     atom    6 type  4   force =     0.00000508    0.00000000   -0.00000059
     atom    7 type  4   force =    -0.00000168   -0.00000000   -0.00000026
     atom    8 type  4   force =     0.00000103   -0.00000000   -0.00000029
     atom    9 type  4   force =    -0.00000432    0.00000000   -0.00000028
     atom   10 type  3   force =     0.00000746    0.00000000    0.00000287
     atom   11 type  3   force =    -0.00000212   -0.00000000    0.00000073
     atom   12 type  3   force =     0.00000023   -0.00000000   -0.00000133
     atom   13 type  3   force =    -0.00000646    0.00000000    0.00000161
     atom   14 type  3   force =    -0.00000576    0.00000000   -0.00000111
     atom   15 type  3   force =     0.00000601   -0.00000000   -0.00000042
     atom   16 type  3   force =    -0.00000362   -0.00000000    0.00000017
     atom   17 type  3   force =     0.00000482    0.00000000   -0.00000114
     atom   18 type  3   force =     0.00000550    0.00000074   -0.00000132
     atom   19 type  3   force =    -0.00000090   -0.00000151    0.00000040
     atom   20 type  3   force =    -0.00000084   -0.00000185    0.00000143
     atom   21 type  3   force =    -0.00000437   -0.00000175   -0.00000132
     atom   22 type  3   force =    -0.00000084    0.00000185    0.00000143
     atom   23 type  3   force =    -0.00000437    0.00000175   -0.00000132
     atom   24 type  3   force =     0.00000550   -0.00000074   -0.00000132
     atom   25 type  3   force =    -0.00000090    0.00000151    0.00000040

     Total force =     0.310567     Total SCF correction =     0.000026


     Computing stress (Cartesian axis) and pressure


     negative rho (up, down):  0.000E+00 8.789E-04
          total   stress  (Ry/bohr**3)                   (kbar)     P=     -181.50
  -0.00148675   0.00000000  -0.00001247         -218.71        0.00       -1.83
   0.00000000  -0.00111424   0.00000000            0.00     -163.91        0.00
  -0.00001247   0.00000000  -0.00110041           -1.83        0.00     -161.88

     kinetic stress (kbar)  22387.37      0.00     -7.92
                                0.00  22624.80      0.00
                               -7.92      0.00  22453.93

     local   stress (kbar)  -5081.21     -0.05    996.89
                               -0.05 -12872.80     -0.00
                              996.89     -0.00  -9029.74

     nonloc. stress (kbar)  -5649.32      0.00     -0.93
                                0.00  -5611.69      0.00
                               -0.93      0.00  -5625.51

     hartree stress (kbar)  11250.16      0.00   -415.13
                                0.00  15601.14     -0.00
                             -415.13     -0.00  13500.94

     exc-cor stress (kbar)  -2381.63      0.00     -0.64
                                0.00  -2387.78     -0.00
                               -0.64     -0.00  -2385.11

     corecor stress (kbar)  -2686.75     -0.00      0.81
                               -0.00  -2687.15      0.00
                                0.81      0.00  -2687.74

     ewald   stress (kbar) -18057.34      0.04   -574.92
                                0.04 -14830.43      0.00
                             -574.92      0.00 -16388.65

     hubbard stress (kbar)      0.00      0.00      0.00
                                0.00      0.00      0.00
                                0.00      0.00      0.00

     DFT-D   stress (kbar)      0.00      0.00      0.00
                                0.00      0.00      0.00
                                0.00      0.00      0.00

     XDM     stress (kbar)      0.00      0.00      0.00
                                0.00      0.00      0.00
                                0.00      0.00      0.00

     dft-nl  stress (kbar)      0.00      0.00      0.00
                                0.00      0.00      0.00
                                0.00      0.00      0.00

     TS-vdW  stress (kbar)      0.00      0.00      0.00
                                0.00      0.00      0.00
                                0.00      0.00      0.00



     init_run     :    122.70s CPU    125.39s WALL (       1 calls)
     electrons    :  11231.65s CPU  11389.12s WALL (       1 calls)
     forces       :     78.18s CPU     79.44s WALL (       1 calls)
     stress       :    558.07s CPU    561.69s WALL (       1 calls)

     Called by init_run:
     wfcinit      :    111.81s CPU    113.61s WALL (       1 calls)
     wfcinit:atom :      2.15s CPU      2.19s WALL (     184 calls)
     wfcinit:wfcr :    103.89s CPU    105.53s WALL (     184 calls)
     potinit      :      4.09s CPU      4.28s WALL (       1 calls)
     hinit0       :      3.79s CPU      3.89s WALL (       1 calls)

     Called by electrons:
     c_bands      :   9654.09s CPU   9750.62s WALL (      37 calls)
     sum_band     :   1438.28s CPU   1477.36s WALL (      37 calls)
     v_of_rho     :     44.35s CPU     46.98s WALL (      38 calls)
     v_h          :      3.12s CPU      3.23s WALL (      38 calls)
     v_xc         :     43.49s CPU     46.07s WALL (      40 calls)
     newd         :     70.26s CPU     89.27s WALL (      38 calls)
     PAW_pot      :     16.03s CPU     16.24s WALL (      38 calls)
     mix_rho      :      8.07s CPU      8.43s WALL (      37 calls)

     Called by c_bands:
     init_us_2    :    176.06s CPU    179.56s WALL (   14168 calls)
     cegterg      :   9340.18s CPU   9431.06s WALL (    6808 calls)

     Called by sum_band:
     sum_band:wei :      0.36s CPU      0.36s WALL (      37 calls)
     sum_band:loo :   1252.99s CPU   1266.00s WALL (      37 calls)
     sum_band:buf :     44.59s CPU     45.41s WALL (    6808 calls)
     sum_band:ini :     85.26s CPU     86.78s WALL (    6808 calls)
     sum_band:cal :    518.11s CPU    523.33s WALL (    6808 calls)
     sum_band:bec :      4.02s CPU      4.09s WALL (    6808 calls)
     addusdens    :    176.76s CPU    202.29s WALL (      37 calls)
     addusd:skk   :      1.38s CPU      1.43s WALL (     111 calls)
     addusd:dgemm :     79.34s CPU    103.69s WALL (     222 calls)
     addusd:qvan2 :     94.24s CPU     94.97s WALL (     222 calls)

     Called by *egterg:
     cdiaghg      :    514.03s CPU    526.51s WALL (   23273 calls)
     cegterg:over :    960.19s CPU    974.87s WALL (   16465 calls)
     cegterg:upda :    539.15s CPU    542.05s WALL (   16465 calls)
     cegterg:last :   1033.00s CPU   1038.57s WALL (   11053 calls)
     h_psi        :   4497.40s CPU   4539.33s WALL (   23457 calls)
     s_psi        :   1170.95s CPU   1177.17s WALL (   23457 calls)
     g_psi        :     10.98s CPU     11.13s WALL (   16465 calls)

     Called by h_psi:
     h_psi:calbec :   1240.57s CPU   1253.38s WALL (   23457 calls)
     vloc_psi     :   1943.59s CPU   1964.18s WALL (   23457 calls)
     add_vuspsi   :   1213.51s CPU   1219.75s WALL (   23457 calls)

     General routines
     calbec       :   1826.94s CPU   1845.70s WALL (   31185 calls)
     fft          :     39.26s CPU     41.99s WALL (     988 calls)
     ffts         :      0.58s CPU      0.67s WALL (     150 calls)
     fftw         :   2377.70s CPU   2401.71s WALL ( 4150976 calls)
     interpolate  :      2.66s CPU      2.86s WALL (      76 calls)

     Parallel routines
     fft_scatt_xy :    207.41s CPU    209.44s WALL ( 4152114 calls)
     fft_scatt_yz :    851.53s CPU    862.36s WALL ( 4152114 calls)

     PAW routines
     PAW_pot      :     16.03s CPU     16.24s WALL (      38 calls)
     PAW_symme    :      0.17s CPU      0.18s WALL (      75 calls)

     PWSCF        :      3h19m CPU      3h22m WALL


   This run was terminated on:  12:54:48  21Dec2022            

=------------------------------------------------------------------------------=
   JOB DONE.
=------------------------------------------------------------------------------=
Note: The following floating-point exceptions are signalling: IEEE_DENORMAL
Note: The following floating-point exceptions are signalling: IEEE_DENORMAL
Note: The following floating-point exceptions are signalling: IEEE_DENORMAL
Note: The following floating-point exceptions are signalling: IEEE_DENORMAL
Note: The following floating-point exceptions are signalling: IEEE_DENORMAL
Note: The following floating-point exceptions are signalling: IEEE_INVALID_FLAG IEEE_DENORMAL
Note: The following floating-point exceptions are signalling: IEEE_DENORMAL
Note: The following floating-point exceptions are signalling: IEEE_DENORMAL
Note: The following floating-point exceptions are signalling: IEEE_DENORMAL
Note: The following floating-point exceptions are signalling: IEEE_DENORMAL
Note: The following floating-point exceptions are signalling: IEEE_DENORMAL
Note: The following floating-point exceptions are signalling: IEEE_DENORMAL
Note: The following floating-point exceptions are signalling: IEEE_INVALID_FLAG IEEE_DENORMAL
Note: The following floating-point exceptions are signalling: IEEE_DENORMAL
Note: The following floating-point exceptions are signalling: IEEE_DENORMAL
Note: The following floating-point exceptions are signalling: IEEE_DENORMAL
Note: The following floating-point exceptions are signalling: IEEE_UNDERFLOW_FLAG IEEE_DENORMAL
Note: The following floating-point exceptions are signalling: IEEE_DENORMAL
