
     Program PWSCF v.6.7MaX starts on 18Dec2022 at  8: 4:45 

     This program is part of the open-source Quantum ESPRESSO suite
     for quantum simulation of materials; please cite
         "P. Giannozzi et al., J. Phys.:Condens. Matter 21 395502 (2009);
         "P. Giannozzi et al., J. Phys.:Condens. Matter 29 465901 (2017);
          URL http://www.quantum-espresso.org", 
     in publications or presentations arising from this work. More details at
     http://www.quantum-espresso.org/quote

     Parallel version (MPI), running on    24 processors

     MPI processes distributed on     1 nodes
     R & G space division:  proc/nbgrp/npool/nimage =      24
     Reading input from scale_1da-03.in

     Current dimensions of program PWSCF are:
     Max number of different atomic species (ntypx) = 10
     Max number of k-points (npk) =  40000
     Max angular momentum in pseudopotentials (lmaxx) =  3
     Message from routine read_pp_mesh:
     mesh size missing, using the one in header
     file Fe.pbe-spn-kjpaw_psl.0.2.1.UPF: wavefunction(s)  3D renormalized
     file O.pbe-n-kjpaw_psl.0.1.UPF: wavefunction(s)  2P renormalized

     Subspace diagonalization in iterative solution of the eigenvalue problem:
     a serial algorithm will be used


     Parallelization info
     --------------------
     sticks:   dense  smooth     PW     G-vecs:    dense   smooth      PW
     Min         841     311     84                54858    12367    1739
     Max         842     312     86                54860    12370    1740
     Sum       20195    7485   2029              1316619   296831   41755



     bravais-lattice index     =            0
     lattice parameter (alat)  =      19.9928  a.u.
     unit-cell volume          =    2196.3637 (a.u.)^3
     number of atoms/cell      =           25
     number of atomic types    =            4
     number of electrons       =       189.00
     number of Kohn-Sham states=          114
     kinetic-energy cutoff     =     100.0000  Ry
     charge density cutoff     =    1080.0000  Ry
     scf convergence threshold =      2.0E-10
     mixing beta               =       0.4000
     number of iterations used =            8  plain     mixing
     Exchange-correlation= PBE
                           (   1   4   3   4   0   0   0)

     celldm(1)=  19.992808  celldm(2)=   0.000000  celldm(3)=   0.000000
     celldm(4)=   0.000000  celldm(5)=   0.000000  celldm(6)=   0.000000

     crystal axes: (cart. coord. in units of alat)
               a(1) = (   1.000000   0.000000   0.000000 )  
               a(2) = (   0.000000   0.587793   0.000000 )  
               a(3) = (   0.000000   0.000000   0.467582 )  

     reciprocal axes: (cart. coord. in units 2 pi/alat)
               b(1) = (  1.000000  0.000000  0.000000 )  
               b(2) = (  0.000000  1.701278  0.000000 )  
               b(3) = (  0.000000  0.000000  2.138660 )  


     PseudoPot. # 1 for Fe read from file:
     /opt/QEpot/SSSP_precision_pseudos/Fe.pbe-spn-kjpaw_psl.0.2.1.UPF
     MD5 check sum: e86618425769142926afa95317d90200
     Pseudo is Projector augmented-wave + core cor, Zval = 16.0
     Generated using "atomic" code by A. Dal Corso  v.5.0.99 svn rev. 10869
     Shape of augmentation charge: PSQ
     Using radial grid of 1191 points,  6 beta functions with: 
                l(1) =   0
                l(2) =   0
                l(3) =   1
                l(4) =   1
                l(5) =   2
                l(6) =   2
     Q(r) pseudized with 0 coefficients 


     PseudoPot. # 2 for Na read from file:
     /opt/QEpot/SSSP_precision_pseudos/Na_ONCV_PBE-1.0.oncvpsp.upf
     MD5 check sum: 24a298df0a6742ae313db96548fdb2a4
     Pseudo is Norm-conserving, Zval =  9.0
     Generated using ONCVPSP code by D. R. Hamann
     Using radial grid of 1992 points,  4 beta functions with: 
                l(1) =   0
                l(2) =   0
                l(3) =   1
                l(4) =   1

     PseudoPot. # 3 for O  read from file:
     /opt/QEpot/SSSP_precision_pseudos/O.pbe-n-kjpaw_psl.0.1.UPF
     MD5 check sum: 0234752ac141de4415c5fc33072bef88
     Pseudo is Projector augmented-wave + core cor, Zval =  6.0
     Generated using "atomic" code by A. Dal Corso  v.5.0.99 svn rev. 10869
     Shape of augmentation charge: BESSEL
     Using radial grid of 1095 points,  4 beta functions with: 
                l(1) =   0
                l(2) =   0
                l(3) =   1
                l(4) =   1
     Q(r) pseudized with 0 coefficients 


     PseudoPot. # 4 for P  read from file:
     /opt/QEpot/SSSP_precision_pseudos/P.pbe-n-rrkjus_psl.1.0.0.UPF
     MD5 check sum: 8b930f418f0a4573dca56cd030ffe088
     Pseudo is Ultrasoft + core correction, Zval =  5.0
     Generated using "atomic" code by A. Dal Corso  v.5.1
     Using radial grid of 1147 points,  6 beta functions with: 
                l(1) =   0
                l(2) =   0
                l(3) =   1
                l(4) =   1
                l(5) =   2
                l(6) =   2
     Q(r) pseudized with 0 coefficients 


     atomic species   valence    mass     pseudopotential
        Fe            16.00    55.84500     Fe( 1.00)
        Na             9.00    22.98977     Na( 1.00)
        O              6.00    15.99940     O ( 1.00)
        P              5.00    30.97376     P ( 1.00)

     Starting magnetic structure 
     atomic species   magnetization
        Fe           0.312
        Na           0.000
        O            0.000
        P            0.000

     No symmetry found


                                    s                        frac. trans.

      isym =  1     identity                                     

 cryst.   s( 1) = (     1          0          0      )
                  (     0          1          0      )
                  (     0          0          1      )

 cart.    s( 1) = (  1.0000000  0.0000000  0.0000000 )
                  (  0.0000000  1.0000000  0.0000000 )
                  (  0.0000000  0.0000000  1.0000000 )


   Cartesian axes

     site n.     atom                  positions (alat units)
         1           Na  tau(   1) = (   0.5574590   0.1469489   0.2082509  )
         2           Fe  tau(   2) = (   0.2771150   0.4408480   0.4635570  )
         3           Fe  tau(   3) = (   0.2107060   0.1469478   0.2293296  )
         4           Fe  tau(   4) = (   0.7302140   0.1469483   0.0000500  )
         5           Fe  tau(   5) = (   0.7810190   0.4408486   0.2405847  )
         6           P   tau(   6) = (   0.1051510   0.4408468   0.2075542  )
         7           P   tau(   7) = (   0.3871250   0.1469495   0.4402523  )
         8           P   tau(   8) = (   0.8922730   0.1469495   0.2602681  )
         9           P   tau(   9) = (   0.6039150   0.4408468   0.0309142  )
        10           O   tau(  10) = (   0.1313210   0.4408474   0.3510838  )
        11           O   tau(  11) = (   0.3628270   0.1469489   0.1166992  )
        12           O   tau(  12) = (   0.8714480   0.1469489   0.1161610  )
        13           O   tau(  13) = (   0.6323650   0.4408474   0.3554375  )
        14           O   tau(  14) = (   0.4574600   0.4408474   0.0558953  )
        15           O   tau(  15) = (   0.0361810   0.1469489   0.2933692  )
        16           O   tau(  16) = (   0.5358400   0.1469483   0.4189422  )
        17           O   tau(  17) = (   0.9582930   0.4408474   0.1829309  )
        18           O   tau(  18) = (   0.1741600   0.5556211   0.1400779  )
        19           O   tau(  19) = (   0.3208130   0.0323757   0.3718248  )
        20           O   tau(  20) = (   0.8175190   0.2603061   0.3252251  )
        21           O   tau(  21) = (   0.6721860   0.3253630   0.0996390  )
        22           O   tau(  22) = (   0.8175190   0.0335930   0.3252256  )
        23           O   tau(  23) = (   0.6721870   0.5563305   0.0996400  )
        24           O   tau(  24) = (   0.1741600   0.3260725   0.1400779  )
        25           O   tau(  25) = (   0.3208140   0.2615234   0.3718258  )

   Crystallographic axes

     site n.     atom                  positions (cryst. coord.)
         1           Na  tau(   1) = (  0.5574590  0.2500010  0.4453780  )
         2           Fe  tau(   2) = (  0.2771150  0.7500050  0.9913910  )
         3           Fe  tau(   3) = (  0.2107060  0.2499990  0.4904580  )
         4           Fe  tau(   4) = (  0.7302140  0.2500000  0.0001070  )
         5           Fe  tau(   5) = (  0.7810190  0.7500060  0.5145290  )
         6           P   tau(   6) = (  0.1051510  0.7500030  0.4438880  )
         7           P   tau(   7) = (  0.3871250  0.2500020  0.9415500  )
         8           P   tau(   8) = (  0.8922730  0.2500020  0.5566250  )
         9           P   tau(   9) = (  0.6039150  0.7500030  0.0661150  )
        10           O   tau(  10) = (  0.1313210  0.7500040  0.7508490  )
        11           O   tau(  11) = (  0.3628270  0.2500010  0.2495800  )
        12           O   tau(  12) = (  0.8714480  0.2500010  0.2484290  )
        13           O   tau(  13) = (  0.6323650  0.7500040  0.7601600  )
        14           O   tau(  14) = (  0.4574600  0.7500040  0.1195410  )
        15           O   tau(  15) = (  0.0361810  0.2500010  0.6274170  )
        16           O   tau(  16) = (  0.5358400  0.2500000  0.8959750  )
        17           O   tau(  17) = (  0.9582930  0.7500040  0.3912270  )
        18           O   tau(  18) = (  0.1741600  0.9452660  0.2995790  )
        19           O   tau(  19) = (  0.3208130  0.0550800  0.7952070  )
        20           O   tau(  20) = (  0.8175190  0.4428530  0.6955460  )
        21           O   tau(  21) = (  0.6721860  0.5535330  0.2130940  )
        22           O   tau(  22) = (  0.8175190  0.0571510  0.6955470  )
        23           O   tau(  23) = (  0.6721870  0.9464730  0.2130960  )
        24           O   tau(  24) = (  0.1741600  0.5547400  0.2995790  )
        25           O   tau(  25) = (  0.3208140  0.4449240  0.7952090  )

     number of k points=   158  Marzari-Vanderbilt smearing, width (Ry)=  0.0073
                       cart. coord. in units 2pi/alat
        k(    1) = (   0.0000000   0.0000000   0.0000000), wk =   0.0031746
        k(    2) = (   0.0000000   0.0000000   0.2376289), wk =   0.0063492
        k(    3) = (   0.0000000   0.0000000   0.4752578), wk =   0.0063492
        k(    4) = (   0.0000000   0.0000000   0.7128867), wk =   0.0063492
        k(    5) = (   0.0000000   0.0000000   0.9505157), wk =   0.0063492
        k(    6) = (   0.0000000   0.2430397   0.0000000), wk =   0.0063492
        k(    7) = (   0.0000000   0.2430397   0.2376289), wk =   0.0063492
        k(    8) = (   0.0000000   0.2430397   0.4752578), wk =   0.0063492
        k(    9) = (   0.0000000   0.2430397   0.7128867), wk =   0.0063492
        k(   10) = (   0.0000000   0.2430397   0.9505157), wk =   0.0063492
        k(   11) = (   0.0000000   0.4860795   0.0000000), wk =   0.0063492
        k(   12) = (   0.0000000   0.4860795   0.2376289), wk =   0.0063492
        k(   13) = (   0.0000000   0.4860795   0.4752578), wk =   0.0063492
        k(   14) = (   0.0000000   0.4860795   0.7128867), wk =   0.0063492
        k(   15) = (   0.0000000   0.4860795   0.9505157), wk =   0.0063492
        k(   16) = (   0.0000000   0.7291192   0.0000000), wk =   0.0063492
        k(   17) = (   0.0000000   0.7291192   0.2376289), wk =   0.0063492
        k(   18) = (   0.0000000   0.7291192   0.4752578), wk =   0.0063492
        k(   19) = (   0.0000000   0.7291192   0.7128867), wk =   0.0063492
        k(   20) = (   0.0000000   0.7291192   0.9505157), wk =   0.0063492
        k(   21) = (   0.2000000   0.0000000   0.0000000), wk =   0.0063492
        k(   22) = (   0.2000000   0.0000000   0.2376289), wk =   0.0063492
        k(   23) = (   0.2000000   0.0000000   0.4752578), wk =   0.0063492
        k(   24) = (   0.2000000   0.0000000   0.7128867), wk =   0.0063492
        k(   25) = (   0.2000000   0.0000000   0.9505157), wk =   0.0063492
        k(   26) = (   0.2000000   0.2430397   0.0000000), wk =   0.0063492
        k(   27) = (   0.2000000   0.2430397   0.2376289), wk =   0.0063492
        k(   28) = (   0.2000000   0.2430397   0.4752578), wk =   0.0063492
        k(   29) = (   0.2000000   0.2430397   0.7128867), wk =   0.0063492
        k(   30) = (   0.2000000   0.2430397   0.9505157), wk =   0.0063492
        k(   31) = (   0.2000000   0.4860795   0.0000000), wk =   0.0063492
        k(   32) = (   0.2000000   0.4860795   0.2376289), wk =   0.0063492
        k(   33) = (   0.2000000   0.4860795   0.4752578), wk =   0.0063492
        k(   34) = (   0.2000000   0.4860795   0.7128867), wk =   0.0063492
        k(   35) = (   0.2000000   0.4860795   0.9505157), wk =   0.0063492
        k(   36) = (   0.2000000   0.7291192   0.0000000), wk =   0.0063492
        k(   37) = (   0.2000000   0.7291192   0.2376289), wk =   0.0063492
        k(   38) = (   0.2000000   0.7291192   0.4752578), wk =   0.0063492
        k(   39) = (   0.2000000   0.7291192   0.7128867), wk =   0.0063492
        k(   40) = (   0.2000000   0.7291192   0.9505157), wk =   0.0063492
        k(   41) = (   0.4000000   0.0000000   0.0000000), wk =   0.0063492
        k(   42) = (   0.4000000   0.0000000   0.2376289), wk =   0.0063492
        k(   43) = (   0.4000000   0.0000000   0.4752578), wk =   0.0063492
        k(   44) = (   0.4000000   0.0000000   0.7128867), wk =   0.0063492
        k(   45) = (   0.4000000   0.0000000   0.9505157), wk =   0.0063492
        k(   46) = (   0.4000000   0.2430397   0.0000000), wk =   0.0063492
        k(   47) = (   0.4000000   0.2430397   0.2376289), wk =   0.0063492
        k(   48) = (   0.4000000   0.2430397   0.4752578), wk =   0.0063492
        k(   49) = (   0.4000000   0.2430397   0.7128867), wk =   0.0063492
        k(   50) = (   0.4000000   0.2430397   0.9505157), wk =   0.0063492
        k(   51) = (   0.4000000   0.4860795   0.0000000), wk =   0.0063492
        k(   52) = (   0.4000000   0.4860795   0.2376289), wk =   0.0063492
        k(   53) = (   0.4000000   0.4860795   0.4752578), wk =   0.0063492
        k(   54) = (   0.4000000   0.4860795   0.7128867), wk =   0.0063492
        k(   55) = (   0.4000000   0.4860795   0.9505157), wk =   0.0063492
        k(   56) = (   0.4000000   0.7291192   0.0000000), wk =   0.0063492
        k(   57) = (   0.4000000   0.7291192   0.2376289), wk =   0.0063492
        k(   58) = (   0.4000000   0.7291192   0.4752578), wk =   0.0063492
        k(   59) = (   0.4000000   0.7291192   0.7128867), wk =   0.0063492
        k(   60) = (   0.4000000   0.7291192   0.9505157), wk =   0.0063492
        k(   61) = (   0.0000000  -0.2430397   0.2376289), wk =   0.0063492
        k(   62) = (   0.0000000  -0.2430397   0.4752578), wk =   0.0063492
        k(   63) = (   0.0000000  -0.2430397   0.7128867), wk =   0.0063492
        k(   64) = (   0.0000000  -0.2430397   0.9505157), wk =   0.0063492
        k(   65) = (   0.0000000  -0.4860795   0.2376289), wk =   0.0063492
        k(   66) = (   0.0000000  -0.4860795   0.4752578), wk =   0.0063492
        k(   67) = (   0.0000000  -0.4860795   0.7128867), wk =   0.0063492
        k(   68) = (   0.0000000  -0.4860795   0.9505157), wk =   0.0063492
        k(   69) = (   0.0000000  -0.7291192   0.2376289), wk =   0.0063492
        k(   70) = (   0.0000000  -0.7291192   0.4752578), wk =   0.0063492
        k(   71) = (   0.0000000  -0.7291192   0.7128867), wk =   0.0063492
        k(   72) = (   0.0000000  -0.7291192   0.9505157), wk =   0.0063492
        k(   73) = (  -0.2000000   0.0000000   0.2376289), wk =   0.0063492
        k(   74) = (  -0.2000000   0.0000000   0.4752578), wk =   0.0063492
        k(   75) = (  -0.2000000   0.0000000   0.7128867), wk =   0.0063492
        k(   76) = (  -0.2000000   0.0000000   0.9505157), wk =   0.0063492
        k(   77) = (  -0.2000000   0.2430397   0.0000000), wk =   0.0063492
        k(   78) = (  -0.2000000  -0.2430397   0.2376289), wk =   0.0063492
        k(   79) = (  -0.2000000   0.2430397  -0.2376289), wk =   0.0063492
        k(   80) = (   0.2000000  -0.2430397  -0.2376289), wk =   0.0063492
        k(   81) = (  -0.2000000  -0.2430397   0.4752578), wk =   0.0063492
        k(   82) = (  -0.2000000   0.2430397  -0.4752578), wk =   0.0063492
        k(   83) = (   0.2000000  -0.2430397  -0.4752578), wk =   0.0063492
        k(   84) = (  -0.2000000  -0.2430397   0.7128867), wk =   0.0063492
        k(   85) = (  -0.2000000   0.2430397  -0.7128867), wk =   0.0063492
        k(   86) = (   0.2000000  -0.2430397  -0.7128867), wk =   0.0063492
        k(   87) = (  -0.2000000  -0.2430397   0.9505157), wk =   0.0063492
        k(   88) = (  -0.2000000   0.2430397  -0.9505157), wk =   0.0063492
        k(   89) = (   0.2000000  -0.2430397  -0.9505157), wk =   0.0063492
        k(   90) = (  -0.2000000   0.4860795   0.0000000), wk =   0.0063492
        k(   91) = (  -0.2000000  -0.4860795   0.2376289), wk =   0.0063492
        k(   92) = (  -0.2000000   0.4860795  -0.2376289), wk =   0.0063492
        k(   93) = (   0.2000000  -0.4860795  -0.2376289), wk =   0.0063492
        k(   94) = (  -0.2000000  -0.4860795   0.4752578), wk =   0.0063492
        k(   95) = (  -0.2000000   0.4860795  -0.4752578), wk =   0.0063492
        k(   96) = (   0.2000000  -0.4860795  -0.4752578), wk =   0.0063492
        k(   97) = (  -0.2000000  -0.4860795   0.7128867), wk =   0.0063492
        k(   98) = (  -0.2000000   0.4860795  -0.7128867), wk =   0.0063492
        k(   99) = (   0.2000000  -0.4860795  -0.7128867), wk =   0.0063492
        k(  100) = (  -0.2000000  -0.4860795   0.9505157), wk =   0.0063492
        k(  101) = (  -0.2000000   0.4860795  -0.9505157), wk =   0.0063492
        k(  102) = (   0.2000000  -0.4860795  -0.9505157), wk =   0.0063492
        k(  103) = (  -0.2000000   0.7291192   0.0000000), wk =   0.0063492
        k(  104) = (  -0.2000000  -0.7291192   0.2376289), wk =   0.0063492
        k(  105) = (  -0.2000000   0.7291192  -0.2376289), wk =   0.0063492
        k(  106) = (   0.2000000  -0.7291192  -0.2376289), wk =   0.0063492
        k(  107) = (  -0.2000000  -0.7291192   0.4752578), wk =   0.0063492
        k(  108) = (  -0.2000000   0.7291192  -0.4752578), wk =   0.0063492
        k(  109) = (   0.2000000  -0.7291192  -0.4752578), wk =   0.0063492
        k(  110) = (  -0.2000000  -0.7291192   0.7128867), wk =   0.0063492
        k(  111) = (  -0.2000000   0.7291192  -0.7128867), wk =   0.0063492
        k(  112) = (   0.2000000  -0.7291192  -0.7128867), wk =   0.0063492
        k(  113) = (  -0.2000000  -0.7291192   0.9505157), wk =   0.0063492
        k(  114) = (  -0.2000000   0.7291192  -0.9505157), wk =   0.0063492
        k(  115) = (   0.2000000  -0.7291192  -0.9505157), wk =   0.0063492
        k(  116) = (  -0.4000000   0.0000000   0.2376289), wk =   0.0063492
        k(  117) = (  -0.4000000   0.0000000   0.4752578), wk =   0.0063492
        k(  118) = (  -0.4000000   0.0000000   0.7128867), wk =   0.0063492
        k(  119) = (  -0.4000000   0.0000000   0.9505157), wk =   0.0063492
        k(  120) = (  -0.4000000   0.2430397   0.0000000), wk =   0.0063492
        k(  121) = (  -0.4000000  -0.2430397   0.2376289), wk =   0.0063492
        k(  122) = (  -0.4000000   0.2430397  -0.2376289), wk =   0.0063492
        k(  123) = (   0.4000000  -0.2430397  -0.2376289), wk =   0.0063492
        k(  124) = (  -0.4000000  -0.2430397   0.4752578), wk =   0.0063492
        k(  125) = (  -0.4000000   0.2430397  -0.4752578), wk =   0.0063492
        k(  126) = (   0.4000000  -0.2430397  -0.4752578), wk =   0.0063492
        k(  127) = (  -0.4000000  -0.2430397   0.7128867), wk =   0.0063492
        k(  128) = (  -0.4000000   0.2430397  -0.7128867), wk =   0.0063492
        k(  129) = (   0.4000000  -0.2430397  -0.7128867), wk =   0.0063492
        k(  130) = (  -0.4000000  -0.2430397   0.9505157), wk =   0.0063492
        k(  131) = (  -0.4000000   0.2430397  -0.9505157), wk =   0.0063492
        k(  132) = (   0.4000000  -0.2430397  -0.9505157), wk =   0.0063492
        k(  133) = (  -0.4000000   0.4860795   0.0000000), wk =   0.0063492
        k(  134) = (  -0.4000000  -0.4860795   0.2376289), wk =   0.0063492
        k(  135) = (  -0.4000000   0.4860795  -0.2376289), wk =   0.0063492
        k(  136) = (   0.4000000  -0.4860795  -0.2376289), wk =   0.0063492
        k(  137) = (  -0.4000000  -0.4860795   0.4752578), wk =   0.0063492
        k(  138) = (  -0.4000000   0.4860795  -0.4752578), wk =   0.0063492
        k(  139) = (   0.4000000  -0.4860795  -0.4752578), wk =   0.0063492
        k(  140) = (  -0.4000000  -0.4860795   0.7128867), wk =   0.0063492
        k(  141) = (  -0.4000000   0.4860795  -0.7128867), wk =   0.0063492
        k(  142) = (   0.4000000  -0.4860795  -0.7128867), wk =   0.0063492
        k(  143) = (  -0.4000000  -0.4860795   0.9505157), wk =   0.0063492
        k(  144) = (  -0.4000000   0.4860795  -0.9505157), wk =   0.0063492
        k(  145) = (   0.4000000  -0.4860795  -0.9505157), wk =   0.0063492
        k(  146) = (  -0.4000000   0.7291192   0.0000000), wk =   0.0063492
        k(  147) = (  -0.4000000  -0.7291192   0.2376289), wk =   0.0063492
        k(  148) = (  -0.4000000   0.7291192  -0.2376289), wk =   0.0063492
        k(  149) = (   0.4000000  -0.7291192  -0.2376289), wk =   0.0063492
        k(  150) = (  -0.4000000  -0.7291192   0.4752578), wk =   0.0063492
        k(  151) = (  -0.4000000   0.7291192  -0.4752578), wk =   0.0063492
        k(  152) = (   0.4000000  -0.7291192  -0.4752578), wk =   0.0063492
        k(  153) = (  -0.4000000  -0.7291192   0.7128867), wk =   0.0063492
        k(  154) = (  -0.4000000   0.7291192  -0.7128867), wk =   0.0063492
        k(  155) = (   0.4000000  -0.7291192  -0.7128867), wk =   0.0063492
        k(  156) = (  -0.4000000  -0.7291192   0.9505157), wk =   0.0063492
        k(  157) = (  -0.4000000   0.7291192  -0.9505157), wk =   0.0063492
        k(  158) = (   0.4000000  -0.7291192  -0.9505157), wk =   0.0063492

                       cryst. coord.
        k(    1) = (   0.0000000   0.0000000   0.0000000), wk =   0.0031746
        k(    2) = (   0.0000000   0.0000000   0.1111111), wk =   0.0063492
        k(    3) = (   0.0000000   0.0000000   0.2222222), wk =   0.0063492
        k(    4) = (   0.0000000   0.0000000   0.3333333), wk =   0.0063492
        k(    5) = (   0.0000000   0.0000000   0.4444444), wk =   0.0063492
        k(    6) = (   0.0000000   0.1428571   0.0000000), wk =   0.0063492
        k(    7) = (   0.0000000   0.1428571   0.1111111), wk =   0.0063492
        k(    8) = (   0.0000000   0.1428571   0.2222222), wk =   0.0063492
        k(    9) = (   0.0000000   0.1428571   0.3333333), wk =   0.0063492
        k(   10) = (   0.0000000   0.1428571   0.4444444), wk =   0.0063492
        k(   11) = (   0.0000000   0.2857143   0.0000000), wk =   0.0063492
        k(   12) = (   0.0000000   0.2857143   0.1111111), wk =   0.0063492
        k(   13) = (   0.0000000   0.2857143   0.2222222), wk =   0.0063492
        k(   14) = (   0.0000000   0.2857143   0.3333333), wk =   0.0063492
        k(   15) = (   0.0000000   0.2857143   0.4444444), wk =   0.0063492
        k(   16) = (   0.0000000   0.4285714   0.0000000), wk =   0.0063492
        k(   17) = (   0.0000000   0.4285714   0.1111111), wk =   0.0063492
        k(   18) = (   0.0000000   0.4285714   0.2222222), wk =   0.0063492
        k(   19) = (   0.0000000   0.4285714   0.3333333), wk =   0.0063492
        k(   20) = (   0.0000000   0.4285714   0.4444444), wk =   0.0063492
        k(   21) = (   0.2000000   0.0000000   0.0000000), wk =   0.0063492
        k(   22) = (   0.2000000   0.0000000   0.1111111), wk =   0.0063492
        k(   23) = (   0.2000000   0.0000000   0.2222222), wk =   0.0063492
        k(   24) = (   0.2000000   0.0000000   0.3333333), wk =   0.0063492
        k(   25) = (   0.2000000   0.0000000   0.4444444), wk =   0.0063492
        k(   26) = (   0.2000000   0.1428571   0.0000000), wk =   0.0063492
        k(   27) = (   0.2000000   0.1428571   0.1111111), wk =   0.0063492
        k(   28) = (   0.2000000   0.1428571   0.2222222), wk =   0.0063492
        k(   29) = (   0.2000000   0.1428571   0.3333333), wk =   0.0063492
        k(   30) = (   0.2000000   0.1428571   0.4444444), wk =   0.0063492
        k(   31) = (   0.2000000   0.2857143   0.0000000), wk =   0.0063492
        k(   32) = (   0.2000000   0.2857143   0.1111111), wk =   0.0063492
        k(   33) = (   0.2000000   0.2857143   0.2222222), wk =   0.0063492
        k(   34) = (   0.2000000   0.2857143   0.3333333), wk =   0.0063492
        k(   35) = (   0.2000000   0.2857143   0.4444444), wk =   0.0063492
        k(   36) = (   0.2000000   0.4285714   0.0000000), wk =   0.0063492
        k(   37) = (   0.2000000   0.4285714   0.1111111), wk =   0.0063492
        k(   38) = (   0.2000000   0.4285714   0.2222222), wk =   0.0063492
        k(   39) = (   0.2000000   0.4285714   0.3333333), wk =   0.0063492
        k(   40) = (   0.2000000   0.4285714   0.4444444), wk =   0.0063492
        k(   41) = (   0.4000000   0.0000000   0.0000000), wk =   0.0063492
        k(   42) = (   0.4000000   0.0000000   0.1111111), wk =   0.0063492
        k(   43) = (   0.4000000   0.0000000   0.2222222), wk =   0.0063492
        k(   44) = (   0.4000000   0.0000000   0.3333333), wk =   0.0063492
        k(   45) = (   0.4000000   0.0000000   0.4444444), wk =   0.0063492
        k(   46) = (   0.4000000   0.1428571   0.0000000), wk =   0.0063492
        k(   47) = (   0.4000000   0.1428571   0.1111111), wk =   0.0063492
        k(   48) = (   0.4000000   0.1428571   0.2222222), wk =   0.0063492
        k(   49) = (   0.4000000   0.1428571   0.3333333), wk =   0.0063492
        k(   50) = (   0.4000000   0.1428571   0.4444444), wk =   0.0063492
        k(   51) = (   0.4000000   0.2857143   0.0000000), wk =   0.0063492
        k(   52) = (   0.4000000   0.2857143   0.1111111), wk =   0.0063492
        k(   53) = (   0.4000000   0.2857143   0.2222222), wk =   0.0063492
        k(   54) = (   0.4000000   0.2857143   0.3333333), wk =   0.0063492
        k(   55) = (   0.4000000   0.2857143   0.4444444), wk =   0.0063492
        k(   56) = (   0.4000000   0.4285714   0.0000000), wk =   0.0063492
        k(   57) = (   0.4000000   0.4285714   0.1111111), wk =   0.0063492
        k(   58) = (   0.4000000   0.4285714   0.2222222), wk =   0.0063492
        k(   59) = (   0.4000000   0.4285714   0.3333333), wk =   0.0063492
        k(   60) = (   0.4000000   0.4285714   0.4444444), wk =   0.0063492
        k(   61) = (   0.0000000  -0.1428571   0.1111111), wk =   0.0063492
        k(   62) = (   0.0000000  -0.1428571   0.2222222), wk =   0.0063492
        k(   63) = (   0.0000000  -0.1428571   0.3333333), wk =   0.0063492
        k(   64) = (   0.0000000  -0.1428571   0.4444444), wk =   0.0063492
        k(   65) = (   0.0000000  -0.2857143   0.1111111), wk =   0.0063492
        k(   66) = (   0.0000000  -0.2857143   0.2222222), wk =   0.0063492
        k(   67) = (   0.0000000  -0.2857143   0.3333333), wk =   0.0063492
        k(   68) = (   0.0000000  -0.2857143   0.4444444), wk =   0.0063492
        k(   69) = (   0.0000000  -0.4285714   0.1111111), wk =   0.0063492
        k(   70) = (   0.0000000  -0.4285714   0.2222222), wk =   0.0063492
        k(   71) = (   0.0000000  -0.4285714   0.3333333), wk =   0.0063492
        k(   72) = (   0.0000000  -0.4285714   0.4444444), wk =   0.0063492
        k(   73) = (  -0.2000000   0.0000000   0.1111111), wk =   0.0063492
        k(   74) = (  -0.2000000   0.0000000   0.2222222), wk =   0.0063492
        k(   75) = (  -0.2000000   0.0000000   0.3333333), wk =   0.0063492
        k(   76) = (  -0.2000000   0.0000000   0.4444444), wk =   0.0063492
        k(   77) = (  -0.2000000   0.1428571   0.0000000), wk =   0.0063492
        k(   78) = (  -0.2000000  -0.1428571   0.1111111), wk =   0.0063492
        k(   79) = (  -0.2000000   0.1428571  -0.1111111), wk =   0.0063492
        k(   80) = (   0.2000000  -0.1428571  -0.1111111), wk =   0.0063492
        k(   81) = (  -0.2000000  -0.1428571   0.2222222), wk =   0.0063492
        k(   82) = (  -0.2000000   0.1428571  -0.2222222), wk =   0.0063492
        k(   83) = (   0.2000000  -0.1428571  -0.2222222), wk =   0.0063492
        k(   84) = (  -0.2000000  -0.1428571   0.3333333), wk =   0.0063492
        k(   85) = (  -0.2000000   0.1428571  -0.3333333), wk =   0.0063492
        k(   86) = (   0.2000000  -0.1428571  -0.3333333), wk =   0.0063492
        k(   87) = (  -0.2000000  -0.1428571   0.4444444), wk =   0.0063492
        k(   88) = (  -0.2000000   0.1428571  -0.4444444), wk =   0.0063492
        k(   89) = (   0.2000000  -0.1428571  -0.4444444), wk =   0.0063492
        k(   90) = (  -0.2000000   0.2857143   0.0000000), wk =   0.0063492
        k(   91) = (  -0.2000000  -0.2857143   0.1111111), wk =   0.0063492
        k(   92) = (  -0.2000000   0.2857143  -0.1111111), wk =   0.0063492
        k(   93) = (   0.2000000  -0.2857143  -0.1111111), wk =   0.0063492
        k(   94) = (  -0.2000000  -0.2857143   0.2222222), wk =   0.0063492
        k(   95) = (  -0.2000000   0.2857143  -0.2222222), wk =   0.0063492
        k(   96) = (   0.2000000  -0.2857143  -0.2222222), wk =   0.0063492
        k(   97) = (  -0.2000000  -0.2857143   0.3333333), wk =   0.0063492
        k(   98) = (  -0.2000000   0.2857143  -0.3333333), wk =   0.0063492
        k(   99) = (   0.2000000  -0.2857143  -0.3333333), wk =   0.0063492
        k(  100) = (  -0.2000000  -0.2857143   0.4444444), wk =   0.0063492
        k(  101) = (  -0.2000000   0.2857143  -0.4444444), wk =   0.0063492
        k(  102) = (   0.2000000  -0.2857143  -0.4444444), wk =   0.0063492
        k(  103) = (  -0.2000000   0.4285714   0.0000000), wk =   0.0063492
        k(  104) = (  -0.2000000  -0.4285714   0.1111111), wk =   0.0063492
        k(  105) = (  -0.2000000   0.4285714  -0.1111111), wk =   0.0063492
        k(  106) = (   0.2000000  -0.4285714  -0.1111111), wk =   0.0063492
        k(  107) = (  -0.2000000  -0.4285714   0.2222222), wk =   0.0063492
        k(  108) = (  -0.2000000   0.4285714  -0.2222222), wk =   0.0063492
        k(  109) = (   0.2000000  -0.4285714  -0.2222222), wk =   0.0063492
        k(  110) = (  -0.2000000  -0.4285714   0.3333333), wk =   0.0063492
        k(  111) = (  -0.2000000   0.4285714  -0.3333333), wk =   0.0063492
        k(  112) = (   0.2000000  -0.4285714  -0.3333333), wk =   0.0063492
        k(  113) = (  -0.2000000  -0.4285714   0.4444444), wk =   0.0063492
        k(  114) = (  -0.2000000   0.4285714  -0.4444444), wk =   0.0063492
        k(  115) = (   0.2000000  -0.4285714  -0.4444444), wk =   0.0063492
        k(  116) = (  -0.4000000   0.0000000   0.1111111), wk =   0.0063492
        k(  117) = (  -0.4000000   0.0000000   0.2222222), wk =   0.0063492
        k(  118) = (  -0.4000000   0.0000000   0.3333333), wk =   0.0063492
        k(  119) = (  -0.4000000   0.0000000   0.4444444), wk =   0.0063492
        k(  120) = (  -0.4000000   0.1428571   0.0000000), wk =   0.0063492
        k(  121) = (  -0.4000000  -0.1428571   0.1111111), wk =   0.0063492
        k(  122) = (  -0.4000000   0.1428571  -0.1111111), wk =   0.0063492
        k(  123) = (   0.4000000  -0.1428571  -0.1111111), wk =   0.0063492
        k(  124) = (  -0.4000000  -0.1428571   0.2222222), wk =   0.0063492
        k(  125) = (  -0.4000000   0.1428571  -0.2222222), wk =   0.0063492
        k(  126) = (   0.4000000  -0.1428571  -0.2222222), wk =   0.0063492
        k(  127) = (  -0.4000000  -0.1428571   0.3333333), wk =   0.0063492
        k(  128) = (  -0.4000000   0.1428571  -0.3333333), wk =   0.0063492
        k(  129) = (   0.4000000  -0.1428571  -0.3333333), wk =   0.0063492
        k(  130) = (  -0.4000000  -0.1428571   0.4444444), wk =   0.0063492
        k(  131) = (  -0.4000000   0.1428571  -0.4444444), wk =   0.0063492
        k(  132) = (   0.4000000  -0.1428571  -0.4444444), wk =   0.0063492
        k(  133) = (  -0.4000000   0.2857143   0.0000000), wk =   0.0063492
        k(  134) = (  -0.4000000  -0.2857143   0.1111111), wk =   0.0063492
        k(  135) = (  -0.4000000   0.2857143  -0.1111111), wk =   0.0063492
        k(  136) = (   0.4000000  -0.2857143  -0.1111111), wk =   0.0063492
        k(  137) = (  -0.4000000  -0.2857143   0.2222222), wk =   0.0063492
        k(  138) = (  -0.4000000   0.2857143  -0.2222222), wk =   0.0063492
        k(  139) = (   0.4000000  -0.2857143  -0.2222222), wk =   0.0063492
        k(  140) = (  -0.4000000  -0.2857143   0.3333333), wk =   0.0063492
        k(  141) = (  -0.4000000   0.2857143  -0.3333333), wk =   0.0063492
        k(  142) = (   0.4000000  -0.2857143  -0.3333333), wk =   0.0063492
        k(  143) = (  -0.4000000  -0.2857143   0.4444444), wk =   0.0063492
        k(  144) = (  -0.4000000   0.2857143  -0.4444444), wk =   0.0063492
        k(  145) = (   0.4000000  -0.2857143  -0.4444444), wk =   0.0063492
        k(  146) = (  -0.4000000   0.4285714   0.0000000), wk =   0.0063492
        k(  147) = (  -0.4000000  -0.4285714   0.1111111), wk =   0.0063492
        k(  148) = (  -0.4000000   0.4285714  -0.1111111), wk =   0.0063492
        k(  149) = (   0.4000000  -0.4285714  -0.1111111), wk =   0.0063492
        k(  150) = (  -0.4000000  -0.4285714   0.2222222), wk =   0.0063492
        k(  151) = (  -0.4000000   0.4285714  -0.2222222), wk =   0.0063492
        k(  152) = (   0.4000000  -0.4285714  -0.2222222), wk =   0.0063492
        k(  153) = (  -0.4000000  -0.4285714   0.3333333), wk =   0.0063492
        k(  154) = (  -0.4000000   0.4285714  -0.3333333), wk =   0.0063492
        k(  155) = (   0.4000000  -0.4285714  -0.3333333), wk =   0.0063492
        k(  156) = (  -0.4000000  -0.4285714   0.4444444), wk =   0.0063492
        k(  157) = (  -0.4000000   0.4285714  -0.4444444), wk =   0.0063492
        k(  158) = (   0.4000000  -0.4285714  -0.4444444), wk =   0.0063492

     Dense  grid:  1316619 G-vectors     FFT dimensions: ( 216, 125, 100)

     Smooth grid:   296831 G-vectors     FFT dimensions: ( 128,  75,  60)

     Dynamical RAM for                 wfc:       2.69 MB

     Dynamical RAM for     wfc (w. buffer):     851.95 MB

     Dynamical RAM for           str. fact:       3.35 MB

     Dynamical RAM for           local pot:       0.00 MB

     Dynamical RAM for          nlocal pot:       6.60 MB

     Dynamical RAM for                qrad:      10.54 MB

     Dynamical RAM for          rho,v,vnew:      11.20 MB

     Dynamical RAM for               rhoin:       3.73 MB

     Dynamical RAM for            rho*nmix:      26.79 MB

     Dynamical RAM for           G-vectors:       3.23 MB

     Dynamical RAM for          h,s,v(r/c):       2.38 MB

     Dynamical RAM for          <psi|beta>:       0.49 MB

     Dynamical RAM for                 psi:       5.38 MB

     Dynamical RAM for                hpsi:       5.38 MB

     Dynamical RAM for                spsi:       5.38 MB

     Dynamical RAM for      wfcinit/wfcrot:       6.89 MB

     Dynamical RAM for           addusdens:     169.93 MB

     Dynamical RAM for          addusforce:     195.17 MB

     Dynamical RAM for         addusstress:     169.51 MB

     Estimated static dynamical RAM per process >     927.76 MB

     Estimated max dynamical RAM per process >       1.10 GB

     Estimated total dynamical RAM >      26.32 GB

     Check: negative core charge=   -0.000003
     Generating pointlists ...
     new r_m :   0.0754 (alat units)  1.5079 (a.u.) for type    1
     new r_m :   0.0874 (alat units)  1.7467 (a.u.) for type    2
     new r_m :   0.0601 (alat units)  1.2008 (a.u.) for type    3
     new r_m :   0.0601 (alat units)  1.2008 (a.u.) for type    4

     Initial potential from superposition of free atoms

     starting charge  188.99132, renormalised to  189.00000
     Starting wfcs are  137 randomized atomic wfcs
     Checking if some PAW data can be deallocated... 
       PAW data deallocated on   20 nodes for type:  1
       PAW data deallocated on    8 nodes for type:  3

     total cpu time spent up to now is      193.7 secs

     Self-consistent Calculation

     iteration #  1     ecut=   100.00 Ry     beta= 0.40
     Davidson diagonalization with overlap
     ethr =  1.00E-02,  avg # of iterations =  3.0

     negative rho (up, down):  0.000E+00 9.946E-05

     total cpu time spent up to now is      806.5 secs

     total energy              =   -2123.81748523 Ry
     estimated scf accuracy    <       7.09957549 Ry

     total magnetization       =    19.00 Bohr mag/cell
     absolute magnetization    =    19.00 Bohr mag/cell

     iteration #  2     ecut=   100.00 Ry     beta= 0.40
     Davidson diagonalization with overlap
     ethr =  3.76E-03,  avg # of iterations =  2.0

     negative rho (up, down):  0.000E+00 4.068E-05

     total cpu time spent up to now is     1365.7 secs

     total energy              =   -2120.32801075 Ry
     estimated scf accuracy    <      51.20900564 Ry

     total magnetization       =     6.42 Bohr mag/cell
     absolute magnetization    =     7.91 Bohr mag/cell

     iteration #  3     ecut=   100.00 Ry     beta= 0.40
     Davidson diagonalization with overlap
     ethr =  3.76E-03,  avg # of iterations =  2.9

     negative rho (up, down):  0.000E+00 2.921E-05

     total cpu time spent up to now is     1867.2 secs

     total energy              =   -2123.32556457 Ry
     estimated scf accuracy    <      58.47170047 Ry

     total magnetization       =     3.98 Bohr mag/cell
     absolute magnetization    =     8.01 Bohr mag/cell

     iteration #  4     ecut=   100.00 Ry     beta= 0.40
     Davidson diagonalization with overlap
     ethr =  3.76E-03,  avg # of iterations =  1.5

     negative rho (up, down):  0.000E+00 2.227E-05

     total cpu time spent up to now is     2301.2 secs

     total energy              =   -2124.54314148 Ry
     estimated scf accuracy    <      30.71573131 Ry

     total magnetization       =     9.00 Bohr mag/cell
     absolute magnetization    =     9.35 Bohr mag/cell

     iteration #  5     ecut=   100.00 Ry     beta= 0.40
     Davidson diagonalization with overlap
     ethr =  3.76E-03,  avg # of iterations =  2.0

     negative rho (up, down):  0.000E+00 1.067E-04

     total cpu time spent up to now is     3087.0 secs

     total energy              =   -2125.98456664 Ry
     estimated scf accuracy    <       1.84166159 Ry

     total magnetization       =    19.03 Bohr mag/cell
     absolute magnetization    =    19.03 Bohr mag/cell

     iteration #  6     ecut=   100.00 Ry     beta= 0.40
     Davidson diagonalization with overlap
     ethr =  9.74E-04,  avg # of iterations =  2.0

     negative rho (up, down):  0.000E+00 1.904E-04

     total cpu time spent up to now is     3574.0 secs

     total energy              =   -2126.03865609 Ry
     estimated scf accuracy    <       0.66378332 Ry

     total magnetization       =    19.00 Bohr mag/cell
     absolute magnetization    =    19.00 Bohr mag/cell

     iteration #  7     ecut=   100.00 Ry     beta= 0.40
     Davidson diagonalization with overlap
     ethr =  3.51E-04,  avg # of iterations =  2.0

     negative rho (up, down):  0.000E+00 3.077E-04

     total cpu time spent up to now is     4036.9 secs

     total energy              =   -2126.08559160 Ry
     estimated scf accuracy    <       0.53583619 Ry

     total magnetization       =    19.05 Bohr mag/cell
     absolute magnetization    =    19.05 Bohr mag/cell

     iteration #  8     ecut=   100.00 Ry     beta= 0.40
     Davidson diagonalization with overlap
     ethr =  2.84E-04,  avg # of iterations =  1.0

     negative rho (up, down):  0.000E+00 4.488E-04

     total cpu time spent up to now is     4432.8 secs

     total energy              =   -2126.08791655 Ry
     estimated scf accuracy    <       0.38812152 Ry

     total magnetization       =    19.00 Bohr mag/cell
     absolute magnetization    =    19.01 Bohr mag/cell

     iteration #  9     ecut=   100.00 Ry     beta= 0.40
     Davidson diagonalization with overlap
     ethr =  2.05E-04,  avg # of iterations =  2.5

     negative rho (up, down):  0.000E+00 6.825E-04

     total cpu time spent up to now is     4885.3 secs

     total energy              =   -2126.08885919 Ry
     estimated scf accuracy    <       0.22516947 Ry

     total magnetization       =    19.00 Bohr mag/cell
     absolute magnetization    =    19.01 Bohr mag/cell

     iteration # 10     ecut=   100.00 Ry     beta= 0.40
     Davidson diagonalization with overlap
     c_bands:  1 eigenvalues not converged
     ethr =  1.19E-04,  avg # of iterations =  6.2

     negative rho (up, down):  0.000E+00 7.463E-04

     total cpu time spent up to now is     5432.7 secs

     total energy              =   -2126.09807085 Ry
     estimated scf accuracy    <       0.07013099 Ry

     total magnetization       =    19.00 Bohr mag/cell
     absolute magnetization    =    19.02 Bohr mag/cell

     iteration # 11     ecut=   100.00 Ry     beta= 0.40
     Davidson diagonalization with overlap
     c_bands:  1 eigenvalues not converged
     c_bands:  2 eigenvalues not converged
     c_bands:  1 eigenvalues not converged
     c_bands:  1 eigenvalues not converged
     c_bands:  1 eigenvalues not converged
     c_bands:  1 eigenvalues not converged
     c_bands:  1 eigenvalues not converged
     c_bands:  1 eigenvalues not converged
     c_bands:  1 eigenvalues not converged
     c_bands:  2 eigenvalues not converged
     c_bands:  1 eigenvalues not converged
     c_bands:  1 eigenvalues not converged
     c_bands:  1 eigenvalues not converged
     c_bands:  1 eigenvalues not converged
     c_bands:  1 eigenvalues not converged
     c_bands:  1 eigenvalues not converged
     ethr =  3.71E-05,  avg # of iterations = 12.7

     negative rho (up, down):  0.000E+00 9.728E-04

     total cpu time spent up to now is     6278.8 secs

     total energy              =   -2126.10387366 Ry
     estimated scf accuracy    <       0.06244425 Ry

     total magnetization       =    19.00 Bohr mag/cell
     absolute magnetization    =    19.02 Bohr mag/cell

     iteration # 12     ecut=   100.00 Ry     beta= 0.40
     Davidson diagonalization with overlap
     ethr =  3.30E-05,  avg # of iterations =  1.1

     negative rho (up, down):  0.000E+00 9.686E-04

     total cpu time spent up to now is     6675.3 secs

     total energy              =   -2126.10091929 Ry
     estimated scf accuracy    <       0.19617991 Ry

     total magnetization       =    19.00 Bohr mag/cell
     absolute magnetization    =    19.03 Bohr mag/cell

     iteration # 13     ecut=   100.00 Ry     beta= 0.40
     Davidson diagonalization with overlap
     ethr =  3.30E-05,  avg # of iterations =  1.0

     negative rho (up, down):  0.000E+00 9.884E-04

     total cpu time spent up to now is     7072.0 secs

     total energy              =   -2126.10637755 Ry
     estimated scf accuracy    <       0.04536525 Ry

     total magnetization       =    19.00 Bohr mag/cell
     absolute magnetization    =    19.04 Bohr mag/cell

     iteration # 14     ecut=   100.00 Ry     beta= 0.40
     Davidson diagonalization with overlap
     ethr =  2.40E-05,  avg # of iterations =  1.1

     negative rho (up, down):  0.000E+00 9.638E-04

     total cpu time spent up to now is     7467.0 secs

     total energy              =   -2126.10661416 Ry
     estimated scf accuracy    <       0.05415268 Ry

     total magnetization       =    19.00 Bohr mag/cell
     absolute magnetization    =    19.04 Bohr mag/cell

     iteration # 15     ecut=   100.00 Ry     beta= 0.40
     Davidson diagonalization with overlap
     ethr =  2.40E-05,  avg # of iterations =  1.0

     negative rho (up, down):  0.000E+00 9.775E-04

     total cpu time spent up to now is     7856.9 secs

     total energy              =   -2126.10723460 Ry
     estimated scf accuracy    <       0.00919548 Ry

     total magnetization       =    19.00 Bohr mag/cell
     absolute magnetization    =    19.04 Bohr mag/cell

     iteration # 16     ecut=   100.00 Ry     beta= 0.40
     Davidson diagonalization with overlap
     c_bands:  1 eigenvalues not converged
     c_bands:  1 eigenvalues not converged
     c_bands:  1 eigenvalues not converged
     c_bands:  1 eigenvalues not converged
     c_bands:  1 eigenvalues not converged
     c_bands:  1 eigenvalues not converged
     c_bands:  1 eigenvalues not converged
     c_bands:  1 eigenvalues not converged
     c_bands:  1 eigenvalues not converged
     c_bands:  1 eigenvalues not converged
     c_bands:  1 eigenvalues not converged
     c_bands:  1 eigenvalues not converged
     c_bands:  1 eigenvalues not converged
     c_bands:  1 eigenvalues not converged
     ethr =  4.87E-06,  avg # of iterations =  6.0

     negative rho (up, down):  0.000E+00 9.833E-04

     total cpu time spent up to now is     8376.8 secs

     total energy              =   -2126.10743804 Ry
     estimated scf accuracy    <       0.00433884 Ry

     total magnetization       =    19.00 Bohr mag/cell
     absolute magnetization    =    19.05 Bohr mag/cell

     iteration # 17     ecut=   100.00 Ry     beta= 0.40
     Davidson diagonalization with overlap
     c_bands:  1 eigenvalues not converged
     c_bands:  1 eigenvalues not converged
     c_bands:  1 eigenvalues not converged
     c_bands:  1 eigenvalues not converged
     c_bands:  1 eigenvalues not converged
     c_bands:  1 eigenvalues not converged
     c_bands:  1 eigenvalues not converged
     c_bands:  1 eigenvalues not converged
     c_bands:  1 eigenvalues not converged
     c_bands:  1 eigenvalues not converged
     c_bands:  1 eigenvalues not converged
     c_bands:  1 eigenvalues not converged
     c_bands:  1 eigenvalues not converged
     c_bands:  1 eigenvalues not converged
     c_bands:  1 eigenvalues not converged
     c_bands:  1 eigenvalues not converged
     ethr =  2.30E-06,  avg # of iterations =  6.0

     negative rho (up, down):  0.000E+00 9.780E-04

     total cpu time spent up to now is     8913.6 secs

     total energy              =   -2126.10756213 Ry
     estimated scf accuracy    <       0.00085477 Ry

     total magnetization       =    19.00 Bohr mag/cell
     absolute magnetization    =    19.05 Bohr mag/cell

     iteration # 18     ecut=   100.00 Ry     beta= 0.40
     Davidson diagonalization with overlap
     c_bands:  1 eigenvalues not converged
     c_bands:  1 eigenvalues not converged
     ethr =  4.52E-07,  avg # of iterations =  4.1

     negative rho (up, down):  0.000E+00 9.700E-04

     total cpu time spent up to now is     9485.8 secs

     total energy              =   -2126.10774660 Ry
     estimated scf accuracy    <       0.00003279 Ry

     total magnetization       =    19.00 Bohr mag/cell
     absolute magnetization    =    19.05 Bohr mag/cell

     iteration # 19     ecut=   100.00 Ry     beta= 0.40
     Davidson diagonalization with overlap
     c_bands:  1 eigenvalues not converged
     ethr =  1.73E-08,  avg # of iterations =  5.4

     negative rho (up, down):  0.000E+00 9.653E-04

     total cpu time spent up to now is    10476.7 secs

     total energy              =   -2126.10778830 Ry
     estimated scf accuracy    <       0.00012777 Ry

     total magnetization       =    19.00 Bohr mag/cell
     absolute magnetization    =    19.05 Bohr mag/cell

     iteration # 20     ecut=   100.00 Ry     beta= 0.40
     Davidson diagonalization with overlap
     ethr =  1.73E-08,  avg # of iterations =  2.0

     negative rho (up, down):  0.000E+00 9.655E-04

     total cpu time spent up to now is    10976.0 secs

     total energy              =   -2126.10779319 Ry
     estimated scf accuracy    <       0.00004418 Ry

     total magnetization       =    19.00 Bohr mag/cell
     absolute magnetization    =    19.05 Bohr mag/cell

     iteration # 21     ecut=   100.00 Ry     beta= 0.40
     Davidson diagonalization with overlap
     ethr =  1.73E-08,  avg # of iterations =  1.0

     negative rho (up, down):  0.000E+00 9.640E-04

     total cpu time spent up to now is    11366.5 secs

     total energy              =   -2126.10779595 Ry
     estimated scf accuracy    <       0.00001055 Ry

     total magnetization       =    19.00 Bohr mag/cell
     absolute magnetization    =    19.05 Bohr mag/cell

     iteration # 22     ecut=   100.00 Ry     beta= 0.40
     Davidson diagonalization with overlap
     ethr =  5.58E-09,  avg # of iterations =  2.0

     negative rho (up, down):  0.000E+00 9.642E-04

     total cpu time spent up to now is    11818.2 secs

     total energy              =   -2126.10779714 Ry
     estimated scf accuracy    <       0.00000674 Ry

     total magnetization       =    19.00 Bohr mag/cell
     absolute magnetization    =    19.05 Bohr mag/cell

     iteration # 23     ecut=   100.00 Ry     beta= 0.40
     Davidson diagonalization with overlap
     ethr =  3.57E-09,  avg # of iterations =  1.4

     negative rho (up, down):  0.000E+00 9.653E-04

     total cpu time spent up to now is    12233.7 secs

     total energy              =   -2126.10779760 Ry
     estimated scf accuracy    <       0.00000251 Ry

     total magnetization       =    19.00 Bohr mag/cell
     absolute magnetization    =    19.05 Bohr mag/cell

     iteration # 24     ecut=   100.00 Ry     beta= 0.40
     Davidson diagonalization with overlap
     ethr =  1.33E-09,  avg # of iterations =  2.0

     negative rho (up, down):  0.000E+00 9.659E-04

     total cpu time spent up to now is    12701.7 secs

     total energy              =   -2126.10779797 Ry
     estimated scf accuracy    <       0.00000034 Ry

     total magnetization       =    19.00 Bohr mag/cell
     absolute magnetization    =    19.05 Bohr mag/cell

     iteration # 25     ecut=   100.00 Ry     beta= 0.40
     Davidson diagonalization with overlap
     ethr =  1.80E-10,  avg # of iterations =  4.5

     negative rho (up, down):  0.000E+00 9.667E-04

     total cpu time spent up to now is    13281.7 secs

     total energy              =   -2126.10779811 Ry
     estimated scf accuracy    <       0.00000017 Ry

     total magnetization       =    19.00 Bohr mag/cell
     absolute magnetization    =    19.05 Bohr mag/cell

     iteration # 26     ecut=   100.00 Ry     beta= 0.40
     Davidson diagonalization with overlap
     ethr =  9.07E-11,  avg # of iterations =  2.2

     negative rho (up, down):  0.000E+00 9.670E-04

     total cpu time spent up to now is    13768.7 secs

     total energy              =   -2126.10779817 Ry
     estimated scf accuracy    <       0.00000008 Ry

     total magnetization       =    19.00 Bohr mag/cell
     absolute magnetization    =    19.05 Bohr mag/cell

     iteration # 27     ecut=   100.00 Ry     beta= 0.40
     Davidson diagonalization with overlap
     ethr =  4.18E-11,  avg # of iterations =  2.6

     negative rho (up, down):  0.000E+00 9.669E-04

     total cpu time spent up to now is    14267.0 secs

     total energy              =   -2126.10779820 Ry
     estimated scf accuracy    <       0.00000011 Ry

     total magnetization       =    19.00 Bohr mag/cell
     absolute magnetization    =    19.05 Bohr mag/cell

     iteration # 28     ecut=   100.00 Ry     beta= 0.40
     Davidson diagonalization with overlap
     ethr =  4.18E-11,  avg # of iterations =  1.0

     negative rho (up, down):  0.000E+00 9.669E-04

     total cpu time spent up to now is    14658.1 secs

     total energy              =   -2126.10779821 Ry
     estimated scf accuracy    <       0.00000005 Ry

     total magnetization       =    19.00 Bohr mag/cell
     absolute magnetization    =    19.05 Bohr mag/cell

     iteration # 29     ecut=   100.00 Ry     beta= 0.40
     Davidson diagonalization with overlap
     ethr =  2.48E-11,  avg # of iterations =  2.0

     negative rho (up, down):  0.000E+00 9.669E-04

     total cpu time spent up to now is    15141.2 secs

     total energy              =   -2126.10779821 Ry
     estimated scf accuracy    <       0.00000010 Ry

     total magnetization       =    19.00 Bohr mag/cell
     absolute magnetization    =    19.05 Bohr mag/cell

     iteration # 30     ecut=   100.00 Ry     beta= 0.40
     Davidson diagonalization with overlap
     ethr =  2.48E-11,  avg # of iterations =  2.0

     negative rho (up, down):  0.000E+00 9.668E-04

     total cpu time spent up to now is    15602.6 secs

     total energy              =   -2126.10779822 Ry
     estimated scf accuracy    <       0.00000005 Ry

     total magnetization       =    19.00 Bohr mag/cell
     absolute magnetization    =    19.05 Bohr mag/cell

     iteration # 31     ecut=   100.00 Ry     beta= 0.40
     Davidson diagonalization with overlap
     ethr =  2.48E-11,  avg # of iterations =  2.0

     negative rho (up, down):  0.000E+00 9.668E-04

     total cpu time spent up to now is    16057.6 secs

     total energy              =   -2126.10779823 Ry
     estimated scf accuracy    <          1.0E-08 Ry

     total magnetization       =    19.00 Bohr mag/cell
     absolute magnetization    =    19.05 Bohr mag/cell

     iteration # 32     ecut=   100.00 Ry     beta= 0.40
     Davidson diagonalization with overlap
     ethr =  5.28E-12,  avg # of iterations =  2.8

     negative rho (up, down):  0.000E+00 9.668E-04

     total cpu time spent up to now is    16555.4 secs

     total energy              =   -2126.10779823 Ry
     estimated scf accuracy    <          4.0E-09 Ry

     total magnetization       =    19.00 Bohr mag/cell
     absolute magnetization    =    19.05 Bohr mag/cell

     iteration # 33     ecut=   100.00 Ry     beta= 0.40
     Davidson diagonalization with overlap
     ethr =  2.09E-12,  avg # of iterations =  2.7

     negative rho (up, down):  0.000E+00 9.668E-04

     total cpu time spent up to now is    17055.2 secs

     total energy              =   -2126.10779823 Ry
     estimated scf accuracy    <          4.7E-09 Ry

     total magnetization       =    19.00 Bohr mag/cell
     absolute magnetization    =    19.05 Bohr mag/cell

     iteration # 34     ecut=   100.00 Ry     beta= 0.40
     Davidson diagonalization with overlap
     ethr =  2.09E-12,  avg # of iterations =  2.0

     negative rho (up, down):  0.000E+00 9.668E-04

     total cpu time spent up to now is    17536.5 secs

     total energy              =   -2126.10779823 Ry
     estimated scf accuracy    <          1.7E-09 Ry

     total magnetization       =    19.00 Bohr mag/cell
     absolute magnetization    =    19.05 Bohr mag/cell

     iteration # 35     ecut=   100.00 Ry     beta= 0.40
     Davidson diagonalization with overlap
     ethr =  8.85E-13,  avg # of iterations =  2.0

     negative rho (up, down):  0.000E+00 9.668E-04

     total cpu time spent up to now is    18013.5 secs

     total energy              =   -2126.10779823 Ry
     estimated scf accuracy    <          5.1E-10 Ry

     total magnetization       =    19.00 Bohr mag/cell
     absolute magnetization    =    19.05 Bohr mag/cell

     iteration # 36     ecut=   100.00 Ry     beta= 0.40
     Davidson diagonalization with overlap
     ethr =  2.69E-13,  avg # of iterations =  4.1

     negative rho (up, down):  0.000E+00 9.668E-04

     total cpu time spent up to now is    18569.3 secs

     total energy              =   -2126.10779823 Ry
     estimated scf accuracy    <          2.2E-10 Ry

     total magnetization       =    19.00 Bohr mag/cell
     absolute magnetization    =    19.05 Bohr mag/cell

     iteration # 37     ecut=   100.00 Ry     beta= 0.40
     Davidson diagonalization with overlap
     ethr =  1.15E-13,  avg # of iterations =  3.1

     negative rho (up, down):  0.000E+00 9.668E-04

     Magnetic moment per site:
     atom:    1    charge:    7.8994    magn:    0.0004    constr:    0.0000
     atom:    2    charge:   12.8796    magn:    3.6859    constr:    0.0000
     atom:    3    charge:   12.8859    magn:    3.6707    constr:    0.0000
     atom:    4    charge:   12.9311    magn:    3.5583    constr:    0.0000
     atom:    5    charge:   12.8876    magn:    3.6707    constr:    0.0000
     atom:    6    charge:    0.8423    magn:    0.0102    constr:    0.0000
     atom:    7    charge:    0.8466    magn:    0.0082    constr:    0.0000
     atom:    8    charge:    0.8448    magn:    0.0111    constr:    0.0000
     atom:    9    charge:    0.8400    magn:    0.0088    constr:    0.0000
     atom:   10    charge:    4.2673    magn:    0.1365    constr:    0.0000
     atom:   11    charge:    4.2823    magn:    0.0879    constr:    0.0000
     atom:   12    charge:    4.2710    magn:    0.1241    constr:    0.0000
     atom:   13    charge:    4.2671    magn:    0.1097    constr:    0.0000
     atom:   14    charge:    4.2427    magn:    0.1185    constr:    0.0000
     atom:   15    charge:    4.2494    magn:    0.1307    constr:    0.0000
     atom:   16    charge:    4.2488    magn:    0.0755    constr:    0.0000
     atom:   17    charge:    4.2426    magn:    0.1430    constr:    0.0000
     atom:   18    charge:    4.2380    magn:    0.1519    constr:    0.0000
     atom:   19    charge:    4.2422    magn:    0.1332    constr:    0.0000
     atom:   20    charge:    4.2453    magn:    0.1452    constr:    0.0000
     atom:   21    charge:    4.2379    magn:    0.1236    constr:    0.0000
     atom:   22    charge:    4.2450    magn:    0.1452    constr:    0.0000
     atom:   23    charge:    4.2381    magn:    0.1236    constr:    0.0000
     atom:   24    charge:    4.2384    magn:    0.1519    constr:    0.0000
     atom:   25    charge:    4.2426    magn:    0.1332    constr:    0.0000

     total cpu time spent up to now is    19089.2 secs

     End of self-consistent calculation

 ------ SPIN UP ------------


          k = 0.0000 0.0000 0.0000 ( 37059 PWs)   bands (ev):

   -85.5297 -85.4895 -85.4751 -85.0623 -51.6136 -51.5973 -51.5708 -51.4783
   -51.4625 -51.4361 -51.4174 -51.4062 -51.3972 -51.3788 -51.0045 -50.7965
   -45.2939 -17.3133 -17.2555 -17.2267 -16.2961 -16.1443 -15.9409 -15.8542
   -13.9488 -13.8933 -13.7434 -13.6721 -13.6485 -13.6191 -13.5715 -13.5510
   -13.4674 -13.4564 -13.3949 -13.3611  -4.2900  -3.7841  -3.7538  -3.3332
    -2.3693  -2.0370  -2.0023  -1.8253  -1.6326  -1.5278  -1.4101  -1.3323
    -1.2785  -1.0448  -0.8583  -0.6432  -0.4954  -0.4683   0.0183   0.0652
     0.1614   0.2282   0.3527   0.5340   0.6222   0.6653   0.7957   0.8251
     0.9425   1.1077   1.1179   1.3398   1.4514   1.4635   1.5459   1.5636
     1.6799   1.8265   1.9175   2.0295   2.1082   2.1113   2.1950   2.2775
     2.4429   2.4847   2.4848   2.6282   2.7052   2.8117   2.8737   2.9923
     3.0836   3.1641   3.2005   3.2264   3.2779   3.4803   3.5168   3.6293
     3.7642   3.8095   3.9124   3.9600   4.1209   4.2038   4.5287   4.6512
     8.6832  10.7214  11.2270  11.5773  11.8047  12.6192  12.7024  13.0155
    13.1238  13.3415

     occupation numbers 
     1.0000   1.0000   1.0000   1.0000   1.0000   1.0000   1.0000   1.0000
     1.0000   1.0000   1.0000   1.0000   1.0000   1.0000   1.0000   1.0000
     1.0000   1.0000   1.0000   1.0000   1.0000   1.0000   1.0000   1.0000
     1.0000   1.0000   1.0000   1.0000   1.0000   1.0000   1.0000   1.0000
     1.0000   1.0000   1.0000   1.0000   1.0000   1.0000   1.0000   1.0000
     1.0000   1.0000   1.0000   1.0000   1.0000   1.0000   1.0000   1.0000
     1.0000   1.0000   1.0000   1.0000   1.0000   1.0000   1.0000   1.0000
     1.0000   1.0000   1.0000   1.0000   1.0000   1.0000   1.0000   1.0000
     1.0000   1.0000   1.0000   1.0000   1.0000   1.0000   1.0000   1.0000
     1.0000   1.0000   1.0000   1.0000   1.0000   1.0000   1.0000   1.0000
     1.0000   1.0000   1.0000   1.0000   1.0000   1.0000   1.0000   1.0000
     1.0000   1.0000   1.0000   1.0000   1.0000   1.0000   1.0000   1.0000
     1.0000   1.0000   1.0000   1.0000   1.0000   1.0000   1.0000   1.0000
     0.0000   0.0000   0.0000   0.0000   0.0000   0.0000   0.0000   0.0000
     0.0000   0.0000

          k = 0.0000 0.0000 0.2376 ( 37071 PWs)   bands (ev):

   -85.5297 -85.4895 -85.4751 -85.0623 -51.6136 -51.5973 -51.5708 -51.4783
   -51.4625 -51.4361 -51.4174 -51.4062 -51.3972 -51.3788 -51.0045 -50.7965
   -45.2939 -17.3133 -17.2602 -17.2266 -16.2822 -16.1347 -15.9348 -15.8505
   -13.9608 -13.9047 -13.7539 -13.6682 -13.6585 -13.6260 -13.5674 -13.5518
   -13.4652 -13.4598 -13.3968 -13.3649  -4.2674  -3.7837  -3.7456  -3.3425
    -2.3256  -2.0358  -1.9725  -1.8112  -1.6278  -1.5385  -1.4338  -1.2735
    -1.2600  -1.0129  -0.9029  -0.6168  -0.5152  -0.4754   0.0306   0.0849
     0.1619   0.2646   0.3536   0.5274   0.6109   0.6531   0.7651   0.8460
     0.9359   1.0965   1.1117   1.3241   1.4201   1.4225   1.4887   1.5421
     1.7850   1.7851   1.8541   2.0040   2.0827   2.1117   2.1686   2.3571
     2.3784   2.4974   2.5148   2.6206   2.7742   2.7956   2.8435   2.9496
     3.0912   3.1101   3.2190   3.2284   3.2556   3.5218   3.5374   3.6314
     3.7896   3.8070   3.9429   3.9552   4.1132   4.2032   4.5040   4.6300
     8.8297  10.7951  11.2683  11.5858  11.8592  12.4771  12.7849  12.9540
    13.0346  13.2303

     occupation numbers 
     1.0000   1.0000   1.0000   1.0000   1.0000   1.0000   1.0000   1.0000
     1.0000   1.0000   1.0000   1.0000   1.0000   1.0000   1.0000   1.0000
     1.0000   1.0000   1.0000   1.0000   1.0000   1.0000   1.0000   1.0000
     1.0000   1.0000   1.0000   1.0000   1.0000   1.0000   1.0000   1.0000
     1.0000   1.0000   1.0000   1.0000   1.0000   1.0000   1.0000   1.0000
     1.0000   1.0000   1.0000   1.0000   1.0000   1.0000   1.0000   1.0000
     1.0000   1.0000   1.0000   1.0000   1.0000   1.0000   1.0000   1.0000
     1.0000   1.0000   1.0000   1.0000   1.0000   1.0000   1.0000   1.0000
     1.0000   1.0000   1.0000   1.0000   1.0000   1.0000   1.0000   1.0000
     1.0000   1.0000   1.0000   1.0000   1.0000   1.0000   1.0000   1.0000
     1.0000   1.0000   1.0000   1.0000   1.0000   1.0000   1.0000   1.0000
     1.0000   1.0000   1.0000   1.0000   1.0000   1.0000   1.0000   1.0000
     1.0000   1.0000   1.0000   1.0000   1.0000   1.0000   1.0000   1.0000
     0.0000   0.0000   0.0000   0.0000   0.0000   0.0000   0.0000   0.0000
     0.0000   0.0000

          k = 0.0000 0.0000 0.4753 ( 37078 PWs)   bands (ev):

   -85.5297 -85.4895 -85.4751 -85.0623 -51.6136 -51.5973 -51.5708 -51.4783
   -51.4625 -51.4361 -51.4174 -51.4062 -51.3972 -51.3788 -51.0045 -50.7965
   -45.2939 -17.3136 -17.2713 -17.2265 -16.2457 -16.1101 -15.9184 -15.8427
   -13.9911 -13.9355 -13.7824 -13.6876 -13.6575 -13.6406 -13.5562 -13.5503
   -13.4691 -13.4600 -13.4015 -13.3751  -4.2022  -3.7834  -3.7286  -3.3795
    -2.2052  -2.0230  -1.9006  -1.7936  -1.6084  -1.5569  -1.4365  -1.2567
    -1.1147  -1.0164  -0.9258  -0.6384  -0.5373  -0.4144   0.0745   0.1295
     0.1763   0.3337   0.3667   0.5238   0.5706   0.6373   0.6800   0.8759
     0.9323   1.0585   1.1254   1.2659   1.2936   1.3513   1.4453   1.5204
     1.5881   1.7091   1.9505   1.9636   2.0401   2.0421   2.2566   2.2664
     2.4181   2.4790   2.5746   2.6246   2.6500   2.7742   2.8725   2.9285
     2.9842   3.1319   3.2581   3.2681   3.3165   3.5386   3.6025   3.6371
     3.8435   3.8568   3.9396   3.9908   4.0958   4.2094   4.4284   4.5652
     9.2211  10.9913  11.3490  11.6328  11.9983  12.3280  12.6307  12.8621
    12.8780  12.9610

     occupation numbers 
     1.0000   1.0000   1.0000   1.0000   1.0000   1.0000   1.0000   1.0000
     1.0000   1.0000   1.0000   1.0000   1.0000   1.0000   1.0000   1.0000
     1.0000   1.0000   1.0000   1.0000   1.0000   1.0000   1.0000   1.0000
     1.0000   1.0000   1.0000   1.0000   1.0000   1.0000   1.0000   1.0000
     1.0000   1.0000   1.0000   1.0000   1.0000   1.0000   1.0000   1.0000
     1.0000   1.0000   1.0000   1.0000   1.0000   1.0000   1.0000   1.0000
     1.0000   1.0000   1.0000   1.0000   1.0000   1.0000   1.0000   1.0000
     1.0000   1.0000   1.0000   1.0000   1.0000   1.0000   1.0000   1.0000
     1.0000   1.0000   1.0000   1.0000   1.0000   1.0000   1.0000   1.0000
     1.0000   1.0000   1.0000   1.0000   1.0000   1.0000   1.0000   1.0000
     1.0000   1.0000   1.0000   1.0000   1.0000   1.0000   1.0000   1.0000
     1.0000   1.0000   1.0000   1.0000   1.0000   1.0000   1.0000   1.0000
     1.0000   1.0000   1.0000   1.0000   1.0000   1.0000   1.0000   1.0000
     0.0000   0.0000   0.0000   0.0000   0.0000   0.0000   0.0000   0.0000
     0.0000   0.0000

          k = 0.0000 0.0000 0.7129 ( 37102 PWs)   bands (ev):

   -85.5297 -85.4895 -85.4751 -85.0623 -51.6136 -51.5973 -51.5708 -51.4783
   -51.4625 -51.4361 -51.4174 -51.4062 -51.3972 -51.3788 -51.0045 -50.7965
   -45.2939 -17.3154 -17.2820 -17.2264 -16.2012 -16.0822 -15.8967 -15.8379
   -14.0258 -13.9725 -13.8174 -13.7275 -13.6507 -13.6439 -13.5451 -13.5418
   -13.4810 -13.4543 -13.4064 -13.3887  -4.1041  -3.7999  -3.7046  -3.4489
    -2.0789  -1.9662  -1.8414  -1.7754  -1.5676  -1.5641  -1.4200  -1.2501
    -1.1250  -0.9499  -0.8077  -0.7992  -0.4018  -0.2983   0.1478   0.1880
     0.1927   0.3157   0.4397   0.4935   0.5473   0.5603   0.6597   0.8668
     0.9522   0.9924   1.1217   1.1660   1.1855   1.2518   1.3076   1.4097
     1.5468   1.5856   1.8588   1.9470   2.0073   2.1585   2.1862   2.3579
     2.4022   2.4518   2.4856   2.5276   2.6670   2.6866   2.7699   2.9180
     2.9915   3.1419   3.3225   3.4000   3.5156   3.5807   3.6213   3.6492
     3.8961   3.9056   3.9583   4.0161   4.1033   4.2214   4.2991   4.4558
     9.7552  11.1942  11.3605  11.7508  12.0755  12.2853  12.4298  12.7018
    12.7355  12.8161

     occupation numbers 
     1.0000   1.0000   1.0000   1.0000   1.0000   1.0000   1.0000   1.0000
     1.0000   1.0000   1.0000   1.0000   1.0000   1.0000   1.0000   1.0000
     1.0000   1.0000   1.0000   1.0000   1.0000   1.0000   1.0000   1.0000
     1.0000   1.0000   1.0000   1.0000   1.0000   1.0000   1.0000   1.0000
     1.0000   1.0000   1.0000   1.0000   1.0000   1.0000   1.0000   1.0000
     1.0000   1.0000   1.0000   1.0000   1.0000   1.0000   1.0000   1.0000
     1.0000   1.0000   1.0000   1.0000   1.0000   1.0000   1.0000   1.0000
     1.0000   1.0000   1.0000   1.0000   1.0000   1.0000   1.0000   1.0000
     1.0000   1.0000   1.0000   1.0000   1.0000   1.0000   1.0000   1.0000
     1.0000   1.0000   1.0000   1.0000   1.0000   1.0000   1.0000   1.0000
     1.0000   1.0000   1.0000   1.0000   1.0000   1.0000   1.0000   1.0000
     1.0000   1.0000   1.0000   1.0000   1.0000   1.0000   1.0000   1.0000
     1.0000   1.0000   1.0000   1.0000   1.0000   1.0000   1.0000   1.0000
     0.0000   0.0000   0.0000   0.0000   0.0000   0.0000   0.0000   0.0000
     0.0000   0.0000

          k = 0.0000 0.0000 0.9505 ( 37140 PWs)   bands (ev):

   -85.5297 -85.4895 -85.4751 -85.0623 -51.6136 -51.5973 -51.5708 -51.4783
   -51.4625 -51.4361 -51.4174 -51.4062 -51.3972 -51.3788 -51.0045 -50.7965
   -45.2939 -17.3181 -17.2872 -17.2264 -16.1694 -16.0649 -15.8771 -15.8408
   -14.0484 -13.9974 -13.8414 -13.7563 -13.6549 -13.6336 -13.5405 -13.5314
   -13.4894 -13.4508 -13.4095 -13.3992  -3.9988  -3.8522  -3.6685  -3.5219
    -2.0278  -1.9108  -1.8090  -1.7313  -1.5663  -1.4915  -1.4201  -1.3464
    -1.0813  -0.9571  -0.8390  -0.7225  -0.2294  -0.1002   0.1431   0.1723
     0.2331   0.2738   0.3939   0.4454   0.5054   0.6019   0.7155   0.7900
     0.9401   0.9540   0.9930   1.0744   1.0888   1.2204   1.2350   1.3933
     1.5777   1.5950   1.7380   1.8755   2.0053   2.1237   2.3044   2.3075
     2.3997   2.4081   2.4718   2.5023   2.5977   2.6190   2.7469   2.8928
     3.0212   3.1371   3.3673   3.5215   3.5664   3.6233   3.6625   3.8168
     3.8698   3.9094   4.0265   4.0624   4.1346   4.1360   4.2252   4.3206
    10.3276  10.9014  11.5895  11.8994  11.9913  12.1652  12.4272  12.6348
    12.7056  12.8599

     occupation numbers 
     1.0000   1.0000   1.0000   1.0000   1.0000   1.0000   1.0000   1.0000
     1.0000   1.0000   1.0000   1.0000   1.0000   1.0000   1.0000   1.0000
     1.0000   1.0000   1.0000   1.0000   1.0000   1.0000   1.0000   1.0000
     1.0000   1.0000   1.0000   1.0000   1.0000   1.0000   1.0000   1.0000
     1.0000   1.0000   1.0000   1.0000   1.0000   1.0000   1.0000   1.0000
     1.0000   1.0000   1.0000   1.0000   1.0000   1.0000   1.0000   1.0000
     1.0000   1.0000   1.0000   1.0000   1.0000   1.0000   1.0000   1.0000
     1.0000   1.0000   1.0000   1.0000   1.0000   1.0000   1.0000   1.0000
     1.0000   1.0000   1.0000   1.0000   1.0000   1.0000   1.0000   1.0000
     1.0000   1.0000   1.0000   1.0000   1.0000   1.0000   1.0000   1.0000
     1.0000   1.0000   1.0000   1.0000   1.0000   1.0000   1.0000   1.0000
     1.0000   1.0000   1.0000   1.0000   1.0000   1.0000   1.0000   1.0000
     1.0000   1.0000   1.0000   1.0000   1.0000   1.0000   1.0000   1.0000
     0.0000   0.0000   0.0000   0.0000   0.0000   0.0000   0.0000   0.0000
     0.0000   0.0000

          k = 0.0000 0.2430 0.0000 ( 37033 PWs)   bands (ev):

   -85.5297 -85.4895 -85.4751 -85.0623 -51.6136 -51.5973 -51.5708 -51.4783
   -51.4625 -51.4361 -51.4174 -51.4062 -51.3972 -51.3788 -51.0045 -50.7964
   -45.2939 -17.3131 -17.2554 -17.2274 -16.2821 -16.1408 -15.9396 -15.8686
   -13.9472 -13.8913 -13.7488 -13.6937 -13.6529 -13.6235 -13.5811 -13.5633
   -13.4462 -13.4360 -13.3945 -13.3595  -4.2631  -3.7948  -3.7393  -3.3419
    -2.3419  -2.0288  -2.0078  -1.8295  -1.6146  -1.5208  -1.3920  -1.3349
    -1.2218  -1.0510  -0.8434  -0.6234  -0.5385  -0.4343   0.0540   0.0998
     0.1609   0.2184   0.2718   0.4034   0.5284   0.7550   0.8303   0.8755
     1.0234   1.0965   1.1163   1.2841   1.3276   1.3764   1.4702   1.5302
     1.6950   1.9224   1.9908   2.0516   2.0849   2.1433   2.2003   2.2184
     2.4307   2.4720   2.4795   2.5646   2.6485   2.8550   2.9411   3.0108
     3.0534   3.1059   3.1410   3.2912   3.3479   3.4805   3.5311   3.6293
     3.7373   3.7903   3.9215   3.9704   4.0764   4.2205   4.5480   4.6326
     8.8413  10.8128  11.3002  11.5033  11.8805  12.6268  12.7122  13.0284
    13.1014  13.3013

     occupation numbers 
     1.0000   1.0000   1.0000   1.0000   1.0000   1.0000   1.0000   1.0000
     1.0000   1.0000   1.0000   1.0000   1.0000   1.0000   1.0000   1.0000
     1.0000   1.0000   1.0000   1.0000   1.0000   1.0000   1.0000   1.0000
     1.0000   1.0000   1.0000   1.0000   1.0000   1.0000   1.0000   1.0000
     1.0000   1.0000   1.0000   1.0000   1.0000   1.0000   1.0000   1.0000
     1.0000   1.0000   1.0000   1.0000   1.0000   1.0000   1.0000   1.0000
     1.0000   1.0000   1.0000   1.0000   1.0000   1.0000   1.0000   1.0000
     1.0000   1.0000   1.0000   1.0000   1.0000   1.0000   1.0000   1.0000
     1.0000   1.0000   1.0000   1.0000   1.0000   1.0000   1.0000   1.0000
     1.0000   1.0000   1.0000   1.0000   1.0000   1.0000   1.0000   1.0000
     1.0000   1.0000   1.0000   1.0000   1.0000   1.0000   1.0000   1.0000
     1.0000   1.0000   1.0000   1.0000   1.0000   1.0000   1.0000   1.0000
     1.0000   1.0000   1.0000   1.0000   1.0000   1.0000   1.0000   1.0000
     0.0000   0.0000   0.0000   0.0000   0.0000   0.0000   0.0000   0.0000
     0.0000   0.0000

          k = 0.0000 0.2430 0.2376 ( 37055 PWs)   bands (ev):

   -85.5297 -85.4895 -85.4751 -85.0623 -51.6136 -51.5973 -51.5708 -51.4783
   -51.4625 -51.4361 -51.4174 -51.4062 -51.3972 -51.3788 -51.0045 -50.7965
   -45.2939 -17.3130 -17.2601 -17.2273 -16.2688 -16.1311 -15.9334 -15.8641
   -13.9600 -13.9026 -13.7614 -13.6929 -13.6563 -13.6322 -13.5776 -13.5634
   -13.4496 -13.4342 -13.3963 -13.3625  -4.2410  -3.7909  -3.7338  -3.3506
    -2.2997  -2.0259  -1.9772  -1.8157  -1.6092  -1.5334  -1.4096  -1.2745
    -1.2094  -1.0203  -0.8870  -0.6234  -0.5461  -0.4307   0.0665   0.1050
     0.1615   0.2391   0.2812   0.4104   0.5261   0.7550   0.8167   0.8582
     1.0036   1.0744   1.1268   1.2609   1.3013   1.3534   1.4509   1.5227
     1.7760   1.8591   1.9762   2.0046   2.0816   2.0986   2.1658   2.3044
     2.3845   2.4539   2.5203   2.5917   2.6599   2.8098   2.8998   2.9999
     3.0434   3.0962   3.1640   3.2673   3.3338   3.5110   3.5558   3.6375
     3.7503   3.8065   3.9456   3.9678   4.0687   4.2212   4.5317   4.6167
     8.9817  10.8854  11.3378  11.5403  11.9163  12.5009  12.7957  12.9027
    13.0812  13.2419

     occupation numbers 
     1.0000   1.0000   1.0000   1.0000   1.0000   1.0000   1.0000   1.0000
     1.0000   1.0000   1.0000   1.0000   1.0000   1.0000   1.0000   1.0000
     1.0000   1.0000   1.0000   1.0000   1.0000   1.0000   1.0000   1.0000
     1.0000   1.0000   1.0000   1.0000   1.0000   1.0000   1.0000   1.0000
     1.0000   1.0000   1.0000   1.0000   1.0000   1.0000   1.0000   1.0000
     1.0000   1.0000   1.0000   1.0000   1.0000   1.0000   1.0000   1.0000
     1.0000   1.0000   1.0000   1.0000   1.0000   1.0000   1.0000   1.0000
     1.0000   1.0000   1.0000   1.0000   1.0000   1.0000   1.0000   1.0000
     1.0000   1.0000   1.0000   1.0000   1.0000   1.0000   1.0000   1.0000
     1.0000   1.0000   1.0000   1.0000   1.0000   1.0000   1.0000   1.0000
     1.0000   1.0000   1.0000   1.0000   1.0000   1.0000   1.0000   1.0000
     1.0000   1.0000   1.0000   1.0000   1.0000   1.0000   1.0000   1.0000
     1.0000   1.0000   1.0000   1.0000   1.0000   1.0000   1.0000   1.0000
     0.0000   0.0000   0.0000   0.0000   0.0000   0.0000   0.0000   0.0000
     0.0000   0.0000

          k = 0.0000 0.2430 0.4753 ( 37078 PWs)   bands (ev):

   -85.5297 -85.4895 -85.4751 -85.0623 -51.6136 -51.5973 -51.5708 -51.4783
   -51.4625 -51.4361 -51.4174 -51.4062 -51.3972 -51.3788 -51.0045 -50.7965
   -45.2939 -17.3133 -17.2712 -17.2272 -16.2341 -16.1063 -15.9171 -15.8538
   -13.9921 -13.9340 -13.7933 -13.6977 -13.6735 -13.6398 -13.5685 -13.5600
   -13.4579 -13.4305 -13.4006 -13.3708  -4.1775  -3.7873  -3.7170  -3.3854
    -2.1832  -2.0094  -1.9035  -1.7957  -1.5923  -1.5479  -1.4104  -1.2203
    -1.1139  -0.9991  -0.9293  -0.6889  -0.5097  -0.4016   0.0960   0.1217
     0.1856   0.2192   0.3506   0.4485   0.5344   0.7110   0.7659   0.8627
     0.9563   1.0649   1.1225   1.1937   1.2425   1.3239   1.3996   1.5240
     1.6370   1.8035   1.9003   2.0011   2.0361   2.0480   2.2119   2.2857
     2.3753   2.4978   2.5411   2.5846   2.6544   2.7197   2.8267   2.9319
     3.0143   3.0942   3.2260   3.3092   3.3485   3.5474   3.5935   3.6563
     3.7967   3.8593   3.9277   3.9982   4.0787   4.2239   4.4831   4.5678
     9.3588  11.0797  11.4195  11.6313  12.0323  12.3692  12.6543  12.7917
    12.9491  13.0226

     occupation numbers 
     1.0000   1.0000   1.0000   1.0000   1.0000   1.0000   1.0000   1.0000
     1.0000   1.0000   1.0000   1.0000   1.0000   1.0000   1.0000   1.0000
     1.0000   1.0000   1.0000   1.0000   1.0000   1.0000   1.0000   1.0000
     1.0000   1.0000   1.0000   1.0000   1.0000   1.0000   1.0000   1.0000
     1.0000   1.0000   1.0000   1.0000   1.0000   1.0000   1.0000   1.0000
     1.0000   1.0000   1.0000   1.0000   1.0000   1.0000   1.0000   1.0000
     1.0000   1.0000   1.0000   1.0000   1.0000   1.0000   1.0000   1.0000
     1.0000   1.0000   1.0000   1.0000   1.0000   1.0000   1.0000   1.0000
     1.0000   1.0000   1.0000   1.0000   1.0000   1.0000   1.0000   1.0000
     1.0000   1.0000   1.0000   1.0000   1.0000   1.0000   1.0000   1.0000
     1.0000   1.0000   1.0000   1.0000   1.0000   1.0000   1.0000   1.0000
     1.0000   1.0000   1.0000   1.0000   1.0000   1.0000   1.0000   1.0000
     1.0000   1.0000   1.0000   1.0000   1.0000   1.0000   1.0000   1.0000
     0.0000   0.0000   0.0000   0.0000   0.0000   0.0000   0.0000   0.0000
     0.0000   0.0000

          k = 0.0000 0.2430 0.7129 ( 37105 PWs)   bands (ev):

   -85.5297 -85.4895 -85.4751 -85.0623 -51.6136 -51.5973 -51.5708 -51.4783
   -51.4625 -51.4361 -51.4174 -51.4062 -51.3972 -51.3788 -51.0045 -50.7965
   -45.2939 -17.3150 -17.2819 -17.2270 -16.1923 -16.0773 -15.8963 -15.8451
   -14.0284 -13.9724 -13.8306 -13.7326 -13.6772 -13.6349 -13.5612 -13.5493
   -13.4680 -13.4267 -13.4051 -13.3818  -4.0831  -3.8001  -3.6918  -3.4507
    -2.0576  -1.9562  -1.8349  -1.7781  -1.5739  -1.5309  -1.3958  -1.2207
    -1.1073  -0.9571  -0.8268  -0.7953  -0.4135  -0.3218   0.0700   0.1590
     0.1897   0.2524   0.4186   0.5428   0.5634   0.6413   0.7012   0.8717
     0.9162   1.0378   1.0706   1.1505   1.1911   1.2677   1.2963   1.3800
     1.5341   1.6501   1.8023   1.9789   2.0243   2.1330   2.1531   2.3270
     2.3608   2.4959   2.5089   2.5656   2.6005   2.6601   2.7395   2.8910
     2.9981   3.0843   3.3176   3.4072   3.4725   3.5768   3.6111   3.6785
     3.8214   3.8964   3.9442   4.0173   4.1288   4.2278   4.4050   4.4881
     9.8785  11.2962  11.4280  11.7777  12.1277  12.3485  12.4487  12.6650
    12.7719  12.8281

     occupation numbers 
     1.0000   1.0000   1.0000   1.0000   1.0000   1.0000   1.0000   1.0000
     1.0000   1.0000   1.0000   1.0000   1.0000   1.0000   1.0000   1.0000
     1.0000   1.0000   1.0000   1.0000   1.0000   1.0000   1.0000   1.0000
     1.0000   1.0000   1.0000   1.0000   1.0000   1.0000   1.0000   1.0000
     1.0000   1.0000   1.0000   1.0000   1.0000   1.0000   1.0000   1.0000
     1.0000   1.0000   1.0000   1.0000   1.0000   1.0000   1.0000   1.0000
     1.0000   1.0000   1.0000   1.0000   1.0000   1.0000   1.0000   1.0000
     1.0000   1.0000   1.0000   1.0000   1.0000   1.0000   1.0000   1.0000
     1.0000   1.0000   1.0000   1.0000   1.0000   1.0000   1.0000   1.0000
     1.0000   1.0000   1.0000   1.0000   1.0000   1.0000   1.0000   1.0000
     1.0000   1.0000   1.0000   1.0000   1.0000   1.0000   1.0000   1.0000
     1.0000   1.0000   1.0000   1.0000   1.0000   1.0000   1.0000   1.0000
     1.0000   1.0000   1.0000   1.0000   1.0000   1.0000   1.0000   1.0000
     0.0000   0.0000   0.0000   0.0000   0.0000   0.0000   0.0000   0.0000
     0.0000   0.0000

          k = 0.0000 0.2430 0.9505 ( 37114 PWs)   bands (ev):

   -85.5297 -85.4895 -85.4751 -85.0623 -51.6136 -51.5973 -51.5708 -51.4783
   -51.4625 -51.4361 -51.4174 -51.4062 -51.3972 -51.3788 -51.0045 -50.7965
   -45.2939 -17.3176 -17.2872 -17.2269 -16.1631 -16.0585 -15.8794 -15.8434
   -14.0522 -13.9983 -13.8555 -13.7619 -13.6758 -13.6286 -13.5572 -13.5397
   -13.4755 -13.4244 -13.4075 -13.3904  -3.9848  -3.8418  -3.6621  -3.5167
    -2.0071  -1.8991  -1.8015  -1.7352  -1.5641  -1.4734  -1.3933  -1.3128
    -1.0723  -0.9625  -0.8421  -0.7143  -0.2913  -0.1667  -0.0111   0.0361
     0.2904   0.3634   0.4571   0.5236   0.5602   0.6446   0.7538   0.7862
     0.9124   0.9367   1.0235   1.0833   1.1131   1.1658   1.2432   1.3290
     1.5531   1.6215   1.7124   1.8719   2.0233   2.1173   2.2134   2.3020
     2.3893   2.4280   2.4717   2.5499   2.5910   2.6236   2.7189   2.8671
     2.9995   3.0772   3.3539   3.5265   3.5699   3.5954   3.6344   3.7049
     3.8014   3.8866   3.9921   4.0732   4.1715   4.2268   4.3206   4.4069
    10.4411  11.0041  11.6681  11.9606  12.0540  12.2180  12.4670  12.6261
    12.6849  12.7990

     occupation numbers 
     1.0000   1.0000   1.0000   1.0000   1.0000   1.0000   1.0000   1.0000
     1.0000   1.0000   1.0000   1.0000   1.0000   1.0000   1.0000   1.0000
     1.0000   1.0000   1.0000   1.0000   1.0000   1.0000   1.0000   1.0000
     1.0000   1.0000   1.0000   1.0000   1.0000   1.0000   1.0000   1.0000
     1.0000   1.0000   1.0000   1.0000   1.0000   1.0000   1.0000   1.0000
     1.0000   1.0000   1.0000   1.0000   1.0000   1.0000   1.0000   1.0000
     1.0000   1.0000   1.0000   1.0000   1.0000   1.0000   1.0000   1.0000
     1.0000   1.0000   1.0000   1.0000   1.0000   1.0000   1.0000   1.0000
[...]
     atom   24 type  3   force =    -0.00275755    0.00344025    0.00169624
     atom   25 type  3   force =     0.00260190   -0.00104303    0.00168123
     The non-local contrib.  to forces
     atom    1 type  2   force =     0.12621785    0.00000125   -0.03666540
     atom    2 type  1   force =     0.06621343   -0.00000691    0.12795688
     atom    3 type  1   force =     0.02958484    0.00001897    0.10249959
     atom    4 type  1   force =    -0.22784406    0.00000819   -0.05982655
     atom    5 type  1   force =    -0.00821612   -0.00001716   -0.11291900
     atom    6 type  4   force =    -0.05134293    0.00000252   -0.05048140
     atom    7 type  4   force =     0.07072301   -0.00001084   -0.02095614
     atom    8 type  4   force =     0.02443815   -0.00000385    0.05485396
     atom    9 type  4   force =    -0.02558036    0.00000970    0.05802072
     atom   10 type  3   force =     0.29990955   -0.00000620   -1.50513553
     atom   11 type  3   force =    -0.09332140    0.00000174   -1.43096571
     atom   12 type  3   force =    -0.39003749    0.00000486    1.50449862
     atom   13 type  3   force =     0.21545222    0.00000034    1.50462005
     atom   14 type  3   force =     1.24890247    0.00000049   -0.58310342
     atom   15 type  3   force =    -1.23089812    0.00000443   -0.76391565
     atom   16 type  3   force =    -1.23006587    0.00001667    0.28469237
     atom   17 type  3   force =     1.19870533   -0.00000346    0.60258467
     atom   18 type  3   force =    -0.54268789   -1.08630648    0.76915056
     atom   19 type  3   force =     0.54978876    1.14849525    0.80374525
     atom   20 type  3   force =     0.57089139   -1.09265283   -0.66561446
     atom   21 type  3   force =    -0.56515934    1.05940048   -0.68656352
     atom   22 type  3   force =     0.57086812    1.09261734   -0.66561945
     atom   23 type  3   force =    -0.56513920   -1.05937252   -0.68655441
     atom   24 type  3   force =    -0.54270860    1.08634076    0.76914955
     atom   25 type  3   force =     0.54981037   -1.14852576    0.80375011
     The ionic contribution  to forces
     atom    1 type  2   force =    -3.98784828    0.00032286    2.38814405
     atom    2 type  1   force =     0.43446267   -0.00081982   -0.31275194
     atom    3 type  1   force =    -8.55006825    0.00099167   -0.45694046
     atom    4 type  1   force =     3.46009759    0.00078343   -0.32047401
     atom    5 type  1   force =     9.00920039   -0.00110428    0.40507341
     atom    6 type  4   force =    -3.89971368   -0.00026613    0.16400407
     atom    7 type  4   force =     1.08779503    0.00017096    0.25462606
     atom    8 type  4   force =     5.64157201    0.00024879   -0.40259185
     atom    9 type  4   force =    -3.15912600   -0.00016901   -0.55209154
     atom   10 type  3   force =   -10.16663111   -0.00027568    2.88298302
     atom   11 type  3   force =     3.89162006    0.00025231    1.62349270
     atom   12 type  3   force =    12.24331683    0.00025888   -2.99403514
     atom   13 type  3   force =    -8.32866433   -0.00030031   -2.36054061
     atom   14 type  3   force =     0.66402674   -0.00022059    5.10979544
     atom   15 type  3   force =    -1.85556186    0.00025616    6.55053809
     atom   16 type  3   force =    -2.06501453    0.00014109   -2.39033804
     atom   17 type  3   force =     3.55305817   -0.00026459   -5.75962202
     atom   18 type  3   force =    -4.26612938    2.66340159   -3.01544987
     atom   19 type  3   force =     1.13297085   -3.94970274   -2.65834715
     atom   20 type  3   force =     5.64700579    4.23773573    2.36598469
     atom   21 type  3   force =    -1.50009334   -1.23865297    1.39308772
     atom   22 type  3   force =     5.64726618   -4.23724739    2.36612750
     atom   23 type  3   force =    -1.50032340    1.23828241    1.39298671
     atom   24 type  3   force =    -4.26592181   -2.66390452   -3.01525130
     atom   25 type  3   force =     1.13270367    3.95008215   -2.65840954
     The local contribution  to forces
     atom    1 type  2   force =     3.86076599   -0.00032342   -2.35438333
     atom    2 type  1   force =    -0.49935704    0.00082331    0.18231341
     atom    3 type  1   force =     8.51487282   -0.00100667    0.35476073
     atom    4 type  1   force =    -3.23149819   -0.00078886    0.38556732
     atom    5 type  1   force =    -8.99460891    0.00111621   -0.29226312
     atom    6 type  4   force =     3.92223425    0.00025858   -0.12359553
     atom    7 type  4   force =    -1.12856445   -0.00016277   -0.23972313
     atom    8 type  4   force =    -5.64257634   -0.00024141    0.35895508
     atom    9 type  4   force =     3.15900742    0.00016046    0.50487259
     atom   10 type  3   force =     9.87506118    0.00028088   -1.38869628
     atom   11 type  3   force =    -3.80055749   -0.00025401   -0.20182454
     atom   12 type  3   force =   -11.86235131   -0.00026320    1.50019993
     atom   13 type  3   force =     8.11869616    0.00030026    0.86825847
     atom   14 type  3   force =    -1.87361340    0.00022064   -4.53752305
     atom   15 type  3   force =     3.04988823   -0.00025986   -5.80474465
     atom   16 type  3   force =     3.25010801   -0.00015663    2.11158409
     atom   17 type  3   force =    -4.71416066    0.00026745    5.16938932
     atom   18 type  3   force =     4.80129202   -1.58999814    2.25503598
     atom   19 type  3   force =    -1.67538285    2.81224898    1.86364929
     atom   20 type  3   force =    -6.20805271   -3.15639055   -1.70923423
     atom   21 type  3   force =     2.05571599    0.19101148   -0.71241293
     atom   22 type  3   force =    -6.20829001    3.15593671   -1.70937199
     atom   23 type  3   force =     2.05592323   -0.19067276   -0.71232431
     atom   24 type  3   force =     4.80110319    1.59046924    2.25484129
     atom   25 type  3   force =    -1.67514006   -2.81259302    1.86370318
     The core correction contribution to forces
     atom    1 type  2   force =     0.00000000    0.00000000    0.00000000
     atom    2 type  1   force =    -0.00100223   -0.00000386   -0.00049760
     atom    3 type  1   force =    -0.00004334    0.00000321   -0.00002617
     atom    4 type  1   force =     0.00427962    0.00000290   -0.00099145
     atom    5 type  1   force =    -0.00020676   -0.00000335    0.00059761
     atom    6 type  4   force =     0.00459815   -0.00000003    0.00390513
     atom    7 type  4   force =    -0.00579345    0.00000085    0.00171483
     atom    8 type  4   force =    -0.00288743    0.00000019   -0.00412655
     atom    9 type  4   force =     0.00254534   -0.00000081   -0.00434695
     atom   10 type  3   force =    -0.00336435    0.00000006    0.01316899
     atom   11 type  3   force =     0.00153137   -0.00000006    0.01237721
     atom   12 type  3   force =     0.00418720   -0.00000010   -0.01310361
     atom   13 type  3   force =    -0.00262042   -0.00000002   -0.01313371
     atom   14 type  3   force =    -0.01105138   -0.00000002    0.00576514
     atom   15 type  3   force =     0.01087787   -0.00000007    0.00741731
     atom   16 type  3   force =     0.01085520   -0.00000019   -0.00291694
     atom   17 type  3   force =    -0.01069548    0.00000005   -0.00592220
     atom   18 type  3   force =     0.00477212    0.00946698   -0.00704121
     atom   19 type  3   force =    -0.00477699   -0.00999278   -0.00736193
     atom   20 type  3   force =    -0.00509473    0.00952037    0.00604827
     atom   21 type  3   force =     0.00498036   -0.00928944    0.00631553
     atom   22 type  3   force =    -0.00509451   -0.00952001    0.00604830
     atom   23 type  3   force =     0.00498020    0.00928928    0.00631551
     atom   24 type  3   force =     0.00477234   -0.00946730   -0.00704124
     atom   25 type  3   force =    -0.00477713    0.00999289   -0.00736192
     The Hubbard contrib.    to forces
     atom    1 type  2   force =     0.00000000    0.00000000    0.00000000
     atom    2 type  1   force =     0.00000000    0.00000000    0.00000000
     atom    3 type  1   force =     0.00000000    0.00000000    0.00000000
     atom    4 type  1   force =     0.00000000    0.00000000    0.00000000
     atom    5 type  1   force =     0.00000000    0.00000000    0.00000000
     atom    6 type  4   force =     0.00000000    0.00000000    0.00000000
     atom    7 type  4   force =     0.00000000    0.00000000    0.00000000
     atom    8 type  4   force =     0.00000000    0.00000000    0.00000000
     atom    9 type  4   force =     0.00000000    0.00000000    0.00000000
     atom   10 type  3   force =     0.00000000    0.00000000    0.00000000
     atom   11 type  3   force =     0.00000000    0.00000000    0.00000000
     atom   12 type  3   force =     0.00000000    0.00000000    0.00000000
     atom   13 type  3   force =     0.00000000    0.00000000    0.00000000
     atom   14 type  3   force =     0.00000000    0.00000000    0.00000000
     atom   15 type  3   force =     0.00000000    0.00000000    0.00000000
     atom   16 type  3   force =     0.00000000    0.00000000    0.00000000
     atom   17 type  3   force =     0.00000000    0.00000000    0.00000000
     atom   18 type  3   force =     0.00000000    0.00000000    0.00000000
     atom   19 type  3   force =     0.00000000    0.00000000    0.00000000
     atom   20 type  3   force =     0.00000000    0.00000000    0.00000000
     atom   21 type  3   force =     0.00000000    0.00000000    0.00000000
     atom   22 type  3   force =     0.00000000    0.00000000    0.00000000
     atom   23 type  3   force =     0.00000000    0.00000000    0.00000000
     atom   24 type  3   force =     0.00000000    0.00000000    0.00000000
     atom   25 type  3   force =     0.00000000    0.00000000    0.00000000
     The SCF correction term to forces
     atom    1 type  2   force =     0.00001136    0.00000000   -0.00000141
     atom    2 type  1   force =     0.00000549   -0.00000002   -0.00000009
     atom    3 type  1   force =     0.00000018    0.00000000    0.00000055
     atom    4 type  1   force =    -0.00000109    0.00000000   -0.00000040
     atom    5 type  1   force =    -0.00000722   -0.00000000    0.00000073
     atom    6 type  4   force =    -0.00000347    0.00000000    0.00000032
     atom    7 type  4   force =     0.00000588    0.00000001    0.00000019
     atom    8 type  4   force =    -0.00000683    0.00000000    0.00000059
     atom    9 type  4   force =     0.00000471   -0.00000000    0.00000016
     atom   10 type  3   force =    -0.00000422   -0.00000000   -0.00000018
     atom   11 type  3   force =     0.00000802    0.00000000   -0.00000184
     atom   12 type  3   force =    -0.00001042    0.00000001   -0.00000386
     atom   13 type  3   force =     0.00000579   -0.00000001   -0.00000090
     atom   14 type  3   force =     0.00000704   -0.00000000    0.00000034
     atom   15 type  3   force =    -0.00000918    0.00000000    0.00000156
     atom   16 type  3   force =     0.00001043    0.00000000    0.00000150
     atom   17 type  3   force =    -0.00000859    0.00000000    0.00000062
     atom   18 type  3   force =    -0.00000271   -0.00000201   -0.00000047
     atom   19 type  3   force =     0.00000501   -0.00000064    0.00000100
     atom   20 type  3   force =    -0.00000632   -0.00000157    0.00000256
     atom   21 type  3   force =     0.00000412   -0.00000347   -0.00000095
     atom   22 type  3   force =    -0.00000632    0.00000157    0.00000256
     atom   23 type  3   force =     0.00000412    0.00000346   -0.00000095
     atom   24 type  3   force =    -0.00000271    0.00000202   -0.00000047
     atom   25 type  3   force =     0.00000501    0.00000065    0.00000100

     Total force =     0.078824     Total SCF correction =     0.000034


     Computing stress (Cartesian axis) and pressure


     negative rho (up, down):  0.000E+00 9.668E-04
          total   stress  (Ry/bohr**3)                   (kbar)     P=      -52.20
  -0.00068113   0.00000001  -0.00002227         -100.20        0.00       -3.28
   0.00000001  -0.00029958  -0.00000000            0.00      -44.07       -0.00
  -0.00002227  -0.00000000  -0.00008376           -3.28       -0.00      -12.32

     kinetic stress (kbar)  25855.08      0.00    -11.90
                                0.00  26126.65      0.00
                              -11.90      0.00  25946.74

     local   stress (kbar)  -3625.30     -0.10   1202.21
                               -0.10 -14204.93     -0.00
                             1202.21     -0.00  -9226.06

     nonloc. stress (kbar)  -6584.24     -0.00     -1.51
                               -0.00  -6534.57     -0.00
                               -1.51     -0.00  -6538.19

     hartree stress (kbar)  11935.91      0.04   -494.30
                                0.04  17663.11      0.00
                             -494.30      0.00  15025.59

     exc-cor stress (kbar)  -2746.62     -0.00     -0.90
                               -0.00  -2753.72     -0.00
                               -0.90     -0.00  -2750.93

     corecor stress (kbar)  -3062.97      0.00      1.16
                                0.00  -3062.82      0.00
                                1.16      0.00  -3064.61

     ewald   stress (kbar) -21872.05      0.05   -698.02
                                0.05 -17277.78      0.00
                             -698.02      0.00 -19404.86

     hubbard stress (kbar)      0.00      0.00      0.00
                                0.00      0.00      0.00
                                0.00      0.00      0.00

     DFT-D   stress (kbar)      0.00      0.00      0.00
                                0.00      0.00      0.00
                                0.00      0.00      0.00

     XDM     stress (kbar)      0.00      0.00      0.00
                                0.00      0.00      0.00
                                0.00      0.00      0.00

     dft-nl  stress (kbar)      0.00      0.00      0.00
                                0.00      0.00      0.00
                                0.00      0.00      0.00

     TS-vdW  stress (kbar)      0.00      0.00      0.00
                                0.00      0.00      0.00
                                0.00      0.00      0.00



     init_run     :    187.38s CPU    192.23s WALL (       1 calls)
     electrons    :  18623.63s CPU  18895.54s WALL (       1 calls)
     forces       :    122.64s CPU    125.11s WALL (       1 calls)
     stress       :    802.15s CPU    809.59s WALL (       1 calls)

     Called by init_run:
     wfcinit      :    177.09s CPU    181.02s WALL (       1 calls)
     wfcinit:atom :      3.84s CPU      3.98s WALL (     316 calls)
     wfcinit:wfcr :    162.39s CPU    165.91s WALL (     316 calls)
     potinit      :      3.70s CPU      3.84s WALL (       1 calls)
     hinit0       :      3.32s CPU      3.45s WALL (       1 calls)

     Called by electrons:
     c_bands      :  16295.63s CPU  16486.11s WALL (      37 calls)
     sum_band     :   2211.33s CPU   2268.06s WALL (      37 calls)
     v_of_rho     :     33.93s CPU     35.42s WALL (      38 calls)
     v_h          :      1.64s CPU      1.74s WALL (      38 calls)
     v_xc         :     34.04s CPU     35.53s WALL (      40 calls)
     newd         :     55.32s CPU     78.27s WALL (      38 calls)
     PAW_pot      :     16.46s CPU     16.52s WALL (      38 calls)
     mix_rho      :     10.03s CPU     10.51s WALL (      37 calls)

     Called by c_bands:
     init_us_2    :    349.53s CPU    358.98s WALL (   24332 calls)
     cegterg      :  15750.01s CPU  15927.93s WALL (   11692 calls)

     Called by sum_band:
     sum_band:wei :      0.60s CPU      0.60s WALL (      37 calls)
     sum_band:loo :   2030.51s CPU   2054.73s WALL (      37 calls)
     sum_band:buf :     88.07s CPU     90.23s WALL (   11692 calls)
     sum_band:ini :    168.13s CPU    172.23s WALL (   11692 calls)
     sum_band:cal :    834.30s CPU    843.43s WALL (   11692 calls)
     sum_band:bec :      6.51s CPU      6.62s WALL (   11692 calls)
     addusdens    :    171.42s CPU    203.66s WALL (      37 calls)
     addusd:skk   :      1.30s CPU      1.35s WALL (     111 calls)
     addusd:dgemm :     77.79s CPU    104.14s WALL (     222 calls)
     addusd:qvan2 :     89.80s CPU     90.69s WALL (     222 calls)

     Called by *egterg:
     cdiaghg      :    949.43s CPU    975.61s WALL (   44878 calls)
     cegterg:over :   1558.77s CPU   1587.33s WALL (   33186 calls)
     cegterg:upda :    873.08s CPU    878.47s WALL (   33186 calls)
     cegterg:last :   2062.87s CPU   2075.40s WALL (   21331 calls)
     h_psi        :   7290.63s CPU   7371.23s WALL (   45194 calls)
     s_psi        :   2038.74s CPU   2050.71s WALL (   45194 calls)
     g_psi        :     18.60s CPU     18.86s WALL (   33186 calls)

     Called by h_psi:
     h_psi:calbec :   2146.18s CPU   2170.89s WALL (   45194 calls)
     vloc_psi     :   2780.34s CPU   2816.45s WALL (   45194 calls)
     add_vuspsi   :   2164.48s CPU   2177.50s WALL (   45194 calls)

     General routines
     calbec       :   3089.67s CPU   3125.23s WALL (   58466 calls)
     fft          :     32.92s CPU     34.89s WALL (     988 calls)
     ffts         :      0.52s CPU      0.61s WALL (     150 calls)
     fftw         :   3444.04s CPU   3484.85s WALL ( 7220670 calls)
     interpolate  :      2.43s CPU      2.64s WALL (      76 calls)

     Parallel routines
     fft_scatt_xy :    356.14s CPU    360.20s WALL ( 7221808 calls)
     fft_scatt_yz :   1385.54s CPU   1404.31s WALL ( 7221808 calls)

     PAW routines
     PAW_pot      :     16.46s CPU     16.52s WALL (      38 calls)

     PWSCF        :      5h28m CPU      5h33m WALL


   This run was terminated on:  13:38:29  18Dec2022            

=------------------------------------------------------------------------------=
   JOB DONE.
=------------------------------------------------------------------------------=
Note: The following floating-point exceptions are signalling: IEEE_INVALID_FLAG IEEE_DENORMAL
Note: The following floating-point exceptions are signalling: IEEE_DENORMAL
Note: The following floating-point exceptions are signalling: IEEE_INVALID_FLAG IEEE_DENORMAL
Note: The following floating-point exceptions are signalling: IEEE_UNDERFLOW_FLAG IEEE_DENORMAL
Note: The following floating-point exceptions are signalling: IEEE_DENORMAL
Note: The following floating-point exceptions are signalling: IEEE_DENORMAL
Note: The following floating-point exceptions are signalling: IEEE_DENORMAL
Note: The following floating-point exceptions are signalling: IEEE_DENORMAL
Note: The following floating-point exceptions are signalling: IEEE_DENORMAL
Note: The following floating-point exceptions are signalling: IEEE_DENORMAL
Note: The following floating-point exceptions are signalling: IEEE_DENORMAL
Note: The following floating-point exceptions are signalling: IEEE_DENORMAL
Note: The following floating-point exceptions are signalling: IEEE_DENORMAL
Note: The following floating-point exceptions are signalling: IEEE_DENORMAL
Note: The following floating-point exceptions are signalling: IEEE_DENORMAL
Note: The following floating-point exceptions are signalling: IEEE_DENORMAL
Note: The following floating-point exceptions are signalling: IEEE_DENORMAL
Note: The following floating-point exceptions are signalling: IEEE_INVALID_FLAG IEEE_DENORMAL
Note: The following floating-point exceptions are signalling: IEEE_DENORMAL
Note: The following floating-point exceptions are signalling: IEEE_DENORMAL
Note: The following floating-point exceptions are signalling: IEEE_DENORMAL
Note: The following floating-point exceptions are signalling: IEEE_DENORMAL
Note: The following floating-point exceptions are signalling: IEEE_DENORMAL
Note: The following floating-point exceptions are signalling: IEEE_DENORMAL
