
     Program PWSCF v.6.7MaX starts on 18Dec2022 at  3:28:44 

     This program is part of the open-source Quantum ESPRESSO suite
     for quantum simulation of materials; please cite
         "P. Giannozzi et al., J. Phys.:Condens. Matter 21 395502 (2009);
         "P. Giannozzi et al., J. Phys.:Condens. Matter 29 465901 (2017);
          URL http://www.quantum-espresso.org", 
     in publications or presentations arising from this work. More details at
     http://www.quantum-espresso.org/quote

     Parallel version (MPI), running on    24 processors

     MPI processes distributed on     1 nodes
     R & G space division:  proc/nbgrp/npool/nimage =      24
     Reading input from scale_2dab-04.in

     Current dimensions of program PWSCF are:
     Max number of different atomic species (ntypx) = 10
     Max number of k-points (npk) =  40000
     Max angular momentum in pseudopotentials (lmaxx) =  3
     Message from routine read_pp_mesh:
     mesh size missing, using the one in header
     file Fe.pbe-spn-kjpaw_psl.0.2.1.UPF: wavefunction(s)  3D renormalized
     file O.pbe-n-kjpaw_psl.0.1.UPF: wavefunction(s)  2P renormalized

     Subspace diagonalization in iterative solution of the eigenvalue problem:
     a serial algorithm will be used

     Message from routine setup:
     using ibrav=0 with symmetry is DISCOURAGED, use correct ibrav instead

     Parallelization info
     --------------------
     sticks:   dense  smooth     PW     G-vecs:    dense   smooth      PW
     Min         883     327     88                57601    12979    1821
     Max         884     328     90                57604    12981    1823
     Sum       21211    7849   2123              1382463   311535   43725



     bravais-lattice index     =            0
     lattice parameter (alat)  =      20.3206  a.u.
     unit-cell volume          =    2306.7820 (a.u.)^3
     number of atoms/cell      =           25
     number of atomic types    =            4
     number of electrons       =       189.00
     number of Kohn-Sham states=          114
     kinetic-energy cutoff     =     100.0000  Ry
     charge density cutoff     =    1080.0000  Ry
     scf convergence threshold =      2.0E-10
     mixing beta               =       0.4000
     number of iterations used =            8  plain     mixing
     Exchange-correlation= PBE
                           (   1   4   3   4   0   0   0)

     celldm(1)=  20.320559  celldm(2)=   0.000000  celldm(3)=   0.000000
     celldm(4)=   0.000000  celldm(5)=   0.000000  celldm(6)=   0.000000

     crystal axes: (cart. coord. in units of alat)
               a(1) = (   1.000000   0.000000   0.000000 )  
               a(2) = (   0.000000   0.597590   0.000000 )  
               a(3) = (   0.000000   0.000000   0.460041 )  

     reciprocal axes: (cart. coord. in units 2 pi/alat)
               b(1) = (  1.000000  0.000000  0.000000 )  
               b(2) = (  0.000000  1.673388  0.000000 )  
               b(3) = (  0.000000  0.000000  2.173720 )  


     PseudoPot. # 1 for Fe read from file:
     /opt/QEpot/SSSP_precision_pseudos/Fe.pbe-spn-kjpaw_psl.0.2.1.UPF
     MD5 check sum: e86618425769142926afa95317d90200
     Pseudo is Projector augmented-wave + core cor, Zval = 16.0
     Generated using "atomic" code by A. Dal Corso  v.5.0.99 svn rev. 10869
     Shape of augmentation charge: PSQ
     Using radial grid of 1191 points,  6 beta functions with: 
                l(1) =   0
                l(2) =   0
                l(3) =   1
                l(4) =   1
                l(5) =   2
                l(6) =   2
     Q(r) pseudized with 0 coefficients 


     PseudoPot. # 2 for Na read from file:
     /opt/QEpot/SSSP_precision_pseudos/Na_ONCV_PBE-1.0.oncvpsp.upf
     MD5 check sum: 24a298df0a6742ae313db96548fdb2a4
     Pseudo is Norm-conserving, Zval =  9.0
     Generated using ONCVPSP code by D. R. Hamann
     Using radial grid of 1992 points,  4 beta functions with: 
                l(1) =   0
                l(2) =   0
                l(3) =   1
                l(4) =   1

     PseudoPot. # 3 for O  read from file:
     /opt/QEpot/SSSP_precision_pseudos/O.pbe-n-kjpaw_psl.0.1.UPF
     MD5 check sum: 0234752ac141de4415c5fc33072bef88
     Pseudo is Projector augmented-wave + core cor, Zval =  6.0
     Generated using "atomic" code by A. Dal Corso  v.5.0.99 svn rev. 10869
     Shape of augmentation charge: BESSEL
     Using radial grid of 1095 points,  4 beta functions with: 
                l(1) =   0
                l(2) =   0
                l(3) =   1
                l(4) =   1
     Q(r) pseudized with 0 coefficients 


     PseudoPot. # 4 for P  read from file:
     /opt/QEpot/SSSP_precision_pseudos/P.pbe-n-rrkjus_psl.1.0.0.UPF
     MD5 check sum: 8b930f418f0a4573dca56cd030ffe088
     Pseudo is Ultrasoft + core correction, Zval =  5.0
     Generated using "atomic" code by A. Dal Corso  v.5.1
     Using radial grid of 1147 points,  6 beta functions with: 
                l(1) =   0
                l(2) =   0
                l(3) =   1
                l(4) =   1
                l(5) =   2
                l(6) =   2
     Q(r) pseudized with 0 coefficients 


     atomic species   valence    mass     pseudopotential
        Fe            16.00    55.84500     Fe( 1.00)
        Na             9.00    22.98977     Na( 1.00)
        O              6.00    15.99940     O ( 1.00)
        P              5.00    30.97376     P ( 1.00)

     Starting magnetic structure 
     atomic species   magnetization
        Fe           0.312
        Na           0.000
        O            0.000
        P            0.000

      2 Sym. Ops. (no inversion) found ( 1 have fractional translation)


                                    s                        frac. trans.

      isym =  1     identity                                     

 cryst.   s( 1) = (     1          0          0      )
                  (     0          1          0      )
                  (     0          0          1      )

 cart.    s( 1) = (  1.0000000  0.0000000  0.0000000 )
                  (  0.0000000  1.0000000  0.0000000 )
                  (  0.0000000  0.0000000  1.0000000 )


      isym =  2     inv. 180 deg rotation - cart. axis [0,1,0]   

 cryst.   s( 2) = (     1          0          0      )    f =(  0.0000000 )
                  (     0         -1          0      )       (  0.4999980 )
                  (     0          0          1      )       (  0.0000000 )

 cart.    s( 2) = (  1.0000000  0.0000000  0.0000000 )    f =(  0.0000000 )
                  (  0.0000000 -1.0000000  0.0000000 )       (  0.2987938 )
                  (  0.0000000  0.0000000  1.0000000 )       (  0.0000000 )


   Cartesian axes

     site n.     atom                  positions (alat units)
         1           Na  tau(   1) = (   0.5574590   0.1493981   0.2048921  )
         2           Fe  tau(   2) = (   0.2771150   0.4481954   0.4560803  )
         3           Fe  tau(   3) = (   0.2107060   0.1493969   0.2256307  )
         4           Fe  tau(   4) = (   0.7302140   0.1493975   0.0000492  )
         5           Fe  tau(   5) = (   0.7810190   0.4481960   0.2367043  )
         6           P   tau(   6) = (   0.1051510   0.4481942   0.2042066  )
         7           P   tau(   7) = (   0.3871250   0.1493987   0.4331514  )
         8           P   tau(   8) = (   0.8922730   0.1493987   0.2560702  )
         9           P   tau(   9) = (   0.6039150   0.4481942   0.0304156  )
        10           O   tau(  10) = (   0.1313210   0.4481948   0.3454212  )
        11           O   tau(  11) = (   0.3628270   0.1493981   0.1148170  )
        12           O   tau(  12) = (   0.8714480   0.1493981   0.1142875  )
        13           O   tau(  13) = (   0.6323650   0.4481948   0.3497046  )
        14           O   tau(  14) = (   0.4574600   0.4481948   0.0549937  )
        15           O   tau(  15) = (   0.0361810   0.1493981   0.2886374  )
        16           O   tau(  16) = (   0.5358400   0.1493975   0.4121851  )
        17           O   tau(  17) = (   0.9582930   0.4481948   0.1799804  )
        18           O   tau(  18) = (   0.1741600   0.5648814   0.1378186  )
        19           O   tau(  19) = (   0.3208130   0.0329153   0.3658277  )
        20           O   tau(  20) = (   0.8175190   0.2646445   0.3199795  )
        21           O   tau(  21) = (   0.6721860   0.3307857   0.0980319  )
        22           O   tau(  22) = (   0.8175190   0.0341529   0.3199800  )
        23           O   tau(  23) = (   0.6721870   0.5656027   0.0980329  )
        24           O   tau(  24) = (   0.1741600   0.3315070   0.1378186  )
        25           O   tau(  25) = (   0.3208140   0.2658821   0.3658286  )

   Crystallographic axes

     site n.     atom                  positions (cryst. coord.)
         1           Na  tau(   1) = (  0.5574590  0.2500010  0.4453780  )
         2           Fe  tau(   2) = (  0.2771150  0.7500050  0.9913910  )
         3           Fe  tau(   3) = (  0.2107060  0.2499990  0.4904580  )
         4           Fe  tau(   4) = (  0.7302140  0.2500000  0.0001070  )
         5           Fe  tau(   5) = (  0.7810190  0.7500060  0.5145290  )
         6           P   tau(   6) = (  0.1051510  0.7500030  0.4438880  )
         7           P   tau(   7) = (  0.3871250  0.2500020  0.9415500  )
         8           P   tau(   8) = (  0.8922730  0.2500020  0.5566250  )
         9           P   tau(   9) = (  0.6039150  0.7500030  0.0661150  )
        10           O   tau(  10) = (  0.1313210  0.7500040  0.7508490  )
        11           O   tau(  11) = (  0.3628270  0.2500010  0.2495800  )
        12           O   tau(  12) = (  0.8714480  0.2500010  0.2484290  )
        13           O   tau(  13) = (  0.6323650  0.7500040  0.7601600  )
        14           O   tau(  14) = (  0.4574600  0.7500040  0.1195410  )
        15           O   tau(  15) = (  0.0361810  0.2500010  0.6274170  )
        16           O   tau(  16) = (  0.5358400  0.2500000  0.8959750  )
        17           O   tau(  17) = (  0.9582930  0.7500040  0.3912270  )
        18           O   tau(  18) = (  0.1741600  0.9452660  0.2995790  )
        19           O   tau(  19) = (  0.3208130  0.0550800  0.7952070  )
        20           O   tau(  20) = (  0.8175190  0.4428530  0.6955460  )
        21           O   tau(  21) = (  0.6721860  0.5535330  0.2130940  )
        22           O   tau(  22) = (  0.8175190  0.0571510  0.6955470  )
        23           O   tau(  23) = (  0.6721870  0.9464730  0.2130960  )
        24           O   tau(  24) = (  0.1741600  0.5547400  0.2995790  )
        25           O   tau(  25) = (  0.3208140  0.4449240  0.7952090  )

     number of k points=    92  Marzari-Vanderbilt smearing, width (Ry)=  0.0073
                       cart. coord. in units 2pi/alat
        k(    1) = (   0.0000000   0.0000000   0.0000000), wk =   0.0031746
        k(    2) = (   0.0000000   0.0000000   0.2415245), wk =   0.0063492
        k(    3) = (   0.0000000   0.0000000   0.4830489), wk =   0.0063492
        k(    4) = (   0.0000000   0.0000000   0.7245734), wk =   0.0063492
        k(    5) = (   0.0000000   0.0000000   0.9660979), wk =   0.0063492
        k(    6) = (   0.0000000   0.2390555   0.0000000), wk =   0.0063492
        k(    7) = (   0.0000000   0.2390555   0.2415245), wk =   0.0126984
        k(    8) = (   0.0000000   0.2390555   0.4830489), wk =   0.0126984
        k(    9) = (   0.0000000   0.2390555   0.7245734), wk =   0.0126984
        k(   10) = (   0.0000000   0.2390555   0.9660979), wk =   0.0126984
        k(   11) = (   0.0000000   0.4781110   0.0000000), wk =   0.0063492
        k(   12) = (   0.0000000   0.4781110   0.2415245), wk =   0.0126984
        k(   13) = (   0.0000000   0.4781110   0.4830489), wk =   0.0126984
        k(   14) = (   0.0000000   0.4781110   0.7245734), wk =   0.0126984
        k(   15) = (   0.0000000   0.4781110   0.9660979), wk =   0.0126984
        k(   16) = (   0.0000000   0.7171664   0.0000000), wk =   0.0063492
        k(   17) = (   0.0000000   0.7171664   0.2415245), wk =   0.0126984
        k(   18) = (   0.0000000   0.7171664   0.4830489), wk =   0.0126984
        k(   19) = (   0.0000000   0.7171664   0.7245734), wk =   0.0126984
        k(   20) = (   0.0000000   0.7171664   0.9660979), wk =   0.0126984
        k(   21) = (   0.2000000   0.0000000   0.0000000), wk =   0.0063492
        k(   22) = (   0.2000000   0.0000000   0.2415245), wk =   0.0063492
        k(   23) = (   0.2000000   0.0000000   0.4830489), wk =   0.0063492
        k(   24) = (   0.2000000   0.0000000   0.7245734), wk =   0.0063492
        k(   25) = (   0.2000000   0.0000000   0.9660979), wk =   0.0063492
        k(   26) = (   0.2000000   0.2390555   0.0000000), wk =   0.0126984
        k(   27) = (   0.2000000   0.2390555   0.2415245), wk =   0.0126984
        k(   28) = (   0.2000000   0.2390555   0.4830489), wk =   0.0126984
        k(   29) = (   0.2000000   0.2390555   0.7245734), wk =   0.0126984
        k(   30) = (   0.2000000   0.2390555   0.9660979), wk =   0.0126984
        k(   31) = (   0.2000000   0.4781110   0.0000000), wk =   0.0126984
        k(   32) = (   0.2000000   0.4781110   0.2415245), wk =   0.0126984
        k(   33) = (   0.2000000   0.4781110   0.4830489), wk =   0.0126984
        k(   34) = (   0.2000000   0.4781110   0.7245734), wk =   0.0126984
        k(   35) = (   0.2000000   0.4781110   0.9660979), wk =   0.0126984
        k(   36) = (   0.2000000   0.7171664   0.0000000), wk =   0.0126984
        k(   37) = (   0.2000000   0.7171664   0.2415245), wk =   0.0126984
        k(   38) = (   0.2000000   0.7171664   0.4830489), wk =   0.0126984
        k(   39) = (   0.2000000   0.7171664   0.7245734), wk =   0.0126984
        k(   40) = (   0.2000000   0.7171664   0.9660979), wk =   0.0126984
        k(   41) = (   0.4000000   0.0000000   0.0000000), wk =   0.0063492
        k(   42) = (   0.4000000   0.0000000   0.2415245), wk =   0.0063492
        k(   43) = (   0.4000000   0.0000000   0.4830489), wk =   0.0063492
        k(   44) = (   0.4000000   0.0000000   0.7245734), wk =   0.0063492
        k(   45) = (   0.4000000   0.0000000   0.9660979), wk =   0.0063492
        k(   46) = (   0.4000000   0.2390555   0.0000000), wk =   0.0126984
        k(   47) = (   0.4000000   0.2390555   0.2415245), wk =   0.0126984
        k(   48) = (   0.4000000   0.2390555   0.4830489), wk =   0.0126984
        k(   49) = (   0.4000000   0.2390555   0.7245734), wk =   0.0126984
        k(   50) = (   0.4000000   0.2390555   0.9660979), wk =   0.0126984
        k(   51) = (   0.4000000   0.4781110   0.0000000), wk =   0.0126984
        k(   52) = (   0.4000000   0.4781110   0.2415245), wk =   0.0126984
        k(   53) = (   0.4000000   0.4781110   0.4830489), wk =   0.0126984
        k(   54) = (   0.4000000   0.4781110   0.7245734), wk =   0.0126984
        k(   55) = (   0.4000000   0.4781110   0.9660979), wk =   0.0126984
        k(   56) = (   0.4000000   0.7171664   0.0000000), wk =   0.0126984
        k(   57) = (   0.4000000   0.7171664   0.2415245), wk =   0.0126984
        k(   58) = (   0.4000000   0.7171664   0.4830489), wk =   0.0126984
        k(   59) = (   0.4000000   0.7171664   0.7245734), wk =   0.0126984
        k(   60) = (   0.4000000   0.7171664   0.9660979), wk =   0.0126984
        k(   61) = (   0.2000000   0.0000000  -0.2415245), wk =   0.0063492
        k(   62) = (   0.2000000   0.0000000  -0.4830489), wk =   0.0063492
        k(   63) = (   0.2000000   0.0000000  -0.7245734), wk =   0.0063492
        k(   64) = (   0.2000000   0.0000000  -0.9660979), wk =   0.0063492
        k(   65) = (   0.2000000  -0.2390555  -0.2415245), wk =   0.0126984
        k(   66) = (   0.2000000  -0.2390555  -0.4830489), wk =   0.0126984
        k(   67) = (   0.2000000  -0.2390555  -0.7245734), wk =   0.0126984
        k(   68) = (   0.2000000  -0.2390555  -0.9660979), wk =   0.0126984
        k(   69) = (   0.2000000  -0.4781110  -0.2415245), wk =   0.0126984
        k(   70) = (   0.2000000  -0.4781110  -0.4830489), wk =   0.0126984
        k(   71) = (   0.2000000  -0.4781110  -0.7245734), wk =   0.0126984
        k(   72) = (   0.2000000  -0.4781110  -0.9660979), wk =   0.0126984
        k(   73) = (   0.2000000  -0.7171664  -0.2415245), wk =   0.0126984
        k(   74) = (   0.2000000  -0.7171664  -0.4830489), wk =   0.0126984
        k(   75) = (   0.2000000  -0.7171664  -0.7245734), wk =   0.0126984
        k(   76) = (   0.2000000  -0.7171664  -0.9660979), wk =   0.0126984
        k(   77) = (   0.4000000   0.0000000  -0.2415245), wk =   0.0063492
        k(   78) = (   0.4000000   0.0000000  -0.4830489), wk =   0.0063492
        k(   79) = (   0.4000000   0.0000000  -0.7245734), wk =   0.0063492
        k(   80) = (   0.4000000   0.0000000  -0.9660979), wk =   0.0063492
        k(   81) = (   0.4000000  -0.2390555  -0.2415245), wk =   0.0126984
        k(   82) = (   0.4000000  -0.2390555  -0.4830489), wk =   0.0126984
        k(   83) = (   0.4000000  -0.2390555  -0.7245734), wk =   0.0126984
        k(   84) = (   0.4000000  -0.2390555  -0.9660979), wk =   0.0126984
        k(   85) = (   0.4000000  -0.4781110  -0.2415245), wk =   0.0126984
        k(   86) = (   0.4000000  -0.4781110  -0.4830489), wk =   0.0126984
        k(   87) = (   0.4000000  -0.4781110  -0.7245734), wk =   0.0126984
        k(   88) = (   0.4000000  -0.4781110  -0.9660979), wk =   0.0126984
        k(   89) = (   0.4000000  -0.7171664  -0.2415245), wk =   0.0126984
        k(   90) = (   0.4000000  -0.7171664  -0.4830489), wk =   0.0126984
        k(   91) = (   0.4000000  -0.7171664  -0.7245734), wk =   0.0126984
        k(   92) = (   0.4000000  -0.7171664  -0.9660979), wk =   0.0126984

                       cryst. coord.
        k(    1) = (   0.0000000   0.0000000   0.0000000), wk =   0.0031746
        k(    2) = (   0.0000000   0.0000000   0.1111111), wk =   0.0063492
        k(    3) = (   0.0000000   0.0000000   0.2222222), wk =   0.0063492
        k(    4) = (   0.0000000   0.0000000   0.3333333), wk =   0.0063492
        k(    5) = (   0.0000000   0.0000000   0.4444444), wk =   0.0063492
        k(    6) = (   0.0000000   0.1428571   0.0000000), wk =   0.0063492
        k(    7) = (   0.0000000   0.1428571   0.1111111), wk =   0.0126984
        k(    8) = (   0.0000000   0.1428571   0.2222222), wk =   0.0126984
        k(    9) = (   0.0000000   0.1428571   0.3333333), wk =   0.0126984
        k(   10) = (   0.0000000   0.1428571   0.4444444), wk =   0.0126984
        k(   11) = (   0.0000000   0.2857143   0.0000000), wk =   0.0063492
        k(   12) = (   0.0000000   0.2857143   0.1111111), wk =   0.0126984
        k(   13) = (   0.0000000   0.2857143   0.2222222), wk =   0.0126984
        k(   14) = (   0.0000000   0.2857143   0.3333333), wk =   0.0126984
        k(   15) = (   0.0000000   0.2857143   0.4444444), wk =   0.0126984
        k(   16) = (   0.0000000   0.4285714   0.0000000), wk =   0.0063492
        k(   17) = (   0.0000000   0.4285714   0.1111111), wk =   0.0126984
        k(   18) = (   0.0000000   0.4285714   0.2222222), wk =   0.0126984
        k(   19) = (   0.0000000   0.4285714   0.3333333), wk =   0.0126984
        k(   20) = (   0.0000000   0.4285714   0.4444444), wk =   0.0126984
        k(   21) = (   0.2000000   0.0000000   0.0000000), wk =   0.0063492
        k(   22) = (   0.2000000   0.0000000   0.1111111), wk =   0.0063492
        k(   23) = (   0.2000000   0.0000000   0.2222222), wk =   0.0063492
        k(   24) = (   0.2000000   0.0000000   0.3333333), wk =   0.0063492
        k(   25) = (   0.2000000   0.0000000   0.4444444), wk =   0.0063492
        k(   26) = (   0.2000000   0.1428571   0.0000000), wk =   0.0126984
        k(   27) = (   0.2000000   0.1428571   0.1111111), wk =   0.0126984
        k(   28) = (   0.2000000   0.1428571   0.2222222), wk =   0.0126984
        k(   29) = (   0.2000000   0.1428571   0.3333333), wk =   0.0126984
        k(   30) = (   0.2000000   0.1428571   0.4444444), wk =   0.0126984
        k(   31) = (   0.2000000   0.2857143   0.0000000), wk =   0.0126984
        k(   32) = (   0.2000000   0.2857143   0.1111111), wk =   0.0126984
        k(   33) = (   0.2000000   0.2857143   0.2222222), wk =   0.0126984
        k(   34) = (   0.2000000   0.2857143   0.3333333), wk =   0.0126984
        k(   35) = (   0.2000000   0.2857143   0.4444444), wk =   0.0126984
        k(   36) = (   0.2000000   0.4285714   0.0000000), wk =   0.0126984
        k(   37) = (   0.2000000   0.4285714   0.1111111), wk =   0.0126984
        k(   38) = (   0.2000000   0.4285714   0.2222222), wk =   0.0126984
        k(   39) = (   0.2000000   0.4285714   0.3333333), wk =   0.0126984
        k(   40) = (   0.2000000   0.4285714   0.4444444), wk =   0.0126984
        k(   41) = (   0.4000000   0.0000000   0.0000000), wk =   0.0063492
        k(   42) = (   0.4000000   0.0000000   0.1111111), wk =   0.0063492
        k(   43) = (   0.4000000   0.0000000   0.2222222), wk =   0.0063492
        k(   44) = (   0.4000000   0.0000000   0.3333333), wk =   0.0063492
        k(   45) = (   0.4000000   0.0000000   0.4444444), wk =   0.0063492
        k(   46) = (   0.4000000   0.1428571   0.0000000), wk =   0.0126984
        k(   47) = (   0.4000000   0.1428571   0.1111111), wk =   0.0126984
        k(   48) = (   0.4000000   0.1428571   0.2222222), wk =   0.0126984
        k(   49) = (   0.4000000   0.1428571   0.3333333), wk =   0.0126984
        k(   50) = (   0.4000000   0.1428571   0.4444444), wk =   0.0126984
        k(   51) = (   0.4000000   0.2857143   0.0000000), wk =   0.0126984
        k(   52) = (   0.4000000   0.2857143   0.1111111), wk =   0.0126984
        k(   53) = (   0.4000000   0.2857143   0.2222222), wk =   0.0126984
        k(   54) = (   0.4000000   0.2857143   0.3333333), wk =   0.0126984
        k(   55) = (   0.4000000   0.2857143   0.4444444), wk =   0.0126984
        k(   56) = (   0.4000000   0.4285714   0.0000000), wk =   0.0126984
        k(   57) = (   0.4000000   0.4285714   0.1111111), wk =   0.0126984
        k(   58) = (   0.4000000   0.4285714   0.2222222), wk =   0.0126984
        k(   59) = (   0.4000000   0.4285714   0.3333333), wk =   0.0126984
        k(   60) = (   0.4000000   0.4285714   0.4444444), wk =   0.0126984
        k(   61) = (   0.2000000   0.0000000  -0.1111111), wk =   0.0063492
        k(   62) = (   0.2000000   0.0000000  -0.2222222), wk =   0.0063492
        k(   63) = (   0.2000000   0.0000000  -0.3333333), wk =   0.0063492
        k(   64) = (   0.2000000   0.0000000  -0.4444444), wk =   0.0063492
        k(   65) = (   0.2000000  -0.1428571  -0.1111111), wk =   0.0126984
        k(   66) = (   0.2000000  -0.1428571  -0.2222222), wk =   0.0126984
        k(   67) = (   0.2000000  -0.1428571  -0.3333333), wk =   0.0126984
        k(   68) = (   0.2000000  -0.1428571  -0.4444444), wk =   0.0126984
        k(   69) = (   0.2000000  -0.2857143  -0.1111111), wk =   0.0126984
        k(   70) = (   0.2000000  -0.2857143  -0.2222222), wk =   0.0126984
        k(   71) = (   0.2000000  -0.2857143  -0.3333333), wk =   0.0126984
        k(   72) = (   0.2000000  -0.2857143  -0.4444444), wk =   0.0126984
        k(   73) = (   0.2000000  -0.4285714  -0.1111111), wk =   0.0126984
        k(   74) = (   0.2000000  -0.4285714  -0.2222222), wk =   0.0126984
        k(   75) = (   0.2000000  -0.4285714  -0.3333333), wk =   0.0126984
        k(   76) = (   0.2000000  -0.4285714  -0.4444444), wk =   0.0126984
        k(   77) = (   0.4000000   0.0000000  -0.1111111), wk =   0.0063492
        k(   78) = (   0.4000000   0.0000000  -0.2222222), wk =   0.0063492
        k(   79) = (   0.4000000   0.0000000  -0.3333333), wk =   0.0063492
        k(   80) = (   0.4000000   0.0000000  -0.4444444), wk =   0.0063492
        k(   81) = (   0.4000000  -0.1428571  -0.1111111), wk =   0.0126984
        k(   82) = (   0.4000000  -0.1428571  -0.2222222), wk =   0.0126984
        k(   83) = (   0.4000000  -0.1428571  -0.3333333), wk =   0.0126984
        k(   84) = (   0.4000000  -0.1428571  -0.4444444), wk =   0.0126984
        k(   85) = (   0.4000000  -0.2857143  -0.1111111), wk =   0.0126984
        k(   86) = (   0.4000000  -0.2857143  -0.2222222), wk =   0.0126984
        k(   87) = (   0.4000000  -0.2857143  -0.3333333), wk =   0.0126984
        k(   88) = (   0.4000000  -0.2857143  -0.4444444), wk =   0.0126984
        k(   89) = (   0.4000000  -0.4285714  -0.1111111), wk =   0.0126984
        k(   90) = (   0.4000000  -0.4285714  -0.2222222), wk =   0.0126984
        k(   91) = (   0.4000000  -0.4285714  -0.3333333), wk =   0.0126984
        k(   92) = (   0.4000000  -0.4285714  -0.4444444), wk =   0.0126984

     Dense  grid:  1382463 G-vectors     FFT dimensions: ( 216, 128, 100)

     Smooth grid:   311535 G-vectors     FFT dimensions: ( 135,  80,  60)

     Dynamical RAM for                 wfc:       2.82 MB

     Dynamical RAM for     wfc (w. buffer):     522.29 MB

     Dynamical RAM for           str. fact:       3.52 MB

     Dynamical RAM for           local pot:       0.00 MB

     Dynamical RAM for          nlocal pot:       6.93 MB

     Dynamical RAM for                qrad:      10.54 MB

     Dynamical RAM for          rho,v,vnew:      11.60 MB

     Dynamical RAM for               rhoin:       3.87 MB

     Dynamical RAM for            rho*nmix:      28.13 MB

     Dynamical RAM for           G-vectors:       3.40 MB

     Dynamical RAM for          h,s,v(r/c):       2.38 MB

     Dynamical RAM for          <psi|beta>:       0.49 MB

     Dynamical RAM for                 psi:       5.65 MB

     Dynamical RAM for                hpsi:       5.65 MB

     Dynamical RAM for                spsi:       5.65 MB

     Dynamical RAM for      wfcinit/wfcrot:       7.22 MB

     Dynamical RAM for           addusdens:     178.43 MB

     Dynamical RAM for          addusforce:     204.92 MB

     Dynamical RAM for         addusstress:     177.99 MB

     Estimated static dynamical RAM per process >     601.00 MB

     Estimated max dynamical RAM per process >     805.92 MB

     Estimated total dynamical RAM >      18.89 GB

     Check: negative core charge=   -0.000003
     Generating pointlists ...
     new r_m :   0.0749 (alat units)  1.5226 (a.u.) for type    1
     new r_m :   0.0860 (alat units)  1.7470 (a.u.) for type    2
     new r_m :   0.0591 (alat units)  1.2012 (a.u.) for type    3
     new r_m :   0.0591 (alat units)  1.2012 (a.u.) for type    4

     Initial potential from superposition of free atoms

     starting charge  188.99132, renormalised to  189.00000
     Starting wfcs are  137 randomized atomic wfcs
     Checking if some PAW data can be deallocated... 
       PAW data deallocated on   20 nodes for type:  1
       PAW data deallocated on    8 nodes for type:  3

     total cpu time spent up to now is      131.3 secs

     Self-consistent Calculation

     iteration #  1     ecut=   100.00 Ry     beta= 0.40
     Davidson diagonalization with overlap
     ethr =  1.00E-02,  avg # of iterations =  2.9

     negative rho (up, down):  0.000E+00 1.404E-04

     total cpu time spent up to now is      516.3 secs

     total energy              =   -2123.65694893 Ry
     estimated scf accuracy    <       7.25083033 Ry

     total magnetization       =    19.00 Bohr mag/cell
     absolute magnetization    =    19.00 Bohr mag/cell

     iteration #  2     ecut=   100.00 Ry     beta= 0.40
     Davidson diagonalization with overlap
     ethr =  3.84E-03,  avg # of iterations =  2.0

     negative rho (up, down):  0.000E+00 6.390E-05

     total cpu time spent up to now is      876.8 secs

     total energy              =   -2120.06044601 Ry
     estimated scf accuracy    <      54.58420253 Ry

     total magnetization       =     5.97 Bohr mag/cell
     absolute magnetization    =     7.64 Bohr mag/cell

     iteration #  3     ecut=   100.00 Ry     beta= 0.40
     Davidson diagonalization with overlap
     ethr =  3.84E-03,  avg # of iterations =  2.8

     negative rho (up, down):  0.000E+00 5.174E-05

     total cpu time spent up to now is     1200.4 secs

     total energy              =   -2123.15478173 Ry
     estimated scf accuracy    <      56.43681119 Ry

     total magnetization       =     4.54 Bohr mag/cell
     absolute magnetization    =     8.57 Bohr mag/cell

     iteration #  4     ecut=   100.00 Ry     beta= 0.40
     Davidson diagonalization with overlap
     ethr =  3.84E-03,  avg # of iterations =  1.5

     negative rho (up, down):  0.000E+00 5.145E-05

     total cpu time spent up to now is     1479.2 secs

     total energy              =   -2124.45499630 Ry
     estimated scf accuracy    <      30.98912682 Ry

     total magnetization       =     9.00 Bohr mag/cell
     absolute magnetization    =     9.31 Bohr mag/cell

     iteration #  5     ecut=   100.00 Ry     beta= 0.40
     Davidson diagonalization with overlap
     ethr =  3.84E-03,  avg # of iterations =  1.9

     negative rho (up, down):  0.000E+00 1.489E-04

     total cpu time spent up to now is     1779.6 secs

     total energy              =   -2125.94900313 Ry
     estimated scf accuracy    <       2.14417278 Ry

     total magnetization       =    19.14 Bohr mag/cell
     absolute magnetization    =    19.14 Bohr mag/cell

     iteration #  6     ecut=   100.00 Ry     beta= 0.40
     Davidson diagonalization with overlap
     ethr =  1.13E-03,  avg # of iterations =  1.9

     negative rho (up, down):  0.000E+00 2.184E-04

     total cpu time spent up to now is     2079.2 secs

     total energy              =   -2125.95830667 Ry
     estimated scf accuracy    <       0.68141903 Ry

     total magnetization       =    19.00 Bohr mag/cell
     absolute magnetization    =    19.00 Bohr mag/cell

     iteration #  7     ecut=   100.00 Ry     beta= 0.40
     Davidson diagonalization with overlap
     ethr =  3.61E-04,  avg # of iterations =  2.2

     negative rho (up, down):  0.000E+00 3.387E-04

     total cpu time spent up to now is     2386.8 secs

     total energy              =   -2125.96792302 Ry
     estimated scf accuracy    <       0.99681833 Ry

     total magnetization       =    19.00 Bohr mag/cell
     absolute magnetization    =    19.00 Bohr mag/cell

     iteration #  8     ecut=   100.00 Ry     beta= 0.40
     Davidson diagonalization with overlap
     ethr =  3.61E-04,  avg # of iterations =  1.5

     negative rho (up, down):  0.000E+00 3.835E-04

     total cpu time spent up to now is     2667.9 secs

     total energy              =   -2126.02552226 Ry
     estimated scf accuracy    <       0.60841591 Ry

     total magnetization       =    19.00 Bohr mag/cell
     absolute magnetization    =    19.01 Bohr mag/cell

     iteration #  9     ecut=   100.00 Ry     beta= 0.40
     Davidson diagonalization with overlap
     ethr =  3.22E-04,  avg # of iterations =  1.1

     negative rho (up, down):  0.000E+00 5.418E-04

     total cpu time spent up to now is     2928.2 secs

     total energy              =   -2126.01762134 Ry
     estimated scf accuracy    <       0.38638605 Ry

     total magnetization       =    19.00 Bohr mag/cell
     absolute magnetization    =    19.01 Bohr mag/cell

     iteration # 10     ecut=   100.00 Ry     beta= 0.40
     Davidson diagonalization with overlap
     ethr =  2.04E-04,  avg # of iterations =  2.2

     negative rho (up, down):  0.000E+00 6.811E-04

     total cpu time spent up to now is     3214.3 secs

     total energy              =   -2126.01980775 Ry
     estimated scf accuracy    <       0.13460472 Ry

     total magnetization       =    19.00 Bohr mag/cell
     absolute magnetization    =    19.01 Bohr mag/cell

     iteration # 11     ecut=   100.00 Ry     beta= 0.40
     Davidson diagonalization with overlap
     c_bands:  1 eigenvalues not converged
     c_bands:  1 eigenvalues not converged
     c_bands:  1 eigenvalues not converged
     c_bands:  1 eigenvalues not converged
     c_bands:  1 eigenvalues not converged
     c_bands:  1 eigenvalues not converged
     c_bands:  1 eigenvalues not converged
     c_bands:  1 eigenvalues not converged
     c_bands:  2 eigenvalues not converged
     c_bands:  1 eigenvalues not converged
     c_bands:  2 eigenvalues not converged
     c_bands:  1 eigenvalues not converged
     c_bands:  2 eigenvalues not converged
     c_bands:  3 eigenvalues not converged
     c_bands:  1 eigenvalues not converged
     c_bands:  1 eigenvalues not converged
     c_bands:  1 eigenvalues not converged
     ethr =  7.12E-05,  avg # of iterations = 11.5

     negative rho (up, down):  0.000E+00 8.720E-04

     total cpu time spent up to now is     3653.1 secs

     total energy              =   -2126.02340128 Ry
     estimated scf accuracy    <       0.03568396 Ry

     total magnetization       =    19.00 Bohr mag/cell
     absolute magnetization    =    19.02 Bohr mag/cell

     iteration # 12     ecut=   100.00 Ry     beta= 0.40
     Davidson diagonalization with overlap
     c_bands:  1 eigenvalues not converged
     c_bands:  1 eigenvalues not converged
     c_bands:  1 eigenvalues not converged
     c_bands:  1 eigenvalues not converged
     c_bands:  1 eigenvalues not converged
     c_bands:  1 eigenvalues not converged
     c_bands:  1 eigenvalues not converged
     ethr =  1.89E-05,  avg # of iterations = 12.4

     negative rho (up, down):  0.000E+00 8.477E-04

     total cpu time spent up to now is     4186.1 secs

     total energy              =   -2126.03107422 Ry
     estimated scf accuracy    <       0.43478112 Ry

     total magnetization       =    19.00 Bohr mag/cell
     absolute magnetization    =    19.04 Bohr mag/cell

     iteration # 13     ecut=   100.00 Ry     beta= 0.40
     Davidson diagonalization with overlap
     ethr =  1.89E-05,  avg # of iterations =  1.0

     negative rho (up, down):  0.000E+00 8.653E-04

     total cpu time spent up to now is     4443.5 secs

     total energy              =   -2126.03148010 Ry
     estimated scf accuracy    <       0.18279264 Ry

     total magnetization       =    19.00 Bohr mag/cell
     absolute magnetization    =    19.04 Bohr mag/cell

     iteration # 14     ecut=   100.00 Ry     beta= 0.40
     Davidson diagonalization with overlap
     ethr =  1.89E-05,  avg # of iterations =  1.0

     negative rho (up, down):  0.000E+00 8.514E-04

     total cpu time spent up to now is     4699.8 secs

     total energy              =   -2126.02801131 Ry
     estimated scf accuracy    <       0.14473781 Ry

     total magnetization       =    19.00 Bohr mag/cell
     absolute magnetization    =    19.04 Bohr mag/cell

     iteration # 15     ecut=   100.00 Ry     beta= 0.40
     Davidson diagonalization with overlap
     ethr =  1.89E-05,  avg # of iterations =  1.0

     negative rho (up, down):  0.000E+00 8.657E-04

     total cpu time spent up to now is     4957.2 secs

     total energy              =   -2126.03066470 Ry
     estimated scf accuracy    <       0.01473369 Ry

     total magnetization       =    19.00 Bohr mag/cell
     absolute magnetization    =    19.04 Bohr mag/cell

     iteration # 16     ecut=   100.00 Ry     beta= 0.40
     Davidson diagonalization with overlap
     c_bands:  2 eigenvalues not converged
     ethr =  7.80E-06,  avg # of iterations =  1.5

     negative rho (up, down):  0.000E+00 8.691E-04

     total cpu time spent up to now is     5227.2 secs

     total energy              =   -2126.03095029 Ry
     estimated scf accuracy    <       0.00346603 Ry

     total magnetization       =    19.00 Bohr mag/cell
     absolute magnetization    =    19.05 Bohr mag/cell

     iteration # 17     ecut=   100.00 Ry     beta= 0.40
     Davidson diagonalization with overlap
     c_bands:  1 eigenvalues not converged
     c_bands:  1 eigenvalues not converged
     c_bands:  1 eigenvalues not converged
     c_bands:  1 eigenvalues not converged
     c_bands:  1 eigenvalues not converged
     c_bands:  1 eigenvalues not converged
     c_bands:  1 eigenvalues not converged
     c_bands:  1 eigenvalues not converged
     c_bands:  1 eigenvalues not converged
     ethr =  1.83E-06,  avg # of iterations = 10.8

     negative rho (up, down):  0.000E+00 8.679E-04

     total cpu time spent up to now is     5654.7 secs

     total energy              =   -2126.03110920 Ry
     estimated scf accuracy    <       0.00084814 Ry

     total magnetization       =    19.00 Bohr mag/cell
     absolute magnetization    =    19.05 Bohr mag/cell

     iteration # 18     ecut=   100.00 Ry     beta= 0.40
     Davidson diagonalization with overlap
     c_bands:  2 eigenvalues not converged
     ethr =  4.49E-07,  avg # of iterations =  4.3

     negative rho (up, down):  0.000E+00 8.601E-04

     total cpu time spent up to now is     6032.0 secs

     total energy              =   -2126.03128093 Ry
     estimated scf accuracy    <       0.00008611 Ry

     total magnetization       =    19.00 Bohr mag/cell
     absolute magnetization    =    19.05 Bohr mag/cell

     iteration # 19     ecut=   100.00 Ry     beta= 0.40
     Davidson diagonalization with overlap
     ethr =  4.56E-08,  avg # of iterations =  3.9

     negative rho (up, down):  0.000E+00 8.522E-04

     total cpu time spent up to now is     6491.9 secs

     total energy              =   -2126.03132854 Ry
     estimated scf accuracy    <       0.00016228 Ry

     total magnetization       =    19.00 Bohr mag/cell
     absolute magnetization    =    19.05 Bohr mag/cell

     iteration # 20     ecut=   100.00 Ry     beta= 0.40
     Davidson diagonalization with overlap
     ethr =  4.56E-08,  avg # of iterations =  2.0

     negative rho (up, down):  0.000E+00 8.526E-04

     total cpu time spent up to now is     6805.6 secs

     total energy              =   -2126.03133984 Ry
     estimated scf accuracy    <       0.00016385 Ry

     total magnetization       =    19.00 Bohr mag/cell
     absolute magnetization    =    19.06 Bohr mag/cell

     iteration # 21     ecut=   100.00 Ry     beta= 0.40
     Davidson diagonalization with overlap
     ethr =  4.56E-08,  avg # of iterations =  1.0

     negative rho (up, down):  0.000E+00 8.516E-04

     total cpu time spent up to now is     7062.7 secs

     total energy              =   -2126.03134298 Ry
     estimated scf accuracy    <       0.00004318 Ry

     total magnetization       =    19.00 Bohr mag/cell
     absolute magnetization    =    19.06 Bohr mag/cell

     iteration # 22     ecut=   100.00 Ry     beta= 0.40
     Davidson diagonalization with overlap
     ethr =  2.28E-08,  avg # of iterations =  1.5

     negative rho (up, down):  0.000E+00 8.535E-04

     total cpu time spent up to now is     7339.4 secs

     total energy              =   -2126.03134554 Ry
     estimated scf accuracy    <       0.00001249 Ry

     total magnetization       =    19.00 Bohr mag/cell
     absolute magnetization    =    19.06 Bohr mag/cell

     iteration # 23     ecut=   100.00 Ry     beta= 0.40
     Davidson diagonalization with overlap
     ethr =  6.61E-09,  avg # of iterations =  2.0

     negative rho (up, down):  0.000E+00 8.547E-04

     total cpu time spent up to now is     7653.9 secs

     total energy              =   -2126.03134804 Ry
     estimated scf accuracy    <       0.00000883 Ry

     total magnetization       =    19.00 Bohr mag/cell
     absolute magnetization    =    19.06 Bohr mag/cell

     iteration # 24     ecut=   100.00 Ry     beta= 0.40
     Davidson diagonalization with overlap
     ethr =  4.67E-09,  avg # of iterations =  1.5

     negative rho (up, down):  0.000E+00 8.556E-04

     total cpu time spent up to now is     7930.1 secs

     total energy              =   -2126.03134878 Ry
     estimated scf accuracy    <       0.00000096 Ry

     total magnetization       =    19.00 Bohr mag/cell
     absolute magnetization    =    19.06 Bohr mag/cell

     iteration # 25     ecut=   100.00 Ry     beta= 0.40
     Davidson diagonalization with overlap
     ethr =  5.08E-10,  avg # of iterations =  4.6

     negative rho (up, down):  0.000E+00 8.559E-04

     total cpu time spent up to now is     8293.0 secs

     total energy              =   -2126.03134903 Ry
     estimated scf accuracy    <       0.00000028 Ry

     total magnetization       =    19.00 Bohr mag/cell
     absolute magnetization    =    19.06 Bohr mag/cell

     iteration # 26     ecut=   100.00 Ry     beta= 0.40
     Davidson diagonalization with overlap
     ethr =  1.50E-10,  avg # of iterations =  3.1

     negative rho (up, down):  0.000E+00 8.558E-04

     total cpu time spent up to now is     8639.2 secs

     total energy              =   -2126.03134914 Ry
     estimated scf accuracy    <       0.00000007 Ry

     total magnetization       =    19.00 Bohr mag/cell
     absolute magnetization    =    19.06 Bohr mag/cell

     iteration # 27     ecut=   100.00 Ry     beta= 0.40
     Davidson diagonalization with overlap
     ethr =  3.83E-11,  avg # of iterations =  3.9

     negative rho (up, down):  0.000E+00 8.557E-04

     total cpu time spent up to now is     9004.8 secs

     total energy              =   -2126.03134918 Ry
     estimated scf accuracy    <       0.00000007 Ry

     total magnetization       =    19.00 Bohr mag/cell
     absolute magnetization    =    19.06 Bohr mag/cell

     iteration # 28     ecut=   100.00 Ry     beta= 0.40
     Davidson diagonalization with overlap
     ethr =  3.56E-11,  avg # of iterations =  2.0

     negative rho (up, down):  0.000E+00 8.556E-04

     total cpu time spent up to now is     9317.4 secs

     total energy              =   -2126.03134921 Ry
     estimated scf accuracy    <       0.00000004 Ry

     total magnetization       =    19.00 Bohr mag/cell
     absolute magnetization    =    19.06 Bohr mag/cell

     iteration # 29     ecut=   100.00 Ry     beta= 0.40
     Davidson diagonalization with overlap
     ethr =  2.36E-11,  avg # of iterations =  2.0

     negative rho (up, down):  0.000E+00 8.555E-04

     total cpu time spent up to now is     9633.5 secs

     total energy              =   -2126.03134922 Ry
     estimated scf accuracy    <       0.00000007 Ry

     total magnetization       =    19.00 Bohr mag/cell
     absolute magnetization    =    19.06 Bohr mag/cell

     iteration # 30     ecut=   100.00 Ry     beta= 0.40
     Davidson diagonalization with overlap
     ethr =  2.36E-11,  avg # of iterations =  1.1

     negative rho (up, down):  0.000E+00 8.555E-04

     total cpu time spent up to now is     9893.1 secs

     total energy              =   -2126.03134923 Ry
     estimated scf accuracy    <       0.00000002 Ry

     total magnetization       =    19.00 Bohr mag/cell
     absolute magnetization    =    19.06 Bohr mag/cell

     iteration # 31     ecut=   100.00 Ry     beta= 0.40
     Davidson diagonalization with overlap
     ethr =  9.14E-12,  avg # of iterations =  2.0

     negative rho (up, down):  0.000E+00 8.554E-04

     total cpu time spent up to now is    10201.2 secs

     total energy              =   -2126.03134923 Ry
     estimated scf accuracy    <       0.00000002 Ry

     total magnetization       =    19.00 Bohr mag/cell
     absolute magnetization    =    19.06 Bohr mag/cell

     iteration # 32     ecut=   100.00 Ry     beta= 0.40
     Davidson diagonalization with overlap
     ethr =  9.14E-12,  avg # of iterations =  2.0

     negative rho (up, down):  0.000E+00 8.554E-04

     total cpu time spent up to now is    10516.2 secs

     total energy              =   -2126.03134924 Ry
     estimated scf accuracy    <          1.1E-09 Ry

     total magnetization       =    19.00 Bohr mag/cell
     absolute magnetization    =    19.06 Bohr mag/cell

     iteration # 33     ecut=   100.00 Ry     beta= 0.40
     Davidson diagonalization with overlap
     ethr =  5.77E-13,  avg # of iterations =  4.9

     negative rho (up, down):  0.000E+00 8.554E-04

     total cpu time spent up to now is    11004.2 secs

     total energy              =   -2126.03134924 Ry
     estimated scf accuracy    <          4.7E-09 Ry

     total magnetization       =    19.00 Bohr mag/cell
     absolute magnetization    =    19.06 Bohr mag/cell

     iteration # 34     ecut=   100.00 Ry     beta= 0.40
     Davidson diagonalization with overlap
     ethr =  5.77E-13,  avg # of iterations =  2.0

     negative rho (up, down):  0.000E+00 8.554E-04

     total cpu time spent up to now is    11336.2 secs

     total energy              =   -2126.03134924 Ry
     estimated scf accuracy    <          1.1E-09 Ry

     total magnetization       =    19.00 Bohr mag/cell
     absolute magnetization    =    19.06 Bohr mag/cell

     iteration # 35     ecut=   100.00 Ry     beta= 0.40
     Davidson diagonalization with overlap
     ethr =  5.77E-13,  avg # of iterations =  1.0

     negative rho (up, down):  0.000E+00 8.554E-04

     total cpu time spent up to now is    11593.6 secs

     total energy              =   -2126.03134924 Ry
     estimated scf accuracy    <          4.9E-10 Ry

     total magnetization       =    19.00 Bohr mag/cell
     absolute magnetization    =    19.06 Bohr mag/cell

     iteration # 36     ecut=   100.00 Ry     beta= 0.40
     Davidson diagonalization with overlap
     ethr =  2.58E-13,  avg # of iterations =  2.0

     negative rho (up, down):  0.000E+00 8.554E-04

     total cpu time spent up to now is    11902.8 secs

     total energy              =   -2126.03134924 Ry
     estimated scf accuracy    <          2.4E-10 Ry

     total magnetization       =    19.00 Bohr mag/cell
     absolute magnetization    =    19.06 Bohr mag/cell

     iteration # 37     ecut=   100.00 Ry     beta= 0.40
     Davidson diagonalization with overlap
     ethr =  1.27E-13,  avg # of iterations =  2.0

     negative rho (up, down):  0.000E+00 8.554E-04

     Magnetic moment per site:
     atom:    1    charge:    7.8953    magn:    0.0004    constr:    0.0000
     atom:    2    charge:   12.9174    magn:    3.6943    constr:    0.0000
     atom:    3    charge:   12.9251    magn:    3.6752    constr:    0.0000
     atom:    4    charge:   12.9705    magn:    3.5663    constr:    0.0000
     atom:    5    charge:   12.9255    magn:    3.6775    constr:    0.0000
     atom:    6    charge:    0.8230    magn:    0.0091    constr:    0.0000
     atom:    7    charge:    0.8272    magn:    0.0073    constr:    0.0000
     atom:    8    charge:    0.8258    magn:    0.0101    constr:    0.0000
     atom:    9    charge:    0.8213    magn:    0.0079    constr:    0.0000
     atom:   10    charge:    4.2616    magn:    0.1348    constr:    0.0000
     atom:   11    charge:    4.2762    magn:    0.0854    constr:    0.0000
     atom:   12    charge:    4.2659    magn:    0.1215    constr:    0.0000
     atom:   13    charge:    4.2613    magn:    0.1086    constr:    0.0000
     atom:   14    charge:    4.2209    magn:    0.1216    constr:    0.0000
     atom:   15    charge:    4.2278    magn:    0.1323    constr:    0.0000
     atom:   16    charge:    4.2295    magn:    0.0740    constr:    0.0000
     atom:   17    charge:    4.2207    magn:    0.1457    constr:    0.0000
     atom:   18    charge:    4.2079    magn:    0.1539    constr:    0.0000
     atom:   19    charge:    4.2120    magn:    0.1337    constr:    0.0000
     atom:   20    charge:    4.2149    magn:    0.1456    constr:    0.0000
     atom:   21    charge:    4.2084    magn:    0.1255    constr:    0.0000
     atom:   22    charge:    4.2149    magn:    0.1456    constr:    0.0000
     atom:   23    charge:    4.2084    magn:    0.1255    constr:    0.0000
     atom:   24    charge:    4.2079    magn:    0.1539    constr:    0.0000
     atom:   25    charge:    4.2120    magn:    0.1337    constr:    0.0000

     total cpu time spent up to now is    12215.6 secs

     End of self-consistent calculation

 ------ SPIN UP ------------


          k = 0.0000 0.0000 0.0000 ( 38991 PWs)   bands (ev):

   -86.1774 -86.1073 -86.1037 -85.7040 -52.2406 -52.2392 -52.1971 -52.1223
   -52.1113 -52.0613 -52.0482 -52.0287 -52.0061 -52.0051 -51.6462 -51.4292
   -45.8743 -17.8823 -17.8247 -17.8004 -16.4862 -16.3655 -16.1541 -16.0958
   -14.2861 -14.2445 -14.1083 -14.0172 -13.9852 -13.9471 -13.9462 -13.8492
   -13.8269 -13.7873 -13.7294 -13.6422  -4.7207  -4.2466  -4.2141  -3.8439
    -2.7118  -2.4055  -2.3649  -2.1720  -1.9007  -1.8750  -1.7430  -1.6912
    -1.5928  -1.4319  -1.1697  -0.9685  -0.8535  -0.8324  -0.3953  -0.3590
    -0.2768  -0.2518  -0.0466   0.1580   0.1679   0.2848   0.2910   0.3286
     0.3584   0.5128   0.5711   0.8306   0.9692   1.0362   1.1329   1.1974
     1.2441   1.2836   1.4157   1.4806   1.5581   1.6437   1.6932   1.7049
     1.9218   1.9528   1.9879   2.0924   2.1712   2.2330   2.2649   2.4867
     2.5509   2.6134   2.6254   2.6625   2.7482   2.9325   3.0295   3.1145
     3.1468   3.2812   3.3303   3.4220   3.4424   3.5354   3.8619   3.9780
     7.7689   9.7590  10.2219  10.6845  11.0035  11.5881  11.7987  12.0257
    12.3216  12.5503

     occupation numbers 
     1.0000   1.0000   1.0000   1.0000   1.0000   1.0000   1.0000   1.0000
     1.0000   1.0000   1.0000   1.0000   1.0000   1.0000   1.0000   1.0000
     1.0000   1.0000   1.0000   1.0000   1.0000   1.0000   1.0000   1.0000
     1.0000   1.0000   1.0000   1.0000   1.0000   1.0000   1.0000   1.0000
     1.0000   1.0000   1.0000   1.0000   1.0000   1.0000   1.0000   1.0000
     1.0000   1.0000   1.0000   1.0000   1.0000   1.0000   1.0000   1.0000
     1.0000   1.0000   1.0000   1.0000   1.0000   1.0000   1.0000   1.0000
     1.0000   1.0000   1.0000   1.0000   1.0000   1.0000   1.0000   1.0000
     1.0000   1.0000   1.0000   1.0000   1.0000   1.0000   1.0000   1.0000
     1.0000   1.0000   1.0000   1.0000   1.0000   1.0000   1.0000   1.0000
     1.0000   1.0000   1.0000   1.0000   1.0000   1.0000   1.0000   1.0000
     1.0000   1.0000   1.0000   1.0000   1.0000   1.0000   1.0000   1.0000
     1.0000   1.0000   1.0000   1.0000   1.0000   1.0000   1.0000   1.0000
     0.0000   0.0000   0.0000   0.0000   0.0000   0.0000   0.0000   0.0000
     0.0000   0.0000

          k = 0.0000 0.0000 0.2415 ( 38977 PWs)   bands (ev):

   -86.1774 -86.1073 -86.1037 -85.7040 -52.2406 -52.2392 -52.1971 -52.1223
   -52.1113 -52.0613 -52.0482 -52.0287 -52.0061 -52.0051 -51.6462 -51.4292
   -45.8743 -17.8822 -17.8285 -17.8003 -16.4728 -16.3556 -16.1474 -16.0904
   -14.3005 -14.2615 -14.1140 -14.0277 -14.0031 -13.9422 -13.9397 -13.8448
   -13.8225 -13.7871 -13.7329 -13.6461  -4.7014  -4.2487  -4.2091  -3.8513
    -2.6718  -2.3816  -2.3544  -2.1566  -1.8973  -1.8839  -1.7666  -1.6254
    -1.5893  -1.3990  -1.2128  -0.9423  -0.8776  -0.8319  -0.3842  -0.3381
    -0.2776  -0.2064  -0.0400   0.1479   0.1561   0.2639   0.2719   0.3510
     0.3544   0.5132   0.5656   0.8208   0.9442   0.9529   1.0820   1.1427
     1.2592   1.3388   1.3462   1.4667   1.5366   1.5934   1.7367   1.8369
     1.8710   1.9755   1.9868   2.0681   2.1659   2.2458   2.2796   2.4298
     2.5621   2.5694   2.6485   2.6656   2.7003   2.9780   3.0363   3.1179
     3.1555   3.2965   3.3456   3.4202   3.4326   3.5500   3.8404   3.9600
     7.9110   9.8268  10.2473  10.6892  11.0701  11.5141  11.7400  12.0714
    12.2388  12.5071

     occupation numbers 
     1.0000   1.0000   1.0000   1.0000   1.0000   1.0000   1.0000   1.0000
     1.0000   1.0000   1.0000   1.0000   1.0000   1.0000   1.0000   1.0000
     1.0000   1.0000   1.0000   1.0000   1.0000   1.0000   1.0000   1.0000
     1.0000   1.0000   1.0000   1.0000   1.0000   1.0000   1.0000   1.0000
     1.0000   1.0000   1.0000   1.0000   1.0000   1.0000   1.0000   1.0000
     1.0000   1.0000   1.0000   1.0000   1.0000   1.0000   1.0000   1.0000
     1.0000   1.0000   1.0000   1.0000   1.0000   1.0000   1.0000   1.0000
     1.0000   1.0000   1.0000   1.0000   1.0000   1.0000   1.0000   1.0000
     1.0000   1.0000   1.0000   1.0000   1.0000   1.0000   1.0000   1.0000
     1.0000   1.0000   1.0000   1.0000   1.0000   1.0000   1.0000   1.0000
     1.0000   1.0000   1.0000   1.0000   1.0000   1.0000   1.0000   1.0000
     1.0000   1.0000   1.0000   1.0000   1.0000   1.0000   1.0000   1.0000
     1.0000   1.0000   1.0000   1.0000   1.0000   1.0000   1.0000   1.0000
     0.0000   0.0000   0.0000   0.0000   0.0000   0.0000   0.0000   0.0000
     0.0000   0.0000

          k = 0.0000 0.0000 0.4830 ( 38986 PWs)   bands (ev):

   -86.1774 -86.1073 -86.1037 -85.7040 -52.2406 -52.2392 -52.1971 -52.1223
   -52.1113 -52.0613 -52.0482 -52.0287 -52.0061 -52.0051 -51.6462 -51.4293
   -45.8743 -17.8821 -17.8378 -17.8003 -16.4373 -16.3304 -16.1295 -16.0775
   -14.3367 -14.3036 -14.1377 -14.0646 -14.0222 -13.9312 -13.9283 -13.8331
   -13.8130 -13.7873 -13.7426 -13.6567  -4.6454  -4.2563  -4.1975  -3.8811
    -2.5633  -2.3478  -2.2975  -2.1355  -1.8985  -1.8818  -1.7690  -1.5757
    -1.4961  -1.3232  -1.3128  -0.9961  -0.8629  -0.7639  -0.3411  -0.2944
    -0.2507  -0.1067  -0.0251   0.1162   0.1349   0.2029   0.2436   0.3548
     0.3742   0.5328   0.5419   0.7825   0.7852   0.8859   0.9934   1.1062
     1.1071   1.1903   1.4310   1.4521   1.5151   1.5607   1.7734   1.8281
     1.9451   1.9759   2.0061   2.0405   2.0823   2.2173   2.3206   2.3838
     2.4333   2.6037   2.6814   2.7037   2.7442   3.0082   3.0545   3.1262
     3.2096   3.3382   3.3691   3.4130   3.4265   3.5810   3.7743   3.9043
     8.2880  10.0003  10.2991  10.7298  11.2090  11.4061  11.5868  12.0395
    12.0789  12.2074

     occupation numbers 
     1.0000   1.0000   1.0000   1.0000   1.0000   1.0000   1.0000   1.0000
     1.0000   1.0000   1.0000   1.0000   1.0000   1.0000   1.0000   1.0000
     1.0000   1.0000   1.0000   1.0000   1.0000   1.0000   1.0000   1.0000
     1.0000   1.0000   1.0000   1.0000   1.0000   1.0000   1.0000   1.0000
     1.0000   1.0000   1.0000   1.0000   1.0000   1.0000   1.0000   1.0000
     1.0000   1.0000   1.0000   1.0000   1.0000   1.0000   1.0000   1.0000
     1.0000   1.0000   1.0000   1.0000   1.0000   1.0000   1.0000   1.0000
     1.0000   1.0000   1.0000   1.0000   1.0000   1.0000   1.0000   1.0000
     1.0000   1.0000   1.0000   1.0000   1.0000   1.0000   1.0000   1.0000
     1.0000   1.0000   1.0000   1.0000   1.0000   1.0000   1.0000   1.0000
     1.0000   1.0000   1.0000   1.0000   1.0000   1.0000   1.0000   1.0000
     1.0000   1.0000   1.0000   1.0000   1.0000   1.0000   1.0000   1.0000
     1.0000   1.0000   1.0000   1.0000   1.0000   1.0000   1.0000   1.0000
     0.0000   0.0000   0.0000   0.0000   0.0000   0.0000   0.0000   0.0000
     0.0000   0.0000

          k = 0.0000 0.0000 0.7246 ( 39012 PWs)   bands (ev):

   -86.1774 -86.1073 -86.1037 -85.7040 -52.2406 -52.2392 -52.1971 -52.1223
   -52.1113 -52.0613 -52.0482 -52.0287 -52.0061 -52.0051 -51.6462 -51.4293
   -45.8742 -17.8824 -17.8477 -17.8002 -16.3936 -16.3015 -16.1069 -16.0656
   -14.3774 -14.3511 -14.1747 -14.1124 -14.0277 -13.9171 -13.9167 -13.8178
   -13.8037 -13.7887 -13.7549 -13.6708  -4.5609  -4.2808  -4.1780  -3.9382
    -2.4354  -2.3119  -2.2189  -2.1308  -1.9054  -1.8430  -1.7513  -1.5634
    -1.4388  -1.3498  -1.2006  -1.1500  -0.7255  -0.6352  -0.2689  -0.2354
    -0.2022  -0.0601   0.0390   0.0437   0.1078   0.1444   0.2219   0.3718
     0.3779   0.4914   0.5830   0.6411   0.6807   0.7778   0.8326   0.8896
     1.0692   1.1497   1.3991   1.4055   1.4965   1.6700   1.7036   1.8470
     1.9074   1.9107   1.9829   1.9998   2.1056   2.1400   2.2031   2.3431
     2.4543   2.6110   2.7278   2.8675   2.9426   2.9991   3.0801   3.1361
     3.2458   3.3773   3.3885   3.4168   3.4608   3.6077   3.6599   3.8090
     8.7966  10.1076  10.3908  10.8226  11.1803  11.3327  11.5726  11.8766
    11.9638  12.0487

     occupation numbers 
     1.0000   1.0000   1.0000   1.0000   1.0000   1.0000   1.0000   1.0000
     1.0000   1.0000   1.0000   1.0000   1.0000   1.0000   1.0000   1.0000
     1.0000   1.0000   1.0000   1.0000   1.0000   1.0000   1.0000   1.0000
     1.0000   1.0000   1.0000   1.0000   1.0000   1.0000   1.0000   1.0000
     1.0000   1.0000   1.0000   1.0000   1.0000   1.0000   1.0000   1.0000
     1.0000   1.0000   1.0000   1.0000   1.0000   1.0000   1.0000   1.0000
     1.0000   1.0000   1.0000   1.0000   1.0000   1.0000   1.0000   1.0000
     1.0000   1.0000   1.0000   1.0000   1.0000   1.0000   1.0000   1.0000
     1.0000   1.0000   1.0000   1.0000   1.0000   1.0000   1.0000   1.0000
     1.0000   1.0000   1.0000   1.0000   1.0000   1.0000   1.0000   1.0000
     1.0000   1.0000   1.0000   1.0000   1.0000   1.0000   1.0000   1.0000
     1.0000   1.0000   1.0000   1.0000   1.0000   1.0000   1.0000   1.0000
     1.0000   1.0000   1.0000   1.0000   1.0000   1.0000   1.0000   1.0000
     0.0000   0.0000   0.0000   0.0000   0.0000   0.0000   0.0000   0.0000
     0.0000   0.0000

          k = 0.0000 0.0000 0.9661 ( 38942 PWs)   bands (ev):

   -86.1774 -86.1073 -86.1037 -85.7040 -52.2406 -52.2392 -52.1971 -52.1223
   -52.1113 -52.0613 -52.0482 -52.0287 -52.0061 -52.0051 -51.6462 -51.4293
   -45.8742 -17.8832 -17.8534 -17.8001 -16.3621 -16.2833 -16.0885 -16.0618
   -14.4039 -14.3820 -14.2016 -14.1444 -14.0284 -13.9092 -13.9063 -13.8063
   -13.7969 -13.7915 -13.7640 -13.6820  -4.4712  -4.3306  -4.1493  -3.9981
    -2.3566  -2.2911  -2.1682  -2.1158  -1.8999  -1.7753  -1.7490  -1.6434
    -1.4145  -1.2999  -1.2504  -1.1217  -0.5475  -0.4355  -0.2110  -0.1842
    -0.1628  -0.1573  -0.0472   0.0064   0.0839   0.2011   0.2674   0.3253
     0.4239   0.4490   0.4836   0.5355   0.6046   0.6475   0.7298   0.8214
     1.0704   1.2047   1.3332   1.3609   1.5111   1.6194   1.7368   1.8141
     1.8175   1.9192   1.9385   2.0224   2.0423   2.0941   2.1721   2.3157
     2.4916   2.6039   2.7741   2.9844   3.0163   3.0687   3.1517   3.2155
     3.2446   3.3521   3.4012   3.4601   3.5084   3.5283   3.6166   3.6921
     9.3241   9.8659  10.6297  10.9082  11.0537  11.2001  11.6127  11.8544
    11.9395  12.0598

     occupation numbers 
     1.0000   1.0000   1.0000   1.0000   1.0000   1.0000   1.0000   1.0000
     1.0000   1.0000   1.0000   1.0000   1.0000   1.0000   1.0000   1.0000
     1.0000   1.0000   1.0000   1.0000   1.0000   1.0000   1.0000   1.0000
     1.0000   1.0000   1.0000   1.0000   1.0000   1.0000   1.0000   1.0000
     1.0000   1.0000   1.0000   1.0000   1.0000   1.0000   1.0000   1.0000
     1.0000   1.0000   1.0000   1.0000   1.0000   1.0000   1.0000   1.0000
     1.0000   1.0000   1.0000   1.0000   1.0000   1.0000   1.0000   1.0000
     1.0000   1.0000   1.0000   1.0000   1.0000   1.0000   1.0000   1.0000
     1.0000   1.0000   1.0000   1.0000   1.0000   1.0000   1.0000   1.0000
     1.0000   1.0000   1.0000   1.0000   1.0000   1.0000   1.0000   1.0000
     1.0000   1.0000   1.0000   1.0000   1.0000   1.0000   1.0000   1.0000
     1.0000   1.0000   1.0000   1.0000   1.0000   1.0000   1.0000   1.0000
     1.0000   1.0000   1.0000   1.0000   1.0000   1.0000   1.0000   1.0000
     0.0000   0.0000   0.0000   0.0000   0.0000   0.0000   0.0000   0.0000
     0.0000   0.0000

          k = 0.0000 0.2391 0.0000 ( 38987 PWs)   bands (ev):

   -86.1774 -86.1073 -86.1037 -85.7040 -52.2406 -52.2392 -52.1971 -52.1223
   -52.1113 -52.0613 -52.0482 -52.0287 -52.0061 -52.0051 -51.6462 -51.4292
   -45.8743 -17.8822 -17.8247 -17.8007 -16.4750 -16.3630 -16.1538 -16.1073
   -14.2834 -14.2416 -14.1124 -14.0203 -13.9868 -13.9630 -13.9553 -13.8760
   -13.7861 -13.7788 -13.7273 -13.6455  -4.6960  -4.2601  -4.1996  -3.8519
    -2.6894  -2.4093  -2.3565  -2.1721  -1.9074  -1.8509  -1.7309  -1.6808
    -1.5497  -1.4343  -1.1625  -0.9491  -0.8911  -0.8035  -0.3609  -0.3292
    -0.2718  -0.2484  -0.1329   0.0185   0.1178   0.2472   0.3445   0.3917
     0.4740   0.5276   0.5705   0.7913   0.8824   0.9245   1.0148   1.1318
     1.2187   1.4135   1.4555   1.4710   1.5616   1.6400   1.6664   1.7410
     1.9400   1.9419   1.9976   2.0678   2.1285   2.2747   2.3889   2.4397
     2.5314   2.5496   2.5962   2.7210   2.8107   2.9365   3.0235   3.1025
     3.1269   3.2801   3.3235   3.3941   3.4346   3.5719   3.8658   3.9553
     7.9231   9.8523  10.3036  10.5897  11.0698  11.5438  11.8698  12.0882
    12.2248  12.4996

     occupation numbers 
     1.0000   1.0000   1.0000   1.0000   1.0000   1.0000   1.0000   1.0000
     1.0000   1.0000   1.0000   1.0000   1.0000   1.0000   1.0000   1.0000
     1.0000   1.0000   1.0000   1.0000   1.0000   1.0000   1.0000   1.0000
     1.0000   1.0000   1.0000   1.0000   1.0000   1.0000   1.0000   1.0000
     1.0000   1.0000   1.0000   1.0000   1.0000   1.0000   1.0000   1.0000
     1.0000   1.0000   1.0000   1.0000   1.0000   1.0000   1.0000   1.0000
     1.0000   1.0000   1.0000   1.0000   1.0000   1.0000   1.0000   1.0000
     1.0000   1.0000   1.0000   1.0000   1.0000   1.0000   1.0000   1.0000
     1.0000   1.0000   1.0000   1.0000   1.0000   1.0000   1.0000   1.0000
     1.0000   1.0000   1.0000   1.0000   1.0000   1.0000   1.0000   1.0000
     1.0000   1.0000   1.0000   1.0000   1.0000   1.0000   1.0000   1.0000
     1.0000   1.0000   1.0000   1.0000   1.0000   1.0000   1.0000   1.0000
     1.0000   1.0000   1.0000   1.0000   1.0000   1.0000   1.0000   1.0000
     0.0000   0.0000   0.0000   0.0000   0.0000   0.0000   0.0000   0.0000
     0.0000   0.0000

          k = 0.0000 0.2391 0.2415 ( 38961 PWs)   bands (ev):

   -86.1774 -86.1073 -86.1037 -85.7040 -52.2406 -52.2392 -52.1971 -52.1223
   -52.1113 -52.0613 -52.0482 -52.0287 -52.0061 -52.0051 -51.6462 -51.4292
   -45.8743 -17.8821 -17.8285 -17.8006 -16.4620 -16.3532 -16.1469 -16.1012
   -14.2983 -14.2593 -14.1164 -14.0345 -14.0065 -13.9582 -13.9439 -13.8704
   -13.7859 -13.7769 -13.7302 -13.6488  -4.6772  -4.2591  -4.1965  -3.8590
    -2.6506  -2.3839  -2.3457  -2.1572  -1.9062  -1.8590  -1.7416  -1.6284
    -1.5421  -1.4041  -1.2043  -0.9583  -0.8895  -0.7957  -0.3490  -0.3220
    -0.2709  -0.2051  -0.1322   0.0150   0.1146   0.2610   0.3184   0.3851
     0.4595   0.5213   0.5719   0.7812   0.8417   0.8756   0.9910   1.1014
     1.2894   1.3720   1.4379   1.4911   1.5357   1.5858   1.6840   1.7954
     1.8824   1.9671   2.0132   2.0589   2.1323   2.2397   2.3783   2.4220
     2.5113   2.5530   2.5991   2.7030   2.7813   2.9760   3.0340   3.1211
     3.1321   3.2956   3.3286   3.4023   3.4329   3.5777   3.8524   3.9419
     8.0590   9.9196  10.3326  10.6088  11.1230  11.4953  11.8034  12.1037
    12.1789  12.4446

     occupation numbers 
     1.0000   1.0000   1.0000   1.0000   1.0000   1.0000   1.0000   1.0000
     1.0000   1.0000   1.0000   1.0000   1.0000   1.0000   1.0000   1.0000
     1.0000   1.0000   1.0000   1.0000   1.0000   1.0000   1.0000   1.0000
     1.0000   1.0000   1.0000   1.0000   1.0000   1.0000   1.0000   1.0000
     1.0000   1.0000   1.0000   1.0000   1.0000   1.0000   1.0000   1.0000
     1.0000   1.0000   1.0000   1.0000   1.0000   1.0000   1.0000   1.0000
     1.0000   1.0000   1.0000   1.0000   1.0000   1.0000   1.0000   1.0000
     1.0000   1.0000   1.0000   1.0000   1.0000   1.0000   1.0000   1.0000
     1.0000   1.0000   1.0000   1.0000   1.0000   1.0000   1.0000   1.0000
     1.0000   1.0000   1.0000   1.0000   1.0000   1.0000   1.0000   1.0000
     1.0000   1.0000   1.0000   1.0000   1.0000   1.0000   1.0000   1.0000
     1.0000   1.0000   1.0000   1.0000   1.0000   1.0000   1.0000   1.0000
     1.0000   1.0000   1.0000   1.0000   1.0000   1.0000   1.0000   1.0000
     0.0000   0.0000   0.0000   0.0000   0.0000   0.0000   0.0000   0.0000
     0.0000   0.0000

          k = 0.0000 0.2391 0.4830 ( 38996 PWs)   bands (ev):

   -86.1774 -86.1073 -86.1037 -85.7040 -52.2406 -52.2392 -52.1971 -52.1223
   -52.1113 -52.0613 -52.0482 -52.0287 -52.0061 -52.0051 -51.6462 -51.4293
   -45.8743 -17.8819 -17.8378 -17.8005 -16.4280 -16.3277 -16.1289 -16.0864
   -14.3356 -14.3030 -14.1394 -14.0701 -14.0304 -13.9474 -13.9278 -13.8574
   -13.7859 -13.7725 -13.7378 -13.6578  -4.6231  -4.2624  -4.1860  -3.8874
    -2.5449  -2.3392  -2.2964  -2.1345  -1.9060  -1.8574  -1.7389  -1.5473
    -1.4924  -1.3207  -1.3070  -1.0372  -0.8382  -0.7554  -0.3100  -0.3028
    -0.2412  -0.1613  -0.0919   0.0185   0.1192   0.2496   0.2866   0.3675
     0.4250   0.5267   0.5605   0.7061   0.7578   0.8329   0.9375   1.0956
     1.1504   1.2987   1.4050   1.4762   1.5214   1.5633   1.7183   1.8006
     1.8861   1.9776   2.0230   2.0371   2.0908   2.1935   2.2823   2.3877
     2.4510   2.5516   2.6658   2.7499   2.7824   3.0037   3.0588   3.1345
     3.1894   3.3109   3.3467   3.4224   3.4490   3.5923   3.8117   3.8997
     8.4223  10.0947  10.3912  10.6734  11.2473  11.4260  11.6452  11.9846
    12.1206  12.2571

     occupation numbers 
     1.0000   1.0000   1.0000   1.0000   1.0000   1.0000   1.0000   1.0000
     1.0000   1.0000   1.0000   1.0000   1.0000   1.0000   1.0000   1.0000
     1.0000   1.0000   1.0000   1.0000   1.0000   1.0000   1.0000   1.0000
     1.0000   1.0000   1.0000   1.0000   1.0000   1.0000   1.0000   1.0000
     1.0000   1.0000   1.0000   1.0000   1.0000   1.0000   1.0000   1.0000
     1.0000   1.0000   1.0000   1.0000   1.0000   1.0000   1.0000   1.0000
     1.0000   1.0000   1.0000   1.0000   1.0000   1.0000   1.0000   1.0000
     1.0000   1.0000   1.0000   1.0000   1.0000   1.0000   1.0000   1.0000
     1.0000   1.0000   1.0000   1.0000   1.0000   1.0000   1.0000   1.0000
     1.0000   1.0000   1.0000   1.0000   1.0000   1.0000   1.0000   1.0000
     1.0000   1.0000   1.0000   1.0000   1.0000   1.0000   1.0000   1.0000
     1.0000   1.0000   1.0000   1.0000   1.0000   1.0000   1.0000   1.0000
     1.0000   1.0000   1.0000   1.0000   1.0000   1.0000   1.0000   1.0000
     0.0000   0.0000   0.0000   0.0000   0.0000   0.0000   0.0000   0.0000
     0.0000   0.0000

          k = 0.0000 0.2391 0.7246 ( 38953 PWs)   bands (ev):

   -86.1774 -86.1073 -86.1037 -85.7040 -52.2406 -52.2392 -52.1971 -52.1223
   -52.1113 -52.0613 -52.0482 -52.0287 -52.0061 -52.0051 -51.6462 -51.4293
   -45.8742 -17.8823 -17.8476 -17.8004 -16.3866 -16.2981 -16.1069 -16.0714
   -14.3773 -14.3520 -14.1781 -14.1167 -14.0357 -13.9347 -13.9133 -13.8430
   -13.7866 -13.7689 -13.7461 -13.6697  -4.5423  -4.2815  -4.1675  -3.9404
    -2.4185  -2.3032  -2.2173  -2.1264  -1.9047  -1.8256  -1.7214  -1.5388
    -1.4257  -1.3550  -1.2029  -1.1608  -0.7361  -0.6620  -0.2975  -0.2450
    -0.2105  -0.1706  -0.0148   0.0970   0.1494   0.1853   0.2463   0.3642
     0.4027   0.5174   0.5576   0.5914   0.7101   0.7659   0.8432   0.8815
     1.0825   1.1820   1.3288   1.4516   1.5264   1.6370   1.6664   1.8007
     1.8646   1.9541   1.9841   2.0302   2.0663   2.1267   2.1811   2.3251
     2.4501   2.5419   2.7497   2.8384   2.9305   3.0091   3.0871   3.1396
     3.2103   3.3335   3.4045   3.4225   3.4996   3.6040   3.7451   3.8277
     8.9177  10.2182  10.4656  10.8069  11.2245  11.4134  11.5874  11.8588
    11.9575  12.0734

     occupation numbers 
     1.0000   1.0000   1.0000   1.0000   1.0000   1.0000   1.0000   1.0000
     1.0000   1.0000   1.0000   1.0000   1.0000   1.0000   1.0000   1.0000
     1.0000   1.0000   1.0000   1.0000   1.0000   1.0000   1.0000   1.0000
     1.0000   1.0000   1.0000   1.0000   1.0000   1.0000   1.0000   1.0000
     1.0000   1.0000   1.0000   1.0000   1.0000   1.0000   1.0000   1.0000
     1.0000   1.0000   1.0000   1.0000   1.0000   1.0000   1.0000   1.0000
     1.0000   1.0000   1.0000   1.0000   1.0000   1.0000   1.0000   1.0000
     1.0000   1.0000   1.0000   1.0000   1.0000   1.0000   1.0000   1.0000
     1.0000   1.0000   1.0000   1.0000   1.0000   1.0000   1.0000   1.0000
     1.0000   1.0000   1.0000   1.0000   1.0000   1.0000   1.0000   1.0000
     1.0000   1.0000   1.0000   1.0000   1.0000   1.0000   1.0000   1.0000
     1.0000   1.0000   1.0000   1.0000   1.0000   1.0000   1.0000   1.0000
     1.0000   1.0000   1.0000   1.0000   1.0000   1.0000   1.0000   1.0000
     0.0000   0.0000   0.0000   0.0000   0.0000   0.0000   0.0000   0.0000
     0.0000   0.0000

          k = 0.0000 0.2391 0.9661 ( 38944 PWs)   bands (ev):

   -86.1774 -86.1073 -86.1037 -85.7040 -52.2406 -52.2392 -52.1971 -52.1223
   -52.1113 -52.0613 -52.0482 -52.0287 -52.0061 -52.0051 -51.6462 -51.4293
   -45.8742 -17.8830 -17.8534 -17.8003 -16.3574 -16.2787 -16.0903 -16.0639
   -14.4044 -14.3838 -14.2061 -14.1487 -14.0352 -13.9258 -13.9038 -13.8338
   -13.7867 -13.7699 -13.7492 -13.6790  -4.4595  -4.3216  -4.1446  -3.9937
    -2.3386  -2.2833  -2.1643  -2.1136  -1.8952  -1.7750  -1.7094  -1.6163
    -1.4072  -1.3069  -1.2500  -1.1147  -0.6104  -0.5061  -0.3458  -0.3295
    -0.1460  -0.0547   0.0099   0.0931   0.1283   0.2394   0.2766   0.3152
     0.4141   0.4485   0.5085   0.5851   0.6037   0.6343   0.7289   0.7850
     1.0711   1.1923   1.2880   1.3971   1.5152   1.6108   1.6776   1.7485
     1.8646   1.8952   1.9396   2.0318   2.0580   2.0989   2.1542   2.2964
     2.4608   2.5324   2.7799   2.9482   3.0108   3.0635   3.0992   3.1467
     3.2232   3.3429   3.4151   3.4875   3.5422   3.5921   3.6764   3.7503
     9.4384   9.9716  10.7073  10.9491  11.1155  11.2390  11.6466  11.8568
    11.9135  12.0159

     occupation numbers 
     1.0000   1.0000   1.0000   1.0000   1.0000   1.0000   1.0000   1.0000
     1.0000   1.0000   1.0000   1.0000   1.0000   1.0000   1.0000   1.0000
     1.0000   1.0000   1.0000   1.0000   1.0000   1.0000   1.0000   1.0000
     1.0000   1.0000   1.0000   1.0000   1.0000   1.0000   1.0000   1.0000
     1.0000   1.0000   1.0000   1.0000   1.0000   1.0000   1.0000   1.0000
     1.0000   1.0000   1.0000   1.0000   1.0000   1.0000   1.0000   1.0000
     1.0000   1.0000   1.0000   1.0000   1.0000   1.0000   1.0000   1.0000
     1.0000   1.0000   1.0000   1.0000   1.0000   1.0000   1.0000   1.0000
     1.0000   1.0000   1.0000   1.0000   1.0000   1.0000   1.0000   1.0000
     1.0000   1.0000   1.0000   1.0000   1.0000   1.0000   1.0000   1.0000
     1.0000   1.0000   1.0000   1.0000   1.0000   1.0000   1.0000   1.0000
     1.0000   1.0000   1.0000   1.0000   1.0000   1.0000   1.0000   1.0000
     1.0000   1.0000   1.0000   1.0000   1.0000   1.0000   1.0000   1.0000
     0.0000   0.0000   0.0000   0.0000   0.0000   0.0000   0.0000   0.0000
     0.0000   0.0000

          k = 0.0000 0.4781 0.0000 ( 38893 PWs)   bands (ev):

   -86.1774 -86.1073 -86.1037 -85.7040 -52.2406 -52.2392 -52.1971 -52.1223
   -52.1113 -52.0613 -52.0482 -52.0287 -52.0061 -52.0051 -51.6462 -51.4292
   -45.8743 -17.8820 -17.8246 -17.8014 -16.4467 -16.3566 -16.1608 -16.1292
   -14.2769 -14.2344 -14.1224 -14.0285 -14.0046 -13.9902 -13.9680 -13.8759
   -13.7831 -13.7308 -13.7274 -13.6502  -4.6290  -4.3150  -4.1456  -3.8790
    -2.6339  -2.4214  -2.3381  -2.1706  -1.9138  -1.8221  -1.7206  -1.5875
    -1.4907  -1.4003  -1.1745  -0.9866  -0.8655  -0.7244  -0.3390  -0.2949
    -0.2648  -0.2340  -0.1725  -0.1354  -0.0323   0.1694   0.4321   0.4653
     0.4999   0.5580   0.5936   0.6033   0.6660   0.8048   0.9472   1.1527
     1.2022   1.3092   1.4260   1.5322   1.6169   1.6459   1.7636   1.8291
     1.9322   1.9408   1.9784   2.0320   2.0971   2.2933   2.3156   2.4053
     2.4658   2.5722   2.7253   2.7702   2.8877   2.9478   3.0234   3.0396
     3.1635   3.2520   3.2782   3.3584   3.4017   3.6534   3.8425   3.9231
     8.3392  10.0380  10.2539  10.5806  11.1520  11.4155  12.0659  12.1278
    12.2740  12.4663

     occupation numbers 
     1.0000   1.0000   1.0000   1.0000   1.0000   1.0000   1.0000   1.0000
     1.0000   1.0000   1.0000   1.0000   1.0000   1.0000   1.0000   1.0000
     1.0000   1.0000   1.0000   1.0000   1.0000   1.0000   1.0000   1.0000
     1.0000   1.0000   1.0000   1.0000   1.0000   1.0000   1.0000   1.0000
     1.0000   1.0000   1.0000   1.0000   1.0000   1.0000   1.0000   1.0000
     1.0000   1.0000   1.0000   1.0000   1.0000   1.0000   1.0000   1.0000
     1.0000   1.0000   1.0000   1.0000   1.0000   1.0000   1.0000   1.0000
     1.0000   1.0000   1.0000   1.0000   1.0000   1.0000   1.0000   1.0000
     1.0000   1.0000   1.0000   1.0000   1.0000   1.0000   1.0000   1.0000
     1.0000   1.0000   1.0000   1.0000   1.0000   1.0000   1.0000   1.0000
     1.0000   1.0000   1.0000   1.0000   1.0000   1.0000   1.0000   1.0000
     1.0000   1.0000   1.0000   1.0000   1.0000   1.0000   1.0000   1.0000
     1.0000   1.0000   1.0000   1.0000   1.0000   1.0000   1.0000   1.0000
     0.0000   0.0000   0.0000   0.0000   0.0000   0.0000   0.0000   0.0000
     0.0000   0.0000

          k = 0.0000 0.4781 0.2415 ( 38922 PWs)   bands (ev):

   -86.1774 -86.1073 -86.1037 -85.7040 -52.2406 -52.2392 -52.1971 -52.1223
   -52.1113 -52.0613 -52.0482 -52.0287 -52.0061 -52.0051 -51.6462 -51.4292
   -45.8743 -17.8819 -17.8284 -17.8013 -16.4352 -16.3467 -16.1533 -16.1218
   -14.2932 -14.2541 -14.1204 -14.0566 -14.0158 -13.9800 -13.9609 -13.8709
   -13.7824 -13.7323 -13.7268 -13.6525  -4.6120  -4.3084  -4.1458  -3.8849
    -2.5976  -2.3940  -2.3249  -2.1567  -1.9120  -1.8284  -1.6882  -1.5809
    -1.4566  -1.3987  -1.2103  -1.0271  -0.8404  -0.7188  -0.3519  -0.2929
    -0.2665  -0.2319  -0.1646  -0.1257  -0.0076   0.1980   0.3882   0.4480
     0.4724   0.5475   0.5869   0.6174   0.6616   0.8126   0.9463   1.1295
     1.2367   1.3467   1.4295   1.5012   1.5829   1.6452   1.7470   1.8100
     1.8752   1.9243   1.9963   2.0308   2.0919   2.2473   2.2941   2.3940
     2.4502   2.5749   2.6831   2.7865   2.8633   2.9711   3.0366   3.0618
     3.1745   3.2357   3.2977   3.3799   3.4242   3.6574   3.8387   3.9217
     8.4588  10.0920  10.3149  10.6128  11.1990  11.4068  11.9159  12.1488
    12.3043  12.3973

     occupation numbers 
     1.0000   1.0000   1.0000   1.0000   1.0000   1.0000   1.0000   1.0000
     1.0000   1.0000   1.0000   1.0000   1.0000   1.0000   1.0000   1.0000
     1.0000   1.0000   1.0000   1.0000   1.0000   1.0000   1.0000   1.0000
     1.0000   1.0000   1.0000   1.0000   1.0000   1.0000   1.0000   1.0000
     1.0000   1.0000   1.0000   1.0000   1.0000   1.0000   1.0000   1.0000
     1.0000   1.0000   1.0000   1.0000   1.0000   1.0000   1.0000   1.0000
     1.0000   1.0000   1.0000   1.0000   1.0000   1.0000   1.0000   1.0000
     1.0000   1.0000   1.0000   1.0000   1.0000   1.0000   1.0000   1.0000
     1.0000   1.0000   1.0000   1.0000   1.0000   1.0000   1.0000   1.0000
     1.0000   1.0000   1.0000   1.0000   1.0000   1.0000   1.0000   1.0000
     1.0000   1.0000   1.0000   1.0000   1.0000   1.0000   1.0000   1.0000
     1.0000   1.0000   1.0000   1.0000   1.0000   1.0000   1.0000   1.0000
     1.0000   1.0000   1.0000   1.0000   1.0000   1.0000   1.0000   1.0000
     0.0000   0.0000   0.0000   0.0000   0.0000   0.0000   0.0000   0.0000
     0.0000   0.0000

          k = 0.0000 0.4781 0.4830 ( 38955 PWs)   bands (ev):

   -86.1774 -86.1073 -86.1037 -85.7040 -52.2406 -52.2392 -52.1971 -52.1223
   -52.1113 -52.0613 -52.0482 -52.0287 -52.0061 -52.0051 -51.6462 -51.4293
   -45.8742 -17.8817 -17.8377 -17.8012 -16.4053 -16.3206 -16.1339 -16.1032
   -14.3330 -14.3013 -14.1415 -14.0848 -14.0514 -13.9636 -13.9447 -13.8613
   -13.7807 -13.7365 -13.7258 -13.6586  -4.5638  -4.2954  -4.1448  -3.9074
    -2.4991  -2.3296  -2.2869  -2.1303  -1.9076  -1.8230  -1.6476  -1.5132
    -1.4420  -1.3293  -1.2942  -1.1121  -0.8016  -0.7032  -0.3873  -0.3157
    -0.2750  -0.1918  -0.1275  -0.0622   0.0572   0.2563   0.3314   0.3954
     0.4199   0.5141   0.5700   0.6248   0.6517   0.8149   0.9411   1.1087
     1.2371   1.3061   1.3908   1.5046   1.5281   1.6091   1.6561   1.7785
     1.8322   1.9167   2.0000   2.0296   2.0799   2.1474   2.2026   2.3574
     2.4098   2.5460   2.6587   2.8032   2.9077   2.9861   3.0569   3.0972
     3.1904   3.2528   3.3375   3.3950   3.4961   3.6700   3.8241   3.9143
     8.7846  10.2419  10.4804  10.6789  11.3250  11.4043  11.7356  12.0113
    12.2315  12.2761

     occupation numbers 
     1.0000   1.0000   1.0000   1.0000   1.0000   1.0000   1.0000   1.0000
     1.0000   1.0000   1.0000   1.0000   1.0000   1.0000   1.0000   1.0000
     1.0000   1.0000   1.0000   1.0000   1.0000   1.0000   1.0000   1.0000
     1.0000   1.0000   1.0000   1.0000   1.0000   1.0000   1.0000   1.0000
     1.0000   1.0000   1.0000   1.0000   1.0000   1.0000   1.0000   1.0000
     1.0000   1.0000   1.0000   1.0000   1.0000   1.0000   1.0000   1.0000
     1.0000   1.0000   1.0000   1.0000   1.0000   1.0000   1.0000   1.0000
     1.0000   1.0000   1.0000   1.0000   1.0000   1.0000   1.0000   1.0000
     1.0000   1.0000   1.0000   1.0000   1.0000   1.0000   1.0000   1.0000
     1.0000   1.0000   1.0000   1.0000   1.0000   1.0000   1.0000   1.0000
     1.0000   1.0000   1.0000   1.0000   1.0000   1.0000   1.0000   1.0000
     1.0000   1.0000   1.0000   1.0000   1.0000   1.0000   1.0000   1.0000
     1.0000   1.0000   1.0000   1.0000   1.0000   1.0000   1.0000   1.0000
     0.0000   0.0000   0.0000   0.0000   0.0000   0.0000   0.0000   0.0000
     0.0000   0.0000

          k = 0.0000 0.4781 0.7246 ( 38958 PWs)   bands (ev):

   -86.1774 -86.1073 -86.1037 -85.7040 -52.2406 -52.2392 -52.1971 -52.1223
   -52.1113 -52.0613 -52.0482 -52.0287 -52.0061 -52.0051 -51.6462 -51.4293
   -45.8742 -17.8819 -17.8475 -17.8010 -16.3701 -16.2892 -16.1112 -16.0819
   -14.3769 -14.3538 -14.1858 -14.1255 -14.0562 -13.9512 -13.9280 -13.8540
   -13.7778 -13.7423 -13.7248 -13.6665  -4.4953  -4.2907  -4.1402  -3.9475
    -2.3782  -2.2817  -2.2173  -2.1123  -1.8971  -1.7945  -1.6298  -1.4799
    -1.4044  -1.3685  -1.2193  -1.1840  -0.7618  -0.6688  -0.4613  -0.3821
    -0.2334  -0.0920  -0.0525   0.0778   0.1409   0.2412   0.3117   0.3577
     0.3829   0.4700   0.5466   0.6111   0.6449   0.7933   0.9122   0.9919
     1.1054   1.2145   1.2870   1.4856   1.5199   1.5883   1.6166   1.7221
     1.8330   1.9099   1.9552   2.0124   2.0565   2.0817   2.1221   2.2993
     2.3932   2.4712   2.7426   2.8100   2.9738   2.9999   3.0699   3.1297
     3.2115   3.2931   3.3882   3.4131   3.5677   3.6914   3.7935   3.8960
     9.2410  10.4282  10.5963  10.8232  11.3002  11.5408  11.6384  11.8204
    12.0122  12.0824

     occupation numbers 
     1.0000   1.0000   1.0000   1.0000   1.0000   1.0000   1.0000   1.0000
     1.0000   1.0000   1.0000   1.0000   1.0000   1.0000   1.0000   1.0000
     1.0000   1.0000   1.0000   1.0000   1.0000   1.0000   1.0000   1.0000
     1.0000   1.0000   1.0000   1.0000   1.0000   1.0000   1.0000   1.0000
     1.0000   1.0000   1.0000   1.0000   1.0000   1.0000   1.0000   1.0000
     1.0000   1.0000   1.0000   1.0000   1.0000   1.0000   1.0000   1.0000
     1.0000   1.0000   1.0000   1.0000   1.0000   1.0000   1.0000   1.0000
     1.0000   1.0000   1.0000   1.0000   1.0000   1.0000   1.0000   1.0000
     1.0000   1.0000   1.0000   1.0000   1.0000   1.0000   1.0000   1.0000
     1.0000   1.0000   1.0000   1.0000   1.0000   1.0000   1.0000   1.0000
     1.0000   1.0000   1.0000   1.0000   1.0000   1.0000   1.0000   1.0000
     1.0000   1.0000   1.0000   1.0000   1.0000   1.0000   1.0000   1.0000
     1.0000   1.0000   1.0000   1.0000   1.0000   1.0000   1.0000   1.0000
     0.0000   0.0000   0.0000   0.0000   0.0000   0.0000   0.0000   0.0000
     0.0000   0.0000

          k = 0.0000 0.4781 0.9661 ( 38992 PWs)   bands (ev):

   -86.1774 -86.1073 -86.1037 -85.7040 -52.2406 -52.2392 -52.1971 -52.1223
   -52.1113 -52.0613 -52.0482 -52.0287 -52.0061 -52.0051 -51.6462 -51.4293
   -45.8742 -17.8826 -17.8533 -17.8009 -16.3465 -16.2675 -16.0960 -16.0682
   -14.4049 -14.3883 -14.2161 -14.1578 -14.0519 -13.9430 -13.9173 -13.8512
   -13.7742 -13.7475 -13.7241 -13.6722  -4.4328  -4.3015  -4.1349  -3.9837
    -2.2950  -2.2645  -2.1621  -2.1009  -1.8807  -1.7578  -1.6205  -1.5513
    -1.3979  -1.3275  -1.2574  -1.1021  -0.7140  -0.5985  -0.5414  -0.4816
[...]
     atom   25 type  3   force =     0.01733755   -0.04342921    0.01504566
     The non-local contrib.  to forces
     atom    1 type  2   force =     0.12847992    0.00000000   -0.05200186
     atom    2 type  1   force =     0.08666522    0.00000000    0.09704887
     atom    3 type  1   force =     0.00991039    0.00000000    0.06994701
     atom    4 type  1   force =    -0.25595685    0.00000000   -0.03017928
     atom    5 type  1   force =     0.01456790    0.00000000   -0.08386350
     atom    6 type  4   force =    -0.04726778    0.00000000   -0.08431220
     atom    7 type  4   force =     0.06454950    0.00000000   -0.05615912
     atom    8 type  4   force =     0.02010535    0.00000000    0.08856179
     atom    9 type  4   force =    -0.02406641    0.00000000    0.09145542
     atom   10 type  3   force =     0.31154656    0.00000000   -1.51685037
     atom   11 type  3   force =    -0.10100720    0.00000000   -1.44445397
     atom   12 type  3   force =    -0.40100473    0.00000000    1.51523280
     atom   13 type  3   force =     0.22891816    0.00000000    1.51994672
     atom   14 type  3   force =     1.24984856    0.00000000   -0.58189233
     atom   15 type  3   force =    -1.23271310    0.00000000   -0.75792831
     atom   16 type  3   force =    -1.22773103    0.00000000    0.27894231
     atom   17 type  3   force =     1.20008390    0.00000000    0.59825918
     atom   18 type  3   force =    -0.52809416   -1.13870577    0.72834602
     atom   19 type  3   force =     0.53706946    1.19832599    0.76612393
     atom   20 type  3   force =     0.55586455   -1.14524295   -0.62456828
     atom   21 type  3   force =    -0.55389574    1.10402379   -0.65072008
     atom   22 type  3   force =     0.55586455    1.14524295   -0.62456828
     atom   23 type  3   force =    -0.55389574   -1.10402379   -0.65072008
     atom   24 type  3   force =    -0.52809416    1.13870577    0.72834602
     atom   25 type  3   force =     0.53706946   -1.19832599    0.76612393
     The ionic contribution  to forces
     atom    1 type  2   force =    -3.75222481    0.00032318    2.10864447
     atom    2 type  1   force =     1.17108828   -0.00081834   -0.46017825
     atom    3 type  1   force =    -8.95263997    0.00097752   -0.63759982
     atom    4 type  1   force =     2.83773979    0.00078258   -0.20085381
     atom    5 type  1   force =     9.28561588   -0.00109040    0.56210077
     atom    6 type  4   force =    -3.82427805   -0.00026299   -0.17009278
     atom    7 type  4   force =     1.01010947    0.00017551   -0.08939317
     atom    8 type  4   force =     5.50288468    0.00024748   -0.06619952
     atom    9 type  4   force =    -3.12248428   -0.00017343   -0.17305749
     atom   10 type  3   force =    -9.89459525   -0.00027124    2.84652775
     atom   11 type  3   force =     3.74717379    0.00024976    1.67878998
     atom   12 type  3   force =    11.95908089    0.00025513   -2.93608516
     atom   13 type  3   force =    -8.11703849   -0.00029652   -2.41560203
     atom   14 type  3   force =     0.66817309   -0.00021984    4.85316203
     atom   15 type  3   force =    -1.79352382    0.00025450    6.18211420
     atom   16 type  3   force =    -2.02187343    0.00013872   -2.12349749
     atom   17 type  3   force =     3.42487381   -0.00026298   -5.42658827
     atom   18 type  3   force =    -4.20436870    2.75442232   -2.63265198
     atom   19 type  3   force =     1.14146129   -4.03629831   -2.31554484
     atom   20 type  3   force =     5.55786022    4.37283018    2.00397094
     atom   21 type  3   force =    -1.55897721   -1.28765634    1.17806309
     atom   22 type  3   force =     5.55811359   -4.37235621    2.00409598
     atom   23 type  3   force =    -1.55920431    1.28729533    1.17796010
     atom   24 type  3   force =    -4.20416542   -2.75491169   -2.63247208
     atom   25 type  3   force =     1.14119895    4.03666609   -2.31561262
     The local contribution  to forces
     atom    1 type  2   force =     3.62146560    0.00000000   -2.06208731
     atom    2 type  1   force =    -1.25532918   -0.00923745    0.36414673
     atom    3 type  1   force =     8.93413428    0.00463308    0.57101234
     atom    4 type  1   force =    -2.57521782    0.00235617    0.23115457
     atom    5 type  1   force =    -9.29181719   -0.01142761   -0.48023450
     atom    6 type  4   force =     3.85038805   -0.00003057    0.21329962
     atom    7 type  4   force =    -1.05762387   -0.00002145    0.10645288
     atom    8 type  4   force =    -5.50792019   -0.00002521    0.02013636
     atom    9 type  4   force =     3.12588665   -0.00001790    0.12210518
     atom   10 type  3   force =     9.60046441   -0.00167535   -1.33767020
     atom   11 type  3   force =    -3.65399886    0.00000000   -0.24067762
     atom   12 type  3   force =   -11.57570969    0.00000000    1.42801159
     atom   13 type  3   force =     7.90228585   -0.00163293    0.90644775
     atom   14 type  3   force =    -1.85626309   -0.00162434   -4.28936140
     atom   15 type  3   force =     2.96808119    0.00000000   -5.45143000
     atom   16 type  3   force =     3.18160844    0.00056648    1.85601233
     atom   17 type  3   force =    -4.56666599   -0.00165355    4.84783903
     atom   18 type  3   force =     4.71074425   -1.67114435    1.92463671
     atom   19 type  3   force =    -1.65569593    2.89223573    1.57215060
     atom   20 type  3   force =    -6.08992420   -3.28030912   -1.39753336
     atom   21 type  3   force =     2.08979648    0.23446197   -0.54379887
     atom   22 type  3   force =    -6.08992398    3.27945018   -1.39783514
     atom   23 type  3   force =     2.08895558   -0.23627614   -0.54462570
     atom   24 type  3   force =     4.71067119    1.66935208    1.92448824
     atom   25 type  3   force =    -1.65660031   -2.89312560    1.57149670
     The core correction contribution to forces
     atom    1 type  2   force =     0.00000000    0.00000000    0.00000000
     atom    2 type  1   force =    -0.00109527    0.00031463   -0.00063759
     atom    3 type  1   force =     0.00022566   -0.00015772   -0.00002152
     atom    4 type  1   force =     0.00444244   -0.00007880   -0.00105767
     atom    5 type  1   force =    -0.00044413    0.00039558    0.00069254
     atom    6 type  4   force =     0.00400455    0.00000272    0.00758448
     atom    7 type  4   force =    -0.00511379    0.00000142    0.00552867
     atom    8 type  4   force =    -0.00214748    0.00000128   -0.00780850
     atom    9 type  4   force =     0.00215931    0.00000265   -0.00801283
     atom   10 type  3   force =    -0.00360191   -0.00000090    0.01328620
     atom   11 type  3   force =     0.00167813    0.00000000    0.01250306
     atom   12 type  3   force =     0.00441287    0.00000000   -0.01319995
     atom   13 type  3   force =    -0.00287044   -0.00000089   -0.01329970
     atom   14 type  3   force =    -0.01149055   -0.00000087    0.00591594
     atom   15 type  3   force =     0.01131069    0.00000000    0.00756615
     atom   16 type  3   force =     0.01125197    0.00000023   -0.00296276
     atom   17 type  3   force =    -0.01111464   -0.00000087   -0.00604569
     atom   18 type  3   force =     0.00488045    0.01057103   -0.00694578
     atom   19 type  3   force =    -0.00491145   -0.01109815   -0.00731978
     atom   20 type  3   force =    -0.00521374    0.01061274    0.00591556
     atom   21 type  3   force =     0.00513699   -0.01030324    0.00623403
     atom   22 type  3   force =    -0.00521404   -0.01061411    0.00591525
     atom   23 type  3   force =     0.00513509    0.01029986    0.00623272
     atom   24 type  3   force =     0.00488132   -0.01057395   -0.00694586
     atom   25 type  3   force =    -0.00491206    0.01109715   -0.00732079
     The Hubbard contrib.    to forces
     atom    1 type  2   force =     0.00000000    0.00000000    0.00000000
     atom    2 type  1   force =     0.00000000    0.00000000    0.00000000
     atom    3 type  1   force =     0.00000000    0.00000000    0.00000000
     atom    4 type  1   force =     0.00000000    0.00000000    0.00000000
     atom    5 type  1   force =     0.00000000    0.00000000    0.00000000
     atom    6 type  4   force =     0.00000000    0.00000000    0.00000000
     atom    7 type  4   force =     0.00000000    0.00000000    0.00000000
     atom    8 type  4   force =     0.00000000    0.00000000    0.00000000
     atom    9 type  4   force =     0.00000000    0.00000000    0.00000000
     atom   10 type  3   force =     0.00000000    0.00000000    0.00000000
     atom   11 type  3   force =     0.00000000    0.00000000    0.00000000
     atom   12 type  3   force =     0.00000000    0.00000000    0.00000000
     atom   13 type  3   force =     0.00000000    0.00000000    0.00000000
     atom   14 type  3   force =     0.00000000    0.00000000    0.00000000
     atom   15 type  3   force =     0.00000000    0.00000000    0.00000000
     atom   16 type  3   force =     0.00000000    0.00000000    0.00000000
     atom   17 type  3   force =     0.00000000    0.00000000    0.00000000
     atom   18 type  3   force =     0.00000000    0.00000000    0.00000000
     atom   19 type  3   force =     0.00000000    0.00000000    0.00000000
     atom   20 type  3   force =     0.00000000    0.00000000    0.00000000
     atom   21 type  3   force =     0.00000000    0.00000000    0.00000000
     atom   22 type  3   force =     0.00000000    0.00000000    0.00000000
     atom   23 type  3   force =     0.00000000    0.00000000    0.00000000
     atom   24 type  3   force =     0.00000000    0.00000000    0.00000000
     atom   25 type  3   force =     0.00000000    0.00000000    0.00000000
     The SCF correction term to forces
     atom    1 type  2   force =    -0.00000517   -0.00000000    0.00000145
     atom    2 type  1   force =    -0.00000277    0.00000001    0.00000056
     atom    3 type  1   force =    -0.00000147   -0.00000000   -0.00000030
     atom    4 type  1   force =     0.00000275   -0.00000000   -0.00000148
     atom    5 type  1   force =     0.00000205    0.00000000   -0.00000043
     atom    6 type  4   force =     0.00000004    0.00000000    0.00000019
     atom    7 type  4   force =    -0.00000277   -0.00000000   -0.00000012
     atom    8 type  4   force =     0.00000318   -0.00000000   -0.00000053
     atom    9 type  4   force =     0.00000028    0.00000000    0.00000045
     atom   10 type  3   force =    -0.00000079    0.00000000   -0.00000116
     atom   11 type  3   force =    -0.00000383   -0.00000000    0.00000055
     atom   12 type  3   force =     0.00000657   -0.00000000    0.00000400
     atom   13 type  3   force =     0.00000260    0.00000000   -0.00000265
     atom   14 type  3   force =    -0.00000058    0.00000000    0.00000067
     atom   15 type  3   force =     0.00000348   -0.00000000   -0.00000108
     atom   16 type  3   force =    -0.00000637   -0.00000000   -0.00000131
     atom   17 type  3   force =    -0.00000184    0.00000000    0.00000108
     atom   18 type  3   force =    -0.00000022    0.00000187    0.00000140
     atom   19 type  3   force =    -0.00000230    0.00000241   -0.00000097
     atom   20 type  3   force =     0.00000352    0.00000577   -0.00000422
     atom   21 type  3   force =     0.00000047    0.00000646    0.00000344
     atom   22 type  3   force =     0.00000352   -0.00000577   -0.00000422
     atom   23 type  3   force =     0.00000047   -0.00000646    0.00000344
     atom   24 type  3   force =    -0.00000022   -0.00000187    0.00000140
     atom   25 type  3   force =    -0.00000230   -0.00000241   -0.00000097

     Total force =     0.189255     Total SCF correction =     0.000022


     Computing stress (Cartesian axis) and pressure


     negative rho (up, down):  0.000E+00 8.554E-04
          total   stress  (Ry/bohr**3)                   (kbar)     P=     -108.03
  -0.00111121   0.00000000  -0.00001828         -163.46        0.00       -2.69
   0.00000000  -0.00084864   0.00000000            0.00     -124.84        0.00
  -0.00001828   0.00000000  -0.00024320           -2.69        0.00      -35.78

     kinetic stress (kbar)  24470.80      0.00    -10.41
                                0.00  24711.92      0.00
                              -10.41      0.00  24604.10

     local   stress (kbar)  -4388.73     -0.05   1112.54
                               -0.05 -13139.43     -0.00
                             1112.54     -0.00  -9527.73

     nonloc. stress (kbar)  -6217.81      0.00     -1.75
                                0.00  -6167.84      0.00
                               -1.75      0.00  -6169.86

     hartree stress (kbar)  11728.48     -0.00   -458.64
                               -0.00  16646.98      0.00
                             -458.64      0.00  14565.07

     exc-cor stress (kbar)  -2602.34      0.00     -0.81
                                0.00  -2609.52     -0.00
                               -0.81     -0.00  -2606.38

     corecor stress (kbar)  -2914.66     -0.00      1.06
                               -0.00  -2914.73      0.00
                                1.06      0.00  -2917.11

     ewald   stress (kbar) -20239.22      0.05   -644.67
                                0.05 -16652.22      0.00
                             -644.67      0.00 -17983.87

     hubbard stress (kbar)      0.00      0.00      0.00
                                0.00      0.00      0.00
                                0.00      0.00      0.00

     DFT-D   stress (kbar)      0.00      0.00      0.00
                                0.00      0.00      0.00
                                0.00      0.00      0.00

     XDM     stress (kbar)      0.00      0.00      0.00
                                0.00      0.00      0.00
                                0.00      0.00      0.00

     dft-nl  stress (kbar)      0.00      0.00      0.00
                                0.00      0.00      0.00
                                0.00      0.00      0.00

     TS-vdW  stress (kbar)      0.00      0.00      0.00
                                0.00      0.00      0.00
                                0.00      0.00      0.00



     init_run     :    127.00s CPU    129.80s WALL (       1 calls)
     electrons    :  11938.85s CPU  12084.30s WALL (       1 calls)
     forces       :     80.03s CPU     81.12s WALL (       1 calls)
     stress       :    509.41s CPU    512.20s WALL (       1 calls)

     Called by init_run:
     wfcinit      :    115.85s CPU    117.65s WALL (       1 calls)
     wfcinit:atom :      1.96s CPU      1.98s WALL (     184 calls)
     wfcinit:wfcr :    107.25s CPU    108.98s WALL (     184 calls)
     potinit      :      3.80s CPU      3.96s WALL (       1 calls)
     hinit0       :      3.72s CPU      3.90s WALL (       1 calls)

     Called by electrons:
     c_bands      :  10440.10s CPU  10526.77s WALL (      37 calls)
     sum_band     :   1358.77s CPU   1397.96s WALL (      37 calls)
     v_of_rho     :     35.91s CPU     36.91s WALL (      38 calls)
     v_h          :      1.62s CPU      1.69s WALL (      38 calls)
     v_xc         :     36.23s CPU     37.22s WALL (      40 calls)
     newd         :     77.25s CPU     96.10s WALL (      38 calls)
     PAW_pot      :     16.78s CPU     16.79s WALL (      38 calls)
     mix_rho      :      8.92s CPU      9.14s WALL (      37 calls)

     Called by c_bands:
     init_us_2    :    218.01s CPU    218.98s WALL (   14168 calls)
     cegterg      :  10110.43s CPU  10195.24s WALL (    6808 calls)

     Called by sum_band:
     sum_band:wei :      0.36s CPU      0.36s WALL (      37 calls)
     sum_band:loo :   1139.32s CPU   1152.21s WALL (      37 calls)
     sum_band:buf :     57.08s CPU     57.40s WALL (    6808 calls)
     sum_band:ini :    104.93s CPU    105.27s WALL (    6808 calls)
     sum_band:cal :    515.95s CPU    519.17s WALL (    6808 calls)
     sum_band:bec :      3.64s CPU      3.71s WALL (    6808 calls)
     addusdens    :    210.85s CPU    236.65s WALL (      37 calls)
     addusd:skk   :      1.51s CPU      1.53s WALL (     111 calls)
     addusd:dgemm :    103.44s CPU    128.76s WALL (     222 calls)
     addusd:qvan2 :    102.75s CPU    102.93s WALL (     222 calls)

     Called by *egterg:
     cdiaghg      :    579.38s CPU    593.72s WALL (   26656 calls)
     cegterg:over :    948.32s CPU    956.28s WALL (   19848 calls)
     cegterg:upda :    578.19s CPU    579.29s WALL (   19848 calls)
     cegterg:last :   1267.53s CPU   1269.40s WALL (   12054 calls)
     h_psi        :   4906.53s CPU   4961.55s WALL (   26840 calls)
     s_psi        :   1275.27s CPU   1277.26s WALL (   26840 calls)
     g_psi        :     11.10s CPU     11.18s WALL (   19848 calls)

     Called by h_psi:
     h_psi:calbec :   1360.58s CPU   1370.52s WALL (   26840 calls)
     vloc_psi     :   1995.94s CPU   2036.92s WALL (   26840 calls)
     add_vuspsi   :   1423.05s CPU   1425.70s WALL (   26840 calls)

     General routines
     calbec       :   1943.91s CPU   1957.79s WALL (   34568 calls)
     fft          :     28.66s CPU     30.16s WALL (     988 calls)
     ffts         :      0.67s CPU      0.74s WALL (     150 calls)
     fftw         :   2270.65s CPU   2316.40s WALL ( 4208054 calls)
     interpolate  :      2.69s CPU      2.85s WALL (      76 calls)

     Parallel routines
     fft_scatt_xy :    221.87s CPU    226.30s WALL ( 4209192 calls)
     fft_scatt_yz :    697.77s CPU    714.52s WALL ( 4209192 calls)

     PAW routines
     PAW_pot      :     16.78s CPU     16.79s WALL (      38 calls)
     PAW_symme    :      0.13s CPU      0.14s WALL (      75 calls)

     PWSCF        :      3h30m CPU      3h33m WALL


   This run was terminated on:   7: 2:13  18Dec2022            

=------------------------------------------------------------------------------=
   JOB DONE.
=------------------------------------------------------------------------------=
Note: The following floating-point exceptions are signalling: IEEE_DENORMAL
Note: The following floating-point exceptions are signalling: IEEE_UNDERFLOW_FLAG IEEE_DENORMAL
Note: The following floating-point exceptions are signalling: IEEE_DENORMAL
Note: The following floating-point exceptions are signalling: IEEE_DENORMAL
Note: The following floating-point exceptions are signalling: IEEE_DENORMAL
Note: The following floating-point exceptions are signalling: IEEE_DENORMAL
Note: The following floating-point exceptions are signalling: IEEE_DENORMAL
Note: The following floating-point exceptions are signalling: IEEE_DENORMAL
Note: The following floating-point exceptions are signalling: IEEE_DENORMAL
Note: The following floating-point exceptions are signalling: IEEE_DENORMAL
Note: The following floating-point exceptions are signalling: IEEE_DENORMAL
Note: The following floating-point exceptions are signalling: IEEE_INVALID_FLAG IEEE_DENORMAL
Note: The following floating-point exceptions are signalling: IEEE_DENORMAL
Note: The following floating-point exceptions are signalling: IEEE_DENORMAL
Note: The following floating-point exceptions are signalling: IEEE_INVALID_FLAG IEEE_DENORMAL
Note: The following floating-point exceptions are signalling: IEEE_DENORMAL
Note: The following floating-point exceptions are signalling: IEEE_DENORMAL
Note: The following floating-point exceptions are signalling: IEEE_DENORMAL
Note: The following floating-point exceptions are signalling: IEEE_DENORMAL
Note: The following floating-point exceptions are signalling: IEEE_DENORMAL
Note: The following floating-point exceptions are signalling: IEEE_DENORMAL
Note: The following floating-point exceptions are signalling: IEEE_DENORMAL
Note: The following floating-point exceptions are signalling: IEEE_DENORMAL
Note: The following floating-point exceptions are signalling: IEEE_DENORMAL
