
     Program PWSCF v.6.7MaX starts on 18Dec2022 at  9:48:12 

     This program is part of the open-source Quantum ESPRESSO suite
     for quantum simulation of materials; please cite
         "P. Giannozzi et al., J. Phys.:Condens. Matter 21 395502 (2009);
         "P. Giannozzi et al., J. Phys.:Condens. Matter 29 465901 (2017);
          URL http://www.quantum-espresso.org", 
     in publications or presentations arising from this work. More details at
     http://www.quantum-espresso.org/quote

     Parallel version (MPI), running on    24 processors

     MPI processes distributed on     1 nodes
     R & G space division:  proc/nbgrp/npool/nimage =      24
     Reading input from scale_1da-05.in

     Current dimensions of program PWSCF are:
     Max number of different atomic species (ntypx) = 10
     Max number of k-points (npk) =  40000
     Max angular momentum in pseudopotentials (lmaxx) =  3
     Message from routine read_pp_mesh:
     mesh size missing, using the one in header
     file Fe.pbe-spn-kjpaw_psl.0.2.1.UPF: wavefunction(s)  3D renormalized
     file O.pbe-n-kjpaw_psl.0.1.UPF: wavefunction(s)  2P renormalized

     Subspace diagonalization in iterative solution of the eigenvalue problem:
     a serial algorithm will be used

     Message from routine setup:
     using ibrav=0 with symmetry is DISCOURAGED, use correct ibrav instead

     Parallelization info
     --------------------
     sticks:   dense  smooth     PW     G-vecs:    dense   smooth      PW
     Min         869     321     87                56651    12765    1791
     Max         870     322     88                56653    12768    1793
     Sum       20861    7725   2091              1359665   306383   43025



     bravais-lattice index     =            0
     lattice parameter (alat)  =      20.6483  a.u.
     unit-cell volume          =    2268.3757 (a.u.)^3
     number of atoms/cell      =           25
     number of atomic types    =            4
     number of electrons       =       189.00
     number of Kohn-Sham states=          114
     kinetic-energy cutoff     =     100.0000  Ry
     charge density cutoff     =    1080.0000  Ry
     scf convergence threshold =      2.0E-10
     mixing beta               =       0.4000
     number of iterations used =            8  plain     mixing
     Exchange-correlation= PBE
                           (   1   4   3   4   0   0   0)

     celldm(1)=  20.648310  celldm(2)=   0.000000  celldm(3)=   0.000000
     celldm(4)=   0.000000  celldm(5)=   0.000000  celldm(6)=   0.000000

     crystal axes: (cart. coord. in units of alat)
               a(1) = (   1.000000   0.000000   0.000000 )  
               a(2) = (   0.000000   0.569133   0.000000 )  
               a(3) = (   0.000000   0.000000   0.452739 )  

     reciprocal axes: (cart. coord. in units 2 pi/alat)
               b(1) = (  1.000000  0.000000  0.000000 )  
               b(2) = (  0.000000  1.757058  0.000000 )  
               b(3) = (  0.000000  0.000000  2.208780 )  


     PseudoPot. # 1 for Fe read from file:
     /opt/QEpot/SSSP_precision_pseudos/Fe.pbe-spn-kjpaw_psl.0.2.1.UPF
     MD5 check sum: e86618425769142926afa95317d90200
     Pseudo is Projector augmented-wave + core cor, Zval = 16.0
     Generated using "atomic" code by A. Dal Corso  v.5.0.99 svn rev. 10869
     Shape of augmentation charge: PSQ
     Using radial grid of 1191 points,  6 beta functions with: 
                l(1) =   0
                l(2) =   0
                l(3) =   1
                l(4) =   1
                l(5) =   2
                l(6) =   2
     Q(r) pseudized with 0 coefficients 


     PseudoPot. # 2 for Na read from file:
     /opt/QEpot/SSSP_precision_pseudos/Na_ONCV_PBE-1.0.oncvpsp.upf
     MD5 check sum: 24a298df0a6742ae313db96548fdb2a4
     Pseudo is Norm-conserving, Zval =  9.0
     Generated using ONCVPSP code by D. R. Hamann
     Using radial grid of 1992 points,  4 beta functions with: 
                l(1) =   0
                l(2) =   0
                l(3) =   1
                l(4) =   1

     PseudoPot. # 3 for O  read from file:
     /opt/QEpot/SSSP_precision_pseudos/O.pbe-n-kjpaw_psl.0.1.UPF
     MD5 check sum: 0234752ac141de4415c5fc33072bef88
     Pseudo is Projector augmented-wave + core cor, Zval =  6.0
     Generated using "atomic" code by A. Dal Corso  v.5.0.99 svn rev. 10869
     Shape of augmentation charge: BESSEL
     Using radial grid of 1095 points,  4 beta functions with: 
                l(1) =   0
                l(2) =   0
                l(3) =   1
                l(4) =   1
     Q(r) pseudized with 0 coefficients 


     PseudoPot. # 4 for P  read from file:
     /opt/QEpot/SSSP_precision_pseudos/P.pbe-n-rrkjus_psl.1.0.0.UPF
     MD5 check sum: 8b930f418f0a4573dca56cd030ffe088
     Pseudo is Ultrasoft + core correction, Zval =  5.0
     Generated using "atomic" code by A. Dal Corso  v.5.1
     Using radial grid of 1147 points,  6 beta functions with: 
                l(1) =   0
                l(2) =   0
                l(3) =   1
                l(4) =   1
                l(5) =   2
                l(6) =   2
     Q(r) pseudized with 0 coefficients 


     atomic species   valence    mass     pseudopotential
        Fe            16.00    55.84500     Fe( 1.00)
        Na             9.00    22.98977     Na( 1.00)
        O              6.00    15.99940     O ( 1.00)
        P              5.00    30.97376     P ( 1.00)

     Starting magnetic structure 
     atomic species   magnetization
        Fe           0.312
        Na           0.000
        O            0.000
        P            0.000

      2 Sym. Ops. (no inversion) found ( 1 have fractional translation)


                                    s                        frac. trans.

      isym =  1     identity                                     

 cryst.   s( 1) = (     1          0          0      )
                  (     0          1          0      )
                  (     0          0          1      )

 cart.    s( 1) = (  1.0000000  0.0000000  0.0000000 )
                  (  0.0000000  1.0000000  0.0000000 )
                  (  0.0000000  0.0000000  1.0000000 )


      isym =  2     inv. 180 deg rotation - cart. axis [0,1,0]   

 cryst.   s( 2) = (     1          0          0      )    f =(  0.0000000 )
                  (     0         -1          0      )       (  0.4999980 )
                  (     0          0          1      )       (  0.0000000 )

 cart.    s( 2) = (  1.0000000  0.0000000  0.0000000 )    f =(  0.0000000 )
                  (  0.0000000 -1.0000000  0.0000000 )       (  0.2845655 )
                  (  0.0000000  0.0000000  1.0000000 )       (  0.0000000 )


   Cartesian axes

     site n.     atom                  positions (alat units)
         1           Na  tau(   1) = (   0.5574590   0.1422839   0.2016398  )
         2           Fe  tau(   2) = (   0.2771150   0.4268528   0.4488409  )
         3           Fe  tau(   3) = (   0.2107060   0.1422827   0.2220493  )
         4           Fe  tau(   4) = (   0.7302140   0.1422833   0.0000484  )
         5           Fe  tau(   5) = (   0.7810190   0.4268534   0.2329471  )
         6           P   tau(   6) = (   0.1051510   0.4268517   0.2009652  )
         7           P   tau(   7) = (   0.3871250   0.1422845   0.4262760  )
         8           P   tau(   8) = (   0.8922730   0.1422845   0.2520056  )
         9           P   tau(   9) = (   0.6039150   0.4268517   0.0299328  )
        10           O   tau(  10) = (   0.1313210   0.4268522   0.3399383  )
        11           O   tau(  11) = (   0.3628270   0.1422839   0.1129945  )
        12           O   tau(  12) = (   0.8714480   0.1422839   0.1124734  )
        13           O   tau(  13) = (   0.6323650   0.4268522   0.3441537  )
        14           O   tau(  14) = (   0.4574600   0.4268522   0.0541208  )
        15           O   tau(  15) = (   0.0361810   0.1422839   0.2840559  )
        16           O   tau(  16) = (   0.5358400   0.1422833   0.4056424  )
        17           O   tau(  17) = (   0.9582930   0.4268522   0.1771236  )
        18           O   tau(  18) = (   0.1741600   0.5379823   0.1356310  )
        19           O   tau(  19) = (   0.3208130   0.0313479   0.3600209  )
        20           O   tau(  20) = (   0.8175190   0.2520424   0.3149005  )
        21           O   tau(  21) = (   0.6721860   0.3150340   0.0964759  )
        22           O   tau(  22) = (   0.8175190   0.0325265   0.3149010  )
        23           O   tau(  23) = (   0.6721870   0.5386693   0.0964768  )
        24           O   tau(  24) = (   0.1741600   0.3157210   0.1356310  )
        25           O   tau(  25) = (   0.3208140   0.2532210   0.3600218  )

   Crystallographic axes

     site n.     atom                  positions (cryst. coord.)
         1           Na  tau(   1) = (  0.5574590  0.2500010  0.4453780  )
         2           Fe  tau(   2) = (  0.2771150  0.7500050  0.9913910  )
         3           Fe  tau(   3) = (  0.2107060  0.2499990  0.4904580  )
         4           Fe  tau(   4) = (  0.7302140  0.2500000  0.0001070  )
         5           Fe  tau(   5) = (  0.7810190  0.7500060  0.5145290  )
         6           P   tau(   6) = (  0.1051510  0.7500030  0.4438880  )
         7           P   tau(   7) = (  0.3871250  0.2500020  0.9415500  )
         8           P   tau(   8) = (  0.8922730  0.2500020  0.5566250  )
         9           P   tau(   9) = (  0.6039150  0.7500030  0.0661150  )
        10           O   tau(  10) = (  0.1313210  0.7500040  0.7508490  )
        11           O   tau(  11) = (  0.3628270  0.2500010  0.2495800  )
        12           O   tau(  12) = (  0.8714480  0.2500010  0.2484290  )
        13           O   tau(  13) = (  0.6323650  0.7500040  0.7601600  )
        14           O   tau(  14) = (  0.4574600  0.7500040  0.1195410  )
        15           O   tau(  15) = (  0.0361810  0.2500010  0.6274170  )
        16           O   tau(  16) = (  0.5358400  0.2500000  0.8959750  )
        17           O   tau(  17) = (  0.9582930  0.7500040  0.3912270  )
        18           O   tau(  18) = (  0.1741600  0.9452660  0.2995790  )
        19           O   tau(  19) = (  0.3208130  0.0550800  0.7952070  )
        20           O   tau(  20) = (  0.8175190  0.4428530  0.6955460  )
        21           O   tau(  21) = (  0.6721860  0.5535330  0.2130940  )
        22           O   tau(  22) = (  0.8175190  0.0571510  0.6955470  )
        23           O   tau(  23) = (  0.6721870  0.9464730  0.2130960  )
        24           O   tau(  24) = (  0.1741600  0.5547400  0.2995790  )
        25           O   tau(  25) = (  0.3208140  0.4449240  0.7952090  )

     number of k points=    92  Marzari-Vanderbilt smearing, width (Ry)=  0.0073
                       cart. coord. in units 2pi/alat
        k(    1) = (   0.0000000   0.0000000   0.0000000), wk =   0.0031746
        k(    2) = (   0.0000000   0.0000000   0.2454200), wk =   0.0063492
        k(    3) = (   0.0000000   0.0000000   0.4908401), wk =   0.0063492
        k(    4) = (   0.0000000   0.0000000   0.7362601), wk =   0.0063492
        k(    5) = (   0.0000000   0.0000000   0.9816801), wk =   0.0063492
        k(    6) = (   0.0000000   0.2510082   0.0000000), wk =   0.0063492
        k(    7) = (   0.0000000   0.2510082   0.2454200), wk =   0.0126984
        k(    8) = (   0.0000000   0.2510082   0.4908401), wk =   0.0126984
        k(    9) = (   0.0000000   0.2510082   0.7362601), wk =   0.0126984
        k(   10) = (   0.0000000   0.2510082   0.9816801), wk =   0.0126984
        k(   11) = (   0.0000000   0.5020165   0.0000000), wk =   0.0063492
        k(   12) = (   0.0000000   0.5020165   0.2454200), wk =   0.0126984
        k(   13) = (   0.0000000   0.5020165   0.4908401), wk =   0.0126984
        k(   14) = (   0.0000000   0.5020165   0.7362601), wk =   0.0126984
        k(   15) = (   0.0000000   0.5020165   0.9816801), wk =   0.0126984
        k(   16) = (   0.0000000   0.7530247   0.0000000), wk =   0.0063492
        k(   17) = (   0.0000000   0.7530247   0.2454200), wk =   0.0126984
        k(   18) = (   0.0000000   0.7530247   0.4908401), wk =   0.0126984
        k(   19) = (   0.0000000   0.7530247   0.7362601), wk =   0.0126984
        k(   20) = (   0.0000000   0.7530247   0.9816801), wk =   0.0126984
        k(   21) = (   0.2000000   0.0000000   0.0000000), wk =   0.0063492
        k(   22) = (   0.2000000   0.0000000   0.2454200), wk =   0.0063492
        k(   23) = (   0.2000000   0.0000000   0.4908401), wk =   0.0063492
        k(   24) = (   0.2000000   0.0000000   0.7362601), wk =   0.0063492
        k(   25) = (   0.2000000   0.0000000   0.9816801), wk =   0.0063492
        k(   26) = (   0.2000000   0.2510082   0.0000000), wk =   0.0126984
        k(   27) = (   0.2000000   0.2510082   0.2454200), wk =   0.0126984
        k(   28) = (   0.2000000   0.2510082   0.4908401), wk =   0.0126984
        k(   29) = (   0.2000000   0.2510082   0.7362601), wk =   0.0126984
        k(   30) = (   0.2000000   0.2510082   0.9816801), wk =   0.0126984
        k(   31) = (   0.2000000   0.5020165   0.0000000), wk =   0.0126984
        k(   32) = (   0.2000000   0.5020165   0.2454200), wk =   0.0126984
        k(   33) = (   0.2000000   0.5020165   0.4908401), wk =   0.0126984
        k(   34) = (   0.2000000   0.5020165   0.7362601), wk =   0.0126984
        k(   35) = (   0.2000000   0.5020165   0.9816801), wk =   0.0126984
        k(   36) = (   0.2000000   0.7530247   0.0000000), wk =   0.0126984
        k(   37) = (   0.2000000   0.7530247   0.2454200), wk =   0.0126984
        k(   38) = (   0.2000000   0.7530247   0.4908401), wk =   0.0126984
        k(   39) = (   0.2000000   0.7530247   0.7362601), wk =   0.0126984
        k(   40) = (   0.2000000   0.7530247   0.9816801), wk =   0.0126984
        k(   41) = (   0.4000000   0.0000000   0.0000000), wk =   0.0063492
        k(   42) = (   0.4000000   0.0000000   0.2454200), wk =   0.0063492
        k(   43) = (   0.4000000   0.0000000   0.4908401), wk =   0.0063492
        k(   44) = (   0.4000000   0.0000000   0.7362601), wk =   0.0063492
        k(   45) = (   0.4000000   0.0000000   0.9816801), wk =   0.0063492
        k(   46) = (   0.4000000   0.2510082   0.0000000), wk =   0.0126984
        k(   47) = (   0.4000000   0.2510082   0.2454200), wk =   0.0126984
        k(   48) = (   0.4000000   0.2510082   0.4908401), wk =   0.0126984
        k(   49) = (   0.4000000   0.2510082   0.7362601), wk =   0.0126984
        k(   50) = (   0.4000000   0.2510082   0.9816801), wk =   0.0126984
        k(   51) = (   0.4000000   0.5020165   0.0000000), wk =   0.0126984
        k(   52) = (   0.4000000   0.5020165   0.2454200), wk =   0.0126984
        k(   53) = (   0.4000000   0.5020165   0.4908401), wk =   0.0126984
        k(   54) = (   0.4000000   0.5020165   0.7362601), wk =   0.0126984
        k(   55) = (   0.4000000   0.5020165   0.9816801), wk =   0.0126984
        k(   56) = (   0.4000000   0.7530247   0.0000000), wk =   0.0126984
        k(   57) = (   0.4000000   0.7530247   0.2454200), wk =   0.0126984
        k(   58) = (   0.4000000   0.7530247   0.4908401), wk =   0.0126984
        k(   59) = (   0.4000000   0.7530247   0.7362601), wk =   0.0126984
        k(   60) = (   0.4000000   0.7530247   0.9816801), wk =   0.0126984
        k(   61) = (   0.2000000   0.0000000  -0.2454200), wk =   0.0063492
        k(   62) = (   0.2000000   0.0000000  -0.4908401), wk =   0.0063492
        k(   63) = (   0.2000000   0.0000000  -0.7362601), wk =   0.0063492
        k(   64) = (   0.2000000   0.0000000  -0.9816801), wk =   0.0063492
        k(   65) = (   0.2000000  -0.2510082  -0.2454200), wk =   0.0126984
        k(   66) = (   0.2000000  -0.2510082  -0.4908401), wk =   0.0126984
        k(   67) = (   0.2000000  -0.2510082  -0.7362601), wk =   0.0126984
        k(   68) = (   0.2000000  -0.2510082  -0.9816801), wk =   0.0126984
        k(   69) = (   0.2000000  -0.5020165  -0.2454200), wk =   0.0126984
        k(   70) = (   0.2000000  -0.5020165  -0.4908401), wk =   0.0126984
        k(   71) = (   0.2000000  -0.5020165  -0.7362601), wk =   0.0126984
        k(   72) = (   0.2000000  -0.5020165  -0.9816801), wk =   0.0126984
        k(   73) = (   0.2000000  -0.7530247  -0.2454200), wk =   0.0126984
        k(   74) = (   0.2000000  -0.7530247  -0.4908401), wk =   0.0126984
        k(   75) = (   0.2000000  -0.7530247  -0.7362601), wk =   0.0126984
        k(   76) = (   0.2000000  -0.7530247  -0.9816801), wk =   0.0126984
        k(   77) = (   0.4000000   0.0000000  -0.2454200), wk =   0.0063492
        k(   78) = (   0.4000000   0.0000000  -0.4908401), wk =   0.0063492
        k(   79) = (   0.4000000   0.0000000  -0.7362601), wk =   0.0063492
        k(   80) = (   0.4000000   0.0000000  -0.9816801), wk =   0.0063492
        k(   81) = (   0.4000000  -0.2510082  -0.2454200), wk =   0.0126984
        k(   82) = (   0.4000000  -0.2510082  -0.4908401), wk =   0.0126984
        k(   83) = (   0.4000000  -0.2510082  -0.7362601), wk =   0.0126984
        k(   84) = (   0.4000000  -0.2510082  -0.9816801), wk =   0.0126984
        k(   85) = (   0.4000000  -0.5020165  -0.2454200), wk =   0.0126984
        k(   86) = (   0.4000000  -0.5020165  -0.4908401), wk =   0.0126984
        k(   87) = (   0.4000000  -0.5020165  -0.7362601), wk =   0.0126984
        k(   88) = (   0.4000000  -0.5020165  -0.9816801), wk =   0.0126984
        k(   89) = (   0.4000000  -0.7530247  -0.2454200), wk =   0.0126984
        k(   90) = (   0.4000000  -0.7530247  -0.4908401), wk =   0.0126984
        k(   91) = (   0.4000000  -0.7530247  -0.7362601), wk =   0.0126984
        k(   92) = (   0.4000000  -0.7530247  -0.9816801), wk =   0.0126984

                       cryst. coord.
        k(    1) = (   0.0000000   0.0000000   0.0000000), wk =   0.0031746
        k(    2) = (   0.0000000   0.0000000   0.1111111), wk =   0.0063492
        k(    3) = (   0.0000000   0.0000000   0.2222222), wk =   0.0063492
        k(    4) = (   0.0000000   0.0000000   0.3333333), wk =   0.0063492
        k(    5) = (   0.0000000   0.0000000   0.4444444), wk =   0.0063492
        k(    6) = (   0.0000000   0.1428571   0.0000000), wk =   0.0063492
        k(    7) = (   0.0000000   0.1428571   0.1111111), wk =   0.0126984
        k(    8) = (   0.0000000   0.1428571   0.2222222), wk =   0.0126984
        k(    9) = (   0.0000000   0.1428571   0.3333333), wk =   0.0126984
        k(   10) = (   0.0000000   0.1428571   0.4444444), wk =   0.0126984
        k(   11) = (   0.0000000   0.2857143   0.0000000), wk =   0.0063492
        k(   12) = (   0.0000000   0.2857143   0.1111111), wk =   0.0126984
        k(   13) = (   0.0000000   0.2857143   0.2222222), wk =   0.0126984
        k(   14) = (   0.0000000   0.2857143   0.3333333), wk =   0.0126984
        k(   15) = (   0.0000000   0.2857143   0.4444444), wk =   0.0126984
        k(   16) = (   0.0000000   0.4285714   0.0000000), wk =   0.0063492
        k(   17) = (   0.0000000   0.4285714   0.1111111), wk =   0.0126984
        k(   18) = (   0.0000000   0.4285714   0.2222222), wk =   0.0126984
        k(   19) = (   0.0000000   0.4285714   0.3333333), wk =   0.0126984
        k(   20) = (   0.0000000   0.4285714   0.4444444), wk =   0.0126984
        k(   21) = (   0.2000000   0.0000000   0.0000000), wk =   0.0063492
        k(   22) = (   0.2000000   0.0000000   0.1111111), wk =   0.0063492
        k(   23) = (   0.2000000   0.0000000   0.2222222), wk =   0.0063492
        k(   24) = (   0.2000000   0.0000000   0.3333333), wk =   0.0063492
        k(   25) = (   0.2000000   0.0000000   0.4444444), wk =   0.0063492
        k(   26) = (   0.2000000   0.1428571   0.0000000), wk =   0.0126984
        k(   27) = (   0.2000000   0.1428571   0.1111111), wk =   0.0126984
        k(   28) = (   0.2000000   0.1428571   0.2222222), wk =   0.0126984
        k(   29) = (   0.2000000   0.1428571   0.3333333), wk =   0.0126984
        k(   30) = (   0.2000000   0.1428571   0.4444444), wk =   0.0126984
        k(   31) = (   0.2000000   0.2857143   0.0000000), wk =   0.0126984
        k(   32) = (   0.2000000   0.2857143   0.1111111), wk =   0.0126984
        k(   33) = (   0.2000000   0.2857143   0.2222222), wk =   0.0126984
        k(   34) = (   0.2000000   0.2857143   0.3333333), wk =   0.0126984
        k(   35) = (   0.2000000   0.2857143   0.4444444), wk =   0.0126984
        k(   36) = (   0.2000000   0.4285714   0.0000000), wk =   0.0126984
        k(   37) = (   0.2000000   0.4285714   0.1111111), wk =   0.0126984
        k(   38) = (   0.2000000   0.4285714   0.2222222), wk =   0.0126984
        k(   39) = (   0.2000000   0.4285714   0.3333333), wk =   0.0126984
        k(   40) = (   0.2000000   0.4285714   0.4444444), wk =   0.0126984
        k(   41) = (   0.4000000   0.0000000   0.0000000), wk =   0.0063492
        k(   42) = (   0.4000000   0.0000000   0.1111111), wk =   0.0063492
        k(   43) = (   0.4000000   0.0000000   0.2222222), wk =   0.0063492
        k(   44) = (   0.4000000   0.0000000   0.3333333), wk =   0.0063492
        k(   45) = (   0.4000000   0.0000000   0.4444444), wk =   0.0063492
        k(   46) = (   0.4000000   0.1428571   0.0000000), wk =   0.0126984
        k(   47) = (   0.4000000   0.1428571   0.1111111), wk =   0.0126984
        k(   48) = (   0.4000000   0.1428571   0.2222222), wk =   0.0126984
        k(   49) = (   0.4000000   0.1428571   0.3333333), wk =   0.0126984
        k(   50) = (   0.4000000   0.1428571   0.4444444), wk =   0.0126984
        k(   51) = (   0.4000000   0.2857143   0.0000000), wk =   0.0126984
        k(   52) = (   0.4000000   0.2857143   0.1111111), wk =   0.0126984
        k(   53) = (   0.4000000   0.2857143   0.2222222), wk =   0.0126984
        k(   54) = (   0.4000000   0.2857143   0.3333333), wk =   0.0126984
        k(   55) = (   0.4000000   0.2857143   0.4444444), wk =   0.0126984
        k(   56) = (   0.4000000   0.4285714   0.0000000), wk =   0.0126984
        k(   57) = (   0.4000000   0.4285714   0.1111111), wk =   0.0126984
        k(   58) = (   0.4000000   0.4285714   0.2222222), wk =   0.0126984
        k(   59) = (   0.4000000   0.4285714   0.3333333), wk =   0.0126984
        k(   60) = (   0.4000000   0.4285714   0.4444444), wk =   0.0126984
        k(   61) = (   0.2000000   0.0000000  -0.1111111), wk =   0.0063492
        k(   62) = (   0.2000000   0.0000000  -0.2222222), wk =   0.0063492
        k(   63) = (   0.2000000   0.0000000  -0.3333333), wk =   0.0063492
        k(   64) = (   0.2000000   0.0000000  -0.4444444), wk =   0.0063492
        k(   65) = (   0.2000000  -0.1428571  -0.1111111), wk =   0.0126984
        k(   66) = (   0.2000000  -0.1428571  -0.2222222), wk =   0.0126984
        k(   67) = (   0.2000000  -0.1428571  -0.3333333), wk =   0.0126984
        k(   68) = (   0.2000000  -0.1428571  -0.4444444), wk =   0.0126984
        k(   69) = (   0.2000000  -0.2857143  -0.1111111), wk =   0.0126984
        k(   70) = (   0.2000000  -0.2857143  -0.2222222), wk =   0.0126984
        k(   71) = (   0.2000000  -0.2857143  -0.3333333), wk =   0.0126984
        k(   72) = (   0.2000000  -0.2857143  -0.4444444), wk =   0.0126984
        k(   73) = (   0.2000000  -0.4285714  -0.1111111), wk =   0.0126984
        k(   74) = (   0.2000000  -0.4285714  -0.2222222), wk =   0.0126984
        k(   75) = (   0.2000000  -0.4285714  -0.3333333), wk =   0.0126984
        k(   76) = (   0.2000000  -0.4285714  -0.4444444), wk =   0.0126984
        k(   77) = (   0.4000000   0.0000000  -0.1111111), wk =   0.0063492
        k(   78) = (   0.4000000   0.0000000  -0.2222222), wk =   0.0063492
        k(   79) = (   0.4000000   0.0000000  -0.3333333), wk =   0.0063492
        k(   80) = (   0.4000000   0.0000000  -0.4444444), wk =   0.0063492
        k(   81) = (   0.4000000  -0.1428571  -0.1111111), wk =   0.0126984
        k(   82) = (   0.4000000  -0.1428571  -0.2222222), wk =   0.0126984
        k(   83) = (   0.4000000  -0.1428571  -0.3333333), wk =   0.0126984
        k(   84) = (   0.4000000  -0.1428571  -0.4444444), wk =   0.0126984
        k(   85) = (   0.4000000  -0.2857143  -0.1111111), wk =   0.0126984
        k(   86) = (   0.4000000  -0.2857143  -0.2222222), wk =   0.0126984
        k(   87) = (   0.4000000  -0.2857143  -0.3333333), wk =   0.0126984
        k(   88) = (   0.4000000  -0.2857143  -0.4444444), wk =   0.0126984
        k(   89) = (   0.4000000  -0.4285714  -0.1111111), wk =   0.0126984
        k(   90) = (   0.4000000  -0.4285714  -0.2222222), wk =   0.0126984
        k(   91) = (   0.4000000  -0.4285714  -0.3333333), wk =   0.0126984
        k(   92) = (   0.4000000  -0.4285714  -0.4444444), wk =   0.0126984

     Dense  grid:  1359665 G-vectors     FFT dimensions: ( 216, 128, 100)

     Smooth grid:   306383 G-vectors     FFT dimensions: ( 135,  80,  60)

     Dynamical RAM for                 wfc:       2.78 MB

     Dynamical RAM for     wfc (w. buffer):     513.61 MB

     Dynamical RAM for           str. fact:       3.46 MB

     Dynamical RAM for           local pot:       0.00 MB

     Dynamical RAM for          nlocal pot:       6.82 MB

     Dynamical RAM for                qrad:      10.54 MB

     Dynamical RAM for          rho,v,vnew:      11.51 MB

     Dynamical RAM for               rhoin:       3.84 MB

     Dynamical RAM for            rho*nmix:      27.66 MB

     Dynamical RAM for           G-vectors:       3.34 MB

     Dynamical RAM for          h,s,v(r/c):       2.38 MB

     Dynamical RAM for          <psi|beta>:       0.49 MB

     Dynamical RAM for                 psi:       5.55 MB

     Dynamical RAM for                hpsi:       5.55 MB

     Dynamical RAM for                spsi:       5.55 MB

     Dynamical RAM for      wfcinit/wfcrot:       7.10 MB

     Dynamical RAM for           addusdens:     175.48 MB

     Dynamical RAM for          addusforce:     201.54 MB

     Dynamical RAM for         addusstress:     175.05 MB

     Estimated static dynamical RAM per process >     591.43 MB

     Estimated max dynamical RAM per process >     792.97 MB

     Estimated total dynamical RAM >      18.59 GB

     Check: negative core charge=   -0.000003
     Generating pointlists ...
     new r_m :   0.0745 (alat units)  1.5375 (a.u.) for type    1
     new r_m :   0.0846 (alat units)  1.7473 (a.u.) for type    2
     new r_m :   0.0582 (alat units)  1.2016 (a.u.) for type    3
     new r_m :   0.0582 (alat units)  1.2016 (a.u.) for type    4

     Initial potential from superposition of free atoms

     starting charge  188.99132, renormalised to  189.00000
     Starting wfcs are  137 randomized atomic wfcs
     Checking if some PAW data can be deallocated... 
       PAW data deallocated on   20 nodes for type:  1
       PAW data deallocated on    8 nodes for type:  3

     total cpu time spent up to now is      128.4 secs

     Self-consistent Calculation

     iteration #  1     ecut=   100.00 Ry     beta= 0.40
     Davidson diagonalization with overlap
     ethr =  1.00E-02,  avg # of iterations =  3.0

     negative rho (up, down):  0.000E+00 1.349E-04

     total cpu time spent up to now is      508.2 secs

     total energy              =   -2123.68540013 Ry
     estimated scf accuracy    <       7.21467043 Ry

     total magnetization       =    19.00 Bohr mag/cell
     absolute magnetization    =    19.00 Bohr mag/cell

     iteration #  2     ecut=   100.00 Ry     beta= 0.40
     Davidson diagonalization with overlap
     ethr =  3.82E-03,  avg # of iterations =  2.0

     negative rho (up, down):  0.000E+00 6.043E-05

     total cpu time spent up to now is      863.3 secs

     total energy              =   -2120.09212190 Ry
     estimated scf accuracy    <      54.03223445 Ry

     total magnetization       =     5.93 Bohr mag/cell
     absolute magnetization    =     7.58 Bohr mag/cell

     iteration #  3     ecut=   100.00 Ry     beta= 0.40
     Davidson diagonalization with overlap
     ethr =  3.82E-03,  avg # of iterations =  2.7

     negative rho (up, down):  0.000E+00 4.699E-05

     total cpu time spent up to now is     1177.3 secs

     total energy              =   -2123.12500107 Ry
     estimated scf accuracy    <      60.33129161 Ry

     total magnetization       =     3.83 Bohr mag/cell
     absolute magnetization    =     8.13 Bohr mag/cell

     iteration #  4     ecut=   100.00 Ry     beta= 0.40
     Davidson diagonalization with overlap
     ethr =  3.82E-03,  avg # of iterations =  1.5

     negative rho (up, down):  0.000E+00 4.664E-05

     total cpu time spent up to now is     1450.2 secs

     total energy              =   -2124.46229149 Ry
     estimated scf accuracy    <      31.00146057 Ry

     total magnetization       =     9.00 Bohr mag/cell
     absolute magnetization    =     9.31 Bohr mag/cell

     iteration #  5     ecut=   100.00 Ry     beta= 0.40
     Davidson diagonalization with overlap
     ethr =  3.82E-03,  avg # of iterations =  1.9

     negative rho (up, down):  0.000E+00 1.239E-04

     total cpu time spent up to now is     1745.8 secs

     total energy              =   -2125.83936627 Ry
     estimated scf accuracy    <       2.89306274 Ry

     total magnetization       =    17.99 Bohr mag/cell
     absolute magnetization    =    17.99 Bohr mag/cell

     iteration #  6     ecut=   100.00 Ry     beta= 0.40
     Davidson diagonalization with overlap
     ethr =  1.53E-03,  avg # of iterations =  1.8

     negative rho (up, down):  0.000E+00 2.468E-04

     total cpu time spent up to now is     2029.5 secs

     total energy              =   -2126.00543291 Ry
     estimated scf accuracy    <       0.83365146 Ry

     total magnetization       =    19.00 Bohr mag/cell
     absolute magnetization    =    19.00 Bohr mag/cell

     iteration #  7     ecut=   100.00 Ry     beta= 0.40
     Davidson diagonalization with overlap
     ethr =  4.41E-04,  avg # of iterations =  1.2

     negative rho (up, down):  0.000E+00 3.310E-04

     total cpu time spent up to now is     2289.9 secs

     total energy              =   -2125.99872438 Ry
     estimated scf accuracy    <       0.35106909 Ry

     total magnetization       =    19.00 Bohr mag/cell
     absolute magnetization    =    19.00 Bohr mag/cell

     iteration #  8     ecut=   100.00 Ry     beta= 0.40
     Davidson diagonalization with overlap
     ethr =  1.86E-04,  avg # of iterations =  3.2

     negative rho (up, down):  0.000E+00 4.169E-04

     total cpu time spent up to now is     2600.0 secs

     total energy              =   -2125.99861301 Ry
     estimated scf accuracy    <       0.56382933 Ry

     total magnetization       =    19.00 Bohr mag/cell
     absolute magnetization    =    19.00 Bohr mag/cell

     iteration #  9     ecut=   100.00 Ry     beta= 0.40
     Davidson diagonalization with overlap
     ethr =  1.86E-04,  avg # of iterations =  1.2

     negative rho (up, down):  0.000E+00 7.573E-04

     total cpu time spent up to now is     2855.6 secs

     total energy              =   -2126.01429368 Ry
     estimated scf accuracy    <       0.35436678 Ry

     total magnetization       =    19.00 Bohr mag/cell
     absolute magnetization    =    19.01 Bohr mag/cell

     iteration # 10     ecut=   100.00 Ry     beta= 0.40
     Davidson diagonalization with overlap
     ethr =  1.86E-04,  avg # of iterations =  1.2

     negative rho (up, down):  0.000E+00 7.982E-04

     total cpu time spent up to now is     3113.7 secs

     total energy              =   -2126.03002451 Ry
     estimated scf accuracy    <       0.34753965 Ry

     total magnetization       =    19.00 Bohr mag/cell
     absolute magnetization    =    19.02 Bohr mag/cell

     iteration # 11     ecut=   100.00 Ry     beta= 0.40
     Davidson diagonalization with overlap
     ethr =  1.84E-04,  avg # of iterations =  1.0

     negative rho (up, down):  0.000E+00 8.321E-04

     total cpu time spent up to now is     3365.0 secs

     total energy              =   -2126.03371631 Ry
     estimated scf accuracy    <       0.13544475 Ry

     total magnetization       =    19.00 Bohr mag/cell
     absolute magnetization    =    19.03 Bohr mag/cell

     iteration # 12     ecut=   100.00 Ry     beta= 0.40
     Davidson diagonalization with overlap
     c_bands:  1 eigenvalues not converged
     c_bands:  1 eigenvalues not converged
     c_bands:  1 eigenvalues not converged
     ethr =  7.17E-05,  avg # of iterations =  6.4

     negative rho (up, down):  0.000E+00 8.315E-04

     total cpu time spent up to now is     3706.1 secs

     total energy              =   -2126.03209709 Ry
     estimated scf accuracy    <       0.12897171 Ry

     total magnetization       =    19.00 Bohr mag/cell
     absolute magnetization    =    19.03 Bohr mag/cell

     iteration # 13     ecut=   100.00 Ry     beta= 0.40
     Davidson diagonalization with overlap
     ethr =  6.82E-05,  avg # of iterations =  1.4

     negative rho (up, down):  0.000E+00 8.618E-04

     total cpu time spent up to now is     3967.2 secs

     total energy              =   -2126.03443021 Ry
     estimated scf accuracy    <       0.00636510 Ry

     total magnetization       =    19.00 Bohr mag/cell
     absolute magnetization    =    19.04 Bohr mag/cell

     iteration # 14     ecut=   100.00 Ry     beta= 0.40
     Davidson diagonalization with overlap
     c_bands:  1 eigenvalues not converged
     c_bands:  1 eigenvalues not converged
     c_bands:  1 eigenvalues not converged
     c_bands:  1 eigenvalues not converged
     c_bands:  1 eigenvalues not converged
     c_bands:  1 eigenvalues not converged
     c_bands:  1 eigenvalues not converged
     c_bands:  1 eigenvalues not converged
     c_bands:  1 eigenvalues not converged
     c_bands:  3 eigenvalues not converged
     c_bands:  2 eigenvalues not converged
     c_bands:  1 eigenvalues not converged
     c_bands:  1 eigenvalues not converged
     ethr =  3.37E-06,  avg # of iterations = 15.9

     negative rho (up, down):  0.000E+00 8.613E-04

     total cpu time spent up to now is     4647.8 secs

     total energy              =   -2126.03562678 Ry
     estimated scf accuracy    <       0.00933524 Ry

     total magnetization       =    19.00 Bohr mag/cell
     absolute magnetization    =    19.05 Bohr mag/cell

     iteration # 15     ecut=   100.00 Ry     beta= 0.40
     Davidson diagonalization with overlap
     ethr =  3.37E-06,  avg # of iterations =  1.1

     negative rho (up, down):  0.000E+00 8.562E-04

     total cpu time spent up to now is     4901.0 secs

     total energy              =   -2126.03550248 Ry
     estimated scf accuracy    <       0.00802557 Ry

     total magnetization       =    19.00 Bohr mag/cell
     absolute magnetization    =    19.05 Bohr mag/cell

     iteration # 16     ecut=   100.00 Ry     beta= 0.40
     Davidson diagonalization with overlap
     ethr =  3.37E-06,  avg # of iterations =  1.0

     negative rho (up, down):  0.000E+00 8.551E-04

     total cpu time spent up to now is     5151.6 secs

     total energy              =   -2126.03568792 Ry
     estimated scf accuracy    <       0.00072663 Ry

     total magnetization       =    19.00 Bohr mag/cell
     absolute magnetization    =    19.05 Bohr mag/cell

     iteration # 17     ecut=   100.00 Ry     beta= 0.40
     Davidson diagonalization with overlap
     ethr =  3.84E-07,  avg # of iterations =  2.8

     negative rho (up, down):  0.000E+00 8.523E-04

     total cpu time spent up to now is     5459.0 secs

     total energy              =   -2126.03576695 Ry
     estimated scf accuracy    <       0.00014231 Ry

     total magnetization       =    19.00 Bohr mag/cell
     absolute magnetization    =    19.06 Bohr mag/cell

     iteration # 18     ecut=   100.00 Ry     beta= 0.40
     Davidson diagonalization with overlap
     ethr =  7.53E-08,  avg # of iterations =  4.1

     negative rho (up, down):  0.000E+00 8.514E-04

     total cpu time spent up to now is     5867.7 secs

     total energy              =   -2126.03582351 Ry
     estimated scf accuracy    <       0.00014754 Ry

     total magnetization       =    19.00 Bohr mag/cell
     absolute magnetization    =    19.06 Bohr mag/cell

     iteration # 19     ecut=   100.00 Ry     beta= 0.40
     Davidson diagonalization with overlap
     ethr =  7.53E-08,  avg # of iterations =  1.5

     negative rho (up, down):  0.000E+00 8.516E-04

     total cpu time spent up to now is     6136.4 secs

     total energy              =   -2126.03583684 Ry
     estimated scf accuracy    <       0.00006697 Ry

     total magnetization       =    19.00 Bohr mag/cell
     absolute magnetization    =    19.06 Bohr mag/cell

     iteration # 20     ecut=   100.00 Ry     beta= 0.40
     Davidson diagonalization with overlap
     ethr =  3.54E-08,  avg # of iterations =  1.5

     negative rho (up, down):  0.000E+00 8.510E-04

     total cpu time spent up to now is     6405.3 secs

     total energy              =   -2126.03584036 Ry
     estimated scf accuracy    <       0.00004635 Ry

     total magnetization       =    19.00 Bohr mag/cell
     absolute magnetization    =    19.06 Bohr mag/cell

     iteration # 21     ecut=   100.00 Ry     beta= 0.40
     Davidson diagonalization with overlap
     ethr =  2.45E-08,  avg # of iterations =  2.0

     negative rho (up, down):  0.000E+00 8.519E-04

     total cpu time spent up to now is     6709.1 secs

     total energy              =   -2126.03584938 Ry
     estimated scf accuracy    <       0.00001314 Ry

     total magnetization       =    19.00 Bohr mag/cell
     absolute magnetization    =    19.06 Bohr mag/cell

     iteration # 22     ecut=   100.00 Ry     beta= 0.40
     Davidson diagonalization with overlap
     ethr =  6.95E-09,  avg # of iterations =  1.7

     negative rho (up, down):  0.000E+00 8.520E-04

     total cpu time spent up to now is     6982.6 secs

     total energy              =   -2126.03585068 Ry
     estimated scf accuracy    <       0.00000670 Ry

     total magnetization       =    19.00 Bohr mag/cell
     absolute magnetization    =    19.06 Bohr mag/cell

     iteration # 23     ecut=   100.00 Ry     beta= 0.40
     Davidson diagonalization with overlap
     ethr =  3.55E-09,  avg # of iterations =  2.0

     negative rho (up, down):  0.000E+00 8.524E-04

     total cpu time spent up to now is     7286.5 secs

     total energy              =   -2126.03585214 Ry
     estimated scf accuracy    <       0.00000348 Ry

     total magnetization       =    19.00 Bohr mag/cell
     absolute magnetization    =    19.06 Bohr mag/cell

     iteration # 24     ecut=   100.00 Ry     beta= 0.40
     Davidson diagonalization with overlap
     ethr =  1.84E-09,  avg # of iterations =  2.0

     negative rho (up, down):  0.000E+00 8.525E-04

     total cpu time spent up to now is     7593.5 secs

     total energy              =   -2126.03585273 Ry
     estimated scf accuracy    <       0.00000158 Ry

     total magnetization       =    19.00 Bohr mag/cell
     absolute magnetization    =    19.06 Bohr mag/cell

     iteration # 25     ecut=   100.00 Ry     beta= 0.40
     Davidson diagonalization with overlap
     ethr =  8.38E-10,  avg # of iterations =  2.2

     negative rho (up, down):  0.000E+00 8.524E-04

     total cpu time spent up to now is     7897.7 secs

     total energy              =   -2126.03585304 Ry
     estimated scf accuracy    <       0.00000149 Ry

     total magnetization       =    19.00 Bohr mag/cell
     absolute magnetization    =    19.06 Bohr mag/cell

     iteration # 26     ecut=   100.00 Ry     beta= 0.40
     Davidson diagonalization with overlap
     ethr =  7.88E-10,  avg # of iterations =  1.0

     negative rho (up, down):  0.000E+00 8.523E-04

     total cpu time spent up to now is     8148.3 secs

     total energy              =   -2126.03585316 Ry
     estimated scf accuracy    <       0.00000022 Ry

     total magnetization       =    19.00 Bohr mag/cell
     absolute magnetization    =    19.06 Bohr mag/cell

     iteration # 27     ecut=   100.00 Ry     beta= 0.40
     Davidson diagonalization with overlap
     ethr =  1.18E-10,  avg # of iterations =  4.2

     negative rho (up, down):  0.000E+00 8.522E-04

     total cpu time spent up to now is     8546.9 secs

     total energy              =   -2126.03585326 Ry
     estimated scf accuracy    <       0.00000006 Ry

     total magnetization       =    19.00 Bohr mag/cell
     absolute magnetization    =    19.06 Bohr mag/cell

     iteration # 28     ecut=   100.00 Ry     beta= 0.40
     Davidson diagonalization with overlap
     ethr =  3.34E-11,  avg # of iterations =  3.1

     negative rho (up, down):  0.000E+00 8.521E-04

     total cpu time spent up to now is     8887.3 secs

     total energy              =   -2126.03585330 Ry
     estimated scf accuracy    <       0.00000010 Ry

     total magnetization       =    19.00 Bohr mag/cell
     absolute magnetization    =    19.06 Bohr mag/cell

     iteration # 29     ecut=   100.00 Ry     beta= 0.40
     Davidson diagonalization with overlap
     ethr =  3.34E-11,  avg # of iterations =  2.0

     negative rho (up, down):  0.000E+00 8.521E-04

     total cpu time spent up to now is     9191.7 secs

     total energy              =   -2126.03585332 Ry
     estimated scf accuracy    <       0.00000004 Ry

     total magnetization       =    19.00 Bohr mag/cell
     absolute magnetization    =    19.06 Bohr mag/cell

     iteration # 30     ecut=   100.00 Ry     beta= 0.40
     Davidson diagonalization with overlap
     ethr =  2.35E-11,  avg # of iterations =  2.0

     negative rho (up, down):  0.000E+00 8.521E-04

     total cpu time spent up to now is     9494.6 secs

     total energy              =   -2126.03585334 Ry
     estimated scf accuracy    <       0.00000001 Ry

     total magnetization       =    19.00 Bohr mag/cell
     absolute magnetization    =    19.06 Bohr mag/cell

     iteration # 31     ecut=   100.00 Ry     beta= 0.40
     Davidson diagonalization with overlap
     ethr =  7.80E-12,  avg # of iterations =  2.0

     negative rho (up, down):  0.000E+00 8.521E-04

     total cpu time spent up to now is     9800.0 secs

     total energy              =   -2126.03585334 Ry
     estimated scf accuracy    <       0.00000006 Ry

     total magnetization       =    19.00 Bohr mag/cell
     absolute magnetization    =    19.06 Bohr mag/cell

     iteration # 32     ecut=   100.00 Ry     beta= 0.40
     Davidson diagonalization with overlap
     ethr =  7.80E-12,  avg # of iterations =  2.0

     negative rho (up, down):  0.000E+00 8.522E-04

     total cpu time spent up to now is    10100.8 secs

     total energy              =   -2126.03585334 Ry
     estimated scf accuracy    <          8.0E-09 Ry

     total magnetization       =    19.00 Bohr mag/cell
     absolute magnetization    =    19.06 Bohr mag/cell

     iteration # 33     ecut=   100.00 Ry     beta= 0.40
     Davidson diagonalization with overlap
     ethr =  4.23E-12,  avg # of iterations =  2.0

     negative rho (up, down):  0.000E+00 8.522E-04

     total cpu time spent up to now is    10406.7 secs

     total energy              =   -2126.03585334 Ry
     estimated scf accuracy    <       0.00000001 Ry

     total magnetization       =    19.00 Bohr mag/cell
     absolute magnetization    =    19.06 Bohr mag/cell

     iteration # 34     ecut=   100.00 Ry     beta= 0.40
     Davidson diagonalization with overlap
     ethr =  4.23E-12,  avg # of iterations =  1.0

     negative rho (up, down):  0.000E+00 8.522E-04

     total cpu time spent up to now is    10657.6 secs

     total energy              =   -2126.03585334 Ry
     estimated scf accuracy    <          5.5E-09 Ry

     total magnetization       =    19.00 Bohr mag/cell
     absolute magnetization    =    19.06 Bohr mag/cell

     iteration # 35     ecut=   100.00 Ry     beta= 0.40
     Davidson diagonalization with overlap
     ethr =  2.89E-12,  avg # of iterations =  1.0

     negative rho (up, down):  0.000E+00 8.522E-04

     total cpu time spent up to now is    10909.0 secs

     total energy              =   -2126.03585334 Ry
     estimated scf accuracy    <          3.2E-09 Ry

     total magnetization       =    19.00 Bohr mag/cell
     absolute magnetization    =    19.06 Bohr mag/cell

     iteration # 36     ecut=   100.00 Ry     beta= 0.40
     Davidson diagonalization with overlap
     ethr =  1.68E-12,  avg # of iterations =  2.0

     negative rho (up, down):  0.000E+00 8.522E-04

     total cpu time spent up to now is    11213.2 secs

     total energy              =   -2126.03585334 Ry
     estimated scf accuracy    <          9.0E-10 Ry

     total magnetization       =    19.00 Bohr mag/cell
     absolute magnetization    =    19.06 Bohr mag/cell

     iteration # 37     ecut=   100.00 Ry     beta= 0.40
     Davidson diagonalization with overlap
     ethr =  4.74E-13,  avg # of iterations =  3.6

     negative rho (up, down):  0.000E+00 8.522E-04

     total cpu time spent up to now is    11535.6 secs

     total energy              =   -2126.03585334 Ry
     estimated scf accuracy    <          2.9E-10 Ry

     total magnetization       =    19.00 Bohr mag/cell
     absolute magnetization    =    19.06 Bohr mag/cell

     iteration # 38     ecut=   100.00 Ry     beta= 0.40
     Davidson diagonalization with overlap
     ethr =  1.53E-13,  avg # of iterations =  3.7

     negative rho (up, down):  0.000E+00 8.522E-04

     Magnetic moment per site:
     atom:    1    charge:    7.8954    magn:    0.0002    constr:    0.0000
     atom:    2    charge:   12.9617    magn:    3.7140    constr:    0.0000
     atom:    3    charge:   12.9691    magn:    3.6961    constr:    0.0000
     atom:    4    charge:   13.0141    magn:    3.5900    constr:    0.0000
     atom:    5    charge:   12.9713    magn:    3.6949    constr:    0.0000
     atom:    6    charge:    0.8288    magn:    0.0094    constr:    0.0000
     atom:    7    charge:    0.8340    magn:    0.0077    constr:    0.0000
     atom:    8    charge:    0.8304    magn:    0.0103    constr:    0.0000
     atom:    9    charge:    0.8269    magn:    0.0082    constr:    0.0000
     atom:   10    charge:    4.2613    magn:    0.1349    constr:    0.0000
     atom:   11    charge:    4.2749    magn:    0.0849    constr:    0.0000
     atom:   12    charge:    4.2656    magn:    0.1228    constr:    0.0000
     atom:   13    charge:    4.2619    magn:    0.1066    constr:    0.0000
     atom:   14    charge:    4.2062    magn:    0.1249    constr:    0.0000
     atom:   15    charge:    4.2119    magn:    0.1366    constr:    0.0000
     atom:   16    charge:    4.2160    magn:    0.0757    constr:    0.0000
     atom:   17    charge:    4.2054    magn:    0.1512    constr:    0.0000
     atom:   18    charge:    4.2317    magn:    0.1508    constr:    0.0000
     atom:   19    charge:    4.2359    magn:    0.1330    constr:    0.0000
     atom:   20    charge:    4.2376    magn:    0.1449    constr:    0.0000
     atom:   21    charge:    4.2313    magn:    0.1216    constr:    0.0000
     atom:   22    charge:    4.2376    magn:    0.1449    constr:    0.0000
     atom:   23    charge:    4.2313    magn:    0.1216    constr:    0.0000
     atom:   24    charge:    4.2317    magn:    0.1508    constr:    0.0000
     atom:   25    charge:    4.2359    magn:    0.1330    constr:    0.0000

     total cpu time spent up to now is    11875.8 secs

     End of self-consistent calculation

 ------ SPIN UP ------------


          k = 0.0000 0.0000 0.0000 ( 38253 PWs)   bands (ev):

   -85.9901 -85.9106 -85.9057 -85.5406 -52.0597 -52.0054 -51.9968 -51.9324
   -51.9196 -51.8949 -51.8837 -51.8476 -51.8278 -51.7851 -51.4866 -51.2626
   -45.6166 -17.6222 -17.5630 -17.5489 -16.4501 -16.3170 -16.1215 -16.0395
   -14.1974 -14.1335 -13.9606 -13.9350 -13.8968 -13.8603 -13.7578 -13.6723
   -13.6715 -13.5600 -13.4744 -13.4202  -4.5417  -4.1140  -3.9920  -3.6641
    -2.5352  -2.3254  -2.1459  -2.0881  -1.8686  -1.7128  -1.6291  -1.5731
    -1.5200  -1.2202  -1.1286  -0.9224  -0.7938  -0.7809  -0.3220  -0.2880
    -0.1165  -0.0606   0.0157   0.2513   0.3363   0.3506   0.4867   0.5417
     0.6371   0.7574   0.7578   1.0078   1.1469   1.1982   1.2519   1.2627
     1.3903   1.4182   1.5221   1.6607   1.8147   1.8429   1.8732   1.9534
     2.1421   2.1535   2.2111   2.3163   2.4123   2.4363   2.4376   2.6391
     2.7419   2.7614   2.8367   2.8688   2.9226   3.1314   3.2169   3.3116
     3.3481   3.4295   3.5431   3.5988   3.6311   3.7567   4.1108   4.2314
     7.9869  10.0396  10.5066  10.8059  11.2060  11.7265  12.1189  12.2861
    12.5093  12.7134

     occupation numbers 
     1.0000   1.0000   1.0000   1.0000   1.0000   1.0000   1.0000   1.0000
     1.0000   1.0000   1.0000   1.0000   1.0000   1.0000   1.0000   1.0000
     1.0000   1.0000   1.0000   1.0000   1.0000   1.0000   1.0000   1.0000
     1.0000   1.0000   1.0000   1.0000   1.0000   1.0000   1.0000   1.0000
     1.0000   1.0000   1.0000   1.0000   1.0000   1.0000   1.0000   1.0000
     1.0000   1.0000   1.0000   1.0000   1.0000   1.0000   1.0000   1.0000
     1.0000   1.0000   1.0000   1.0000   1.0000   1.0000   1.0000   1.0000
     1.0000   1.0000   1.0000   1.0000   1.0000   1.0000   1.0000   1.0000
     1.0000   1.0000   1.0000   1.0000   1.0000   1.0000   1.0000   1.0000
     1.0000   1.0000   1.0000   1.0000   1.0000   1.0000   1.0000   1.0000
     1.0000   1.0000   1.0000   1.0000   1.0000   1.0000   1.0000   1.0000
     1.0000   1.0000   1.0000   1.0000   1.0000   1.0000   1.0000   1.0000
     1.0000   1.0000   1.0000   1.0000   1.0000   1.0000   1.0000   1.0000
     0.0000   0.0000   0.0000   0.0000   0.0000   0.0000   0.0000   0.0000
     0.0000   0.0000

          k = 0.0000 0.0000 0.2454 ( 38275 PWs)   bands (ev):

   -85.9901 -85.9106 -85.9057 -85.5406 -52.0597 -52.0054 -51.9968 -51.9324
   -51.9196 -51.8949 -51.8837 -51.8476 -51.8278 -51.7851 -51.4866 -51.2626
   -45.6166 -17.6219 -17.5667 -17.5489 -16.4370 -16.3063 -16.1154 -16.0358
   -14.2102 -14.1476 -13.9570 -13.9524 -13.9120 -13.8562 -13.7610 -13.6751
   -13.6708 -13.5568 -13.4718 -13.4209  -4.5213  -4.1100  -3.9886  -3.6723
    -2.4934  -2.3173  -2.1118  -2.0686  -1.8645  -1.7203  -1.6530  -1.5688
    -1.4499  -1.1900  -1.1723  -0.8980  -0.8434  -0.7601  -0.3083  -0.2620
    -0.1089  -0.0416   0.0225   0.2347   0.3181   0.3579   0.4513   0.5501
     0.6347   0.7473   0.7527   0.9991   1.0924   1.1649   1.2094   1.2578
     1.3767   1.4592   1.4743   1.6532   1.7806   1.8273   1.8686   2.0407
     2.0896   2.1804   2.2081   2.2818   2.3605   2.4577   2.4993   2.5939
     2.7020   2.7748   2.8269   2.8615   2.9203   3.1693   3.2228   3.3136
     3.3615   3.4517   3.5551   3.5973   3.6283   3.7664   4.0871   4.2104
     8.1297  10.1132  10.5307  10.8200  11.2590  11.6672  12.0781  12.3021
    12.4310  12.6422

     occupation numbers 
     1.0000   1.0000   1.0000   1.0000   1.0000   1.0000   1.0000   1.0000
     1.0000   1.0000   1.0000   1.0000   1.0000   1.0000   1.0000   1.0000
     1.0000   1.0000   1.0000   1.0000   1.0000   1.0000   1.0000   1.0000
     1.0000   1.0000   1.0000   1.0000   1.0000   1.0000   1.0000   1.0000
     1.0000   1.0000   1.0000   1.0000   1.0000   1.0000   1.0000   1.0000
     1.0000   1.0000   1.0000   1.0000   1.0000   1.0000   1.0000   1.0000
     1.0000   1.0000   1.0000   1.0000   1.0000   1.0000   1.0000   1.0000
     1.0000   1.0000   1.0000   1.0000   1.0000   1.0000   1.0000   1.0000
     1.0000   1.0000   1.0000   1.0000   1.0000   1.0000   1.0000   1.0000
     1.0000   1.0000   1.0000   1.0000   1.0000   1.0000   1.0000   1.0000
     1.0000   1.0000   1.0000   1.0000   1.0000   1.0000   1.0000   1.0000
     1.0000   1.0000   1.0000   1.0000   1.0000   1.0000   1.0000   1.0000
     1.0000   1.0000   1.0000   1.0000   1.0000   1.0000   1.0000   1.0000
     0.0000   0.0000   0.0000   0.0000   0.0000   0.0000   0.0000   0.0000
     0.0000   0.0000

          k = 0.0000 0.0000 0.4908 ( 38314 PWs)   bands (ev):

   -85.9901 -85.9106 -85.9057 -85.5406 -52.0597 -52.0054 -51.9968 -51.9324
   -51.9196 -51.8949 -51.8837 -51.8476 -51.8278 -51.7851 -51.4866 -51.2626
   -45.6166 -17.6211 -17.5760 -17.5488 -16.4023 -16.2784 -16.0993 -16.0280
   -14.2422 -14.1835 -13.9961 -13.9516 -13.9471 -13.8452 -13.7695 -13.6849
   -13.6675 -13.5483 -13.4656 -13.4227  -4.4614  -4.0957  -3.9887  -3.7065
    -2.3872  -2.2760  -2.0502  -2.0140  -1.8477  -1.7357  -1.6629  -1.5528
    -1.2985  -1.2836  -1.1038  -0.9684  -0.8249  -0.7009  -0.2607  -0.2075
    -0.0884   0.0015   0.0391   0.2193   0.2614   0.3601   0.3672   0.5650
     0.6354   0.7103   0.7614   0.9658   0.9798   1.0631   1.1439   1.2035
     1.2743   1.3291   1.6284   1.6315   1.7213   1.7522   1.9491   1.9832
     2.1159   2.1390   2.1967   2.2533   2.2891   2.4148   2.5005   2.5838
     2.6291   2.8240   2.8474   2.9307   2.9554   3.1953   3.2398   3.3195
     3.4196   3.5093   3.5759   3.5905   3.6375   3.7883   4.0145   4.1465
     8.5081  10.3026  10.5715  10.8711  11.3882  11.5825  11.9084  12.2753
    12.2790  12.4354

     occupation numbers 
     1.0000   1.0000   1.0000   1.0000   1.0000   1.0000   1.0000   1.0000
     1.0000   1.0000   1.0000   1.0000   1.0000   1.0000   1.0000   1.0000
     1.0000   1.0000   1.0000   1.0000   1.0000   1.0000   1.0000   1.0000
     1.0000   1.0000   1.0000   1.0000   1.0000   1.0000   1.0000   1.0000
     1.0000   1.0000   1.0000   1.0000   1.0000   1.0000   1.0000   1.0000
     1.0000   1.0000   1.0000   1.0000   1.0000   1.0000   1.0000   1.0000
     1.0000   1.0000   1.0000   1.0000   1.0000   1.0000   1.0000   1.0000
     1.0000   1.0000   1.0000   1.0000   1.0000   1.0000   1.0000   1.0000
     1.0000   1.0000   1.0000   1.0000   1.0000   1.0000   1.0000   1.0000
     1.0000   1.0000   1.0000   1.0000   1.0000   1.0000   1.0000   1.0000
     1.0000   1.0000   1.0000   1.0000   1.0000   1.0000   1.0000   1.0000
     1.0000   1.0000   1.0000   1.0000   1.0000   1.0000   1.0000   1.0000
     1.0000   1.0000   1.0000   1.0000   1.0000   1.0000   1.0000   1.0000
     0.0000   0.0000   0.0000   0.0000   0.0000   0.0000   0.0000   0.0000
     0.0000   0.0000

          k = 0.0000 0.0000 0.7363 ( 38338 PWs)   bands (ev):

   -85.9901 -85.9106 -85.9057 -85.5406 -52.0597 -52.0054 -51.9968 -51.9324
   -51.9196 -51.8949 -51.8837 -51.8476 -51.8278 -51.7851 -51.4866 -51.2626
   -45.6166 -17.6204 -17.5862 -17.5487 -16.3598 -16.2455 -16.0782 -16.0237
   -14.2781 -14.2244 -14.0458 -13.9983 -13.9345 -13.8308 -13.7803 -13.6982
   -13.6643 -13.5378 -13.4588 -13.4253  -4.3697  -4.0800  -3.9999  -3.7737
    -2.3053  -2.1495  -2.0466  -1.9177  -1.8081  -1.7464  -1.6509  -1.5321
    -1.4044  -1.1253  -1.1161  -0.9786  -0.7039  -0.5964  -0.1858  -0.1383
    -0.0963   0.0070   0.0851   0.1687   0.2394   0.2493   0.3935   0.5565
     0.6393   0.6537   0.8005   0.8423   0.8819   0.8949   0.9628   1.0872
     1.2452   1.3250   1.6011   1.6015   1.7301   1.8197   1.8646   2.0263
     2.0294   2.0835   2.1337   2.2070   2.2791   2.3049   2.3989   2.5059
     2.7165   2.8757   2.8911   3.0841   3.1496   3.1810   3.2652   3.3295
     3.4634   3.5611   3.6000   3.6073   3.6730   3.8071   3.8901   4.0393
     9.0182  10.3925  10.6538  10.9961  11.3719  11.6337  11.7453  12.1595
    12.1610  12.3192

     occupation numbers 
     1.0000   1.0000   1.0000   1.0000   1.0000   1.0000   1.0000   1.0000
     1.0000   1.0000   1.0000   1.0000   1.0000   1.0000   1.0000   1.0000
     1.0000   1.0000   1.0000   1.0000   1.0000   1.0000   1.0000   1.0000
     1.0000   1.0000   1.0000   1.0000   1.0000   1.0000   1.0000   1.0000
     1.0000   1.0000   1.0000   1.0000   1.0000   1.0000   1.0000   1.0000
     1.0000   1.0000   1.0000   1.0000   1.0000   1.0000   1.0000   1.0000
     1.0000   1.0000   1.0000   1.0000   1.0000   1.0000   1.0000   1.0000
     1.0000   1.0000   1.0000   1.0000   1.0000   1.0000   1.0000   1.0000
     1.0000   1.0000   1.0000   1.0000   1.0000   1.0000   1.0000   1.0000
     1.0000   1.0000   1.0000   1.0000   1.0000   1.0000   1.0000   1.0000
     1.0000   1.0000   1.0000   1.0000   1.0000   1.0000   1.0000   1.0000
     1.0000   1.0000   1.0000   1.0000   1.0000   1.0000   1.0000   1.0000
     1.0000   1.0000   1.0000   1.0000   1.0000   1.0000   1.0000   1.0000
     0.0000   0.0000   0.0000   0.0000   0.0000   0.0000   0.0000   0.0000
     0.0000   0.0000

          k = 0.0000 0.0000 0.9817 ( 38334 PWs)   bands (ev):

   -85.9901 -85.9106 -85.9057 -85.5406 -52.0597 -52.0054 -51.9968 -51.9324
   -51.9196 -51.8949 -51.8837 -51.8476 -51.8278 -51.7851 -51.4866 -51.2626
   -45.6166 -17.6202 -17.5925 -17.5486 -16.3294 -16.2240 -16.0582 -16.0282
   -14.3012 -14.2510 -14.0787 -14.0299 -13.9251 -13.8201 -13.7879 -13.7088
   -13.6626 -13.5306 -13.4543 -13.4274  -4.2697  -4.1164  -3.9767  -3.8496
    -2.2594  -2.0939  -1.9931  -1.8585  -1.7483  -1.7440  -1.6478  -1.5963
    -1.3901  -1.2753  -0.9877  -0.8829  -0.5474  -0.4136  -0.1757  -0.1455
    -0.1028  -0.0561   0.0620   0.1278   0.2210   0.3186   0.4142   0.4748
     0.5870   0.6308   0.6859   0.7304   0.8082   0.8560   0.8930   1.0495
     1.2394   1.3887   1.5109   1.5563   1.7399   1.8249   1.9243   1.9264
     1.9845   2.0867   2.1072   2.1400   2.2366   2.2413   2.3581   2.4829
     2.7642   2.8676   2.9467   3.1604   3.2239   3.2672   3.3444   3.4275
     3.4706   3.5301   3.6281   3.6740   3.7206   3.7387   3.8099   3.9078
     9.5524  10.0940  10.9162  11.1398  11.2707  11.4489  11.8389  12.1103
    12.1327  12.3420

     occupation numbers 
     1.0000   1.0000   1.0000   1.0000   1.0000   1.0000   1.0000   1.0000
     1.0000   1.0000   1.0000   1.0000   1.0000   1.0000   1.0000   1.0000
     1.0000   1.0000   1.0000   1.0000   1.0000   1.0000   1.0000   1.0000
     1.0000   1.0000   1.0000   1.0000   1.0000   1.0000   1.0000   1.0000
     1.0000   1.0000   1.0000   1.0000   1.0000   1.0000   1.0000   1.0000
     1.0000   1.0000   1.0000   1.0000   1.0000   1.0000   1.0000   1.0000
     1.0000   1.0000   1.0000   1.0000   1.0000   1.0000   1.0000   1.0000
     1.0000   1.0000   1.0000   1.0000   1.0000   1.0000   1.0000   1.0000
     1.0000   1.0000   1.0000   1.0000   1.0000   1.0000   1.0000   1.0000
     1.0000   1.0000   1.0000   1.0000   1.0000   1.0000   1.0000   1.0000
     1.0000   1.0000   1.0000   1.0000   1.0000   1.0000   1.0000   1.0000
     1.0000   1.0000   1.0000   1.0000   1.0000   1.0000   1.0000   1.0000
     1.0000   1.0000   1.0000   1.0000   1.0000   1.0000   1.0000   1.0000
     0.0000   0.0000   0.0000   0.0000   0.0000   0.0000   0.0000   0.0000
     0.0000   0.0000

          k = 0.0000 0.2510 0.0000 ( 38299 PWs)   bands (ev):

   -85.9901 -85.9106 -85.9057 -85.5406 -52.0597 -52.0054 -51.9968 -51.9324
   -51.9196 -51.8949 -51.8837 -51.8476 -51.8278 -51.7851 -51.4866 -51.2626
   -45.6166 -17.6220 -17.5629 -17.5495 -16.4374 -16.3123 -16.1208 -16.0525
   -14.1952 -14.1311 -13.9690 -13.9333 -13.9004 -13.8618 -13.7905 -13.7093
   -13.6307 -13.5470 -13.4642 -13.4192  -4.5131  -4.0894  -4.0128  -3.6739
    -2.5053  -2.3110  -2.1497  -2.0930  -1.8544  -1.7079  -1.6155  -1.5473
    -1.4930  -1.2283  -1.1206  -0.9081  -0.8313  -0.7457  -0.2802  -0.2397
    -0.1378  -0.0863  -0.0101   0.1092   0.2456   0.4445   0.5468   0.5853
     0.6703   0.7487   0.7628   0.9440   0.9655   1.0540   1.1973   1.2840
     1.3755   1.5600   1.6462   1.7019   1.7596   1.7939   1.8939   1.9129
     2.1067   2.1677   2.2082   2.2759   2.3500   2.4551   2.5942   2.6479
     2.7143   2.7411   2.7883   2.9140   2.9472   3.1373   3.2175   3.2875
     3.3099   3.4366   3.5216   3.5879   3.6235   3.7955   4.1037   4.2001
     8.1480  10.1317  10.5696  10.7364  11.2861  11.6922  12.1871  12.3643
    12.4435  12.6777

     occupation numbers 
     1.0000   1.0000   1.0000   1.0000   1.0000   1.0000   1.0000   1.0000
     1.0000   1.0000   1.0000   1.0000   1.0000   1.0000   1.0000   1.0000
     1.0000   1.0000   1.0000   1.0000   1.0000   1.0000   1.0000   1.0000
     1.0000   1.0000   1.0000   1.0000   1.0000   1.0000   1.0000   1.0000
     1.0000   1.0000   1.0000   1.0000   1.0000   1.0000   1.0000   1.0000
     1.0000   1.0000   1.0000   1.0000   1.0000   1.0000   1.0000   1.0000
     1.0000   1.0000   1.0000   1.0000   1.0000   1.0000   1.0000   1.0000
     1.0000   1.0000   1.0000   1.0000   1.0000   1.0000   1.0000   1.0000
     1.0000   1.0000   1.0000   1.0000   1.0000   1.0000   1.0000   1.0000
     1.0000   1.0000   1.0000   1.0000   1.0000   1.0000   1.0000   1.0000
     1.0000   1.0000   1.0000   1.0000   1.0000   1.0000   1.0000   1.0000
     1.0000   1.0000   1.0000   1.0000   1.0000   1.0000   1.0000   1.0000
     1.0000   1.0000   1.0000   1.0000   1.0000   1.0000   1.0000   1.0000
     0.0000   0.0000   0.0000   0.0000   0.0000   0.0000   0.0000   0.0000
     0.0000   0.0000

          k = 0.0000 0.2510 0.2454 ( 38259 PWs)   bands (ev):

   -85.9901 -85.9106 -85.9057 -85.5406 -52.0597 -52.0054 -51.9968 -51.9324
   -51.9196 -51.8949 -51.8837 -51.8476 -51.8278 -51.7851 -51.4866 -51.2626
   -45.6166 -17.6217 -17.5667 -17.5494 -16.4249 -16.3017 -16.1144 -16.0481
   -14.2086 -14.1458 -13.9778 -13.9396 -13.9163 -13.8563 -13.7903 -13.7109
   -13.6318 -13.5445 -13.4621 -13.4198  -4.4931  -4.0866  -4.0069  -3.6815
    -2.4648  -2.3010  -2.1154  -2.0743  -1.8501  -1.7195  -1.6325  -1.5285
    -1.4405  -1.1988  -1.1617  -0.9126  -0.8460  -0.7339  -0.2657  -0.2250
    -0.1368  -0.0708  -0.0107   0.1131   0.2475   0.4416   0.5074   0.5739
     0.6766   0.7176   0.7713   0.9399   0.9499   1.0321   1.1696   1.2684
     1.4373   1.4990   1.5983   1.6916   1.7485   1.7942   1.8677   1.9814
     2.0788   2.1548   2.2221   2.2618   2.3405   2.4312   2.5562   2.6494
     2.6783   2.7536   2.7957   2.9099   2.9340   3.1670   3.2256   3.3010
     3.3257   3.4565   3.5204   3.5999   3.6279   3.7977   4.0885   4.1839
     8.2839  10.2033  10.5879  10.7743  11.3290  11.6507  12.1431  12.3155
    12.4240  12.6292

     occupation numbers 
     1.0000   1.0000   1.0000   1.0000   1.0000   1.0000   1.0000   1.0000
     1.0000   1.0000   1.0000   1.0000   1.0000   1.0000   1.0000   1.0000
     1.0000   1.0000   1.0000   1.0000   1.0000   1.0000   1.0000   1.0000
     1.0000   1.0000   1.0000   1.0000   1.0000   1.0000   1.0000   1.0000
     1.0000   1.0000   1.0000   1.0000   1.0000   1.0000   1.0000   1.0000
     1.0000   1.0000   1.0000   1.0000   1.0000   1.0000   1.0000   1.0000
     1.0000   1.0000   1.0000   1.0000   1.0000   1.0000   1.0000   1.0000
     1.0000   1.0000   1.0000   1.0000   1.0000   1.0000   1.0000   1.0000
     1.0000   1.0000   1.0000   1.0000   1.0000   1.0000   1.0000   1.0000
     1.0000   1.0000   1.0000   1.0000   1.0000   1.0000   1.0000   1.0000
     1.0000   1.0000   1.0000   1.0000   1.0000   1.0000   1.0000   1.0000
     1.0000   1.0000   1.0000   1.0000   1.0000   1.0000   1.0000   1.0000
     1.0000   1.0000   1.0000   1.0000   1.0000   1.0000   1.0000   1.0000
     0.0000   0.0000   0.0000   0.0000   0.0000   0.0000   0.0000   0.0000
     0.0000   0.0000

          k = 0.0000 0.2510 0.4908 ( 38306 PWs)   bands (ev):

   -85.9901 -85.9106 -85.9057 -85.5406 -52.0597 -52.0054 -51.9968 -51.9324
   -51.9196 -51.8949 -51.8837 -51.8476 -51.8278 -51.7851 -51.4866 -51.2626
   -45.6166 -17.6209 -17.5759 -17.5493 -16.3920 -16.2739 -16.0977 -16.0378
   -14.2422 -14.1832 -14.0161 -13.9582 -13.9353 -13.8437 -13.7915 -13.7158
   -13.6347 -13.5378 -13.4572 -13.4214  -4.4351  -4.0771  -3.9983  -3.7134
    -2.3623  -2.2568  -2.0530  -2.0185  -1.8342  -1.7363  -1.6393  -1.5120
    -1.2990  -1.2701  -1.1077  -0.9963  -0.8106  -0.6944  -0.2241  -0.1931
    -0.1367  -0.0593   0.0050   0.1503   0.2562   0.3965   0.4421   0.5661
     0.6667   0.6940   0.7642   0.8932   0.9269   0.9950   1.0984   1.2654
     1.2747   1.4348   1.5908   1.6480   1.7152   1.7809   1.9013   1.9825
     2.0544   2.1721   2.2021   2.2208   2.2924   2.3847   2.4730   2.5536
     2.6730   2.7927   2.8387   2.9311   2.9895   3.1893   3.2452   3.3178
     3.3868   3.5010   3.5268   3.6045   3.6675   3.8034   4.0428   4.1340
     8.6468  10.3862  10.6307  10.8654  11.4412  11.5935  11.9738  12.1898
    12.3673  12.4677

     occupation numbers 
     1.0000   1.0000   1.0000   1.0000   1.0000   1.0000   1.0000   1.0000
     1.0000   1.0000   1.0000   1.0000   1.0000   1.0000   1.0000   1.0000
     1.0000   1.0000   1.0000   1.0000   1.0000   1.0000   1.0000   1.0000
     1.0000   1.0000   1.0000   1.0000   1.0000   1.0000   1.0000   1.0000
     1.0000   1.0000   1.0000   1.0000   1.0000   1.0000   1.0000   1.0000
     1.0000   1.0000   1.0000   1.0000   1.0000   1.0000   1.0000   1.0000
     1.0000   1.0000   1.0000   1.0000   1.0000   1.0000   1.0000   1.0000
     1.0000   1.0000   1.0000   1.0000   1.0000   1.0000   1.0000   1.0000
     1.0000   1.0000   1.0000   1.0000   1.0000   1.0000   1.0000   1.0000
     1.0000   1.0000   1.0000   1.0000   1.0000   1.0000   1.0000   1.0000
     1.0000   1.0000   1.0000   1.0000   1.0000   1.0000   1.0000   1.0000
     1.0000   1.0000   1.0000   1.0000   1.0000   1.0000   1.0000   1.0000
     1.0000   1.0000   1.0000   1.0000   1.0000   1.0000   1.0000   1.0000
     0.0000   0.0000   0.0000   0.0000   0.0000   0.0000   0.0000   0.0000
     0.0000   0.0000

          k = 0.0000 0.2510 0.7363 ( 38323 PWs)   bands (ev):

   -85.9901 -85.9106 -85.9057 -85.5406 -52.0597 -52.0054 -51.9968 -51.9324
   -51.9196 -51.8949 -51.8837 -51.8476 -51.8278 -51.7851 -51.4866 -51.2626
   -45.6166 -17.6201 -17.5861 -17.5491 -16.3521 -16.2407 -16.0767 -16.0297
   -14.2799 -14.2259 -14.0647 -14.0054 -13.9249 -13.8287 -13.7954 -13.7236
   -13.6378 -13.5294 -13.4518 -13.4238  -4.3473  -4.0713  -3.9934  -3.7758
    -2.2832  -2.1328  -2.0433  -1.9200  -1.8011  -1.7419  -1.6305  -1.4999
    -1.3859  -1.1337  -1.1203  -0.9764  -0.7246  -0.6167  -0.2388  -0.1530
    -0.1203  -0.0737   0.0869   0.2259   0.2571   0.3182   0.4146   0.5702
     0.6121   0.6897   0.7654   0.8188   0.8762   0.9180   0.9570   1.0468
     1.2487   1.3497   1.5253   1.6368   1.7597   1.7818   1.8418   1.9650
     2.0374   2.1312   2.1724   2.2078   2.2474   2.2898   2.3800   2.4893
     2.7000   2.7985   2.9077   3.0411   3.1331   3.1908   3.2704   3.3347
     3.4122   3.5340   3.5868   3.6111   3.7207   3.8070   3.9695   4.0520
     9.1407  10.4752  10.7207  11.0226  11.4128  11.7084  11.7751  12.1004
    12.2060  12.3171

     occupation numbers 
     1.0000   1.0000   1.0000   1.0000   1.0000   1.0000   1.0000   1.0000
     1.0000   1.0000   1.0000   1.0000   1.0000   1.0000   1.0000   1.0000
     1.0000   1.0000   1.0000   1.0000   1.0000   1.0000   1.0000   1.0000
     1.0000   1.0000   1.0000   1.0000   1.0000   1.0000   1.0000   1.0000
     1.0000   1.0000   1.0000   1.0000   1.0000   1.0000   1.0000   1.0000
     1.0000   1.0000   1.0000   1.0000   1.0000   1.0000   1.0000   1.0000
     1.0000   1.0000   1.0000   1.0000   1.0000   1.0000   1.0000   1.0000
     1.0000   1.0000   1.0000   1.0000   1.0000   1.0000   1.0000   1.0000
     1.0000   1.0000   1.0000   1.0000   1.0000   1.0000   1.0000   1.0000
     1.0000   1.0000   1.0000   1.0000   1.0000   1.0000   1.0000   1.0000
     1.0000   1.0000   1.0000   1.0000   1.0000   1.0000   1.0000   1.0000
     1.0000   1.0000   1.0000   1.0000   1.0000   1.0000   1.0000   1.0000
     1.0000   1.0000   1.0000   1.0000   1.0000   1.0000   1.0000   1.0000
     0.0000   0.0000   0.0000   0.0000   0.0000   0.0000   0.0000   0.0000
     0.0000   0.0000

          k = 0.0000 0.2510 0.9817 ( 38330 PWs)   bands (ev):

   -85.9901 -85.9106 -85.9057 -85.5406 -52.0597 -52.0054 -51.9968 -51.9324
   -51.9196 -51.8949 -51.8837 -51.8476 -51.8278 -51.7851 -51.4866 -51.2626
   -45.6166 -17.6198 -17.5924 -17.5490 -16.3240 -16.2184 -16.0588 -16.0295
   -14.3041 -14.2537 -14.0972 -14.0373 -13.9163 -13.8177 -13.7992 -13.7305
   -13.6397 -13.5235 -13.4482 -13.4257  -4.2548  -4.1044  -3.9687  -3.8439
    -2.2403  -2.0800  -1.9852  -1.8577  -1.7648  -1.7273  -1.6276  -1.5609
    -1.3731  -1.2683  -0.9949  -0.8777  -0.6106  -0.4744  -0.3323  -0.2722
    -0.0235   0.0176   0.1304   0.2100   0.2467   0.3650   0.4568   0.4787
     0.5898   0.6333   0.6988   0.7347   0.7928   0.8128   0.8976   0.9911
     1.2291   1.3691   1.4629   1.5823   1.7280   1.8027   1.8548   1.9133
     2.0384   2.0626   2.1143   2.2125   2.2318   2.2546   2.3375   2.4655
     2.7238   2.7916   2.9457   3.1255   3.2294   3.2524   3.2910   3.3448
     3.4205   3.5330   3.6097   3.6889   3.7513   3.8088   3.8860   3.9678
     9.6624  10.1899  10.9734  11.2032  11.3046  11.5277  11.8868  12.0632
    12.1539  12.2324

     occupation numbers 
     1.0000   1.0000   1.0000   1.0000   1.0000   1.0000   1.0000   1.0000
     1.0000   1.0000   1.0000   1.0000   1.0000   1.0000   1.0000   1.0000
     1.0000   1.0000   1.0000   1.0000   1.0000   1.0000   1.0000   1.0000
     1.0000   1.0000   1.0000   1.0000   1.0000   1.0000   1.0000   1.0000
     1.0000   1.0000   1.0000   1.0000   1.0000   1.0000   1.0000   1.0000
     1.0000   1.0000   1.0000   1.0000   1.0000   1.0000   1.0000   1.0000
     1.0000   1.0000   1.0000   1.0000   1.0000   1.0000   1.0000   1.0000
     1.0000   1.0000   1.0000   1.0000   1.0000   1.0000   1.0000   1.0000
     1.0000   1.0000   1.0000   1.0000   1.0000   1.0000   1.0000   1.0000
     1.0000   1.0000   1.0000   1.0000   1.0000   1.0000   1.0000   1.0000
     1.0000   1.0000   1.0000   1.0000   1.0000   1.0000   1.0000   1.0000
     1.0000   1.0000   1.0000   1.0000   1.0000   1.0000   1.0000   1.0000
     1.0000   1.0000   1.0000   1.0000   1.0000   1.0000   1.0000   1.0000
     0.0000   0.0000   0.0000   0.0000   0.0000   0.0000   0.0000   0.0000
     0.0000   0.0000

          k = 0.0000 0.5020 0.0000 ( 38283 PWs)   bands (ev):

   -85.9901 -85.9106 -85.9057 -85.5406 -52.0597 -52.0054 -51.9968 -51.9324
   -51.9196 -51.8949 -51.8837 -51.8476 -51.8278 -51.7851 -51.4866 -51.2626
   -45.6166 -17.6215 -17.5628 -17.5508 -16.4059 -16.2995 -16.1234 -16.0828
   -14.1893 -14.1250 -13.9848 -13.9359 -13.9104 -13.8551 -13.8498 -13.7409
   -13.6078 -13.5188 -13.4438 -13.4161  -4.4354  -4.0900  -4.0058  -3.7089
    -2.4286  -2.2786  -2.1630  -2.1021  -1.8320  -1.7215  -1.5549  -1.4856
    -1.3946  -1.2445  -1.1282  -0.9124  -0.8327  -0.6722  -0.2808  -0.1670
    -0.1445  -0.1008  -0.0525   0.0113   0.1180   0.3887   0.6159   0.6194
     0.6567   0.6766   0.7527   0.7974   0.8633   0.9636   1.0868   1.3507
     1.3957   1.5213   1.5829   1.7130   1.8352   1.8621   1.9199   1.9772
     2.0921   2.1325   2.2024   2.2411   2.3225   2.4730   2.5024   2.6171
     2.6449   2.7523   2.9115   2.9393   3.0435   3.1477   3.1995   3.2210
     3.3279   3.4357   3.4467   3.5526   3.6033   3.8675   4.0648   4.1546
     8.5762  10.2621  10.4981  10.8234  11.3908  11.5923  12.3369  12.3557
    12.5933  12.6427

     occupation numbers 
     1.0000   1.0000   1.0000   1.0000   1.0000   1.0000   1.0000   1.0000
     1.0000   1.0000   1.0000   1.0000   1.0000   1.0000   1.0000   1.0000
     1.0000   1.0000   1.0000   1.0000   1.0000   1.0000   1.0000   1.0000
     1.0000   1.0000   1.0000   1.0000   1.0000   1.0000   1.0000   1.0000
     1.0000   1.0000   1.0000   1.0000   1.0000   1.0000   1.0000   1.0000
     1.0000   1.0000   1.0000   1.0000   1.0000   1.0000   1.0000   1.0000
     1.0000   1.0000   1.0000   1.0000   1.0000   1.0000   1.0000   1.0000
     1.0000   1.0000   1.0000   1.0000   1.0000   1.0000   1.0000   1.0000
     1.0000   1.0000   1.0000   1.0000   1.0000   1.0000   1.0000   1.0000
     1.0000   1.0000   1.0000   1.0000   1.0000   1.0000   1.0000   1.0000
     1.0000   1.0000   1.0000   1.0000   1.0000   1.0000   1.0000   1.0000
     1.0000   1.0000   1.0000   1.0000   1.0000   1.0000   1.0000   1.0000
     1.0000   1.0000   1.0000   1.0000   1.0000   1.0000   1.0000   1.0000
     0.0000   0.0000   0.0000   0.0000   0.0000   0.0000   0.0000   0.0000
     0.0000   0.0000

          k = 0.0000 0.5020 0.2454 ( 38295 PWs)   bands (ev):

   -85.9901 -85.9106 -85.9057 -85.5406 -52.0597 -52.0054 -51.9968 -51.9324
   -51.9196 -51.8949 -51.8837 -51.8476 -51.8278 -51.7851 -51.4866 -51.2626
   -45.6166 -17.6212 -17.5665 -17.5507 -16.3950 -16.2890 -16.1163 -16.0763
   -14.2045 -14.1410 -14.0032 -13.9381 -13.9223 -13.8558 -13.8393 -13.7409
   -13.6084 -13.5178 -13.4429 -13.4166  -4.4170  -4.0833  -4.0013  -3.7144
    -2.3908  -2.2640  -2.1280  -2.0854  -1.8282  -1.7319  -1.5476  -1.4548
    -1.3789  -1.2178  -1.1617  -0.9591  -0.8093  -0.6674  -0.2963  -0.1761
    -0.1419  -0.1064  -0.0530   0.0357   0.1447   0.4069   0.5345   0.5864
     0.6633   0.7001   0.7718   0.8021   0.8492   0.9711   1.0950   1.3168
     1.4447   1.5385   1.5611   1.6898   1.8079   1.8380   1.8763   1.9914
     2.0561   2.1225   2.1994   2.2437   2.3048   2.4317   2.4774   2.5954
     2.6401   2.7468   2.8652   2.9533   3.0506   3.1543   3.2251   3.2436
     3.3347   3.4277   3.4678   3.5627   3.6328   3.8706   4.0601   4.1510
     8.6944  10.3056  10.5642  10.8689  11.4334  11.5816  12.2161  12.3358
    12.5674  12.6257

     occupation numbers 
     1.0000   1.0000   1.0000   1.0000   1.0000   1.0000   1.0000   1.0000
     1.0000   1.0000   1.0000   1.0000   1.0000   1.0000   1.0000   1.0000
     1.0000   1.0000   1.0000   1.0000   1.0000   1.0000   1.0000   1.0000
     1.0000   1.0000   1.0000   1.0000   1.0000   1.0000   1.0000   1.0000
     1.0000   1.0000   1.0000   1.0000   1.0000   1.0000   1.0000   1.0000
     1.0000   1.0000   1.0000   1.0000   1.0000   1.0000   1.0000   1.0000
     1.0000   1.0000   1.0000   1.0000   1.0000   1.0000   1.0000   1.0000
     1.0000   1.0000   1.0000   1.0000   1.0000   1.0000   1.0000   1.0000
     1.0000   1.0000   1.0000   1.0000   1.0000   1.0000   1.0000   1.0000
     1.0000   1.0000   1.0000   1.0000   1.0000   1.0000   1.0000   1.0000
     1.0000   1.0000   1.0000   1.0000   1.0000   1.0000   1.0000   1.0000
     1.0000   1.0000   1.0000   1.0000   1.0000   1.0000   1.0000   1.0000
     1.0000   1.0000   1.0000   1.0000   1.0000   1.0000   1.0000   1.0000
     0.0000   0.0000   0.0000   0.0000   0.0000   0.0000   0.0000   0.0000
     0.0000   0.0000

          k = 0.0000 0.5020 0.4908 ( 38254 PWs)   bands (ev):

   -85.9901 -85.9106 -85.9057 -85.5406 -52.0597 -52.0054 -51.9968 -51.9324
   -51.9196 -51.8949 -51.8837 -51.8476 -51.8278 -51.7851 -51.4866 -51.2626
   -45.6166 -17.6203 -17.5757 -17.5505 -16.3670 -16.2614 -16.0982 -16.0601
   -14.2420 -14.1818 -14.0492 -13.9722 -13.9230 -13.8445 -13.8279 -13.7425
   -13.6100 -13.5149 -13.4407 -13.4177  -4.3650  -4.0710  -3.9874  -3.7381
    -2.2978  -2.2117  -2.0579  -2.0321  -1.8161  -1.7418  -1.5482  -1.4131
    -1.2957  -1.2566  -1.1150  -1.0500  -0.7840  -0.6523  -0.3490  -0.2182
    -0.1498  -0.0633  -0.0237   0.1079   0.2088   0.4128   0.4896   0.5392
     0.6243   0.7064   0.7727   0.7909   0.8434   0.9663   1.1103   1.2812
     1.3684   1.4889   1.5700   1.6341   1.7290   1.7964   1.8488   1.9416
     2.0230   2.1207   2.2008   2.2428   2.2706   2.3360   2.3932   2.5326
     2.6255   2.7199   2.8524   2.9522   3.1120   3.1698   3.2565   3.2782
     3.3487   3.4520   3.5164   3.5732   3.7028   3.8813   4.0428   4.1389
     9.0155  10.4249  10.7433  10.9647  11.5351  11.5955  12.0287  12.2055
    12.4294  12.5160

     occupation numbers 
     1.0000   1.0000   1.0000   1.0000   1.0000   1.0000   1.0000   1.0000
     1.0000   1.0000   1.0000   1.0000   1.0000   1.0000   1.0000   1.0000
     1.0000   1.0000   1.0000   1.0000   1.0000   1.0000   1.0000   1.0000
     1.0000   1.0000   1.0000   1.0000   1.0000   1.0000   1.0000   1.0000
     1.0000   1.0000   1.0000   1.0000   1.0000   1.0000   1.0000   1.0000
     1.0000   1.0000   1.0000   1.0000   1.0000   1.0000   1.0000   1.0000
     1.0000   1.0000   1.0000   1.0000   1.0000   1.0000   1.0000   1.0000
     1.0000   1.0000   1.0000   1.0000   1.0000   1.0000   1.0000   1.0000
     1.0000   1.0000   1.0000   1.0000   1.0000   1.0000   1.0000   1.0000
     1.0000   1.0000   1.0000   1.0000   1.0000   1.0000   1.0000   1.0000
     1.0000   1.0000   1.0000   1.0000   1.0000   1.0000   1.0000   1.0000
     1.0000   1.0000   1.0000   1.0000   1.0000   1.0000   1.0000   1.0000
     1.0000   1.0000   1.0000   1.0000   1.0000   1.0000   1.0000   1.0000
     0.0000   0.0000   0.0000   0.0000   0.0000   0.0000   0.0000   0.0000
     0.0000   0.0000

          k = 0.0000 0.5020 0.7363 ( 38305 PWs)   bands (ev):

   -85.9901 -85.9106 -85.9057 -85.5406 -52.0597 -52.0054 -51.9968 -51.9324
   -51.9196 -51.8949 -51.8837 -51.8476 -51.8278 -51.7851 -51.4866 -51.2626
   -45.6166 -17.6195 -17.5858 -17.5502 -16.3340 -16.2280 -16.0769 -16.0424
   -14.2837 -14.2287 -14.0997 -14.0216 -13.9118 -13.8330 -13.8178 -13.7465
   -13.6124 -13.5109 -13.4386 -13.4190  -4.2902  -4.0666  -3.9681  -3.7845
    -2.2281  -2.0921  -2.0333  -1.9278  -1.7955  -1.7348  -1.5497  -1.4233
    -1.3510  -1.1628  -1.1330  -0.9725  -0.7591  -0.6207  -0.4402  -0.3093
    -0.0962   0.0172   0.0774   0.2152   0.2818   0.3847   0.4653   0.5404
     0.5804   0.6739   0.7537   0.7763   0.8270   0.9236   1.0708   1.1169
     1.2503   1.3597   1.4697   1.6408   1.7084   1.7821   1.8011   1.8949
     2.0231   2.1015   2.1718   2.2087   2.2504   2.2930   2.3070   2.4694
     2.6152   2.6717   2.9129   2.9804   3.1479   3.2060   3.2719   3.3010
     3.3854   3.4893   3.5651   3.6043   3.7686   3.9018   4.0078   4.1170
     9.4628  10.5592  10.8924  11.1217  11.4832  11.8198  11.8554  12.0454
    12.2503  12.2906

     occupation numbers 
     1.0000   1.0000   1.0000   1.0000   1.0000   1.0000   1.0000   1.0000
     1.0000   1.0000   1.0000   1.0000   1.0000   1.0000   1.0000   1.0000
     1.0000   1.0000   1.0000   1.0000   1.0000   1.0000   1.0000   1.0000
     1.0000   1.0000   1.0000   1.0000   1.0000   1.0000   1.0000   1.0000
     1.0000   1.0000   1.0000   1.0000   1.0000   1.0000   1.0000   1.0000
     1.0000   1.0000   1.0000   1.0000   1.0000   1.0000   1.0000   1.0000
     1.0000   1.0000   1.0000   1.0000   1.0000   1.0000   1.0000   1.0000
     1.0000   1.0000   1.0000   1.0000   1.0000   1.0000   1.0000   1.0000
     1.0000   1.0000   1.0000   1.0000   1.0000   1.0000   1.0000   1.0000
     1.0000   1.0000   1.0000   1.0000   1.0000   1.0000   1.0000   1.0000
     1.0000   1.0000   1.0000   1.0000   1.0000   1.0000   1.0000   1.0000
     1.0000   1.0000   1.0000   1.0000   1.0000   1.0000   1.0000   1.0000
     1.0000   1.0000   1.0000   1.0000   1.0000   1.0000   1.0000   1.0000
     0.0000   0.0000   0.0000   0.0000   0.0000   0.0000   0.0000   0.0000
     0.0000   0.0000

          k = 0.0000 0.5020 0.9817 ( 38313 PWs)   bands (ev):

   -85.9901 -85.9106 -85.9057 -85.5406 -52.0597 -52.0054 -51.9968 -51.9324
   -51.9196 -51.8949 -51.8837 -51.8476 -51.8278 -51.7851 -51.4866 -51.2626
   -45.6166 -17.6190 -17.5922 -17.5500 -16.3116 -16.2047 -16.0623 -16.0317
   -14.3106 -14.2595 -14.1323 -14.0543 -13.9039 -13.8274 -13.8101 -13.7507
   -13.6141 -13.5078 -13.4374 -13.4199  -4.2206  -4.0772  -3.9521  -3.8307
    -2.1931  -2.0441  -1.9666  -1.8579  -1.7770  -1.7155  -1.5527  -1.4863
    -1.3420  -1.2619  -1.0180  -0.8688  -0.7115  -0.5654  -0.5225  -0.4264
     0.0244   0.1072   0.2056   0.2527   0.3271   0.4055   0.4359   0.5112
     0.5643   0.6332   0.7229   0.7604   0.7881   0.8467   0.9257   0.9741
     1.2180   1.3139   1.4438   1.5208   1.7141   1.7763   1.7868   1.8880
     2.0048   2.0561   2.1461   2.2000   2.2217   2.2769   2.3229   2.4284
[...]
     atom   25 type  3   force =     0.00801870   -0.00363112    0.00477167
     The non-local contrib.  to forces
     atom    1 type  2   force =     0.11974101    0.00000000   -0.05022142
     atom    2 type  1   force =     0.07703326    0.00000000    0.13423565
     atom    3 type  1   force =     0.01771895    0.00000000    0.11252585
     atom    4 type  1   force =    -0.24368770    0.00000000   -0.05584146
     atom    5 type  1   force =     0.00401657    0.00000000   -0.12115493
     atom    6 type  4   force =    -0.08814011    0.00000000   -0.07173725
     atom    7 type  4   force =     0.10515185    0.00000000   -0.04286319
     atom    8 type  4   force =     0.05942825    0.00000000    0.08096610
     atom    9 type  4   force =    -0.06448474    0.00000000    0.07838086
     atom   10 type  3   force =     0.28593653    0.00000000   -1.53950510
     atom   11 type  3   force =    -0.07435662    0.00000000   -1.47119779
     atom   12 type  3   force =    -0.38273628    0.00000000    1.53725821
     atom   13 type  3   force =     0.19507186    0.00000000    1.53605538
     atom   14 type  3   force =     1.26545502    0.00000000   -0.55563854
     atom   15 type  3   force =    -1.25164525    0.00000000   -0.73697227
     atom   16 type  3   force =    -1.24258703    0.00000000    0.25254133
     atom   17 type  3   force =     1.21387191    0.00000000    0.58006775
     atom   18 type  3   force =    -0.56189909   -1.05052179    0.76724182
     atom   19 type  3   force =     0.56540550    1.10986222    0.80548375
     atom   20 type  3   force =     0.58951685   -1.05224739   -0.65365842
     atom   21 type  3   force =    -0.58492384    1.02432638   -0.68445804
     atom   22 type  3   force =     0.58951685    1.05224739   -0.65365842
     atom   23 type  3   force =    -0.58492384   -1.02432638   -0.68445804
     atom   24 type  3   force =    -0.56189909    1.05052179    0.76724182
     atom   25 type  3   force =     0.56540550   -1.10986222    0.80548375
     The ionic contribution  to forces
     atom    1 type  2   force =    -4.37352078    0.00030607    2.20852092
     atom    2 type  1   force =     1.04244232   -0.00080842   -0.12737852
     atom    3 type  1   force =    -9.15867174    0.00098597   -0.21293404
     atom    4 type  1   force =     2.89759982    0.00077146   -0.25628398
     atom    5 type  1   force =     9.91612291   -0.00109033    0.14741049
     atom    6 type  4   force =    -4.69707691   -0.00025493   -0.03805362
     atom    7 type  4   force =     1.81920382    0.00015838    0.05745876
     atom    8 type  4   force =     6.36642195    0.00023803   -0.15234318
     atom    9 type  4   force =    -3.92122569   -0.00015848   -0.35196085
     atom   10 type  3   force =   -10.13303751   -0.00026344    3.23715009
     atom   11 type  3   force =     4.01629248    0.00023883    2.13339247
     atom   12 type  3   force =    12.18819395    0.00024698   -3.31486735
     atom   13 type  3   force =    -8.25301829   -0.00028619   -2.70666372
     atom   14 type  3   force =     0.61730453   -0.00021119    4.70859451
     atom   15 type  3   force =    -1.87527923    0.00024174    6.06799936
     atom   16 type  3   force =    -2.14818096    0.00013653   -2.09272304
     atom   17 type  3   force =     3.56121868   -0.00024954   -5.33212261
     atom   18 type  3   force =    -4.54625023    2.56182870   -3.04849976
     atom   19 type  3   force =     1.38712480   -3.76376989   -2.75277779
     atom   20 type  3   force =     5.94116693    4.03332824    2.33838718
     atom   21 type  3   force =    -1.71442569   -1.20508239    1.47519293
     atom   22 type  3   force =     5.94143115   -4.03284612    2.33853261
     atom   23 type  3   force =    -1.71465499    1.20471826    1.47510055
     atom   24 type  3   force =    -4.54603837   -2.56232536   -3.04829948
     atom   25 type  3   force =     1.38685704    3.76414709   -2.75283193
     The local contribution  to forces
     atom    1 type  2   force =     4.24788460   -0.00000000   -2.16502344
     atom    2 type  1   force =    -1.11385161   -0.00889172   -0.01225818
     atom    3 type  1   force =     9.12825907    0.00445606    0.10064343
     atom    4 type  1   force =    -2.64885854    0.00226894    0.32102318
     atom    5 type  1   force =    -9.90606211   -0.01099266   -0.02594230
     atom    6 type  4   force =     4.71968041   -0.00002416    0.09112508
     atom    7 type  4   force =    -1.86272548   -0.00001768   -0.02744009
     atom    8 type  4   force =    -6.36345429   -0.00002160    0.09601464
     atom    9 type  4   force =     3.92350973   -0.00001179    0.29174248
     atom   10 type  3   force =     9.86191552   -0.00161125   -1.70710448
     atom   11 type  3   force =    -3.94375401   -0.00000000   -0.67137586
     atom   12 type  3   force =   -11.82245688   -0.00000000    1.78525064
     atom   13 type  3   force =     8.06729565   -0.00156952    1.18330456
     atom   14 type  3   force =    -1.79520270   -0.00155294   -4.17191384
     atom   15 type  3   force =     3.04171947    0.00000000   -5.36180881
     atom   16 type  3   force =     3.29648319    0.00054211    1.85191432
     atom   17 type  3   force =    -4.69293270   -0.00158180    4.77372228
     atom   18 type  3   force =     5.09409146   -1.52817018    2.29293861
     atom   19 type  3   force =    -1.93888275    2.66702687    1.95989503
     atom   20 type  3   force =    -6.51353610   -2.99648138   -1.69501395
     atom   21 type  3   force =     2.28394484    0.19360297   -0.79840727
     atom   22 type  3   force =    -6.51353388    2.99565826   -1.69531424
     atom   23 type  3   force =     2.28309017   -0.19535316   -0.79923369
     atom   24 type  3   force =     5.09401314    1.52644483    2.29278657
     atom   25 type  3   force =    -1.93980795   -2.66788487    1.95924355
     The core correction contribution to forces
     atom    1 type  2   force =     0.00000000    0.00000000    0.00000000
     atom    2 type  1   force =    -0.00131737    0.00030487   -0.00058165
     atom    3 type  1   force =    -0.00015448   -0.00015148   -0.00072523
     atom    4 type  1   force =     0.00446258   -0.00007623   -0.00071925
     atom    5 type  1   force =    -0.00047615    0.00038226    0.00093523
     atom    6 type  4   force =     0.00872928    0.00000272    0.00599461
     atom    7 type  4   force =    -0.00983464    0.00000142    0.00379557
     atom    8 type  4   force =    -0.00672119    0.00000127   -0.00672883
     atom    9 type  4   force =     0.00682444    0.00000266   -0.00636174
     atom   10 type  3   force =    -0.00334710   -0.00000088    0.01352260
     atom   11 type  3   force =     0.00137537    0.00000000    0.01277641
     atom   12 type  3   force =     0.00424398    0.00000000   -0.01342162
     atom   13 type  3   force =    -0.00251231   -0.00000088   -0.01347172
     atom   14 type  3   force =    -0.01207220   -0.00000081    0.00575117
     atom   15 type  3   force =     0.01192121   -0.00000000    0.00750894
     atom   16 type  3   force =     0.01183645    0.00000022   -0.00273148
     atom   17 type  3   force =    -0.01166142   -0.00000081   -0.00597956
     atom   18 type  3   force =     0.00507600    0.00923789   -0.00711246
     atom   19 type  3   force =    -0.00503497   -0.00972975   -0.00747389
     atom   20 type  3   force =    -0.00541218    0.00926282    0.00601054
     atom   21 type  3   force =     0.00528919   -0.00905334    0.00637760
     atom   22 type  3   force =    -0.00541246   -0.00926402    0.00601019
     atom   23 type  3   force =     0.00528727    0.00905038    0.00637637
     atom   24 type  3   force =     0.00507682   -0.00924043   -0.00711248
     atom   25 type  3   force =    -0.00503564    0.00972891   -0.00747493
     The Hubbard contrib.    to forces
     atom    1 type  2   force =     0.00000000    0.00000000    0.00000000
     atom    2 type  1   force =     0.00000000    0.00000000    0.00000000
     atom    3 type  1   force =     0.00000000    0.00000000    0.00000000
     atom    4 type  1   force =     0.00000000    0.00000000    0.00000000
     atom    5 type  1   force =     0.00000000    0.00000000    0.00000000
     atom    6 type  4   force =     0.00000000    0.00000000    0.00000000
     atom    7 type  4   force =     0.00000000    0.00000000    0.00000000
     atom    8 type  4   force =     0.00000000    0.00000000    0.00000000
     atom    9 type  4   force =     0.00000000    0.00000000    0.00000000
     atom   10 type  3   force =     0.00000000    0.00000000    0.00000000
     atom   11 type  3   force =     0.00000000    0.00000000    0.00000000
     atom   12 type  3   force =     0.00000000    0.00000000    0.00000000
     atom   13 type  3   force =     0.00000000    0.00000000    0.00000000
     atom   14 type  3   force =     0.00000000    0.00000000    0.00000000
     atom   15 type  3   force =     0.00000000    0.00000000    0.00000000
     atom   16 type  3   force =     0.00000000    0.00000000    0.00000000
     atom   17 type  3   force =     0.00000000    0.00000000    0.00000000
     atom   18 type  3   force =     0.00000000    0.00000000    0.00000000
     atom   19 type  3   force =     0.00000000    0.00000000    0.00000000
     atom   20 type  3   force =     0.00000000    0.00000000    0.00000000
     atom   21 type  3   force =     0.00000000    0.00000000    0.00000000
     atom   22 type  3   force =     0.00000000    0.00000000    0.00000000
     atom   23 type  3   force =     0.00000000    0.00000000    0.00000000
     atom   24 type  3   force =     0.00000000    0.00000000    0.00000000
     atom   25 type  3   force =     0.00000000    0.00000000    0.00000000
     The SCF correction term to forces
     atom    1 type  2   force =     0.00000497   -0.00000000   -0.00000026
     atom    2 type  1   force =    -0.00000292    0.00000000   -0.00000084
     atom    3 type  1   force =    -0.00000189   -0.00000000   -0.00000222
     atom    4 type  1   force =     0.00000537   -0.00000000   -0.00000040
     atom    5 type  1   force =     0.00000219   -0.00000000   -0.00000086
     atom    6 type  4   force =    -0.00000293    0.00000000    0.00000020
     atom    7 type  4   force =     0.00000159   -0.00000000    0.00000048
     atom    8 type  4   force =    -0.00000250   -0.00000000   -0.00000007
     atom    9 type  4   force =     0.00000333    0.00000000    0.00000024
     atom   10 type  3   force =    -0.00000377    0.00000000   -0.00000140
     atom   11 type  3   force =     0.00000195   -0.00000000   -0.00000053
     atom   12 type  3   force =    -0.00000229   -0.00000000    0.00000011
     atom   13 type  3   force =     0.00000474    0.00000000   -0.00000116
     atom   14 type  3   force =     0.00000398    0.00000000    0.00000088
     atom   15 type  3   force =    -0.00000451   -0.00000000    0.00000016
     atom   16 type  3   force =     0.00000367   -0.00000000   -0.00000000
     atom   17 type  3   force =    -0.00000529   -0.00000000    0.00000061
     atom   18 type  3   force =    -0.00000256   -0.00000040    0.00000088
     atom   19 type  3   force =     0.00000105    0.00000084   -0.00000022
     atom   20 type  3   force =    -0.00000092    0.00000148   -0.00000084
     atom   21 type  3   force =     0.00000360    0.00000078    0.00000120
     atom   22 type  3   force =    -0.00000092   -0.00000148   -0.00000084
     atom   23 type  3   force =     0.00000360   -0.00000078    0.00000120
     atom   24 type  3   force =    -0.00000256    0.00000040    0.00000088
     atom   25 type  3   force =     0.00000105   -0.00000084   -0.00000022

     Total force =     0.197138     Total SCF correction =     0.000017


     Computing stress (Cartesian axis) and pressure


     negative rho (up, down):  0.000E+00 8.522E-04
          total   stress  (Ry/bohr**3)                   (kbar)     P=      -95.68
  -0.00129092   0.00000000  -0.00002510         -189.90        0.00       -3.69
   0.00000000  -0.00043774   0.00000000            0.00      -64.39        0.00
  -0.00002510   0.00000000  -0.00022262           -3.69        0.00      -32.75

     kinetic stress (kbar)  24871.94      0.00    -13.09
                                0.00  25203.09      0.00
                              -13.09      0.00  25034.26

     local   stress (kbar)  -2584.91     -0.06   1204.24
                               -0.06 -15121.34     -0.00
                             1204.24     -0.00  -9565.11

     nonloc. stress (kbar)  -6321.01      0.00     -3.78
                                0.00  -6286.27      0.00
                               -3.78      0.00  -6274.26

     hartree stress (kbar)  11165.18     -0.00   -495.80
                               -0.00  17642.66     -0.00
                             -495.80     -0.00  14808.76

     exc-cor stress (kbar)  -2650.25      0.00     -0.99
                                0.00  -2656.26     -0.00
                               -0.99     -0.00  -2653.93

     corecor stress (kbar)  -2963.99     -0.00      1.36
                               -0.00  -2964.57      0.00
                                1.36      0.00  -2966.99

     ewald   stress (kbar) -21706.86      0.06   -695.62
                                0.06 -15881.70      0.00
                             -695.62      0.00 -18415.48

     hubbard stress (kbar)      0.00      0.00      0.00
                                0.00      0.00      0.00
                                0.00      0.00      0.00

     DFT-D   stress (kbar)      0.00      0.00      0.00
                                0.00      0.00      0.00
                                0.00      0.00      0.00

     XDM     stress (kbar)      0.00      0.00      0.00
                                0.00      0.00      0.00
                                0.00      0.00      0.00

     dft-nl  stress (kbar)      0.00      0.00      0.00
                                0.00      0.00      0.00
                                0.00      0.00      0.00

     TS-vdW  stress (kbar)      0.00      0.00      0.00
                                0.00      0.00      0.00
                                0.00      0.00      0.00



     init_run     :    124.42s CPU    127.11s WALL (       1 calls)
     electrons    :  11606.05s CPU  11747.44s WALL (       1 calls)
     forces       :     78.53s CPU     79.48s WALL (       1 calls)
     stress       :    501.22s CPU    504.08s WALL (       1 calls)

     Called by init_run:
     wfcinit      :    113.88s CPU    115.51s WALL (       1 calls)
     wfcinit:atom :      2.21s CPU      2.22s WALL (     184 calls)
     wfcinit:wfcr :    105.45s CPU    107.03s WALL (     184 calls)
     potinit      :      3.69s CPU      3.84s WALL (       1 calls)
     hinit0       :      3.51s CPU      3.78s WALL (       1 calls)

     Called by electrons:
     c_bands      :  10103.02s CPU  10183.91s WALL (      38 calls)
     sum_band     :   1361.70s CPU   1402.48s WALL (      38 calls)
     v_of_rho     :     36.78s CPU     37.81s WALL (      39 calls)
     v_h          :      1.88s CPU      1.95s WALL (      39 calls)
     v_xc         :     36.89s CPU     37.90s WALL (      41 calls)
     newd         :     77.52s CPU     96.22s WALL (      39 calls)
     PAW_pot      :     17.08s CPU     17.10s WALL (      39 calls)
     mix_rho      :      8.82s CPU      9.17s WALL (      38 calls)

     Called by c_bands:
     init_us_2    :    217.29s CPU    218.24s WALL (   14536 calls)
     cegterg      :   9745.37s CPU   9823.96s WALL (    6992 calls)

     Called by sum_band:
     sum_band:wei :      0.37s CPU      0.37s WALL (      38 calls)
     sum_band:loo :   1139.23s CPU   1152.30s WALL (      38 calls)
     sum_band:buf :     58.15s CPU     58.46s WALL (    6992 calls)
     sum_band:ini :    105.26s CPU    105.68s WALL (    6992 calls)
     sum_band:cal :    512.74s CPU    516.28s WALL (    6992 calls)
     sum_band:bec :      4.02s CPU      4.10s WALL (    6992 calls)
     addusdens    :    215.89s CPU    243.18s WALL (      38 calls)
     addusd:skk   :      1.81s CPU      1.84s WALL (     114 calls)
     addusd:dgemm :    105.32s CPU    132.04s WALL (     228 calls)
     addusd:qvan2 :    106.15s CPU    106.39s WALL (     228 calls)

     Called by *egterg:
     cdiaghg      :    557.85s CPU    569.53s WALL (   24634 calls)
     cegterg:over :    977.72s CPU    985.51s WALL (   17642 calls)
     cegterg:upda :    541.53s CPU    542.33s WALL (   17642 calls)
     cegterg:last :   1128.58s CPU   1129.73s WALL (   11951 calls)
     h_psi        :   4690.32s CPU   4743.10s WALL (   24818 calls)
     s_psi        :   1205.80s CPU   1207.35s WALL (   24818 calls)
     g_psi        :     10.37s CPU     10.46s WALL (   17642 calls)

     Called by h_psi:
     h_psi:calbec :   1296.71s CPU   1306.29s WALL (   24818 calls)
     vloc_psi     :   1981.34s CPU   2021.45s WALL (   24818 calls)
     add_vuspsi   :   1284.53s CPU   1286.41s WALL (   24818 calls)

     General routines
     calbec       :   1876.85s CPU   1890.61s WALL (   32730 calls)
     fft          :     29.21s CPU     30.86s WALL (    1013 calls)
     ffts         :      0.63s CPU      0.71s WALL (     154 calls)
     fftw         :   2257.40s CPU   2302.22s WALL ( 4264808 calls)
     interpolate  :      2.65s CPU      2.86s WALL (      78 calls)

     Parallel routines
     fft_scatt_xy :    223.23s CPU    227.67s WALL ( 4265975 calls)
     fft_scatt_yz :    660.56s CPU    675.48s WALL ( 4265975 calls)

     PAW routines
     PAW_pot      :     17.08s CPU     17.10s WALL (      39 calls)
     PAW_symme    :      0.08s CPU      0.08s WALL (      77 calls)

     PWSCF        :      3h25m CPU      3h27m WALL


   This run was terminated on:  13:15:52  18Dec2022            

=------------------------------------------------------------------------------=
   JOB DONE.
=------------------------------------------------------------------------------=
Note: The following floating-point exceptions are signalling: IEEE_UNDERFLOW_FLAG IEEE_DENORMAL
Note: The following floating-point exceptions are signalling: IEEE_DENORMAL
Note: The following floating-point exceptions are signalling: IEEE_DENORMAL
Note: The following floating-point exceptions are signalling: IEEE_DENORMAL
Note: The following floating-point exceptions are signalling: IEEE_DENORMAL
Note: The following floating-point exceptions are signalling: IEEE_DENORMAL
Note: The following floating-point exceptions are signalling: IEEE_DENORMAL
Note: The following floating-point exceptions are signalling: IEEE_DENORMAL
Note: The following floating-point exceptions are signalling: IEEE_DENORMAL
Note: The following floating-point exceptions are signalling: IEEE_DENORMAL
Note: The following floating-point exceptions are signalling: IEEE_DENORMAL
Note: The following floating-point exceptions are signalling: IEEE_DENORMAL
Note: The following floating-point exceptions are signalling: IEEE_DENORMAL
Note: The following floating-point exceptions are signalling: IEEE_DENORMAL
Note: The following floating-point exceptions are signalling: IEEE_DENORMAL
Note: The following floating-point exceptions are signalling: IEEE_DENORMAL
Note: The following floating-point exceptions are signalling: IEEE_DENORMAL
Note: The following floating-point exceptions are signalling: IEEE_DENORMAL
Note: The following floating-point exceptions are signalling: IEEE_DENORMAL
Note: The following floating-point exceptions are signalling: IEEE_DENORMAL
Note: The following floating-point exceptions are signalling: IEEE_DENORMAL
Note: The following floating-point exceptions are signalling: IEEE_DENORMAL
Note: The following floating-point exceptions are signalling: IEEE_INVALID_FLAG IEEE_DENORMAL
Note: The following floating-point exceptions are signalling: IEEE_INVALID_FLAG IEEE_DENORMAL
