
     Program PWSCF v.6.7MaX starts on 18Dec2022 at  0: 8:24 

     This program is part of the open-source Quantum ESPRESSO suite
     for quantum simulation of materials; please cite
         "P. Giannozzi et al., J. Phys.:Condens. Matter 21 395502 (2009);
         "P. Giannozzi et al., J. Phys.:Condens. Matter 29 465901 (2017);
          URL http://www.quantum-espresso.org", 
     in publications or presentations arising from this work. More details at
     http://www.quantum-espresso.org/quote

     Parallel version (MPI), running on    24 processors

     MPI processes distributed on     1 nodes
     R & G space division:  proc/nbgrp/npool/nimage =      24
     Reading input from scale_2dab-02.in

     Current dimensions of program PWSCF are:
     Max number of different atomic species (ntypx) = 10
     Max number of k-points (npk) =  40000
     Max angular momentum in pseudopotentials (lmaxx) =  3
     Message from routine read_pp_mesh:
     mesh size missing, using the one in header
     file Fe.pbe-spn-kjpaw_psl.0.2.1.UPF: wavefunction(s)  3D renormalized
     file O.pbe-n-kjpaw_psl.0.1.UPF: wavefunction(s)  2P renormalized

     Subspace diagonalization in iterative solution of the eigenvalue problem:
     a serial algorithm will be used


     Parallelization info
     --------------------
     sticks:   dense  smooth     PW     G-vecs:    dense   smooth      PW
     Min         800     296     79                52169    11762    1655
     Max         802     297     80                52170    11764    1658
     Sum       19211    7107   1919              1252071   282325   39769



     bravais-lattice index     =            0
     lattice parameter (alat)  =      19.3373  a.u.
     unit-cell volume          =    2088.9460 (a.u.)^3
     number of atoms/cell      =           25
     number of atomic types    =            4
     number of electrons       =       189.00
     number of Kohn-Sham states=          114
     kinetic-energy cutoff     =     100.0000  Ry
     charge density cutoff     =    1080.0000  Ry
     scf convergence threshold =      2.0E-10
     mixing beta               =       0.4000
     number of iterations used =            8  plain     mixing
     Exchange-correlation= PBE
                           (   1   4   3   4   0   0   0)

     celldm(1)=  19.337306  celldm(2)=   0.000000  celldm(3)=   0.000000
     celldm(4)=   0.000000  celldm(5)=   0.000000  celldm(6)=   0.000000

     crystal axes: (cart. coord. in units of alat)
               a(1) = (   1.000000   0.000000   0.000000 )  
               a(2) = (   0.000000   0.597590   0.000000 )  
               a(3) = (   0.000000   0.000000   0.483433 )  

     reciprocal axes: (cart. coord. in units 2 pi/alat)
               b(1) = (  1.000000  0.000000  0.000000 )  
               b(2) = (  0.000000  1.673388  0.000000 )  
               b(3) = (  0.000000  0.000000  2.068540 )  


     PseudoPot. # 1 for Fe read from file:
     /opt/QEpot/SSSP_precision_pseudos/Fe.pbe-spn-kjpaw_psl.0.2.1.UPF
     MD5 check sum: e86618425769142926afa95317d90200
     Pseudo is Projector augmented-wave + core cor, Zval = 16.0
     Generated using "atomic" code by A. Dal Corso  v.5.0.99 svn rev. 10869
     Shape of augmentation charge: PSQ
     Using radial grid of 1191 points,  6 beta functions with: 
                l(1) =   0
                l(2) =   0
                l(3) =   1
                l(4) =   1
                l(5) =   2
                l(6) =   2
     Q(r) pseudized with 0 coefficients 


     PseudoPot. # 2 for Na read from file:
     /opt/QEpot/SSSP_precision_pseudos/Na_ONCV_PBE-1.0.oncvpsp.upf
     MD5 check sum: 24a298df0a6742ae313db96548fdb2a4
     Pseudo is Norm-conserving, Zval =  9.0
     Generated using ONCVPSP code by D. R. Hamann
     Using radial grid of 1992 points,  4 beta functions with: 
                l(1) =   0
                l(2) =   0
                l(3) =   1
                l(4) =   1

     PseudoPot. # 3 for O  read from file:
     /opt/QEpot/SSSP_precision_pseudos/O.pbe-n-kjpaw_psl.0.1.UPF
     MD5 check sum: 0234752ac141de4415c5fc33072bef88
     Pseudo is Projector augmented-wave + core cor, Zval =  6.0
     Generated using "atomic" code by A. Dal Corso  v.5.0.99 svn rev. 10869
     Shape of augmentation charge: BESSEL
     Using radial grid of 1095 points,  4 beta functions with: 
                l(1) =   0
                l(2) =   0
                l(3) =   1
                l(4) =   1
     Q(r) pseudized with 0 coefficients 


     PseudoPot. # 4 for P  read from file:
     /opt/QEpot/SSSP_precision_pseudos/P.pbe-n-rrkjus_psl.1.0.0.UPF
     MD5 check sum: 8b930f418f0a4573dca56cd030ffe088
     Pseudo is Ultrasoft + core correction, Zval =  5.0
     Generated using "atomic" code by A. Dal Corso  v.5.1
     Using radial grid of 1147 points,  6 beta functions with: 
                l(1) =   0
                l(2) =   0
                l(3) =   1
                l(4) =   1
                l(5) =   2
                l(6) =   2
     Q(r) pseudized with 0 coefficients 


     atomic species   valence    mass     pseudopotential
        Fe            16.00    55.84500     Fe( 1.00)
        Na             9.00    22.98977     Na( 1.00)
        O              6.00    15.99940     O ( 1.00)
        P              5.00    30.97376     P ( 1.00)

     Starting magnetic structure 
     atomic species   magnetization
        Fe           0.312
        Na           0.000
        O            0.000
        P            0.000

     No symmetry found


                                    s                        frac. trans.

      isym =  1     identity                                     

 cryst.   s( 1) = (     1          0          0      )
                  (     0          1          0      )
                  (     0          0          1      )

 cart.    s( 1) = (  1.0000000  0.0000000  0.0000000 )
                  (  0.0000000  1.0000000  0.0000000 )
                  (  0.0000000  0.0000000  1.0000000 )


   Cartesian axes

     site n.     atom                  positions (alat units)
         1           Na  tau(   1) = (   0.5574590   0.1493981   0.2153103  )
         2           Fe  tau(   2) = (   0.2771150   0.4481954   0.4792708  )
         3           Fe  tau(   3) = (   0.2107060   0.1493969   0.2371034  )
         4           Fe  tau(   4) = (   0.7302140   0.1493975   0.0000517  )
         5           Fe  tau(   5) = (   0.7810190   0.4481960   0.2487401  )
         6           P   tau(   6) = (   0.1051510   0.4481942   0.2145900  )
         7           P   tau(   7) = (   0.3871250   0.1493987   0.4551761  )
         8           P   tau(   8) = (   0.8922730   0.1493987   0.2690907  )
         9           P   tau(   9) = (   0.6039150   0.4481942   0.0319622  )
        10           O   tau(  10) = (   0.1313210   0.4481948   0.3629850  )
        11           O   tau(  11) = (   0.3628270   0.1493981   0.1206551  )
        12           O   tau(  12) = (   0.8714480   0.1493981   0.1200987  )
        13           O   tau(  13) = (   0.6323650   0.4481948   0.3674862  )
        14           O   tau(  14) = (   0.4574600   0.4481948   0.0577900  )
        15           O   tau(  15) = (   0.0361810   0.1493981   0.3033139  )
        16           O   tau(  16) = (   0.5358400   0.1493975   0.4331436  )
        17           O   tau(  17) = (   0.9582930   0.4481948   0.1891319  )
        18           O   tau(  18) = (   0.1741600   0.5648814   0.1448263  )
        19           O   tau(  19) = (   0.3208130   0.0329153   0.3844291  )
        20           O   tau(  20) = (   0.8175190   0.2646445   0.3362497  )
        21           O   tau(  21) = (   0.6721860   0.3307857   0.1030166  )
        22           O   tau(  22) = (   0.8175190   0.0341529   0.3362502  )
        23           O   tau(  23) = (   0.6721870   0.5656027   0.1030176  )
        24           O   tau(  24) = (   0.1741600   0.3315070   0.1448263  )
        25           O   tau(  25) = (   0.3208140   0.2658821   0.3844300  )

   Crystallographic axes

     site n.     atom                  positions (cryst. coord.)
         1           Na  tau(   1) = (  0.5574590  0.2500010  0.4453780  )
         2           Fe  tau(   2) = (  0.2771150  0.7500050  0.9913910  )
         3           Fe  tau(   3) = (  0.2107060  0.2499990  0.4904580  )
         4           Fe  tau(   4) = (  0.7302140  0.2500000  0.0001070  )
         5           Fe  tau(   5) = (  0.7810190  0.7500060  0.5145290  )
         6           P   tau(   6) = (  0.1051510  0.7500030  0.4438880  )
         7           P   tau(   7) = (  0.3871250  0.2500020  0.9415500  )
         8           P   tau(   8) = (  0.8922730  0.2500020  0.5566250  )
         9           P   tau(   9) = (  0.6039150  0.7500030  0.0661150  )
        10           O   tau(  10) = (  0.1313210  0.7500040  0.7508490  )
        11           O   tau(  11) = (  0.3628270  0.2500010  0.2495800  )
        12           O   tau(  12) = (  0.8714480  0.2500010  0.2484290  )
        13           O   tau(  13) = (  0.6323650  0.7500040  0.7601600  )
        14           O   tau(  14) = (  0.4574600  0.7500040  0.1195410  )
        15           O   tau(  15) = (  0.0361810  0.2500010  0.6274170  )
        16           O   tau(  16) = (  0.5358400  0.2500000  0.8959750  )
        17           O   tau(  17) = (  0.9582930  0.7500040  0.3912270  )
        18           O   tau(  18) = (  0.1741600  0.9452660  0.2995790  )
        19           O   tau(  19) = (  0.3208130  0.0550800  0.7952070  )
        20           O   tau(  20) = (  0.8175190  0.4428530  0.6955460  )
        21           O   tau(  21) = (  0.6721860  0.5535330  0.2130940  )
        22           O   tau(  22) = (  0.8175190  0.0571510  0.6955470  )
        23           O   tau(  23) = (  0.6721870  0.9464730  0.2130960  )
        24           O   tau(  24) = (  0.1741600  0.5547400  0.2995790  )
        25           O   tau(  25) = (  0.3208140  0.4449240  0.7952090  )

     number of k points=   158  Marzari-Vanderbilt smearing, width (Ry)=  0.0073
                       cart. coord. in units 2pi/alat
        k(    1) = (   0.0000000   0.0000000   0.0000000), wk =   0.0031746
        k(    2) = (   0.0000000   0.0000000   0.2298378), wk =   0.0063492
        k(    3) = (   0.0000000   0.0000000   0.4596756), wk =   0.0063492
        k(    4) = (   0.0000000   0.0000000   0.6895134), wk =   0.0063492
        k(    5) = (   0.0000000   0.0000000   0.9193512), wk =   0.0063492
        k(    6) = (   0.0000000   0.2390555   0.0000000), wk =   0.0063492
        k(    7) = (   0.0000000   0.2390555   0.2298378), wk =   0.0063492
        k(    8) = (   0.0000000   0.2390555   0.4596756), wk =   0.0063492
        k(    9) = (   0.0000000   0.2390555   0.6895134), wk =   0.0063492
        k(   10) = (   0.0000000   0.2390555   0.9193512), wk =   0.0063492
        k(   11) = (   0.0000000   0.4781110   0.0000000), wk =   0.0063492
        k(   12) = (   0.0000000   0.4781110   0.2298378), wk =   0.0063492
        k(   13) = (   0.0000000   0.4781110   0.4596756), wk =   0.0063492
        k(   14) = (   0.0000000   0.4781110   0.6895134), wk =   0.0063492
        k(   15) = (   0.0000000   0.4781110   0.9193512), wk =   0.0063492
        k(   16) = (   0.0000000   0.7171664   0.0000000), wk =   0.0063492
        k(   17) = (   0.0000000   0.7171664   0.2298378), wk =   0.0063492
        k(   18) = (   0.0000000   0.7171664   0.4596756), wk =   0.0063492
        k(   19) = (   0.0000000   0.7171664   0.6895134), wk =   0.0063492
        k(   20) = (   0.0000000   0.7171664   0.9193512), wk =   0.0063492
        k(   21) = (   0.2000000   0.0000000   0.0000000), wk =   0.0063492
        k(   22) = (   0.2000000   0.0000000   0.2298378), wk =   0.0063492
        k(   23) = (   0.2000000   0.0000000   0.4596756), wk =   0.0063492
        k(   24) = (   0.2000000   0.0000000   0.6895134), wk =   0.0063492
        k(   25) = (   0.2000000   0.0000000   0.9193512), wk =   0.0063492
        k(   26) = (   0.2000000   0.2390555   0.0000000), wk =   0.0063492
        k(   27) = (   0.2000000   0.2390555   0.2298378), wk =   0.0063492
        k(   28) = (   0.2000000   0.2390555   0.4596756), wk =   0.0063492
        k(   29) = (   0.2000000   0.2390555   0.6895134), wk =   0.0063492
        k(   30) = (   0.2000000   0.2390555   0.9193512), wk =   0.0063492
        k(   31) = (   0.2000000   0.4781110   0.0000000), wk =   0.0063492
        k(   32) = (   0.2000000   0.4781110   0.2298378), wk =   0.0063492
        k(   33) = (   0.2000000   0.4781110   0.4596756), wk =   0.0063492
        k(   34) = (   0.2000000   0.4781110   0.6895134), wk =   0.0063492
        k(   35) = (   0.2000000   0.4781110   0.9193512), wk =   0.0063492
        k(   36) = (   0.2000000   0.7171664   0.0000000), wk =   0.0063492
        k(   37) = (   0.2000000   0.7171664   0.2298378), wk =   0.0063492
        k(   38) = (   0.2000000   0.7171664   0.4596756), wk =   0.0063492
        k(   39) = (   0.2000000   0.7171664   0.6895134), wk =   0.0063492
        k(   40) = (   0.2000000   0.7171664   0.9193512), wk =   0.0063492
        k(   41) = (   0.4000000   0.0000000   0.0000000), wk =   0.0063492
        k(   42) = (   0.4000000   0.0000000   0.2298378), wk =   0.0063492
        k(   43) = (   0.4000000   0.0000000   0.4596756), wk =   0.0063492
        k(   44) = (   0.4000000   0.0000000   0.6895134), wk =   0.0063492
        k(   45) = (   0.4000000   0.0000000   0.9193512), wk =   0.0063492
        k(   46) = (   0.4000000   0.2390555   0.0000000), wk =   0.0063492
        k(   47) = (   0.4000000   0.2390555   0.2298378), wk =   0.0063492
        k(   48) = (   0.4000000   0.2390555   0.4596756), wk =   0.0063492
        k(   49) = (   0.4000000   0.2390555   0.6895134), wk =   0.0063492
        k(   50) = (   0.4000000   0.2390555   0.9193512), wk =   0.0063492
        k(   51) = (   0.4000000   0.4781110   0.0000000), wk =   0.0063492
        k(   52) = (   0.4000000   0.4781110   0.2298378), wk =   0.0063492
        k(   53) = (   0.4000000   0.4781110   0.4596756), wk =   0.0063492
        k(   54) = (   0.4000000   0.4781110   0.6895134), wk =   0.0063492
        k(   55) = (   0.4000000   0.4781110   0.9193512), wk =   0.0063492
        k(   56) = (   0.4000000   0.7171664   0.0000000), wk =   0.0063492
        k(   57) = (   0.4000000   0.7171664   0.2298378), wk =   0.0063492
        k(   58) = (   0.4000000   0.7171664   0.4596756), wk =   0.0063492
        k(   59) = (   0.4000000   0.7171664   0.6895134), wk =   0.0063492
        k(   60) = (   0.4000000   0.7171664   0.9193512), wk =   0.0063492
        k(   61) = (   0.0000000  -0.2390555   0.2298378), wk =   0.0063492
        k(   62) = (   0.0000000  -0.2390555   0.4596756), wk =   0.0063492
        k(   63) = (   0.0000000  -0.2390555   0.6895134), wk =   0.0063492
        k(   64) = (   0.0000000  -0.2390555   0.9193512), wk =   0.0063492
        k(   65) = (   0.0000000  -0.4781110   0.2298378), wk =   0.0063492
        k(   66) = (   0.0000000  -0.4781110   0.4596756), wk =   0.0063492
        k(   67) = (   0.0000000  -0.4781110   0.6895134), wk =   0.0063492
        k(   68) = (   0.0000000  -0.4781110   0.9193512), wk =   0.0063492
        k(   69) = (   0.0000000  -0.7171664   0.2298378), wk =   0.0063492
        k(   70) = (   0.0000000  -0.7171664   0.4596756), wk =   0.0063492
        k(   71) = (   0.0000000  -0.7171664   0.6895134), wk =   0.0063492
        k(   72) = (   0.0000000  -0.7171664   0.9193512), wk =   0.0063492
        k(   73) = (  -0.2000000   0.0000000   0.2298378), wk =   0.0063492
        k(   74) = (  -0.2000000   0.0000000   0.4596756), wk =   0.0063492
        k(   75) = (  -0.2000000   0.0000000   0.6895134), wk =   0.0063492
        k(   76) = (  -0.2000000   0.0000000   0.9193512), wk =   0.0063492
        k(   77) = (  -0.2000000   0.2390555   0.0000000), wk =   0.0063492
        k(   78) = (  -0.2000000  -0.2390555   0.2298378), wk =   0.0063492
        k(   79) = (  -0.2000000   0.2390555  -0.2298378), wk =   0.0063492
        k(   80) = (   0.2000000  -0.2390555  -0.2298378), wk =   0.0063492
        k(   81) = (  -0.2000000  -0.2390555   0.4596756), wk =   0.0063492
        k(   82) = (  -0.2000000   0.2390555  -0.4596756), wk =   0.0063492
        k(   83) = (   0.2000000  -0.2390555  -0.4596756), wk =   0.0063492
        k(   84) = (  -0.2000000  -0.2390555   0.6895134), wk =   0.0063492
        k(   85) = (  -0.2000000   0.2390555  -0.6895134), wk =   0.0063492
        k(   86) = (   0.2000000  -0.2390555  -0.6895134), wk =   0.0063492
        k(   87) = (  -0.2000000  -0.2390555   0.9193512), wk =   0.0063492
        k(   88) = (  -0.2000000   0.2390555  -0.9193512), wk =   0.0063492
        k(   89) = (   0.2000000  -0.2390555  -0.9193512), wk =   0.0063492
        k(   90) = (  -0.2000000   0.4781110   0.0000000), wk =   0.0063492
        k(   91) = (  -0.2000000  -0.4781110   0.2298378), wk =   0.0063492
        k(   92) = (  -0.2000000   0.4781110  -0.2298378), wk =   0.0063492
        k(   93) = (   0.2000000  -0.4781110  -0.2298378), wk =   0.0063492
        k(   94) = (  -0.2000000  -0.4781110   0.4596756), wk =   0.0063492
        k(   95) = (  -0.2000000   0.4781110  -0.4596756), wk =   0.0063492
        k(   96) = (   0.2000000  -0.4781110  -0.4596756), wk =   0.0063492
        k(   97) = (  -0.2000000  -0.4781110   0.6895134), wk =   0.0063492
        k(   98) = (  -0.2000000   0.4781110  -0.6895134), wk =   0.0063492
        k(   99) = (   0.2000000  -0.4781110  -0.6895134), wk =   0.0063492
        k(  100) = (  -0.2000000  -0.4781110   0.9193512), wk =   0.0063492
        k(  101) = (  -0.2000000   0.4781110  -0.9193512), wk =   0.0063492
        k(  102) = (   0.2000000  -0.4781110  -0.9193512), wk =   0.0063492
        k(  103) = (  -0.2000000   0.7171664   0.0000000), wk =   0.0063492
        k(  104) = (  -0.2000000  -0.7171664   0.2298378), wk =   0.0063492
        k(  105) = (  -0.2000000   0.7171664  -0.2298378), wk =   0.0063492
        k(  106) = (   0.2000000  -0.7171664  -0.2298378), wk =   0.0063492
        k(  107) = (  -0.2000000  -0.7171664   0.4596756), wk =   0.0063492
        k(  108) = (  -0.2000000   0.7171664  -0.4596756), wk =   0.0063492
        k(  109) = (   0.2000000  -0.7171664  -0.4596756), wk =   0.0063492
        k(  110) = (  -0.2000000  -0.7171664   0.6895134), wk =   0.0063492
        k(  111) = (  -0.2000000   0.7171664  -0.6895134), wk =   0.0063492
        k(  112) = (   0.2000000  -0.7171664  -0.6895134), wk =   0.0063492
        k(  113) = (  -0.2000000  -0.7171664   0.9193512), wk =   0.0063492
        k(  114) = (  -0.2000000   0.7171664  -0.9193512), wk =   0.0063492
        k(  115) = (   0.2000000  -0.7171664  -0.9193512), wk =   0.0063492
        k(  116) = (  -0.4000000   0.0000000   0.2298378), wk =   0.0063492
        k(  117) = (  -0.4000000   0.0000000   0.4596756), wk =   0.0063492
        k(  118) = (  -0.4000000   0.0000000   0.6895134), wk =   0.0063492
        k(  119) = (  -0.4000000   0.0000000   0.9193512), wk =   0.0063492
        k(  120) = (  -0.4000000   0.2390555   0.0000000), wk =   0.0063492
        k(  121) = (  -0.4000000  -0.2390555   0.2298378), wk =   0.0063492
        k(  122) = (  -0.4000000   0.2390555  -0.2298378), wk =   0.0063492
        k(  123) = (   0.4000000  -0.2390555  -0.2298378), wk =   0.0063492
        k(  124) = (  -0.4000000  -0.2390555   0.4596756), wk =   0.0063492
        k(  125) = (  -0.4000000   0.2390555  -0.4596756), wk =   0.0063492
        k(  126) = (   0.4000000  -0.2390555  -0.4596756), wk =   0.0063492
        k(  127) = (  -0.4000000  -0.2390555   0.6895134), wk =   0.0063492
        k(  128) = (  -0.4000000   0.2390555  -0.6895134), wk =   0.0063492
        k(  129) = (   0.4000000  -0.2390555  -0.6895134), wk =   0.0063492
        k(  130) = (  -0.4000000  -0.2390555   0.9193512), wk =   0.0063492
        k(  131) = (  -0.4000000   0.2390555  -0.9193512), wk =   0.0063492
        k(  132) = (   0.4000000  -0.2390555  -0.9193512), wk =   0.0063492
        k(  133) = (  -0.4000000   0.4781110   0.0000000), wk =   0.0063492
        k(  134) = (  -0.4000000  -0.4781110   0.2298378), wk =   0.0063492
        k(  135) = (  -0.4000000   0.4781110  -0.2298378), wk =   0.0063492
        k(  136) = (   0.4000000  -0.4781110  -0.2298378), wk =   0.0063492
        k(  137) = (  -0.4000000  -0.4781110   0.4596756), wk =   0.0063492
        k(  138) = (  -0.4000000   0.4781110  -0.4596756), wk =   0.0063492
        k(  139) = (   0.4000000  -0.4781110  -0.4596756), wk =   0.0063492
        k(  140) = (  -0.4000000  -0.4781110   0.6895134), wk =   0.0063492
        k(  141) = (  -0.4000000   0.4781110  -0.6895134), wk =   0.0063492
        k(  142) = (   0.4000000  -0.4781110  -0.6895134), wk =   0.0063492
        k(  143) = (  -0.4000000  -0.4781110   0.9193512), wk =   0.0063492
        k(  144) = (  -0.4000000   0.4781110  -0.9193512), wk =   0.0063492
        k(  145) = (   0.4000000  -0.4781110  -0.9193512), wk =   0.0063492
        k(  146) = (  -0.4000000   0.7171664   0.0000000), wk =   0.0063492
        k(  147) = (  -0.4000000  -0.7171664   0.2298378), wk =   0.0063492
        k(  148) = (  -0.4000000   0.7171664  -0.2298378), wk =   0.0063492
        k(  149) = (   0.4000000  -0.7171664  -0.2298378), wk =   0.0063492
        k(  150) = (  -0.4000000  -0.7171664   0.4596756), wk =   0.0063492
        k(  151) = (  -0.4000000   0.7171664  -0.4596756), wk =   0.0063492
        k(  152) = (   0.4000000  -0.7171664  -0.4596756), wk =   0.0063492
        k(  153) = (  -0.4000000  -0.7171664   0.6895134), wk =   0.0063492
        k(  154) = (  -0.4000000   0.7171664  -0.6895134), wk =   0.0063492
        k(  155) = (   0.4000000  -0.7171664  -0.6895134), wk =   0.0063492
        k(  156) = (  -0.4000000  -0.7171664   0.9193512), wk =   0.0063492
        k(  157) = (  -0.4000000   0.7171664  -0.9193512), wk =   0.0063492
        k(  158) = (   0.4000000  -0.7171664  -0.9193512), wk =   0.0063492

                       cryst. coord.
        k(    1) = (   0.0000000   0.0000000   0.0000000), wk =   0.0031746
        k(    2) = (   0.0000000   0.0000000   0.1111111), wk =   0.0063492
        k(    3) = (   0.0000000   0.0000000   0.2222222), wk =   0.0063492
        k(    4) = (   0.0000000   0.0000000   0.3333333), wk =   0.0063492
        k(    5) = (   0.0000000   0.0000000   0.4444444), wk =   0.0063492
        k(    6) = (   0.0000000   0.1428571   0.0000000), wk =   0.0063492
        k(    7) = (   0.0000000   0.1428571   0.1111111), wk =   0.0063492
        k(    8) = (   0.0000000   0.1428571   0.2222222), wk =   0.0063492
        k(    9) = (   0.0000000   0.1428571   0.3333333), wk =   0.0063492
        k(   10) = (   0.0000000   0.1428571   0.4444444), wk =   0.0063492
        k(   11) = (   0.0000000   0.2857143   0.0000000), wk =   0.0063492
        k(   12) = (   0.0000000   0.2857143   0.1111111), wk =   0.0063492
        k(   13) = (   0.0000000   0.2857143   0.2222222), wk =   0.0063492
        k(   14) = (   0.0000000   0.2857143   0.3333333), wk =   0.0063492
        k(   15) = (   0.0000000   0.2857143   0.4444444), wk =   0.0063492
        k(   16) = (   0.0000000   0.4285714   0.0000000), wk =   0.0063492
        k(   17) = (   0.0000000   0.4285714   0.1111111), wk =   0.0063492
        k(   18) = (   0.0000000   0.4285714   0.2222222), wk =   0.0063492
        k(   19) = (   0.0000000   0.4285714   0.3333333), wk =   0.0063492
        k(   20) = (   0.0000000   0.4285714   0.4444444), wk =   0.0063492
        k(   21) = (   0.2000000   0.0000000   0.0000000), wk =   0.0063492
        k(   22) = (   0.2000000   0.0000000   0.1111111), wk =   0.0063492
        k(   23) = (   0.2000000   0.0000000   0.2222222), wk =   0.0063492
        k(   24) = (   0.2000000   0.0000000   0.3333333), wk =   0.0063492
        k(   25) = (   0.2000000   0.0000000   0.4444444), wk =   0.0063492
        k(   26) = (   0.2000000   0.1428571   0.0000000), wk =   0.0063492
        k(   27) = (   0.2000000   0.1428571   0.1111111), wk =   0.0063492
        k(   28) = (   0.2000000   0.1428571   0.2222222), wk =   0.0063492
        k(   29) = (   0.2000000   0.1428571   0.3333333), wk =   0.0063492
        k(   30) = (   0.2000000   0.1428571   0.4444444), wk =   0.0063492
        k(   31) = (   0.2000000   0.2857143   0.0000000), wk =   0.0063492
        k(   32) = (   0.2000000   0.2857143   0.1111111), wk =   0.0063492
        k(   33) = (   0.2000000   0.2857143   0.2222222), wk =   0.0063492
        k(   34) = (   0.2000000   0.2857143   0.3333333), wk =   0.0063492
        k(   35) = (   0.2000000   0.2857143   0.4444444), wk =   0.0063492
        k(   36) = (   0.2000000   0.4285714   0.0000000), wk =   0.0063492
        k(   37) = (   0.2000000   0.4285714   0.1111111), wk =   0.0063492
        k(   38) = (   0.2000000   0.4285714   0.2222222), wk =   0.0063492
        k(   39) = (   0.2000000   0.4285714   0.3333333), wk =   0.0063492
        k(   40) = (   0.2000000   0.4285714   0.4444444), wk =   0.0063492
        k(   41) = (   0.4000000   0.0000000   0.0000000), wk =   0.0063492
        k(   42) = (   0.4000000   0.0000000   0.1111111), wk =   0.0063492
        k(   43) = (   0.4000000   0.0000000   0.2222222), wk =   0.0063492
        k(   44) = (   0.4000000   0.0000000   0.3333333), wk =   0.0063492
        k(   45) = (   0.4000000   0.0000000   0.4444444), wk =   0.0063492
        k(   46) = (   0.4000000   0.1428571   0.0000000), wk =   0.0063492
        k(   47) = (   0.4000000   0.1428571   0.1111111), wk =   0.0063492
        k(   48) = (   0.4000000   0.1428571   0.2222222), wk =   0.0063492
        k(   49) = (   0.4000000   0.1428571   0.3333333), wk =   0.0063492
        k(   50) = (   0.4000000   0.1428571   0.4444444), wk =   0.0063492
        k(   51) = (   0.4000000   0.2857143   0.0000000), wk =   0.0063492
        k(   52) = (   0.4000000   0.2857143   0.1111111), wk =   0.0063492
        k(   53) = (   0.4000000   0.2857143   0.2222222), wk =   0.0063492
        k(   54) = (   0.4000000   0.2857143   0.3333333), wk =   0.0063492
        k(   55) = (   0.4000000   0.2857143   0.4444444), wk =   0.0063492
        k(   56) = (   0.4000000   0.4285714   0.0000000), wk =   0.0063492
        k(   57) = (   0.4000000   0.4285714   0.1111111), wk =   0.0063492
        k(   58) = (   0.4000000   0.4285714   0.2222222), wk =   0.0063492
        k(   59) = (   0.4000000   0.4285714   0.3333333), wk =   0.0063492
        k(   60) = (   0.4000000   0.4285714   0.4444444), wk =   0.0063492
        k(   61) = (   0.0000000  -0.1428571   0.1111111), wk =   0.0063492
        k(   62) = (   0.0000000  -0.1428571   0.2222222), wk =   0.0063492
        k(   63) = (   0.0000000  -0.1428571   0.3333333), wk =   0.0063492
        k(   64) = (   0.0000000  -0.1428571   0.4444444), wk =   0.0063492
        k(   65) = (   0.0000000  -0.2857143   0.1111111), wk =   0.0063492
        k(   66) = (   0.0000000  -0.2857143   0.2222222), wk =   0.0063492
        k(   67) = (   0.0000000  -0.2857143   0.3333333), wk =   0.0063492
        k(   68) = (   0.0000000  -0.2857143   0.4444444), wk =   0.0063492
        k(   69) = (   0.0000000  -0.4285714   0.1111111), wk =   0.0063492
        k(   70) = (   0.0000000  -0.4285714   0.2222222), wk =   0.0063492
        k(   71) = (   0.0000000  -0.4285714   0.3333333), wk =   0.0063492
        k(   72) = (   0.0000000  -0.4285714   0.4444444), wk =   0.0063492
        k(   73) = (  -0.2000000   0.0000000   0.1111111), wk =   0.0063492
        k(   74) = (  -0.2000000   0.0000000   0.2222222), wk =   0.0063492
        k(   75) = (  -0.2000000   0.0000000   0.3333333), wk =   0.0063492
        k(   76) = (  -0.2000000   0.0000000   0.4444444), wk =   0.0063492
        k(   77) = (  -0.2000000   0.1428571   0.0000000), wk =   0.0063492
        k(   78) = (  -0.2000000  -0.1428571   0.1111111), wk =   0.0063492
        k(   79) = (  -0.2000000   0.1428571  -0.1111111), wk =   0.0063492
        k(   80) = (   0.2000000  -0.1428571  -0.1111111), wk =   0.0063492
        k(   81) = (  -0.2000000  -0.1428571   0.2222222), wk =   0.0063492
        k(   82) = (  -0.2000000   0.1428571  -0.2222222), wk =   0.0063492
        k(   83) = (   0.2000000  -0.1428571  -0.2222222), wk =   0.0063492
        k(   84) = (  -0.2000000  -0.1428571   0.3333333), wk =   0.0063492
        k(   85) = (  -0.2000000   0.1428571  -0.3333333), wk =   0.0063492
        k(   86) = (   0.2000000  -0.1428571  -0.3333333), wk =   0.0063492
        k(   87) = (  -0.2000000  -0.1428571   0.4444444), wk =   0.0063492
        k(   88) = (  -0.2000000   0.1428571  -0.4444444), wk =   0.0063492
        k(   89) = (   0.2000000  -0.1428571  -0.4444444), wk =   0.0063492
        k(   90) = (  -0.2000000   0.2857143   0.0000000), wk =   0.0063492
        k(   91) = (  -0.2000000  -0.2857143   0.1111111), wk =   0.0063492
        k(   92) = (  -0.2000000   0.2857143  -0.1111111), wk =   0.0063492
        k(   93) = (   0.2000000  -0.2857143  -0.1111111), wk =   0.0063492
        k(   94) = (  -0.2000000  -0.2857143   0.2222222), wk =   0.0063492
        k(   95) = (  -0.2000000   0.2857143  -0.2222222), wk =   0.0063492
        k(   96) = (   0.2000000  -0.2857143  -0.2222222), wk =   0.0063492
        k(   97) = (  -0.2000000  -0.2857143   0.3333333), wk =   0.0063492
        k(   98) = (  -0.2000000   0.2857143  -0.3333333), wk =   0.0063492
        k(   99) = (   0.2000000  -0.2857143  -0.3333333), wk =   0.0063492
        k(  100) = (  -0.2000000  -0.2857143   0.4444444), wk =   0.0063492
        k(  101) = (  -0.2000000   0.2857143  -0.4444444), wk =   0.0063492
        k(  102) = (   0.2000000  -0.2857143  -0.4444444), wk =   0.0063492
        k(  103) = (  -0.2000000   0.4285714   0.0000000), wk =   0.0063492
        k(  104) = (  -0.2000000  -0.4285714   0.1111111), wk =   0.0063492
        k(  105) = (  -0.2000000   0.4285714  -0.1111111), wk =   0.0063492
        k(  106) = (   0.2000000  -0.4285714  -0.1111111), wk =   0.0063492
        k(  107) = (  -0.2000000  -0.4285714   0.2222222), wk =   0.0063492
        k(  108) = (  -0.2000000   0.4285714  -0.2222222), wk =   0.0063492
        k(  109) = (   0.2000000  -0.4285714  -0.2222222), wk =   0.0063492
        k(  110) = (  -0.2000000  -0.4285714   0.3333333), wk =   0.0063492
        k(  111) = (  -0.2000000   0.4285714  -0.3333333), wk =   0.0063492
        k(  112) = (   0.2000000  -0.4285714  -0.3333333), wk =   0.0063492
        k(  113) = (  -0.2000000  -0.4285714   0.4444444), wk =   0.0063492
        k(  114) = (  -0.2000000   0.4285714  -0.4444444), wk =   0.0063492
        k(  115) = (   0.2000000  -0.4285714  -0.4444444), wk =   0.0063492
        k(  116) = (  -0.4000000   0.0000000   0.1111111), wk =   0.0063492
        k(  117) = (  -0.4000000   0.0000000   0.2222222), wk =   0.0063492
        k(  118) = (  -0.4000000   0.0000000   0.3333333), wk =   0.0063492
        k(  119) = (  -0.4000000   0.0000000   0.4444444), wk =   0.0063492
        k(  120) = (  -0.4000000   0.1428571   0.0000000), wk =   0.0063492
        k(  121) = (  -0.4000000  -0.1428571   0.1111111), wk =   0.0063492
        k(  122) = (  -0.4000000   0.1428571  -0.1111111), wk =   0.0063492
        k(  123) = (   0.4000000  -0.1428571  -0.1111111), wk =   0.0063492
        k(  124) = (  -0.4000000  -0.1428571   0.2222222), wk =   0.0063492
        k(  125) = (  -0.4000000   0.1428571  -0.2222222), wk =   0.0063492
        k(  126) = (   0.4000000  -0.1428571  -0.2222222), wk =   0.0063492
        k(  127) = (  -0.4000000  -0.1428571   0.3333333), wk =   0.0063492
        k(  128) = (  -0.4000000   0.1428571  -0.3333333), wk =   0.0063492
        k(  129) = (   0.4000000  -0.1428571  -0.3333333), wk =   0.0063492
        k(  130) = (  -0.4000000  -0.1428571   0.4444444), wk =   0.0063492
        k(  131) = (  -0.4000000   0.1428571  -0.4444444), wk =   0.0063492
        k(  132) = (   0.4000000  -0.1428571  -0.4444444), wk =   0.0063492
        k(  133) = (  -0.4000000   0.2857143   0.0000000), wk =   0.0063492
        k(  134) = (  -0.4000000  -0.2857143   0.1111111), wk =   0.0063492
        k(  135) = (  -0.4000000   0.2857143  -0.1111111), wk =   0.0063492
        k(  136) = (   0.4000000  -0.2857143  -0.1111111), wk =   0.0063492
        k(  137) = (  -0.4000000  -0.2857143   0.2222222), wk =   0.0063492
        k(  138) = (  -0.4000000   0.2857143  -0.2222222), wk =   0.0063492
        k(  139) = (   0.4000000  -0.2857143  -0.2222222), wk =   0.0063492
        k(  140) = (  -0.4000000  -0.2857143   0.3333333), wk =   0.0063492
        k(  141) = (  -0.4000000   0.2857143  -0.3333333), wk =   0.0063492
        k(  142) = (   0.4000000  -0.2857143  -0.3333333), wk =   0.0063492
        k(  143) = (  -0.4000000  -0.2857143   0.4444444), wk =   0.0063492
        k(  144) = (  -0.4000000   0.2857143  -0.4444444), wk =   0.0063492
        k(  145) = (   0.4000000  -0.2857143  -0.4444444), wk =   0.0063492
        k(  146) = (  -0.4000000   0.4285714   0.0000000), wk =   0.0063492
        k(  147) = (  -0.4000000  -0.4285714   0.1111111), wk =   0.0063492
        k(  148) = (  -0.4000000   0.4285714  -0.1111111), wk =   0.0063492
        k(  149) = (   0.4000000  -0.4285714  -0.1111111), wk =   0.0063492
        k(  150) = (  -0.4000000  -0.4285714   0.2222222), wk =   0.0063492
        k(  151) = (  -0.4000000   0.4285714  -0.2222222), wk =   0.0063492
        k(  152) = (   0.4000000  -0.4285714  -0.2222222), wk =   0.0063492
        k(  153) = (  -0.4000000  -0.4285714   0.3333333), wk =   0.0063492
        k(  154) = (  -0.4000000   0.4285714  -0.3333333), wk =   0.0063492
        k(  155) = (   0.4000000  -0.4285714  -0.3333333), wk =   0.0063492
        k(  156) = (  -0.4000000  -0.4285714   0.4444444), wk =   0.0063492
        k(  157) = (  -0.4000000   0.4285714  -0.4444444), wk =   0.0063492
        k(  158) = (   0.4000000  -0.4285714  -0.4444444), wk =   0.0063492

     Dense  grid:  1252071 G-vectors     FFT dimensions: ( 216, 125, 100)

     Smooth grid:   282325 G-vectors     FFT dimensions: ( 125,  75,  60)

     Dynamical RAM for                 wfc:       2.56 MB

     Dynamical RAM for     wfc (w. buffer):     810.04 MB

     Dynamical RAM for           str. fact:       3.18 MB

     Dynamical RAM for           local pot:       0.00 MB

     Dynamical RAM for          nlocal pot:       6.28 MB

     Dynamical RAM for                qrad:      10.54 MB

     Dynamical RAM for          rho,v,vnew:      10.96 MB

     Dynamical RAM for               rhoin:       3.65 MB

     Dynamical RAM for            rho*nmix:      25.47 MB

     Dynamical RAM for           G-vectors:       3.07 MB

     Dynamical RAM for          h,s,v(r/c):       2.38 MB

     Dynamical RAM for          <psi|beta>:       0.49 MB

     Dynamical RAM for                 psi:       5.11 MB

     Dynamical RAM for                hpsi:       5.11 MB

     Dynamical RAM for                spsi:       5.11 MB

     Dynamical RAM for      wfcinit/wfcrot:       6.57 MB

     Dynamical RAM for           addusdens:     161.60 MB

     Dynamical RAM for          addusforce:     185.61 MB

     Dynamical RAM for         addusstress:     161.20 MB

     Estimated static dynamical RAM per process >     883.36 MB

     Estimated max dynamical RAM per process >       1.04 GB

     Estimated total dynamical RAM >      25.05 GB

     Check: negative core charge=   -0.000003
     Generating pointlists ...
     new r_m :   0.0765 (alat units)  1.4785 (a.u.) for type    1
     new r_m :   0.0893 (alat units)  1.7264 (a.u.) for type    2
     new r_m :   0.0610 (alat units)  1.1799 (a.u.) for type    3
     new r_m :   0.0610 (alat units)  1.1799 (a.u.) for type    4

     Initial potential from superposition of free atoms

     starting charge  188.99132, renormalised to  189.00000
     Starting wfcs are  137 randomized atomic wfcs
     Checking if some PAW data can be deallocated... 
       PAW data deallocated on   20 nodes for type:  1
       PAW data deallocated on    8 nodes for type:  3

     total cpu time spent up to now is      188.8 secs

     Self-consistent Calculation

     iteration #  1     ecut=   100.00 Ry     beta= 0.40
     Davidson diagonalization with overlap
     ethr =  1.00E-02,  avg # of iterations =  3.0

     negative rho (up, down):  0.000E+00 9.608E-05

     total cpu time spent up to now is      890.7 secs

     total energy              =   -2123.91880743 Ry
     estimated scf accuracy    <       6.97622991 Ry

     total magnetization       =    19.00 Bohr mag/cell
     absolute magnetization    =    19.00 Bohr mag/cell

     iteration #  2     ecut=   100.00 Ry     beta= 0.40
     Davidson diagonalization with overlap
     ethr =  3.69E-03,  avg # of iterations =  2.0

     negative rho (up, down):  0.000E+00 4.344E-05

     total cpu time spent up to now is     1436.4 secs

     total energy              =   -2120.64450747 Ry
     estimated scf accuracy    <      46.94298843 Ry

     total magnetization       =     6.94 Bohr mag/cell
     absolute magnetization    =     8.29 Bohr mag/cell

     iteration #  3     ecut=   100.00 Ry     beta= 0.40
     Davidson diagonalization with overlap
     ethr =  3.69E-03,  avg # of iterations =  2.9

     negative rho (up, down):  0.000E+00 2.875E-05

     total cpu time spent up to now is     1922.1 secs

     total energy              =   -2123.47284024 Ry
     estimated scf accuracy    <      58.18789056 Ry

     total magnetization       =     3.65 Bohr mag/cell
     absolute magnetization    =     7.76 Bohr mag/cell

     iteration #  4     ecut=   100.00 Ry     beta= 0.40
     Davidson diagonalization with overlap
     ethr =  3.69E-03,  avg # of iterations =  1.6

     negative rho (up, down):  0.000E+00 2.146E-05

     total cpu time spent up to now is     2345.1 secs

     total energy              =   -2124.61510618 Ry
     estimated scf accuracy    <      29.31690608 Ry

     total magnetization       =     9.00 Bohr mag/cell
     absolute magnetization    =     9.33 Bohr mag/cell

     iteration #  5     ecut=   100.00 Ry     beta= 0.40
     Davidson diagonalization with overlap
     ethr =  3.69E-03,  avg # of iterations =  2.0

     negative rho (up, down):  0.000E+00 1.172E-04

     total cpu time spent up to now is     2802.4 secs

     total energy              =   -2125.99730996 Ry
     estimated scf accuracy    <       1.77715970 Ry

     total magnetization       =    19.00 Bohr mag/cell
     absolute magnetization    =    19.00 Bohr mag/cell

     iteration #  6     ecut=   100.00 Ry     beta= 0.40
     Davidson diagonalization with overlap
     ethr =  9.40E-04,  avg # of iterations =  2.0

     negative rho (up, down):  0.000E+00 2.265E-04

     total cpu time spent up to now is     3316.9 secs

     total energy              =   -2126.09478078 Ry
     estimated scf accuracy    <       0.57600697 Ry

     total magnetization       =    19.00 Bohr mag/cell
     absolute magnetization    =    19.00 Bohr mag/cell

     iteration #  7     ecut=   100.00 Ry     beta= 0.40
     Davidson diagonalization with overlap
     ethr =  3.05E-04,  avg # of iterations =  2.2

     negative rho (up, down):  0.000E+00 3.797E-04

     total cpu time spent up to now is     3753.7 secs

     total energy              =   -2126.10205798 Ry
     estimated scf accuracy    <       0.21914394 Ry

     total magnetization       =    19.00 Bohr mag/cell
     absolute magnetization    =    19.00 Bohr mag/cell

     iteration #  8     ecut=   100.00 Ry     beta= 0.40
     Davidson diagonalization with overlap
     c_bands:  1 eigenvalues not converged
     c_bands:  1 eigenvalues not converged
     c_bands:  1 eigenvalues not converged
     ethr =  1.16E-04,  avg # of iterations = 11.1

     negative rho (up, down):  0.000E+00 5.366E-04

     total cpu time spent up to now is     4462.9 secs

     total energy              =   -2126.09466515 Ry
     estimated scf accuracy    <       0.33495898 Ry

     total magnetization       =    19.00 Bohr mag/cell
     absolute magnetization    =    19.01 Bohr mag/cell

     iteration #  9     ecut=   100.00 Ry     beta= 0.40
     Davidson diagonalization with overlap
     ethr =  1.16E-04,  avg # of iterations =  1.5

     negative rho (up, down):  0.000E+00 7.306E-04

     total cpu time spent up to now is     4873.5 secs

     total energy              =   -2126.11853277 Ry
     estimated scf accuracy    <       0.08250513 Ry

     total magnetization       =    19.00 Bohr mag/cell
     absolute magnetization    =    19.01 Bohr mag/cell

     iteration # 10     ecut=   100.00 Ry     beta= 0.40
     Davidson diagonalization with overlap
     c_bands:  1 eigenvalues not converged
     c_bands:  1 eigenvalues not converged
     c_bands:  1 eigenvalues not converged
     c_bands:  1 eigenvalues not converged
     c_bands:  3 eigenvalues not converged
     ethr =  4.37E-05,  avg # of iterations =  5.3

     negative rho (up, down):  0.000E+00 9.099E-04

     total cpu time spent up to now is     5482.2 secs

     total energy              =   -2126.12456940 Ry
     estimated scf accuracy    <       0.00890873 Ry

     total magnetization       =    19.00 Bohr mag/cell
     absolute magnetization    =    19.02 Bohr mag/cell

     iteration # 11     ecut=   100.00 Ry     beta= 0.40
     Davidson diagonalization with overlap
     c_bands:  1 eigenvalues not converged
     c_bands:  1 eigenvalues not converged
     c_bands:  1 eigenvalues not converged
     c_bands:  1 eigenvalues not converged
     c_bands:  1 eigenvalues not converged
     c_bands:  1 eigenvalues not converged
     c_bands:  1 eigenvalues not converged
     c_bands:  1 eigenvalues not converged
     c_bands:  1 eigenvalues not converged
     c_bands:  1 eigenvalues not converged
     c_bands:  1 eigenvalues not converged
     c_bands:  1 eigenvalues not converged
     c_bands:  1 eigenvalues not converged
     c_bands:  1 eigenvalues not converged
     c_bands:  1 eigenvalues not converged
     c_bands:  2 eigenvalues not converged
     c_bands:  1 eigenvalues not converged
     c_bands:  1 eigenvalues not converged
     c_bands:  1 eigenvalues not converged
     c_bands:  1 eigenvalues not converged
     c_bands:  1 eigenvalues not converged
     c_bands:  1 eigenvalues not converged
     c_bands:  1 eigenvalues not converged
     c_bands:  1 eigenvalues not converged
     c_bands:  2 eigenvalues not converged
     c_bands:  1 eigenvalues not converged
     c_bands:  1 eigenvalues not converged
     c_bands:  1 eigenvalues not converged
     c_bands:  1 eigenvalues not converged
     c_bands:  1 eigenvalues not converged
     c_bands:  1 eigenvalues not converged
     c_bands:  1 eigenvalues not converged
     c_bands:  1 eigenvalues not converged
     c_bands:  1 eigenvalues not converged
     c_bands:  1 eigenvalues not converged
     c_bands:  1 eigenvalues not converged
     c_bands:  1 eigenvalues not converged
     c_bands:  1 eigenvalues not converged
     c_bands:  1 eigenvalues not converged
     c_bands:  1 eigenvalues not converged
     c_bands:  2 eigenvalues not converged
     c_bands:  3 eigenvalues not converged
     c_bands:  1 eigenvalues not converged
     c_bands:  1 eigenvalues not converged
     c_bands:  1 eigenvalues not converged
     c_bands:  1 eigenvalues not converged
     c_bands:  1 eigenvalues not converged
     c_bands:  2 eigenvalues not converged
     c_bands:  1 eigenvalues not converged
     c_bands:  2 eigenvalues not converged
     c_bands:  1 eigenvalues not converged
     c_bands:  1 eigenvalues not converged
     c_bands:  1 eigenvalues not converged
     c_bands:  1 eigenvalues not converged
     c_bands:  1 eigenvalues not converged
     c_bands:  1 eigenvalues not converged
     c_bands:  1 eigenvalues not converged
     c_bands:  1 eigenvalues not converged
     c_bands:  1 eigenvalues not converged
     c_bands:  1 eigenvalues not converged
     ethr =  4.71E-06,  avg # of iterations = 15.0

     negative rho (up, down):  0.000E+00 9.308E-04

     total cpu time spent up to now is     6592.6 secs

     total energy              =   -2126.12732781 Ry
     estimated scf accuracy    <       0.04427175 Ry

     total magnetization       =    19.00 Bohr mag/cell
     absolute magnetization    =    19.03 Bohr mag/cell

     iteration # 12     ecut=   100.00 Ry     beta= 0.40
     Davidson diagonalization with overlap
     c_bands:  1 eigenvalues not converged
     c_bands:  1 eigenvalues not converged
     ethr =  4.71E-06,  avg # of iterations =  1.4

     negative rho (up, down):  0.000E+00 9.443E-04

     total cpu time spent up to now is     6988.9 secs

     total energy              =   -2126.12751231 Ry
     estimated scf accuracy    <       0.00448929 Ry

     total magnetization       =    19.00 Bohr mag/cell
     absolute magnetization    =    19.04 Bohr mag/cell

     iteration # 13     ecut=   100.00 Ry     beta= 0.40
     Davidson diagonalization with overlap
     ethr =  2.38E-06,  avg # of iterations =  1.6

     negative rho (up, down):  0.000E+00 9.444E-04

     total cpu time spent up to now is     7398.2 secs

     total energy              =   -2126.12792342 Ry
     estimated scf accuracy    <       0.00576658 Ry

     total magnetization       =    19.00 Bohr mag/cell
     absolute magnetization    =    19.04 Bohr mag/cell

     iteration # 14     ecut=   100.00 Ry     beta= 0.40
     Davidson diagonalization with overlap
     ethr =  2.38E-06,  avg # of iterations =  1.0

     negative rho (up, down):  0.000E+00 9.449E-04

     total cpu time spent up to now is     7925.8 secs

     total energy              =   -2126.12787828 Ry
     estimated scf accuracy    <       0.00861010 Ry

     total magnetization       =    19.00 Bohr mag/cell
     absolute magnetization    =    19.04 Bohr mag/cell

     iteration # 15     ecut=   100.00 Ry     beta= 0.40
     Davidson diagonalization with overlap
     ethr =  2.38E-06,  avg # of iterations =  1.0

     negative rho (up, down):  0.000E+00 9.481E-04

     total cpu time spent up to now is     8597.1 secs

     total energy              =   -2126.12796161 Ry
     estimated scf accuracy    <       0.00074823 Ry

     total magnetization       =    19.00 Bohr mag/cell
     absolute magnetization    =    19.04 Bohr mag/cell

     iteration # 16     ecut=   100.00 Ry     beta= 0.40
     Davidson diagonalization with overlap
     ethr =  3.96E-07,  avg # of iterations =  1.1

     negative rho (up, down):  0.000E+00 9.424E-04

     total cpu time spent up to now is     8987.9 secs

     total energy              =   -2126.12798495 Ry
     estimated scf accuracy    <       0.00008468 Ry

     total magnetization       =    19.00 Bohr mag/cell
     absolute magnetization    =    19.05 Bohr mag/cell

     iteration # 17     ecut=   100.00 Ry     beta= 0.40
     Davidson diagonalization with overlap
     ethr =  4.48E-08,  avg # of iterations =  4.0

     negative rho (up, down):  0.000E+00 9.388E-04

     total cpu time spent up to now is     9625.7 secs

     total energy              =   -2126.12800462 Ry
     estimated scf accuracy    <       0.00001566 Ry

     total magnetization       =    19.00 Bohr mag/cell
     absolute magnetization    =    19.05 Bohr mag/cell

     iteration # 18     ecut=   100.00 Ry     beta= 0.40
     Davidson diagonalization with overlap
     ethr =  8.28E-09,  avg # of iterations =  3.3

     negative rho (up, down):  0.000E+00 9.398E-04

     total cpu time spent up to now is    10345.4 secs

     total energy              =   -2126.12800864 Ry
     estimated scf accuracy    <       0.00001596 Ry

     total magnetization       =    19.00 Bohr mag/cell
     absolute magnetization    =    19.05 Bohr mag/cell

     iteration # 19     ecut=   100.00 Ry     beta= 0.40
     Davidson diagonalization with overlap
     ethr =  8.28E-09,  avg # of iterations =  1.0

     negative rho (up, down):  0.000E+00 9.380E-04

     total cpu time spent up to now is    10920.8 secs

     total energy              =   -2126.12800974 Ry
     estimated scf accuracy    <       0.00001249 Ry

     total magnetization       =    19.00 Bohr mag/cell
     absolute magnetization    =    19.05 Bohr mag/cell

     iteration # 20     ecut=   100.00 Ry     beta= 0.40
     Davidson diagonalization with overlap
     ethr =  6.61E-09,  avg # of iterations =  1.2

     negative rho (up, down):  0.000E+00 9.384E-04

     total cpu time spent up to now is    11322.3 secs

     total energy              =   -2126.12801099 Ry
     estimated scf accuracy    <       0.00000305 Ry

     total magnetization       =    19.00 Bohr mag/cell
     absolute magnetization    =    19.05 Bohr mag/cell

     iteration # 21     ecut=   100.00 Ry     beta= 0.40
     Davidson diagonalization with overlap
     ethr =  1.61E-09,  avg # of iterations =  1.6

     negative rho (up, down):  0.000E+00 9.383E-04

     total cpu time spent up to now is    11849.1 secs

     total energy              =   -2126.12801120 Ry
     estimated scf accuracy    <       0.00000361 Ry

     total magnetization       =    19.00 Bohr mag/cell
     absolute magnetization    =    19.05 Bohr mag/cell

     iteration # 22     ecut=   100.00 Ry     beta= 0.40
     Davidson diagonalization with overlap
     ethr =  1.61E-09,  avg # of iterations =  1.1

     negative rho (up, down):  0.000E+00 9.386E-04

     total cpu time spent up to now is    12238.9 secs

     total energy              =   -2126.12801142 Ry
     estimated scf accuracy    <       0.00000029 Ry

     total magnetization       =    19.00 Bohr mag/cell
     absolute magnetization    =    19.05 Bohr mag/cell

     iteration # 23     ecut=   100.00 Ry     beta= 0.40
     Davidson diagonalization with overlap
     ethr =  1.55E-10,  avg # of iterations =  3.4

     negative rho (up, down):  0.000E+00 9.387E-04

     total cpu time spent up to now is    13202.1 secs

     total energy              =   -2126.12801151 Ry
     estimated scf accuracy    <       0.00000012 Ry

     total magnetization       =    19.00 Bohr mag/cell
     absolute magnetization    =    19.05 Bohr mag/cell

     iteration # 24     ecut=   100.00 Ry     beta= 0.40
     Davidson diagonalization with overlap
     ethr =  6.60E-11,  avg # of iterations =  2.2

     negative rho (up, down):  0.000E+00 9.387E-04

     total cpu time spent up to now is    13702.2 secs

     total energy              =   -2126.12801152 Ry
     estimated scf accuracy    <       0.00000007 Ry

     total magnetization       =    19.00 Bohr mag/cell
     absolute magnetization    =    19.05 Bohr mag/cell

     iteration # 25     ecut=   100.00 Ry     beta= 0.40
     Davidson diagonalization with overlap
     ethr =  3.75E-11,  avg # of iterations =  1.9

     negative rho (up, down):  0.000E+00 9.387E-04

     total cpu time spent up to now is    14605.2 secs

     total energy              =   -2126.12801153 Ry
     estimated scf accuracy    <       0.00000006 Ry

     total magnetization       =    19.00 Bohr mag/cell
     absolute magnetization    =    19.05 Bohr mag/cell

     iteration # 26     ecut=   100.00 Ry     beta= 0.40
     Davidson diagonalization with overlap
     ethr =  3.18E-11,  avg # of iterations =  1.1

     negative rho (up, down):  0.000E+00 9.387E-04

     total cpu time spent up to now is    14995.4 secs

     total energy              =   -2126.12801154 Ry
     estimated scf accuracy    <       0.00000003 Ry

     total magnetization       =    19.00 Bohr mag/cell
     absolute magnetization    =    19.05 Bohr mag/cell

     iteration # 27     ecut=   100.00 Ry     beta= 0.40
     Davidson diagonalization with overlap
     ethr =  1.59E-11,  avg # of iterations =  2.0

     negative rho (up, down):  0.000E+00 9.387E-04

     total cpu time spent up to now is    15438.4 secs

     total energy              =   -2126.12801154 Ry
     estimated scf accuracy    <          4.9E-09 Ry

     total magnetization       =    19.00 Bohr mag/cell
     absolute magnetization    =    19.05 Bohr mag/cell

     iteration # 28     ecut=   100.00 Ry     beta= 0.40
     Davidson diagonalization with overlap
     ethr =  2.60E-12,  avg # of iterations =  4.3

     negative rho (up, down):  0.000E+00 9.387E-04

     total cpu time spent up to now is    16079.2 secs

     total energy              =   -2126.12801154 Ry
     estimated scf accuracy    <          3.5E-09 Ry

     total magnetization       =    19.00 Bohr mag/cell
     absolute magnetization    =    19.05 Bohr mag/cell

     iteration # 29     ecut=   100.00 Ry     beta= 0.40
     Davidson diagonalization with overlap
     ethr =  1.84E-12,  avg # of iterations =  2.0

     negative rho (up, down):  0.000E+00 9.387E-04

     total cpu time spent up to now is    16549.9 secs

     total energy              =   -2126.12801154 Ry
     estimated scf accuracy    <          1.4E-09 Ry

     total magnetization       =    19.00 Bohr mag/cell
     absolute magnetization    =    19.05 Bohr mag/cell

     iteration # 30     ecut=   100.00 Ry     beta= 0.40
     Davidson diagonalization with overlap
     ethr =  7.51E-13,  avg # of iterations =  2.3

     negative rho (up, down):  0.000E+00 9.387E-04

     total cpu time spent up to now is    17030.1 secs

     total energy              =   -2126.12801154 Ry
     estimated scf accuracy    <          4.8E-10 Ry

     total magnetization       =    19.00 Bohr mag/cell
     absolute magnetization    =    19.05 Bohr mag/cell

     iteration # 31     ecut=   100.00 Ry     beta= 0.40
     Davidson diagonalization with overlap
     ethr =  2.55E-13,  avg # of iterations =  2.7

     negative rho (up, down):  0.000E+00 9.387E-04

     total cpu time spent up to now is    17523.5 secs

     total energy              =   -2126.12801154 Ry
     estimated scf accuracy    <          3.2E-10 Ry

     total magnetization       =    19.00 Bohr mag/cell
     absolute magnetization    =    19.05 Bohr mag/cell

     iteration # 32     ecut=   100.00 Ry     beta= 0.40
     Davidson diagonalization with overlap
     ethr =  1.69E-13,  avg # of iterations =  2.0

     negative rho (up, down):  0.000E+00 9.387E-04

     total cpu time spent up to now is    17982.4 secs

     total energy              =   -2126.12801154 Ry
     estimated scf accuracy    <          2.7E-10 Ry

     total magnetization       =    19.00 Bohr mag/cell
     absolute magnetization    =    19.05 Bohr mag/cell

     iteration # 33     ecut=   100.00 Ry     beta= 0.40
     Davidson diagonalization with overlap
     ethr =  1.43E-13,  avg # of iterations =  1.9

     negative rho (up, down):  0.000E+00 9.387E-04

     Magnetic moment per site:
     atom:    1    charge:    7.8905    magn:    0.0005    constr:    0.0000
     atom:    2    charge:   12.7968    magn:    3.6548    constr:    0.0000
     atom:    3    charge:   12.8024    magn:    3.6423    constr:    0.0000
     atom:    4    charge:   12.8465    magn:    3.5261    constr:    0.0000
     atom:    5    charge:   12.8042    magn:    3.6425    constr:    0.0000
     atom:    6    charge:    0.8121    magn:    0.0107    constr:    0.0000
     atom:    7    charge:    0.8155    magn:    0.0085    constr:    0.0000
     atom:    8    charge:    0.8152    magn:    0.0115    constr:    0.0000
     atom:    9    charge:    0.8096    magn:    0.0092    constr:    0.0000
     atom:   10    charge:    4.1839    magn:    0.1361    constr:    0.0000
     atom:   11    charge:    4.1997    magn:    0.0900    constr:    0.0000
     atom:   12    charge:    4.1867    magn:    0.1243    constr:    0.0000
     atom:   13    charge:    4.1831    magn:    0.1106    constr:    0.0000
     atom:   14    charge:    4.1944    magn:    0.1126    constr:    0.0000
     atom:   15    charge:    4.2012    magn:    0.1250    constr:    0.0000
     atom:   16    charge:    4.1959    magn:    0.0756    constr:    0.0000
     atom:   17    charge:    4.1951    magn:    0.1356    constr:    0.0000
     atom:   18    charge:    4.1686    magn:    0.1501    constr:    0.0000
     atom:   19    charge:    4.1727    magn:    0.1320    constr:    0.0000
     atom:   20    charge:    4.1765    magn:    0.1440    constr:    0.0000
     atom:   21    charge:    4.1682    magn:    0.1231    constr:    0.0000
     atom:   22    charge:    4.1764    magn:    0.1440    constr:    0.0000
     atom:   23    charge:    4.1684    magn:    0.1231    constr:    0.0000
     atom:   24    charge:    4.1690    magn:    0.1501    constr:    0.0000
     atom:   25    charge:    4.1729    magn:    0.1320    constr:    0.0000

     total cpu time spent up to now is    18423.3 secs

     End of self-consistent calculation

 ------ SPIN UP ------------


          k = 0.0000 0.0000 0.0000 ( 35257 PWs)   bands (ev):

   -84.8036 -84.7994 -84.7760 -84.3317 -50.9363 -50.8766 -50.8712 -50.7540
   -50.7531 -50.7496 -50.7380 -50.6975 -50.6752 -50.6730 -50.2738 -50.0818
   -44.7252 -16.7700 -16.7076 -16.6630 -16.1010 -15.9129 -15.7086 -15.6106
   -13.6862 -13.5687 -13.4211 -13.3687 -13.2943 -13.2862 -13.2619 -13.1810
   -13.1063 -13.0597 -13.0203 -12.9532  -3.8699  -3.3603  -3.2585  -2.8080
    -2.0676  -1.6929  -1.6208  -1.4241  -1.3126  -1.1848  -1.0351  -0.9780
    -0.8717  -0.6922  -0.4900  -0.2492  -0.0698  -0.0207   0.5093   0.5771
     0.5801   0.7182   0.8446   0.9321   1.0624   1.0928   1.2831   1.3173
     1.4805   1.6746   1.7166   1.8501   1.9048   1.9050   1.9790   2.0359
     2.1372   2.3750   2.4847   2.5401   2.5916   2.6553   2.7524   2.8396
     2.9548   3.0140   3.1098   3.2244   3.2465   3.4557   3.5538   3.5742
     3.6221   3.7971   3.8197   3.8239   3.9150   4.0577   4.0978   4.2174
     4.3156   4.5548   4.5576   4.6094   4.8774   5.0080   5.2369   5.3616
     9.6829  11.7442  12.1595  12.5967  12.8444  13.3436  13.8931  14.0233
    14.0452  14.2462

     occupation numbers 
     1.0000   1.0000   1.0000   1.0000   1.0000   1.0000   1.0000   1.0000
     1.0000   1.0000   1.0000   1.0000   1.0000   1.0000   1.0000   1.0000
     1.0000   1.0000   1.0000   1.0000   1.0000   1.0000   1.0000   1.0000
     1.0000   1.0000   1.0000   1.0000   1.0000   1.0000   1.0000   1.0000
     1.0000   1.0000   1.0000   1.0000   1.0000   1.0000   1.0000   1.0000
     1.0000   1.0000   1.0000   1.0000   1.0000   1.0000   1.0000   1.0000
     1.0000   1.0000   1.0000   1.0000   1.0000   1.0000   1.0000   1.0000
     1.0000   1.0000   1.0000   1.0000   1.0000   1.0000   1.0000   1.0000
     1.0000   1.0000   1.0000   1.0000   1.0000   1.0000   1.0000   1.0000
     1.0000   1.0000   1.0000   1.0000   1.0000   1.0000   1.0000   1.0000
     1.0000   1.0000   1.0000   1.0000   1.0000   1.0000   1.0000   1.0000
     1.0000   1.0000   1.0000   1.0000   1.0000   1.0000   1.0000   1.0000
     1.0000   1.0000   1.0000   1.0000   1.0000   1.0000   1.0000   1.0000
     0.0000   0.0000   0.0000   0.0000   0.0000   0.0000   0.0000   0.0000
     0.0000   0.0000

          k = 0.0000 0.0000 0.2298 ( 35253 PWs)   bands (ev):

   -84.8036 -84.7994 -84.7760 -84.3317 -50.9363 -50.8766 -50.8712 -50.7540
   -50.7531 -50.7496 -50.7380 -50.6975 -50.6752 -50.6730 -50.2738 -50.0818
   -44.7252 -16.7708 -16.7143 -16.6630 -16.0857 -15.9041 -15.7027 -15.6078
   -13.6905 -13.5712 -13.4373 -13.3683 -13.2991 -13.2821 -13.2643 -13.1768
   -13.1168 -13.0633 -13.0285 -12.9570  -3.8443  -3.3530  -3.2543  -2.8206
    -2.0206  -1.6711  -1.6202  -1.4136  -1.3062  -1.1983  -1.0568  -0.9049
    -0.8657  -0.6596  -0.5358  -0.2212  -0.0644  -0.0509   0.5211   0.5781
     0.5905   0.7519   0.8393   0.9421   1.0580   1.0706   1.2534   1.3494
     1.4656   1.6572   1.6982   1.8163   1.8830   1.8861   1.9363   1.9879
     2.2645   2.3536   2.4267   2.4668   2.6308   2.6439   2.7129   2.8592
     2.9135   3.0047   3.1332   3.2323   3.3691   3.4374   3.4613   3.5581
     3.6281   3.7594   3.7993   3.8389   3.9198   4.0584   4.1633   4.2182
     4.3517   4.5460   4.5664   4.6294   4.8744   4.9916   5.2100   5.3389
     9.8340  11.8198  12.2266  12.6056  12.8822  13.3013  13.8648  13.9225
    13.9605  14.1910

     occupation numbers 
     1.0000   1.0000   1.0000   1.0000   1.0000   1.0000   1.0000   1.0000
     1.0000   1.0000   1.0000   1.0000   1.0000   1.0000   1.0000   1.0000
     1.0000   1.0000   1.0000   1.0000   1.0000   1.0000   1.0000   1.0000
     1.0000   1.0000   1.0000   1.0000   1.0000   1.0000   1.0000   1.0000
     1.0000   1.0000   1.0000   1.0000   1.0000   1.0000   1.0000   1.0000
     1.0000   1.0000   1.0000   1.0000   1.0000   1.0000   1.0000   1.0000
     1.0000   1.0000   1.0000   1.0000   1.0000   1.0000   1.0000   1.0000
     1.0000   1.0000   1.0000   1.0000   1.0000   1.0000   1.0000   1.0000
     1.0000   1.0000   1.0000   1.0000   1.0000   1.0000   1.0000   1.0000
     1.0000   1.0000   1.0000   1.0000   1.0000   1.0000   1.0000   1.0000
     1.0000   1.0000   1.0000   1.0000   1.0000   1.0000   1.0000   1.0000
     1.0000   1.0000   1.0000   1.0000   1.0000   1.0000   1.0000   1.0000
     1.0000   1.0000   1.0000   1.0000   1.0000   1.0000   1.0000   1.0000
     0.0000   0.0000   0.0000   0.0000   0.0000   0.0000   0.0000   0.0000
     0.0000   0.0000

          k = 0.0000 0.0000 0.4597 ( 35284 PWs)   bands (ev):

   -84.8036 -84.7994 -84.7760 -84.3317 -50.9363 -50.8766 -50.8712 -50.7540
   -50.7531 -50.7496 -50.7380 -50.6975 -50.6753 -50.6730 -50.2738 -50.0819
   -44.7252 -16.7751 -16.7279 -16.6629 -16.0468 -15.8815 -15.6868 -15.6022
   -13.7029 -13.5792 -13.4732 -13.3732 -13.3102 -13.2712 -13.2708 -13.1657
   -13.1413 -13.0729 -13.0485 -12.9675  -3.7712  -3.3435  -3.2389  -2.8666
    -1.8900  -1.6435  -1.5875  -1.4055  -1.2824  -1.2173  -1.0558  -0.8480
    -0.7606  -0.6501  -0.5745  -0.1848  -0.1368   0.0092   0.5615   0.5795
     0.6259   0.7883   0.8788   0.9536   1.0351   1.0547   1.1668   1.3941
     1.4505   1.6060   1.7079   1.7192   1.7953   1.8318   1.8805   1.9505
     2.1352   2.2672   2.4399   2.4756   2.5813   2.6045   2.7504   2.8025
     2.9078   3.0117   3.1941   3.2616   3.2669   3.4179   3.4814   3.4974
     3.6357   3.6656   3.8279   3.9370   3.9582   4.0752   4.2194   4.2630
     4.4448   4.5194   4.5847   4.6858   4.8642   4.9580   5.1284   5.2697
    10.2402  12.0222  12.3927  12.6499  12.9699  13.2362  13.6195  13.7277
    13.8244  13.8920

     occupation numbers 
     1.0000   1.0000   1.0000   1.0000   1.0000   1.0000   1.0000   1.0000
     1.0000   1.0000   1.0000   1.0000   1.0000   1.0000   1.0000   1.0000
     1.0000   1.0000   1.0000   1.0000   1.0000   1.0000   1.0000   1.0000
     1.0000   1.0000   1.0000   1.0000   1.0000   1.0000   1.0000   1.0000
     1.0000   1.0000   1.0000   1.0000   1.0000   1.0000   1.0000   1.0000
     1.0000   1.0000   1.0000   1.0000   1.0000   1.0000   1.0000   1.0000
     1.0000   1.0000   1.0000   1.0000   1.0000   1.0000   1.0000   1.0000
     1.0000   1.0000   1.0000   1.0000   1.0000   1.0000   1.0000   1.0000
     1.0000   1.0000   1.0000   1.0000   1.0000   1.0000   1.0000   1.0000
     1.0000   1.0000   1.0000   1.0000   1.0000   1.0000   1.0000   1.0000
     1.0000   1.0000   1.0000   1.0000   1.0000   1.0000   1.0000   1.0000
     1.0000   1.0000   1.0000   1.0000   1.0000   1.0000   1.0000   1.0000
     1.0000   1.0000   1.0000   1.0000   1.0000   1.0000   1.0000   1.0000
     0.0000   0.0000   0.0000   0.0000   0.0000   0.0000   0.0000   0.0000
     0.0000   0.0000

          k = 0.0000 0.0000 0.6895 ( 35308 PWs)   bands (ev):

   -84.8036 -84.7994 -84.7760 -84.3317 -50.9363 -50.8766 -50.8712 -50.7540
   -50.7531 -50.7496 -50.7380 -50.6975 -50.6753 -50.6730 -50.2738 -50.0819
   -44.7252 -16.7849 -16.7368 -16.6627 -16.0016 -15.8555 -15.6654 -15.6002
   -13.7198 -13.5918 -13.5087 -13.3837 -13.3244 -13.2784 -13.2571 -13.1644
   -13.1518 -13.0850 -13.0695 -12.9812  -3.6630  -3.3560  -3.2107  -2.9457
    -1.7408  -1.6248  -1.5188  -1.4098  -1.2315  -1.2222  -1.0399  -0.8729
    -0.7264  -0.6019  -0.4634  -0.3494   0.0068   0.1292   0.5785   0.6311
     0.6856   0.7659   0.9365   0.9628   0.9768   1.0414   1.1120   1.3755
     1.4656   1.5281   1.5794   1.6714   1.7656   1.7774   1.8274   1.8675
     1.9495   2.1147   2.3675   2.4686   2.5043   2.7085   2.7258   2.8750
     2.9669   3.0007   3.0605   3.1527   3.2996   3.3236   3.4288   3.5229
     3.5913   3.6772   3.9349   4.0106   4.0661   4.1844   4.2476   4.3176
     4.4754   4.5770   4.6281   4.7261   4.8534   4.9369   4.9898   5.1533
    10.8014  12.2904  12.4464  12.7638  12.9938  13.2795  13.3914  13.5866
    13.5934  13.6519

     occupation numbers 
     1.0000   1.0000   1.0000   1.0000   1.0000   1.0000   1.0000   1.0000
     1.0000   1.0000   1.0000   1.0000   1.0000   1.0000   1.0000   1.0000
     1.0000   1.0000   1.0000   1.0000   1.0000   1.0000   1.0000   1.0000
     1.0000   1.0000   1.0000   1.0000   1.0000   1.0000   1.0000   1.0000
     1.0000   1.0000   1.0000   1.0000   1.0000   1.0000   1.0000   1.0000
     1.0000   1.0000   1.0000   1.0000   1.0000   1.0000   1.0000   1.0000
     1.0000   1.0000   1.0000   1.0000   1.0000   1.0000   1.0000   1.0000
     1.0000   1.0000   1.0000   1.0000   1.0000   1.0000   1.0000   1.0000
     1.0000   1.0000   1.0000   1.0000   1.0000   1.0000   1.0000   1.0000
     1.0000   1.0000   1.0000   1.0000   1.0000   1.0000   1.0000   1.0000
     1.0000   1.0000   1.0000   1.0000   1.0000   1.0000   1.0000   1.0000
     1.0000   1.0000   1.0000   1.0000   1.0000   1.0000   1.0000   1.0000
     1.0000   1.0000   1.0000   1.0000   1.0000   1.0000   1.0000   1.0000
     0.0000   0.0000   0.0000   0.0000   0.0000   0.0000   0.0000   0.0000
     0.0000   0.0000

          k = 0.0000 0.0000 0.9194 ( 35336 PWs)   bands (ev):

   -84.8036 -84.7994 -84.7760 -84.3317 -50.9363 -50.8766 -50.8712 -50.7540
   -50.7531 -50.7496 -50.7380 -50.6975 -50.6753 -50.6730 -50.2738 -50.0819
   -44.7252 -16.7937 -16.7394 -16.6627 -15.9709 -15.8389 -15.6460 -15.6049
   -13.7323 -13.6030 -13.5287 -13.3928 -13.3359 -13.2828 -13.2466 -13.1759
   -13.1422 -13.0933 -13.0823 -12.9916  -3.5487  -3.4055  -3.1756  -3.0231
    -1.6777  -1.5944  -1.4636  -1.3975  -1.2082  -1.1500  -1.0454  -0.9986
    -0.6526  -0.5162  -0.4988  -0.3851   0.1846   0.3344   0.5510   0.6180
     0.7160   0.7676   0.8872   0.9130   0.9205   1.0383   1.1634   1.2927
     1.4492   1.5010   1.5052   1.5868   1.5926   1.7427   1.8284   1.8868
     1.9948   2.0986   2.1981   2.3463   2.5189   2.6540   2.8666   2.9245
     2.9259   3.0277   3.0545   3.0756   3.2312   3.2343   3.4215   3.5398
     3.5768   3.6782   4.0390   4.0472   4.0983   4.2137   4.3393   4.4218
     4.4934   4.6547   4.7198   4.7389   4.8088   4.8579   4.9308   5.0103
    11.4199  12.0265  12.5889  12.9158  13.0407  13.1707  13.4041  13.4482
    13.5528  13.6765

     occupation numbers 
     1.0000   1.0000   1.0000   1.0000   1.0000   1.0000   1.0000   1.0000
     1.0000   1.0000   1.0000   1.0000   1.0000   1.0000   1.0000   1.0000
     1.0000   1.0000   1.0000   1.0000   1.0000   1.0000   1.0000   1.0000
     1.0000   1.0000   1.0000   1.0000   1.0000   1.0000   1.0000   1.0000
     1.0000   1.0000   1.0000   1.0000   1.0000   1.0000   1.0000   1.0000
     1.0000   1.0000   1.0000   1.0000   1.0000   1.0000   1.0000   1.0000
     1.0000   1.0000   1.0000   1.0000   1.0000   1.0000   1.0000   1.0000
     1.0000   1.0000   1.0000   1.0000   1.0000   1.0000   1.0000   1.0000
     1.0000   1.0000   1.0000   1.0000   1.0000   1.0000   1.0000   1.0000
     1.0000   1.0000   1.0000   1.0000   1.0000   1.0000   1.0000   1.0000
     1.0000   1.0000   1.0000   1.0000   1.0000   1.0000   1.0000   1.0000
     1.0000   1.0000   1.0000   1.0000   1.0000   1.0000   1.0000   1.0000
     1.0000   1.0000   1.0000   1.0000   1.0000   1.0000   1.0000   1.0000
     0.0000   0.0000   0.0000   0.0000   0.0000   0.0000   0.0000   0.0000
     0.0000   0.0000

          k = 0.0000 0.2391 0.0000 ( 35275 PWs)   bands (ev):

   -84.8036 -84.7994 -84.7760 -84.3317 -50.9363 -50.8766 -50.8712 -50.7540
   -50.7531 -50.7496 -50.7380 -50.6975 -50.6752 -50.6730 -50.2738 -50.0818
   -44.7252 -16.7696 -16.7075 -16.6645 -16.0847 -15.9091 -15.7065 -15.6275
   -13.6884 -13.5678 -13.4283 -13.3743 -13.3461 -13.2752 -13.2468 -13.1719
   -13.0948 -13.0518 -13.0210 -12.9528  -3.8439  -3.3819  -3.2315  -2.8154
    -2.0411  -1.7001  -1.6191  -1.4311  -1.2768  -1.1800  -1.0269  -0.9753
    -0.8111  -0.6969  -0.4623  -0.2244  -0.1203   0.0155   0.5324   0.5683
     0.6305   0.6670   0.7476   0.8546   0.9515   1.2001   1.2909   1.3799
     1.5515   1.6680   1.7105   1.7897   1.8377   1.8644   1.9411   1.9537
     2.1748   2.3961   2.4949   2.5689   2.6397   2.6704   2.7681   2.7882
     2.9873   2.9966   3.0495   3.1295   3.2446   3.4629   3.5295   3.5845
     3.6288   3.7129   3.7624   3.9257   3.9744   4.0527   4.1328   4.2247
     4.3219   4.4888   4.5958   4.6229   4.8533   4.9578   5.2961   5.3645
     9.8401  11.8326  12.2377  12.5455  12.8921  13.4248  13.8249  13.9219
    14.1129  14.1983

     occupation numbers 
     1.0000   1.0000   1.0000   1.0000   1.0000   1.0000   1.0000   1.0000
     1.0000   1.0000   1.0000   1.0000   1.0000   1.0000   1.0000   1.0000
     1.0000   1.0000   1.0000   1.0000   1.0000   1.0000   1.0000   1.0000
     1.0000   1.0000   1.0000   1.0000   1.0000   1.0000   1.0000   1.0000
     1.0000   1.0000   1.0000   1.0000   1.0000   1.0000   1.0000   1.0000
     1.0000   1.0000   1.0000   1.0000   1.0000   1.0000   1.0000   1.0000
     1.0000   1.0000   1.0000   1.0000   1.0000   1.0000   1.0000   1.0000
     1.0000   1.0000   1.0000   1.0000   1.0000   1.0000   1.0000   1.0000
     1.0000   1.0000   1.0000   1.0000   1.0000   1.0000   1.0000   1.0000
     1.0000   1.0000   1.0000   1.0000   1.0000   1.0000   1.0000   1.0000
     1.0000   1.0000   1.0000   1.0000   1.0000   1.0000   1.0000   1.0000
     1.0000   1.0000   1.0000   1.0000   1.0000   1.0000   1.0000   1.0000
     1.0000   1.0000   1.0000   1.0000   1.0000   1.0000   1.0000   1.0000
     0.0000   0.0000   0.0000   0.0000   0.0000   0.0000   0.0000   0.0000
     0.0000   0.0000

          k = 0.0000 0.2391 0.2298 ( 35285 PWs)   bands (ev):

   -84.8036 -84.7994 -84.7760 -84.3317 -50.9363 -50.8766 -50.8712 -50.7540
   -50.7531 -50.7496 -50.7380 -50.6975 -50.6752 -50.6730 -50.2738 -50.0818
   -44.7252 -16.7703 -16.7141 -16.6644 -16.0701 -15.9001 -15.7008 -15.6238
   -13.6926 -13.5702 -13.4438 -13.3730 -13.3485 -13.2783 -13.2471 -13.1749
   -13.1003 -13.0548 -13.0278 -12.9557  -3.8187  -3.3726  -3.2286  -2.8271
    -1.9963  -1.6776  -1.6155  -1.4203  -1.2700  -1.1934  -1.0400  -0.9137
    -0.8011  -0.6675  -0.5079  -0.2205  -0.1251   0.0152   0.5330   0.5652
     0.6359   0.6827   0.7723   0.8661   0.9477   1.1864   1.3108   1.3584
     1.5090   1.6542   1.7078   1.7452   1.8176   1.8511   1.9171   1.9544
     2.2750   2.3767   2.4374   2.5323   2.6228   2.6700   2.7032   2.8154
     2.9323   3.0234   3.0593   3.2010   3.2577   3.4403   3.4666   3.5822
     3.5930   3.7191   3.7900   3.8862   3.9816   4.0615   4.1750   4.2314
     4.3533   4.4866   4.5982   4.6473   4.8341   4.9556   5.2779   5.3480
     9.9855  11.9075  12.3016  12.5847  12.9088  13.3732  13.7743  13.8810
    14.0223  14.1332

     occupation numbers 
     1.0000   1.0000   1.0000   1.0000   1.0000   1.0000   1.0000   1.0000
     1.0000   1.0000   1.0000   1.0000   1.0000   1.0000   1.0000   1.0000
     1.0000   1.0000   1.0000   1.0000   1.0000   1.0000   1.0000   1.0000
     1.0000   1.0000   1.0000   1.0000   1.0000   1.0000   1.0000   1.0000
     1.0000   1.0000   1.0000   1.0000   1.0000   1.0000   1.0000   1.0000
     1.0000   1.0000   1.0000   1.0000   1.0000   1.0000   1.0000   1.0000
     1.0000   1.0000   1.0000   1.0000   1.0000   1.0000   1.0000   1.0000
     1.0000   1.0000   1.0000   1.0000   1.0000   1.0000   1.0000   1.0000
     1.0000   1.0000   1.0000   1.0000   1.0000   1.0000   1.0000   1.0000
     1.0000   1.0000   1.0000   1.0000   1.0000   1.0000   1.0000   1.0000
     1.0000   1.0000   1.0000   1.0000   1.0000   1.0000   1.0000   1.0000
     1.0000   1.0000   1.0000   1.0000   1.0000   1.0000   1.0000   1.0000
     1.0000   1.0000   1.0000   1.0000   1.0000   1.0000   1.0000   1.0000
     0.0000   0.0000   0.0000   0.0000   0.0000   0.0000   0.0000   0.0000
     0.0000   0.0000

          k = 0.0000 0.2391 0.4597 ( 35280 PWs)   bands (ev):

   -84.8036 -84.7994 -84.7760 -84.3317 -50.9363 -50.8766 -50.8712 -50.7540
   -50.7531 -50.7496 -50.7380 -50.6975 -50.6753 -50.6730 -50.2738 -50.0819
   -44.7252 -16.7745 -16.7276 -16.6641 -16.0334 -15.8767 -15.6856 -15.6155
   -13.7049 -13.5780 -13.4795 -13.3765 -13.3513 -13.2868 -13.2509 -13.1808
   -13.1102 -13.0631 -13.0430 -12.9642  -3.7472  -3.3566  -3.2175  -2.8708
    -1.8712  -1.6393  -1.5847  -1.4080  -1.2485  -1.2073  -1.0366  -0.8174
    -0.7522  -0.6235  -0.5776  -0.2636  -0.0938   0.0322   0.5204   0.5928
     0.6506   0.6761   0.8650   0.9001   0.9647   1.1421   1.2735   1.3740
     1.4443   1.6253   1.6453   1.7222   1.7569   1.8215   1.8659   1.9472
     2.1750   2.2840   2.4595   2.5013   2.5533   2.6115   2.7187   2.8173
     2.8673   3.0567   3.1431   3.2083   3.2734   3.3177   3.4386   3.5233
     3.5796   3.7038   3.8386   3.9075   3.9997   4.0993   4.2175   4.2780
     4.4249   4.4916   4.5730   4.7161   4.7998   4.9513   5.2241   5.2982
    10.3783  12.1083  12.4602  12.6954  12.9612  13.2980  13.5790  13.7500
    13.8293  13.9464

     occupation numbers 
     1.0000   1.0000   1.0000   1.0000   1.0000   1.0000   1.0000   1.0000
     1.0000   1.0000   1.0000   1.0000   1.0000   1.0000   1.0000   1.0000
     1.0000   1.0000   1.0000   1.0000   1.0000   1.0000   1.0000   1.0000
     1.0000   1.0000   1.0000   1.0000   1.0000   1.0000   1.0000   1.0000
     1.0000   1.0000   1.0000   1.0000   1.0000   1.0000   1.0000   1.0000
     1.0000   1.0000   1.0000   1.0000   1.0000   1.0000   1.0000   1.0000
     1.0000   1.0000   1.0000   1.0000   1.0000   1.0000   1.0000   1.0000
     1.0000   1.0000   1.0000   1.0000   1.0000   1.0000   1.0000   1.0000
     1.0000   1.0000   1.0000   1.0000   1.0000   1.0000   1.0000   1.0000
     1.0000   1.0000   1.0000   1.0000   1.0000   1.0000   1.0000   1.0000
     1.0000   1.0000   1.0000   1.0000   1.0000   1.0000   1.0000   1.0000
     1.0000   1.0000   1.0000   1.0000   1.0000   1.0000   1.0000   1.0000
     1.0000   1.0000   1.0000   1.0000   1.0000   1.0000   1.0000   1.0000
     0.0000   0.0000   0.0000   0.0000   0.0000   0.0000   0.0000   0.0000
     0.0000   0.0000

          k = 0.0000 0.2391 0.6895 ( 35285 PWs)   bands (ev):

   -84.8036 -84.7994 -84.7760 -84.3317 -50.9363 -50.8766 -50.8712 -50.7540
   -50.7531 -50.7496 -50.7380 -50.6975 -50.6753 -50.6729 -50.2738 -50.0819
   -44.7252 -16.7840 -16.7365 -16.6639 -15.9912 -15.8492 -15.6661 -15.6093
   -13.7219 -13.5905 -13.5161 -13.3844 -13.3568 -13.2976 -13.2578 -13.1815
   -13.1180 -13.0742 -13.0550 -12.9756  -3.6424  -3.3589  -3.1957  -2.9465
    -1.7243  -1.6157  -1.5136  -1.4083  -1.2217  -1.1855  -1.0212  -0.8406
    -0.7079  -0.6087  -0.4640  -0.3749   0.0048   0.1048   0.4840   0.5963
     0.6564   0.7462   0.9019   0.9744   1.0430   1.1042   1.1870   1.3650
     1.4177   1.5299   1.5835   1.6779   1.7492   1.7824   1.8068   1.8786
     1.9512   2.1288   2.3380   2.4922   2.5185   2.6868   2.7140   2.8578
     2.8765   3.0529   3.0910   3.1943   3.2228   3.2974   3.3533   3.5258
     3.5686   3.6624   3.9448   4.0079   4.0616   4.1456   4.2385   4.3261
     4.4557   4.5276   4.5798   4.7181   4.8362   4.9493   5.1397   5.2198
    10.9254  12.3823  12.5237  12.8322  13.0307  13.3027  13.4343  13.5264
    13.6256  13.6705

     occupation numbers 
     1.0000   1.0000   1.0000   1.0000   1.0000   1.0000   1.0000   1.0000
     1.0000   1.0000   1.0000   1.0000   1.0000   1.0000   1.0000   1.0000
     1.0000   1.0000   1.0000   1.0000   1.0000   1.0000   1.0000   1.0000
     1.0000   1.0000   1.0000   1.0000   1.0000   1.0000   1.0000   1.0000
     1.0000   1.0000   1.0000   1.0000   1.0000   1.0000   1.0000   1.0000
     1.0000   1.0000   1.0000   1.0000   1.0000   1.0000   1.0000   1.0000
     1.0000   1.0000   1.0000   1.0000   1.0000   1.0000   1.0000   1.0000
     1.0000   1.0000   1.0000   1.0000   1.0000   1.0000   1.0000   1.0000
     1.0000   1.0000   1.0000   1.0000   1.0000   1.0000   1.0000   1.0000
     1.0000   1.0000   1.0000   1.0000   1.0000   1.0000   1.0000   1.0000
     1.0000   1.0000   1.0000   1.0000   1.0000   1.0000   1.0000   1.0000
     1.0000   1.0000   1.0000   1.0000   1.0000   1.0000   1.0000   1.0000
     1.0000   1.0000   1.0000   1.0000   1.0000   1.0000   1.0000   1.0000
     0.0000   0.0000   0.0000   0.0000   0.0000   0.0000   0.0000   0.0000
     0.0000   0.0000

          k = 0.0000 0.2391 0.9194 ( 35271 PWs)   bands (ev):

   -84.8036 -84.7994 -84.7760 -84.3317 -50.9363 -50.8766 -50.8712 -50.7540
   -50.7531 -50.7496 -50.7380 -50.6975 -50.6753 -50.6729 -50.2738 -50.0819
   -44.7252 -16.7926 -16.7393 -16.6637 -15.9630 -15.8309 -15.6501 -15.6091
   -13.7347 -13.6018 -13.5369 -13.3898 -13.3668 -13.3041 -13.2606 -13.1780
   -13.1232 -13.0827 -13.0587 -12.9846  -3.5346  -3.3957  -3.1696  -3.0184
    -1.6571  -1.5846  -1.4569  -1.3987  -1.1997  -1.1149  -1.0258  -0.9601
    -0.6507  -0.5479  -0.4840  -0.3697   0.1295   0.2631   0.4153   0.4722
     0.7463   0.8599   0.9139   0.9886   1.0499   1.0751   1.1935   1.2795
     1.3961   1.4655   1.5480   1.5992   1.6297   1.7274   1.7899   1.8388
     1.9826   2.0985   2.1866   2.3488   2.5429   2.6532   2.8076   2.8646
     2.9381   3.0244   3.0531   3.1184   3.2239   3.2470   3.3523   3.5248
     3.5677   3.6446   4.0144   4.0607   4.1223   4.2056   4.2908   4.3522
     4.4182   4.5242   4.6471   4.7232   4.8883   4.9483   5.0533   5.1434
    11.5335  12.1301  12.6751  13.0071  13.0918  13.2217  13.4212  13.4620
    13.5065  13.6666

     occupation numbers 
     1.0000   1.0000   1.0000   1.0000   1.0000   1.0000   1.0000   1.0000
     1.0000   1.0000   1.0000   1.0000   1.0000   1.0000   1.0000   1.0000
     1.0000   1.0000   1.0000   1.0000   1.0000   1.0000   1.0000   1.0000
     1.0000   1.0000   1.0000   1.0000   1.0000   1.0000   1.0000   1.0000
     1.0000   1.0000   1.0000   1.0000   1.0000   1.0000   1.0000   1.0000
     1.0000   1.0000   1.0000   1.0000   1.0000   1.0000   1.0000   1.0000
     1.0000   1.0000   1.0000   1.0000   1.0000   1.0000   1.0000   1.0000
     1.0000   1.0000   1.0000   1.0000   1.0000   1.0000   1.0000   1.0000
     1.0000   1.0000   1.0000   1.0000   1.0000   1.0000   1.0000   1.0000
     1.0000   1.0000   1.0000   1.0000   1.0000   1.0000   1.0000   1.0000
     1.0000   1.0000   1.0000   1.0000   1.0000   1.0000   1.0000   1.0000
     1.0000   1.0000   1.0000   1.0000   1.0000   1.0000   1.0000   1.0000
     1.0000   1.0000   1.0000   1.0000   1.0000   1.0000   1.0000   1.0000
     0.0000   0.0000   0.0000   0.0000   0.0000   0.0000   0.0000   0.0000
     0.0000   0.0000

          k = 0.0000 0.4781 0.0000 ( 35227 PWs)   bands (ev):

   -84.8036 -84.7994 -84.7760 -84.3317 -50.9363 -50.8766 -50.8712 -50.7540
   -50.7531 -50.7496 -50.7380 -50.6975 -50.6752 -50.6730 -50.2738 -50.0818
   -44.7252 -16.7686 -16.7072 -16.6678 -16.0430 -15.8987 -15.7109 -15.6633
   -13.6928 -13.5635 -13.4715 -13.3866 -13.3704 -13.2778 -13.2309 -13.1748
   -13.0729 -13.0455 -13.0073 -12.9512  -3.7730  -3.4433  -3.1590  -2.8460
    -1.9723  -1.7204  -1.6138  -1.4435  -1.2346  -1.1467  -1.0043  -0.9061
    -0.7463  -0.6450  -0.4343  -0.2288  -0.1356   0.0992   0.4625   0.5382
[...]
     atom   25 type  3   force =    -0.01138710    0.02682565   -0.00989062
     The non-local contrib.  to forces
     atom    1 type  2   force =     0.13096422    0.00000115   -0.01633927
     atom    2 type  1   force =     0.04856862   -0.00000611    0.13865316
     atom    3 type  1   force =     0.04781413    0.00001792    0.11181078
     atom    4 type  1   force =    -0.19927847    0.00000784   -0.07706345
     atom    5 type  1   force =    -0.02770741   -0.00001579   -0.12188055
     atom    6 type  4   force =    -0.01465683    0.00000218   -0.01060743
     atom    7 type  4   force =     0.03689516   -0.00001137    0.01946537
     atom    8 type  4   force =    -0.00999283   -0.00000382    0.01047276
     atom    9 type  4   force =     0.01420224    0.00001039    0.01915971
     atom   10 type  3   force =     0.29856092   -0.00000640   -1.47392574
     atom   11 type  3   force =    -0.10109941    0.00000166   -1.39539166
     atom   12 type  3   force =    -0.38525229    0.00000464    1.47549388
     atom   13 type  3   force =     0.21791822    0.00000036    1.47379469
     atom   14 type  3   force =     1.22288225    0.00000068   -0.60377078
     atom   15 type  3   force =    -1.20238403    0.00000467   -0.78526857
     atom   16 type  3   force =    -1.20764127    0.00001654    0.31192906
     atom   17 type  3   force =     1.17454261   -0.00000363    0.62065938
     atom   18 type  3   force =    -0.53206253   -1.08072121    0.79002817
     atom   19 type  3   force =     0.54156987    1.14492339    0.82067951
     atom   20 type  3   force =     0.55954650   -1.09026321   -0.69495334
     atom   21 type  3   force =    -0.55261571    1.05653181   -0.70542176
     atom   22 type  3   force =     0.55952457    1.09022879   -0.69495749
     atom   23 type  3   force =    -0.55259789   -1.05650613   -0.70541238
     atom   24 type  3   force =    -0.53208244    1.08075446    0.79002803
     atom   25 type  3   force =     0.54158981   -1.14495162    0.82068454
     The ionic contribution  to forces
     atom    1 type  2   force =    -3.79978475    0.00033622    2.67880371
     atom    2 type  1   force =    -0.50284835   -0.00082901   -0.38153721
     atom    3 type  1   force =    -7.79858727    0.00100257   -0.55126300
     atom    4 type  1   force =     4.29753198    0.00079286   -0.43787307
     atom    5 type  1   force =     8.07057422   -0.00112176    0.52745459
     atom    6 type  4   force =    -3.27883823   -0.00027699    0.50602304
     atom    7 type  4   force =     0.52428361    0.00017891    0.59780173
     atom    8 type  4   force =     5.11623330    0.00025831   -0.78310608
     atom    9 type  4   force =    -2.54496169   -0.00017525   -0.91811925
     atom   10 type  3   force =   -10.32555177   -0.00028787    2.61793994
     atom   11 type  3   force =     3.85898580    0.00026446    1.17418605
     atom   12 type  3   force =    12.42854735    0.00027039   -2.77292747
     atom   13 type  3   force =    -8.48854383   -0.00031359   -2.04950549
     atom   14 type  3   force =     0.70251422   -0.00022849    5.58098688
     atom   15 type  3   force =    -1.87538755    0.00026874    7.15080299
     atom   16 type  3   force =    -2.03250995    0.00014578   -2.78201652
     atom   17 type  3   force =     3.61961011   -0.00027771   -6.29551056
     atom   18 type  3   force =    -4.07301068    2.69338057   -3.20312465
     atom   19 type  3   force =     0.92566380   -4.05147711   -2.77103247
     atom   20 type  3   force =     5.45679118    4.32887061    2.59488608
     atom   21 type  3   force =    -1.29506092   -1.24299226    1.44810838
     atom   22 type  3   force =     5.45705197   -4.32837003    2.59503644
     atom   23 type  3   force =    -1.29529292    1.24261175    1.44800174
     atom   24 type  3   force =    -4.07280456   -2.69389531   -3.20291746
     atom   25 type  3   force =     0.92539494    4.05186421   -2.77109833
     The local contribution  to forces
     atom    1 type  2   force =     3.67366511   -0.00033648   -2.65994770
     atom    2 type  1   force =     0.44806115    0.00082982    0.24141230
     atom    3 type  1   force =     7.75744140   -0.00101446    0.43757328
     atom    4 type  1   force =    -4.10120848   -0.00079613    0.51885852
     atom    5 type  1   force =    -8.04857333    0.00113024   -0.40476584
     atom    6 type  4   force =     3.30494006    0.00026916   -0.47466839
     atom    7 type  4   force =    -0.56359432   -0.00017108   -0.59351996
     atom    8 type  4   force =    -5.12288215   -0.00025071    0.74803502
     atom    9 type  4   force =     2.54722514    0.00016696    0.88044883
     atom   10 type  3   force =    10.02255799    0.00029301   -1.15996250
     atom   11 type  3   force =    -3.75651035   -0.00026598    0.20728116
     atom   12 type  3   force =   -12.03917131   -0.00027443    1.31469880
     atom   13 type  3   force =     8.26574901    0.00031335    0.59096472
     atom   14 type  3   force =    -1.95021422    0.00022869   -4.97295242
     atom   15 type  3   force =     3.10350967   -0.00027278   -6.36200774
     atom   16 type  3   force =     3.26057394   -0.00016172    2.46547551
     atom   17 type  3   force =    -4.81556800    0.00028083    5.67082270
     atom   18 type  3   force =     4.61182524   -1.59827646    2.41102641
     atom   19 type  3   force =    -1.47414963    2.88925175    1.94772863
     atom   20 type  3   force =    -6.02204586   -3.22162054   -1.90050460
     atom   21 type  3   force =     1.85238244    0.17192648   -0.73913520
     atom   22 type  3   force =    -6.02228410    3.22115482   -1.90065050
     atom   23 type  3   force =     1.85259259   -0.17157766   -0.73904197
     atom   24 type  3   force =     4.61163748    1.59875934    2.41082274
     atom   25 type  3   force =    -1.47390463   -2.88960339    1.94778510
     The core correction contribution to forces
     atom    1 type  2   force =     0.00000000    0.00000000    0.00000000
     atom    2 type  1   force =    -0.00066843   -0.00000061   -0.00036199
     atom    3 type  1   force =    -0.00001417    0.00000037    0.00042436
     atom    4 type  1   force =     0.00400486    0.00000047   -0.00110588
     atom    5 type  1   force =     0.00012678   -0.00000052    0.00031843
     atom    6 type  4   force =     0.00096949   -0.00000000   -0.00008209
     atom    7 type  4   force =    -0.00225118    0.00000087   -0.00228653
     atom    8 type  4   force =     0.00035998    0.00000018    0.00031997
     atom    9 type  4   force =    -0.00130483   -0.00000086   -0.00042997
     atom   10 type  3   force =    -0.00317318    0.00000005    0.01286833
     atom   11 type  3   force =     0.00153368   -0.00000000    0.01205305
     atom   12 type  3   force =     0.00396364   -0.00000003   -0.01284267
     atom   13 type  3   force =    -0.00248990   -0.00000003   -0.01282061
     atom   14 type  3   force =    -0.00978896   -0.00000002    0.00562824
     atom   15 type  3   force =     0.00962579   -0.00000006    0.00717420
     atom   16 type  3   force =     0.00962479   -0.00000016   -0.00298708
     atom   17 type  3   force =    -0.00950146    0.00000005   -0.00574133
     atom   18 type  3   force =     0.00443294    0.00898596   -0.00698954
     atom   19 type  3   force =    -0.00446856   -0.00951989   -0.00725861
     atom   20 type  3   force =    -0.00472120    0.00906250    0.00610680
     atom   21 type  3   force =     0.00461672   -0.00885403    0.00627331
     atom   22 type  3   force =    -0.00472101   -0.00906220    0.00610681
     atom   23 type  3   force =     0.00461662    0.00885392    0.00627328
     atom   24 type  3   force =     0.00443316   -0.00898631   -0.00698960
     atom   25 type  3   force =    -0.00446870    0.00952001   -0.00725860
     The Hubbard contrib.    to forces
     atom    1 type  2   force =     0.00000000    0.00000000    0.00000000
     atom    2 type  1   force =     0.00000000    0.00000000    0.00000000
     atom    3 type  1   force =     0.00000000    0.00000000    0.00000000
     atom    4 type  1   force =     0.00000000    0.00000000    0.00000000
     atom    5 type  1   force =     0.00000000    0.00000000    0.00000000
     atom    6 type  4   force =     0.00000000    0.00000000    0.00000000
     atom    7 type  4   force =     0.00000000    0.00000000    0.00000000
     atom    8 type  4   force =     0.00000000    0.00000000    0.00000000
     atom    9 type  4   force =     0.00000000    0.00000000    0.00000000
     atom   10 type  3   force =     0.00000000    0.00000000    0.00000000
     atom   11 type  3   force =     0.00000000    0.00000000    0.00000000
     atom   12 type  3   force =     0.00000000    0.00000000    0.00000000
     atom   13 type  3   force =     0.00000000    0.00000000    0.00000000
     atom   14 type  3   force =     0.00000000    0.00000000    0.00000000
     atom   15 type  3   force =     0.00000000    0.00000000    0.00000000
     atom   16 type  3   force =     0.00000000    0.00000000    0.00000000
     atom   17 type  3   force =     0.00000000    0.00000000    0.00000000
     atom   18 type  3   force =     0.00000000    0.00000000    0.00000000
     atom   19 type  3   force =     0.00000000    0.00000000    0.00000000
     atom   20 type  3   force =     0.00000000    0.00000000    0.00000000
     atom   21 type  3   force =     0.00000000    0.00000000    0.00000000
     atom   22 type  3   force =     0.00000000    0.00000000    0.00000000
     atom   23 type  3   force =     0.00000000    0.00000000    0.00000000
     atom   24 type  3   force =     0.00000000    0.00000000    0.00000000
     atom   25 type  3   force =     0.00000000    0.00000000    0.00000000
     The SCF correction term to forces
     atom    1 type  2   force =     0.00000582    0.00000000   -0.00000023
     atom    2 type  1   force =     0.00000159   -0.00000000   -0.00000104
     atom    3 type  1   force =    -0.00000090    0.00000002    0.00000002
     atom    4 type  1   force =    -0.00000083    0.00000003    0.00000087
     atom    5 type  1   force =    -0.00000309   -0.00000001   -0.00000028
     atom    6 type  4   force =    -0.00000289   -0.00000000    0.00000062
     atom    7 type  4   force =     0.00000244    0.00000000   -0.00000016
     atom    8 type  4   force =    -0.00000309    0.00000000    0.00000005
     atom    9 type  4   force =     0.00000339   -0.00000000    0.00000030
     atom   10 type  3   force =    -0.00000515   -0.00000001   -0.00000249
     atom   11 type  3   force =     0.00000169    0.00000000    0.00000074
     atom   12 type  3   force =    -0.00000482    0.00000000   -0.00000140
     atom   13 type  3   force =     0.00000413   -0.00000001   -0.00000104
     atom   14 type  3   force =     0.00000757    0.00000000    0.00000160
     atom   15 type  3   force =    -0.00000259    0.00000001   -0.00000025
     atom   16 type  3   force =     0.00000578    0.00000000    0.00000035
     atom   17 type  3   force =    -0.00000576    0.00000000    0.00000081
     atom   18 type  3   force =    -0.00000263    0.00000313    0.00000221
     atom   19 type  3   force =     0.00000149    0.00000358   -0.00000190
     atom   20 type  3   force =    -0.00000308    0.00000062    0.00000053
     atom   21 type  3   force =     0.00000279   -0.00000100    0.00000008
     atom   22 type  3   force =    -0.00000308   -0.00000063    0.00000053
     atom   23 type  3   force =     0.00000279    0.00000099    0.00000009
     atom   24 type  3   force =    -0.00000264   -0.00000314    0.00000222
     atom   25 type  3   force =     0.00000149   -0.00000358   -0.00000190

     Total force =     0.118613     Total SCF correction =     0.000020


     Computing stress (Cartesian axis) and pressure


     negative rho (up, down):  0.000E+00 9.387E-04
          total   stress  (Ry/bohr**3)                   (kbar)     P=       28.37
   0.00022708   0.00000001  -0.00002115           33.40        0.00       -3.11
   0.00000001   0.00018776  -0.00000000            0.00       27.62       -0.00
  -0.00002115  -0.00000000   0.00016376           -3.11       -0.00       24.09

     kinetic stress (kbar)  27421.81      0.00    -11.07
                                0.00  27655.25      0.00
                              -11.07      0.00  27422.90

     local   stress (kbar)  -4046.47     -0.10   1243.92
                               -0.10 -13993.90     -0.01
                             1243.92     -0.01  -8785.13

     nonloc. stress (kbar)  -7000.59     -0.00      1.22
                               -0.00  -6938.74     -0.00
                                1.22     -0.00  -6957.70

     hartree stress (kbar)  12669.03      0.04   -510.13
                                0.04  18217.89      0.00
                             -510.13      0.00  15453.85

     exc-cor stress (kbar)  -2903.53     -0.00     -0.82
                               -0.00  -2911.50     -0.00
                               -0.82     -0.00  -2908.50

     corecor stress (kbar)  -3223.40      0.00      0.96
                                0.00  -3222.19      0.00
                                0.96      0.00  -3223.11

     ewald   stress (kbar) -22883.45      0.05   -727.19
                                0.05 -18779.19      0.00
                             -727.19      0.00 -20978.23

     hubbard stress (kbar)      0.00      0.00      0.00
                                0.00      0.00      0.00
                                0.00      0.00      0.00

     DFT-D   stress (kbar)      0.00      0.00      0.00
                                0.00      0.00      0.00
                                0.00      0.00      0.00

     XDM     stress (kbar)      0.00      0.00      0.00
                                0.00      0.00      0.00
                                0.00      0.00      0.00

     dft-nl  stress (kbar)      0.00      0.00      0.00
                                0.00      0.00      0.00
                                0.00      0.00      0.00

     TS-vdW  stress (kbar)      0.00      0.00      0.00
                                0.00      0.00      0.00
                                0.00      0.00      0.00



     init_run     :    182.56s CPU    187.07s WALL (       1 calls)
     electrons    :  17951.25s CPU  18234.57s WALL (       1 calls)
     forces       :    116.71s CPU    119.05s WALL (       1 calls)
     stress       :    761.53s CPU    768.39s WALL (       1 calls)

     Called by init_run:
     wfcinit      :    172.69s CPU    176.35s WALL (       1 calls)
     wfcinit:atom :      3.35s CPU      3.43s WALL (     316 calls)
     wfcinit:wfcr :    159.25s CPU    162.59s WALL (     316 calls)
     potinit      :      3.50s CPU      3.67s WALL (       1 calls)
     hinit0       :      3.33s CPU      3.46s WALL (       1 calls)

     Called by electrons:
     c_bands      :  15715.57s CPU  15908.97s WALL (      33 calls)
     sum_band     :   2127.60s CPU   2196.80s WALL (      33 calls)
     v_of_rho     :     33.30s CPU     34.74s WALL (      34 calls)
     v_h          :      1.83s CPU      1.91s WALL (      34 calls)
     v_xc         :     33.27s CPU     34.70s WALL (      36 calls)
     newd         :     48.25s CPU     67.38s WALL (      34 calls)
     PAW_pot      :     15.21s CPU     15.31s WALL (      34 calls)
     mix_rho      :     10.37s CPU     10.66s WALL (      33 calls)

     Called by c_bands:
     init_us_2    :    293.69s CPU    301.96s WALL (   21804 calls)
     cegterg      :  15238.73s CPU  15420.79s WALL (   10428 calls)

     Called by sum_band:
     sum_band:wei :      0.53s CPU      0.53s WALL (      33 calls)
     sum_band:loo :   1976.36s CPU   2019.52s WALL (      33 calls)
     sum_band:buf :     77.33s CPU     79.28s WALL (   10428 calls)
     sum_band:ini :    141.25s CPU    144.91s WALL (   10428 calls)
     sum_band:cal :    723.42s CPU    733.24s WALL (   10428 calls)
     sum_band:bec :      6.37s CPU      6.50s WALL (   10428 calls)
     addusdens    :    144.44s CPU    170.28s WALL (      33 calls)
     addusd:skk   :      0.93s CPU      0.98s WALL (      99 calls)
     addusd:dgemm :     69.28s CPU     90.80s WALL (     198 calls)
     addusd:qvan2 :     72.61s CPU     73.33s WALL (     198 calls)

     Called by *egterg:
     cdiaghg      :    916.41s CPU    938.00s WALL (   39730 calls)
     cegterg:over :   1413.57s CPU   1440.30s WALL (   29302 calls)
     cegterg:upda :    778.54s CPU    783.97s WALL (   29302 calls)
     cegterg:last :   1629.51s CPU   1640.66s WALL (   18108 calls)
     h_psi        :   7928.32s CPU   8022.70s WALL (   40046 calls)
     s_psi        :   1721.71s CPU   1732.71s WALL (   40046 calls)
     g_psi        :     15.46s CPU     15.70s WALL (   29302 calls)

     Called by h_psi:
     h_psi:calbec :   1870.93s CPU   1894.20s WALL (   40046 calls)
     vloc_psi     :   4026.26s CPU   4079.59s WALL (   40046 calls)
     add_vuspsi   :   1864.33s CPU   1876.63s WALL (   40046 calls)

     General routines
     calbec       :   2694.66s CPU   2729.17s WALL (   52054 calls)
     fft          :     31.81s CPU     33.72s WALL (     888 calls)
     ffts         :      0.60s CPU      0.70s WALL (     134 calls)
     fftw         :   4823.44s CPU   4900.82s WALL ( 6474646 calls)
     interpolate  :      2.37s CPU      2.66s WALL (      68 calls)

     Parallel routines
     fft_scatt_xy :    277.22s CPU    280.22s WALL ( 6475668 calls)
     fft_scatt_yz :   2706.79s CPU   2763.00s WALL ( 6475668 calls)

     PAW routines
     PAW_pot      :     15.21s CPU     15.31s WALL (      34 calls)

     PWSCF        :      5h16m CPU      5h21m WALL


   This run was terminated on:   5:30:15  18Dec2022            

=------------------------------------------------------------------------------=
   JOB DONE.
=------------------------------------------------------------------------------=
Note: The following floating-point exceptions are signalling: IEEE_UNDERFLOW_FLAG IEEE_DENORMAL
Note: The following floating-point exceptions are signalling: IEEE_DENORMAL
Note: The following floating-point exceptions are signalling: IEEE_DENORMAL
Note: The following floating-point exceptions are signalling: IEEE_DENORMAL
Note: The following floating-point exceptions are signalling: IEEE_DENORMAL
Note: The following floating-point exceptions are signalling: IEEE_DENORMAL
Note: The following floating-point exceptions are signalling: IEEE_DENORMAL
Note: The following floating-point exceptions are signalling: IEEE_DENORMAL
Note: The following floating-point exceptions are signalling: IEEE_DENORMAL
Note: The following floating-point exceptions are signalling: IEEE_DENORMAL
Note: The following floating-point exceptions are signalling: IEEE_DENORMAL
Note: The following floating-point exceptions are signalling: IEEE_DENORMAL
Note: The following floating-point exceptions are signalling: IEEE_DENORMAL
Note: The following floating-point exceptions are signalling: IEEE_INVALID_FLAG IEEE_DENORMAL
Note: The following floating-point exceptions are signalling: IEEE_DENORMAL
Note: The following floating-point exceptions are signalling: IEEE_INVALID_FLAG IEEE_DENORMAL
Note: The following floating-point exceptions are signalling: IEEE_INVALID_FLAG IEEE_DENORMAL
Note: The following floating-point exceptions are signalling: IEEE_DENORMAL
Note: The following floating-point exceptions are signalling: IEEE_INVALID_FLAG IEEE_DENORMAL
Note: The following floating-point exceptions are signalling: IEEE_DENORMAL
Note: The following floating-point exceptions are signalling: IEEE_DENORMAL
Note: The following floating-point exceptions are signalling: IEEE_DENORMAL
Note: The following floating-point exceptions are signalling: IEEE_DENORMAL
Note: The following floating-point exceptions are signalling: IEEE_INVALID_FLAG IEEE_DENORMAL
