
     Program PWSCF v.6.7MaX starts on 21Dec2022 at  5:28:41 

     This program is part of the open-source Quantum ESPRESSO suite
     for quantum simulation of materials; please cite
         "P. Giannozzi et al., J. Phys.:Condens. Matter 21 395502 (2009);
         "P. Giannozzi et al., J. Phys.:Condens. Matter 29 465901 (2017);
          URL http://www.quantum-espresso.org", 
     in publications or presentations arising from this work. More details at
     http://www.quantum-espresso.org/quote

     Parallel version (MPI), running on    24 processors

     MPI processes distributed on     1 nodes
     R & G space division:  proc/nbgrp/npool/nimage =      24
     Reading input from scale_3d-00.in

     Current dimensions of program PWSCF are:
     Max number of different atomic species (ntypx) = 10
     Max number of k-points (npk) =  40000
     Max angular momentum in pseudopotentials (lmaxx) =  3
     Message from routine read_pp_mesh:
     mesh size missing, using the one in header
     file Fe.pbe-spn-kjpaw_psl.0.2.1.UPF: wavefunction(s)  3D renormalized
     file O.pbe-n-kjpaw_psl.0.1.UPF: wavefunction(s)  2P renormalized

     Subspace diagonalization in iterative solution of the eigenvalue problem:
     a serial algorithm will be used


     Parallelization info
     --------------------
     sticks:   dense  smooth     PW     G-vecs:    dense   smooth      PW
     Min         746     276     74                46254    10430    1473
     Max         748     277     76                46255    10433    1475
     Sum       17927    6645   1805              1110111   250361   35385



     bravais-lattice index     =            0
     lattice parameter (alat)  =      18.6818  a.u.
     unit-cell volume          =    1852.2367 (a.u.)^3
     number of atoms/cell      =           25
     number of atomic types    =            4
     number of electrons       =       189.00
     number of Kohn-Sham states=          114
     kinetic-energy cutoff     =     100.0000  Ry
     charge density cutoff     =    1080.0000  Ry
     scf convergence threshold =      2.0E-10
     mixing beta               =       0.4000
     number of iterations used =            8  plain     mixing
     Exchange-correlation= PBE
                           (   1   4   3   4   0   0   0)

     celldm(1)=  18.681804  celldm(2)=   0.000000  celldm(3)=   0.000000
     celldm(4)=   0.000000  celldm(5)=   0.000000  celldm(6)=   0.000000

     crystal axes: (cart. coord. in units of alat)
               a(1) = (   1.000000   0.000000   0.000000 )  
               a(2) = (   0.000000   0.597590   0.000000 )  
               a(3) = (   0.000000   0.000000   0.475375 )  

     reciprocal axes: (cart. coord. in units 2 pi/alat)
               b(1) = (  1.000000  0.000000  0.000000 )  
               b(2) = (  0.000000  1.673388  0.000000 )  
               b(3) = (  0.000000  0.000000  2.103600 )  


     PseudoPot. # 1 for Fe read from file:
     /opt/QEpot/SSSP_precision_pseudos/Fe.pbe-spn-kjpaw_psl.0.2.1.UPF
     MD5 check sum: e86618425769142926afa95317d90200
     Pseudo is Projector augmented-wave + core cor, Zval = 16.0
     Generated using "atomic" code by A. Dal Corso  v.5.0.99 svn rev. 10869
     Shape of augmentation charge: PSQ
     Using radial grid of 1191 points,  6 beta functions with: 
                l(1) =   0
                l(2) =   0
                l(3) =   1
                l(4) =   1
                l(5) =   2
                l(6) =   2
     Q(r) pseudized with 0 coefficients 


     PseudoPot. # 2 for Na read from file:
     /opt/QEpot/SSSP_precision_pseudos/Na_ONCV_PBE-1.0.oncvpsp.upf
     MD5 check sum: 24a298df0a6742ae313db96548fdb2a4
     Pseudo is Norm-conserving, Zval =  9.0
     Generated using ONCVPSP code by D. R. Hamann
     Using radial grid of 1992 points,  4 beta functions with: 
                l(1) =   0
                l(2) =   0
                l(3) =   1
                l(4) =   1

     PseudoPot. # 3 for O  read from file:
     /opt/QEpot/SSSP_precision_pseudos/O.pbe-n-kjpaw_psl.0.1.UPF
     MD5 check sum: 0234752ac141de4415c5fc33072bef88
     Pseudo is Projector augmented-wave + core cor, Zval =  6.0
     Generated using "atomic" code by A. Dal Corso  v.5.0.99 svn rev. 10869
     Shape of augmentation charge: BESSEL
     Using radial grid of 1095 points,  4 beta functions with: 
                l(1) =   0
                l(2) =   0
                l(3) =   1
                l(4) =   1
     Q(r) pseudized with 0 coefficients 


     PseudoPot. # 4 for P  read from file:
     /opt/QEpot/SSSP_precision_pseudos/P.pbe-n-rrkjus_psl.1.0.0.UPF
     MD5 check sum: 8b930f418f0a4573dca56cd030ffe088
     Pseudo is Ultrasoft + core correction, Zval =  5.0
     Generated using "atomic" code by A. Dal Corso  v.5.1
     Using radial grid of 1147 points,  6 beta functions with: 
                l(1) =   0
                l(2) =   0
                l(3) =   1
                l(4) =   1
                l(5) =   2
                l(6) =   2
     Q(r) pseudized with 0 coefficients 


     atomic species   valence    mass     pseudopotential
        Fe            16.00    55.84500     Fe( 1.00)
        Na             9.00    22.98977     Na( 1.00)
        O              6.00    15.99940     O ( 1.00)
        P              5.00    30.97376     P ( 1.00)

     Starting magnetic structure 
     atomic species   magnetization
        Fe           0.312
        Na           0.000
        O            0.000
        P            0.000

     No symmetry found


                                    s                        frac. trans.

      isym =  1     identity                                     

 cryst.   s( 1) = (     1          0          0      )
                  (     0          1          0      )
                  (     0          0          1      )

 cart.    s( 1) = (  1.0000000  0.0000000  0.0000000 )
                  (  0.0000000  1.0000000  0.0000000 )
                  (  0.0000000  0.0000000  1.0000000 )


   Cartesian axes

     site n.     atom                  positions (alat units)
         1           Na  tau(   1) = (   0.5574590   0.1493981   0.2117218  )
         2           Fe  tau(   2) = (   0.2771150   0.4481954   0.4712830  )
         3           Fe  tau(   3) = (   0.2107060   0.1493969   0.2331517  )
         4           Fe  tau(   4) = (   0.7302140   0.1493975   0.0000509  )
         5           Fe  tau(   5) = (   0.7810190   0.4481960   0.2445945  )
         6           P   tau(   6) = (   0.1051510   0.4481942   0.2110135  )
         7           P   tau(   7) = (   0.3871250   0.1493987   0.4475898  )
         8           P   tau(   8) = (   0.8922730   0.1493987   0.2646059  )
         9           P   tau(   9) = (   0.6039150   0.4481942   0.0314295  )
        10           O   tau(  10) = (   0.1313210   0.4481948   0.3569352  )
        11           O   tau(  11) = (   0.3628270   0.1493981   0.1186442  )
        12           O   tau(  12) = (   0.8714480   0.1493981   0.1180971  )
        13           O   tau(  13) = (   0.6323650   0.4481948   0.3613614  )
        14           O   tau(  14) = (   0.4574600   0.4481948   0.0568269  )
        15           O   tau(  15) = (   0.0361810   0.1493981   0.2982587  )
        16           O   tau(  16) = (   0.5358400   0.1493975   0.4259246  )
        17           O   tau(  17) = (   0.9582930   0.4481948   0.1859797  )
        18           O   tau(  18) = (   0.1741600   0.5648814   0.1424125  )
        19           O   tau(  19) = (   0.3208130   0.0329153   0.3780219  )
        20           O   tau(  20) = (   0.8175190   0.2646445   0.3306455  )
        21           O   tau(  21) = (   0.6721860   0.3307857   0.1012997  )
        22           O   tau(  22) = (   0.8175190   0.0341529   0.3306460  )
        23           O   tau(  23) = (   0.6721870   0.5656027   0.1013006  )
        24           O   tau(  24) = (   0.1741600   0.3315070   0.1424125  )
        25           O   tau(  25) = (   0.3208140   0.2658821   0.3780229  )

   Crystallographic axes

     site n.     atom                  positions (cryst. coord.)
         1           Na  tau(   1) = (  0.5574590  0.2500010  0.4453780  )
         2           Fe  tau(   2) = (  0.2771150  0.7500050  0.9913910  )
         3           Fe  tau(   3) = (  0.2107060  0.2499990  0.4904580  )
         4           Fe  tau(   4) = (  0.7302140  0.2500000  0.0001070  )
         5           Fe  tau(   5) = (  0.7810190  0.7500060  0.5145290  )
         6           P   tau(   6) = (  0.1051510  0.7500030  0.4438880  )
         7           P   tau(   7) = (  0.3871250  0.2500020  0.9415500  )
         8           P   tau(   8) = (  0.8922730  0.2500020  0.5566250  )
         9           P   tau(   9) = (  0.6039150  0.7500030  0.0661150  )
        10           O   tau(  10) = (  0.1313210  0.7500040  0.7508490  )
        11           O   tau(  11) = (  0.3628270  0.2500010  0.2495800  )
        12           O   tau(  12) = (  0.8714480  0.2500010  0.2484290  )
        13           O   tau(  13) = (  0.6323650  0.7500040  0.7601600  )
        14           O   tau(  14) = (  0.4574600  0.7500040  0.1195410  )
        15           O   tau(  15) = (  0.0361810  0.2500010  0.6274170  )
        16           O   tau(  16) = (  0.5358400  0.2500000  0.8959750  )
        17           O   tau(  17) = (  0.9582930  0.7500040  0.3912270  )
        18           O   tau(  18) = (  0.1741600  0.9452660  0.2995790  )
        19           O   tau(  19) = (  0.3208130  0.0550800  0.7952070  )
        20           O   tau(  20) = (  0.8175190  0.4428530  0.6955460  )
        21           O   tau(  21) = (  0.6721860  0.5535330  0.2130940  )
        22           O   tau(  22) = (  0.8175190  0.0571510  0.6955470  )
        23           O   tau(  23) = (  0.6721870  0.9464730  0.2130960  )
        24           O   tau(  24) = (  0.1741600  0.5547400  0.2995790  )
        25           O   tau(  25) = (  0.3208140  0.4449240  0.7952090  )

     number of k points=   158  Marzari-Vanderbilt smearing, width (Ry)=  0.0073
                       cart. coord. in units 2pi/alat
        k(    1) = (   0.0000000   0.0000000   0.0000000), wk =   0.0031746
        k(    2) = (   0.0000000   0.0000000   0.2337334), wk =   0.0063492
        k(    3) = (   0.0000000   0.0000000   0.4674667), wk =   0.0063492
        k(    4) = (   0.0000000   0.0000000   0.7012001), wk =   0.0063492
        k(    5) = (   0.0000000   0.0000000   0.9349334), wk =   0.0063492
        k(    6) = (   0.0000000   0.2390555   0.0000000), wk =   0.0063492
        k(    7) = (   0.0000000   0.2390555   0.2337334), wk =   0.0063492
        k(    8) = (   0.0000000   0.2390555   0.4674667), wk =   0.0063492
        k(    9) = (   0.0000000   0.2390555   0.7012001), wk =   0.0063492
        k(   10) = (   0.0000000   0.2390555   0.9349334), wk =   0.0063492
        k(   11) = (   0.0000000   0.4781110   0.0000000), wk =   0.0063492
        k(   12) = (   0.0000000   0.4781110   0.2337334), wk =   0.0063492
        k(   13) = (   0.0000000   0.4781110   0.4674667), wk =   0.0063492
        k(   14) = (   0.0000000   0.4781110   0.7012001), wk =   0.0063492
        k(   15) = (   0.0000000   0.4781110   0.9349334), wk =   0.0063492
        k(   16) = (   0.0000000   0.7171664   0.0000000), wk =   0.0063492
        k(   17) = (   0.0000000   0.7171664   0.2337334), wk =   0.0063492
        k(   18) = (   0.0000000   0.7171664   0.4674667), wk =   0.0063492
        k(   19) = (   0.0000000   0.7171664   0.7012001), wk =   0.0063492
        k(   20) = (   0.0000000   0.7171664   0.9349334), wk =   0.0063492
        k(   21) = (   0.2000000   0.0000000   0.0000000), wk =   0.0063492
        k(   22) = (   0.2000000   0.0000000   0.2337334), wk =   0.0063492
        k(   23) = (   0.2000000   0.0000000   0.4674667), wk =   0.0063492
        k(   24) = (   0.2000000   0.0000000   0.7012001), wk =   0.0063492
        k(   25) = (   0.2000000   0.0000000   0.9349334), wk =   0.0063492
        k(   26) = (   0.2000000   0.2390555   0.0000000), wk =   0.0063492
        k(   27) = (   0.2000000   0.2390555   0.2337334), wk =   0.0063492
        k(   28) = (   0.2000000   0.2390555   0.4674667), wk =   0.0063492
        k(   29) = (   0.2000000   0.2390555   0.7012001), wk =   0.0063492
        k(   30) = (   0.2000000   0.2390555   0.9349334), wk =   0.0063492
        k(   31) = (   0.2000000   0.4781110   0.0000000), wk =   0.0063492
        k(   32) = (   0.2000000   0.4781110   0.2337334), wk =   0.0063492
        k(   33) = (   0.2000000   0.4781110   0.4674667), wk =   0.0063492
        k(   34) = (   0.2000000   0.4781110   0.7012001), wk =   0.0063492
        k(   35) = (   0.2000000   0.4781110   0.9349334), wk =   0.0063492
        k(   36) = (   0.2000000   0.7171664   0.0000000), wk =   0.0063492
        k(   37) = (   0.2000000   0.7171664   0.2337334), wk =   0.0063492
        k(   38) = (   0.2000000   0.7171664   0.4674667), wk =   0.0063492
        k(   39) = (   0.2000000   0.7171664   0.7012001), wk =   0.0063492
        k(   40) = (   0.2000000   0.7171664   0.9349334), wk =   0.0063492
        k(   41) = (   0.4000000   0.0000000   0.0000000), wk =   0.0063492
        k(   42) = (   0.4000000   0.0000000   0.2337334), wk =   0.0063492
        k(   43) = (   0.4000000   0.0000000   0.4674667), wk =   0.0063492
        k(   44) = (   0.4000000   0.0000000   0.7012001), wk =   0.0063492
        k(   45) = (   0.4000000   0.0000000   0.9349334), wk =   0.0063492
        k(   46) = (   0.4000000   0.2390555   0.0000000), wk =   0.0063492
        k(   47) = (   0.4000000   0.2390555   0.2337334), wk =   0.0063492
        k(   48) = (   0.4000000   0.2390555   0.4674667), wk =   0.0063492
        k(   49) = (   0.4000000   0.2390555   0.7012001), wk =   0.0063492
        k(   50) = (   0.4000000   0.2390555   0.9349334), wk =   0.0063492
        k(   51) = (   0.4000000   0.4781110   0.0000000), wk =   0.0063492
        k(   52) = (   0.4000000   0.4781110   0.2337334), wk =   0.0063492
        k(   53) = (   0.4000000   0.4781110   0.4674667), wk =   0.0063492
        k(   54) = (   0.4000000   0.4781110   0.7012001), wk =   0.0063492
        k(   55) = (   0.4000000   0.4781110   0.9349334), wk =   0.0063492
        k(   56) = (   0.4000000   0.7171664   0.0000000), wk =   0.0063492
        k(   57) = (   0.4000000   0.7171664   0.2337334), wk =   0.0063492
        k(   58) = (   0.4000000   0.7171664   0.4674667), wk =   0.0063492
        k(   59) = (   0.4000000   0.7171664   0.7012001), wk =   0.0063492
        k(   60) = (   0.4000000   0.7171664   0.9349334), wk =   0.0063492
        k(   61) = (   0.0000000  -0.2390555   0.2337334), wk =   0.0063492
        k(   62) = (   0.0000000  -0.2390555   0.4674667), wk =   0.0063492
        k(   63) = (   0.0000000  -0.2390555   0.7012001), wk =   0.0063492
        k(   64) = (   0.0000000  -0.2390555   0.9349334), wk =   0.0063492
        k(   65) = (   0.0000000  -0.4781110   0.2337334), wk =   0.0063492
        k(   66) = (   0.0000000  -0.4781110   0.4674667), wk =   0.0063492
        k(   67) = (   0.0000000  -0.4781110   0.7012001), wk =   0.0063492
        k(   68) = (   0.0000000  -0.4781110   0.9349334), wk =   0.0063492
        k(   69) = (   0.0000000  -0.7171664   0.2337334), wk =   0.0063492
        k(   70) = (   0.0000000  -0.7171664   0.4674667), wk =   0.0063492
        k(   71) = (   0.0000000  -0.7171664   0.7012001), wk =   0.0063492
        k(   72) = (   0.0000000  -0.7171664   0.9349334), wk =   0.0063492
        k(   73) = (  -0.2000000   0.0000000   0.2337334), wk =   0.0063492
        k(   74) = (  -0.2000000   0.0000000   0.4674667), wk =   0.0063492
        k(   75) = (  -0.2000000   0.0000000   0.7012001), wk =   0.0063492
        k(   76) = (  -0.2000000   0.0000000   0.9349334), wk =   0.0063492
        k(   77) = (  -0.2000000   0.2390555   0.0000000), wk =   0.0063492
        k(   78) = (  -0.2000000  -0.2390555   0.2337334), wk =   0.0063492
        k(   79) = (  -0.2000000   0.2390555  -0.2337334), wk =   0.0063492
        k(   80) = (   0.2000000  -0.2390555  -0.2337334), wk =   0.0063492
        k(   81) = (  -0.2000000  -0.2390555   0.4674667), wk =   0.0063492
        k(   82) = (  -0.2000000   0.2390555  -0.4674667), wk =   0.0063492
        k(   83) = (   0.2000000  -0.2390555  -0.4674667), wk =   0.0063492
        k(   84) = (  -0.2000000  -0.2390555   0.7012001), wk =   0.0063492
        k(   85) = (  -0.2000000   0.2390555  -0.7012001), wk =   0.0063492
        k(   86) = (   0.2000000  -0.2390555  -0.7012001), wk =   0.0063492
        k(   87) = (  -0.2000000  -0.2390555   0.9349334), wk =   0.0063492
        k(   88) = (  -0.2000000   0.2390555  -0.9349334), wk =   0.0063492
        k(   89) = (   0.2000000  -0.2390555  -0.9349334), wk =   0.0063492
        k(   90) = (  -0.2000000   0.4781110   0.0000000), wk =   0.0063492
        k(   91) = (  -0.2000000  -0.4781110   0.2337334), wk =   0.0063492
        k(   92) = (  -0.2000000   0.4781110  -0.2337334), wk =   0.0063492
        k(   93) = (   0.2000000  -0.4781110  -0.2337334), wk =   0.0063492
        k(   94) = (  -0.2000000  -0.4781110   0.4674667), wk =   0.0063492
        k(   95) = (  -0.2000000   0.4781110  -0.4674667), wk =   0.0063492
        k(   96) = (   0.2000000  -0.4781110  -0.4674667), wk =   0.0063492
        k(   97) = (  -0.2000000  -0.4781110   0.7012001), wk =   0.0063492
        k(   98) = (  -0.2000000   0.4781110  -0.7012001), wk =   0.0063492
        k(   99) = (   0.2000000  -0.4781110  -0.7012001), wk =   0.0063492
        k(  100) = (  -0.2000000  -0.4781110   0.9349334), wk =   0.0063492
        k(  101) = (  -0.2000000   0.4781110  -0.9349334), wk =   0.0063492
        k(  102) = (   0.2000000  -0.4781110  -0.9349334), wk =   0.0063492
        k(  103) = (  -0.2000000   0.7171664   0.0000000), wk =   0.0063492
        k(  104) = (  -0.2000000  -0.7171664   0.2337334), wk =   0.0063492
        k(  105) = (  -0.2000000   0.7171664  -0.2337334), wk =   0.0063492
        k(  106) = (   0.2000000  -0.7171664  -0.2337334), wk =   0.0063492
        k(  107) = (  -0.2000000  -0.7171664   0.4674667), wk =   0.0063492
        k(  108) = (  -0.2000000   0.7171664  -0.4674667), wk =   0.0063492
        k(  109) = (   0.2000000  -0.7171664  -0.4674667), wk =   0.0063492
        k(  110) = (  -0.2000000  -0.7171664   0.7012001), wk =   0.0063492
        k(  111) = (  -0.2000000   0.7171664  -0.7012001), wk =   0.0063492
        k(  112) = (   0.2000000  -0.7171664  -0.7012001), wk =   0.0063492
        k(  113) = (  -0.2000000  -0.7171664   0.9349334), wk =   0.0063492
        k(  114) = (  -0.2000000   0.7171664  -0.9349334), wk =   0.0063492
        k(  115) = (   0.2000000  -0.7171664  -0.9349334), wk =   0.0063492
        k(  116) = (  -0.4000000   0.0000000   0.2337334), wk =   0.0063492
        k(  117) = (  -0.4000000   0.0000000   0.4674667), wk =   0.0063492
        k(  118) = (  -0.4000000   0.0000000   0.7012001), wk =   0.0063492
        k(  119) = (  -0.4000000   0.0000000   0.9349334), wk =   0.0063492
        k(  120) = (  -0.4000000   0.2390555   0.0000000), wk =   0.0063492
        k(  121) = (  -0.4000000  -0.2390555   0.2337334), wk =   0.0063492
        k(  122) = (  -0.4000000   0.2390555  -0.2337334), wk =   0.0063492
        k(  123) = (   0.4000000  -0.2390555  -0.2337334), wk =   0.0063492
        k(  124) = (  -0.4000000  -0.2390555   0.4674667), wk =   0.0063492
        k(  125) = (  -0.4000000   0.2390555  -0.4674667), wk =   0.0063492
        k(  126) = (   0.4000000  -0.2390555  -0.4674667), wk =   0.0063492
        k(  127) = (  -0.4000000  -0.2390555   0.7012001), wk =   0.0063492
        k(  128) = (  -0.4000000   0.2390555  -0.7012001), wk =   0.0063492
        k(  129) = (   0.4000000  -0.2390555  -0.7012001), wk =   0.0063492
        k(  130) = (  -0.4000000  -0.2390555   0.9349334), wk =   0.0063492
        k(  131) = (  -0.4000000   0.2390555  -0.9349334), wk =   0.0063492
        k(  132) = (   0.4000000  -0.2390555  -0.9349334), wk =   0.0063492
        k(  133) = (  -0.4000000   0.4781110   0.0000000), wk =   0.0063492
        k(  134) = (  -0.4000000  -0.4781110   0.2337334), wk =   0.0063492
        k(  135) = (  -0.4000000   0.4781110  -0.2337334), wk =   0.0063492
        k(  136) = (   0.4000000  -0.4781110  -0.2337334), wk =   0.0063492
        k(  137) = (  -0.4000000  -0.4781110   0.4674667), wk =   0.0063492
        k(  138) = (  -0.4000000   0.4781110  -0.4674667), wk =   0.0063492
        k(  139) = (   0.4000000  -0.4781110  -0.4674667), wk =   0.0063492
        k(  140) = (  -0.4000000  -0.4781110   0.7012001), wk =   0.0063492
        k(  141) = (  -0.4000000   0.4781110  -0.7012001), wk =   0.0063492
        k(  142) = (   0.4000000  -0.4781110  -0.7012001), wk =   0.0063492
        k(  143) = (  -0.4000000  -0.4781110   0.9349334), wk =   0.0063492
        k(  144) = (  -0.4000000   0.4781110  -0.9349334), wk =   0.0063492
        k(  145) = (   0.4000000  -0.4781110  -0.9349334), wk =   0.0063492
        k(  146) = (  -0.4000000   0.7171664   0.0000000), wk =   0.0063492
        k(  147) = (  -0.4000000  -0.7171664   0.2337334), wk =   0.0063492
        k(  148) = (  -0.4000000   0.7171664  -0.2337334), wk =   0.0063492
        k(  149) = (   0.4000000  -0.7171664  -0.2337334), wk =   0.0063492
        k(  150) = (  -0.4000000  -0.7171664   0.4674667), wk =   0.0063492
        k(  151) = (  -0.4000000   0.7171664  -0.4674667), wk =   0.0063492
        k(  152) = (   0.4000000  -0.7171664  -0.4674667), wk =   0.0063492
        k(  153) = (  -0.4000000  -0.7171664   0.7012001), wk =   0.0063492
        k(  154) = (  -0.4000000   0.7171664  -0.7012001), wk =   0.0063492
        k(  155) = (   0.4000000  -0.7171664  -0.7012001), wk =   0.0063492
        k(  156) = (  -0.4000000  -0.7171664   0.9349334), wk =   0.0063492
        k(  157) = (  -0.4000000   0.7171664  -0.9349334), wk =   0.0063492
        k(  158) = (   0.4000000  -0.7171664  -0.9349334), wk =   0.0063492

                       cryst. coord.
        k(    1) = (   0.0000000   0.0000000   0.0000000), wk =   0.0031746
        k(    2) = (   0.0000000   0.0000000   0.1111111), wk =   0.0063492
        k(    3) = (   0.0000000   0.0000000   0.2222222), wk =   0.0063492
        k(    4) = (   0.0000000   0.0000000   0.3333333), wk =   0.0063492
        k(    5) = (   0.0000000   0.0000000   0.4444444), wk =   0.0063492
        k(    6) = (   0.0000000   0.1428571   0.0000000), wk =   0.0063492
        k(    7) = (   0.0000000   0.1428571   0.1111111), wk =   0.0063492
        k(    8) = (   0.0000000   0.1428571   0.2222222), wk =   0.0063492
        k(    9) = (   0.0000000   0.1428571   0.3333333), wk =   0.0063492
        k(   10) = (   0.0000000   0.1428571   0.4444444), wk =   0.0063492
        k(   11) = (   0.0000000   0.2857143   0.0000000), wk =   0.0063492
        k(   12) = (   0.0000000   0.2857143   0.1111111), wk =   0.0063492
        k(   13) = (   0.0000000   0.2857143   0.2222222), wk =   0.0063492
        k(   14) = (   0.0000000   0.2857143   0.3333333), wk =   0.0063492
        k(   15) = (   0.0000000   0.2857143   0.4444444), wk =   0.0063492
        k(   16) = (   0.0000000   0.4285714   0.0000000), wk =   0.0063492
        k(   17) = (   0.0000000   0.4285714   0.1111111), wk =   0.0063492
        k(   18) = (   0.0000000   0.4285714   0.2222222), wk =   0.0063492
        k(   19) = (   0.0000000   0.4285714   0.3333333), wk =   0.0063492
        k(   20) = (   0.0000000   0.4285714   0.4444444), wk =   0.0063492
        k(   21) = (   0.2000000   0.0000000   0.0000000), wk =   0.0063492
        k(   22) = (   0.2000000   0.0000000   0.1111111), wk =   0.0063492
        k(   23) = (   0.2000000   0.0000000   0.2222222), wk =   0.0063492
        k(   24) = (   0.2000000   0.0000000   0.3333333), wk =   0.0063492
        k(   25) = (   0.2000000   0.0000000   0.4444444), wk =   0.0063492
        k(   26) = (   0.2000000   0.1428571   0.0000000), wk =   0.0063492
        k(   27) = (   0.2000000   0.1428571   0.1111111), wk =   0.0063492
        k(   28) = (   0.2000000   0.1428571   0.2222222), wk =   0.0063492
        k(   29) = (   0.2000000   0.1428571   0.3333333), wk =   0.0063492
        k(   30) = (   0.2000000   0.1428571   0.4444444), wk =   0.0063492
        k(   31) = (   0.2000000   0.2857143   0.0000000), wk =   0.0063492
        k(   32) = (   0.2000000   0.2857143   0.1111111), wk =   0.0063492
        k(   33) = (   0.2000000   0.2857143   0.2222222), wk =   0.0063492
        k(   34) = (   0.2000000   0.2857143   0.3333333), wk =   0.0063492
        k(   35) = (   0.2000000   0.2857143   0.4444444), wk =   0.0063492
        k(   36) = (   0.2000000   0.4285714   0.0000000), wk =   0.0063492
        k(   37) = (   0.2000000   0.4285714   0.1111111), wk =   0.0063492
        k(   38) = (   0.2000000   0.4285714   0.2222222), wk =   0.0063492
        k(   39) = (   0.2000000   0.4285714   0.3333333), wk =   0.0063492
        k(   40) = (   0.2000000   0.4285714   0.4444444), wk =   0.0063492
        k(   41) = (   0.4000000   0.0000000   0.0000000), wk =   0.0063492
        k(   42) = (   0.4000000   0.0000000   0.1111111), wk =   0.0063492
        k(   43) = (   0.4000000   0.0000000   0.2222222), wk =   0.0063492
        k(   44) = (   0.4000000   0.0000000   0.3333333), wk =   0.0063492
        k(   45) = (   0.4000000   0.0000000   0.4444444), wk =   0.0063492
        k(   46) = (   0.4000000   0.1428571   0.0000000), wk =   0.0063492
        k(   47) = (   0.4000000   0.1428571   0.1111111), wk =   0.0063492
        k(   48) = (   0.4000000   0.1428571   0.2222222), wk =   0.0063492
        k(   49) = (   0.4000000   0.1428571   0.3333333), wk =   0.0063492
        k(   50) = (   0.4000000   0.1428571   0.4444444), wk =   0.0063492
        k(   51) = (   0.4000000   0.2857143   0.0000000), wk =   0.0063492
        k(   52) = (   0.4000000   0.2857143   0.1111111), wk =   0.0063492
        k(   53) = (   0.4000000   0.2857143   0.2222222), wk =   0.0063492
        k(   54) = (   0.4000000   0.2857143   0.3333333), wk =   0.0063492
        k(   55) = (   0.4000000   0.2857143   0.4444444), wk =   0.0063492
        k(   56) = (   0.4000000   0.4285714   0.0000000), wk =   0.0063492
        k(   57) = (   0.4000000   0.4285714   0.1111111), wk =   0.0063492
        k(   58) = (   0.4000000   0.4285714   0.2222222), wk =   0.0063492
        k(   59) = (   0.4000000   0.4285714   0.3333333), wk =   0.0063492
        k(   60) = (   0.4000000   0.4285714   0.4444444), wk =   0.0063492
        k(   61) = (   0.0000000  -0.1428571   0.1111111), wk =   0.0063492
        k(   62) = (   0.0000000  -0.1428571   0.2222222), wk =   0.0063492
        k(   63) = (   0.0000000  -0.1428571   0.3333333), wk =   0.0063492
        k(   64) = (   0.0000000  -0.1428571   0.4444444), wk =   0.0063492
        k(   65) = (   0.0000000  -0.2857143   0.1111111), wk =   0.0063492
        k(   66) = (   0.0000000  -0.2857143   0.2222222), wk =   0.0063492
        k(   67) = (   0.0000000  -0.2857143   0.3333333), wk =   0.0063492
        k(   68) = (   0.0000000  -0.2857143   0.4444444), wk =   0.0063492
        k(   69) = (   0.0000000  -0.4285714   0.1111111), wk =   0.0063492
        k(   70) = (   0.0000000  -0.4285714   0.2222222), wk =   0.0063492
        k(   71) = (   0.0000000  -0.4285714   0.3333333), wk =   0.0063492
        k(   72) = (   0.0000000  -0.4285714   0.4444444), wk =   0.0063492
        k(   73) = (  -0.2000000   0.0000000   0.1111111), wk =   0.0063492
        k(   74) = (  -0.2000000   0.0000000   0.2222222), wk =   0.0063492
        k(   75) = (  -0.2000000   0.0000000   0.3333333), wk =   0.0063492
        k(   76) = (  -0.2000000   0.0000000   0.4444444), wk =   0.0063492
        k(   77) = (  -0.2000000   0.1428571   0.0000000), wk =   0.0063492
        k(   78) = (  -0.2000000  -0.1428571   0.1111111), wk =   0.0063492
        k(   79) = (  -0.2000000   0.1428571  -0.1111111), wk =   0.0063492
        k(   80) = (   0.2000000  -0.1428571  -0.1111111), wk =   0.0063492
        k(   81) = (  -0.2000000  -0.1428571   0.2222222), wk =   0.0063492
        k(   82) = (  -0.2000000   0.1428571  -0.2222222), wk =   0.0063492
        k(   83) = (   0.2000000  -0.1428571  -0.2222222), wk =   0.0063492
        k(   84) = (  -0.2000000  -0.1428571   0.3333333), wk =   0.0063492
        k(   85) = (  -0.2000000   0.1428571  -0.3333333), wk =   0.0063492
        k(   86) = (   0.2000000  -0.1428571  -0.3333333), wk =   0.0063492
        k(   87) = (  -0.2000000  -0.1428571   0.4444444), wk =   0.0063492
        k(   88) = (  -0.2000000   0.1428571  -0.4444444), wk =   0.0063492
        k(   89) = (   0.2000000  -0.1428571  -0.4444444), wk =   0.0063492
        k(   90) = (  -0.2000000   0.2857143   0.0000000), wk =   0.0063492
        k(   91) = (  -0.2000000  -0.2857143   0.1111111), wk =   0.0063492
        k(   92) = (  -0.2000000   0.2857143  -0.1111111), wk =   0.0063492
        k(   93) = (   0.2000000  -0.2857143  -0.1111111), wk =   0.0063492
        k(   94) = (  -0.2000000  -0.2857143   0.2222222), wk =   0.0063492
        k(   95) = (  -0.2000000   0.2857143  -0.2222222), wk =   0.0063492
        k(   96) = (   0.2000000  -0.2857143  -0.2222222), wk =   0.0063492
        k(   97) = (  -0.2000000  -0.2857143   0.3333333), wk =   0.0063492
        k(   98) = (  -0.2000000   0.2857143  -0.3333333), wk =   0.0063492
        k(   99) = (   0.2000000  -0.2857143  -0.3333333), wk =   0.0063492
        k(  100) = (  -0.2000000  -0.2857143   0.4444444), wk =   0.0063492
        k(  101) = (  -0.2000000   0.2857143  -0.4444444), wk =   0.0063492
        k(  102) = (   0.2000000  -0.2857143  -0.4444444), wk =   0.0063492
        k(  103) = (  -0.2000000   0.4285714   0.0000000), wk =   0.0063492
        k(  104) = (  -0.2000000  -0.4285714   0.1111111), wk =   0.0063492
        k(  105) = (  -0.2000000   0.4285714  -0.1111111), wk =   0.0063492
        k(  106) = (   0.2000000  -0.4285714  -0.1111111), wk =   0.0063492
        k(  107) = (  -0.2000000  -0.4285714   0.2222222), wk =   0.0063492
        k(  108) = (  -0.2000000   0.4285714  -0.2222222), wk =   0.0063492
        k(  109) = (   0.2000000  -0.4285714  -0.2222222), wk =   0.0063492
        k(  110) = (  -0.2000000  -0.4285714   0.3333333), wk =   0.0063492
        k(  111) = (  -0.2000000   0.4285714  -0.3333333), wk =   0.0063492
        k(  112) = (   0.2000000  -0.4285714  -0.3333333), wk =   0.0063492
        k(  113) = (  -0.2000000  -0.4285714   0.4444444), wk =   0.0063492
        k(  114) = (  -0.2000000   0.4285714  -0.4444444), wk =   0.0063492
        k(  115) = (   0.2000000  -0.4285714  -0.4444444), wk =   0.0063492
        k(  116) = (  -0.4000000   0.0000000   0.1111111), wk =   0.0063492
        k(  117) = (  -0.4000000   0.0000000   0.2222222), wk =   0.0063492
        k(  118) = (  -0.4000000   0.0000000   0.3333333), wk =   0.0063492
        k(  119) = (  -0.4000000   0.0000000   0.4444444), wk =   0.0063492
        k(  120) = (  -0.4000000   0.1428571   0.0000000), wk =   0.0063492
        k(  121) = (  -0.4000000  -0.1428571   0.1111111), wk =   0.0063492
        k(  122) = (  -0.4000000   0.1428571  -0.1111111), wk =   0.0063492
        k(  123) = (   0.4000000  -0.1428571  -0.1111111), wk =   0.0063492
        k(  124) = (  -0.4000000  -0.1428571   0.2222222), wk =   0.0063492
        k(  125) = (  -0.4000000   0.1428571  -0.2222222), wk =   0.0063492
        k(  126) = (   0.4000000  -0.1428571  -0.2222222), wk =   0.0063492
        k(  127) = (  -0.4000000  -0.1428571   0.3333333), wk =   0.0063492
        k(  128) = (  -0.4000000   0.1428571  -0.3333333), wk =   0.0063492
        k(  129) = (   0.4000000  -0.1428571  -0.3333333), wk =   0.0063492
        k(  130) = (  -0.4000000  -0.1428571   0.4444444), wk =   0.0063492
        k(  131) = (  -0.4000000   0.1428571  -0.4444444), wk =   0.0063492
        k(  132) = (   0.4000000  -0.1428571  -0.4444444), wk =   0.0063492
        k(  133) = (  -0.4000000   0.2857143   0.0000000), wk =   0.0063492
        k(  134) = (  -0.4000000  -0.2857143   0.1111111), wk =   0.0063492
        k(  135) = (  -0.4000000   0.2857143  -0.1111111), wk =   0.0063492
        k(  136) = (   0.4000000  -0.2857143  -0.1111111), wk =   0.0063492
        k(  137) = (  -0.4000000  -0.2857143   0.2222222), wk =   0.0063492
        k(  138) = (  -0.4000000   0.2857143  -0.2222222), wk =   0.0063492
        k(  139) = (   0.4000000  -0.2857143  -0.2222222), wk =   0.0063492
        k(  140) = (  -0.4000000  -0.2857143   0.3333333), wk =   0.0063492
        k(  141) = (  -0.4000000   0.2857143  -0.3333333), wk =   0.0063492
        k(  142) = (   0.4000000  -0.2857143  -0.3333333), wk =   0.0063492
        k(  143) = (  -0.4000000  -0.2857143   0.4444444), wk =   0.0063492
        k(  144) = (  -0.4000000   0.2857143  -0.4444444), wk =   0.0063492
        k(  145) = (   0.4000000  -0.2857143  -0.4444444), wk =   0.0063492
        k(  146) = (  -0.4000000   0.4285714   0.0000000), wk =   0.0063492
        k(  147) = (  -0.4000000  -0.4285714   0.1111111), wk =   0.0063492
        k(  148) = (  -0.4000000   0.4285714  -0.1111111), wk =   0.0063492
        k(  149) = (   0.4000000  -0.4285714  -0.1111111), wk =   0.0063492
        k(  150) = (  -0.4000000  -0.4285714   0.2222222), wk =   0.0063492
        k(  151) = (  -0.4000000   0.4285714  -0.2222222), wk =   0.0063492
        k(  152) = (   0.4000000  -0.4285714  -0.2222222), wk =   0.0063492
        k(  153) = (  -0.4000000  -0.4285714   0.3333333), wk =   0.0063492
        k(  154) = (  -0.4000000   0.4285714  -0.3333333), wk =   0.0063492
        k(  155) = (   0.4000000  -0.4285714  -0.3333333), wk =   0.0063492
        k(  156) = (  -0.4000000  -0.4285714   0.4444444), wk =   0.0063492
        k(  157) = (  -0.4000000   0.4285714  -0.4444444), wk =   0.0063492
        k(  158) = (   0.4000000  -0.4285714  -0.4444444), wk =   0.0063492

     Dense  grid:  1110111 G-vectors     FFT dimensions: ( 200, 120,  96)

     Smooth grid:   250361 G-vectors     FFT dimensions: ( 120,  72,  60)

     Dynamical RAM for                 wfc:       2.27 MB

     Dynamical RAM for     wfc (w. buffer):     718.50 MB

     Dynamical RAM for           str. fact:       2.82 MB

     Dynamical RAM for           local pot:       0.00 MB

     Dynamical RAM for          nlocal pot:       5.57 MB

     Dynamical RAM for                qrad:      10.54 MB

     Dynamical RAM for          rho,v,vnew:       8.63 MB

     Dynamical RAM for               rhoin:       2.88 MB

     Dynamical RAM for            rho*nmix:      22.58 MB

     Dynamical RAM for           G-vectors:       2.73 MB

     Dynamical RAM for          h,s,v(r/c):       2.38 MB

     Dynamical RAM for          <psi|beta>:       0.49 MB

     Dynamical RAM for                 psi:       4.53 MB

     Dynamical RAM for                hpsi:       4.53 MB

     Dynamical RAM for                spsi:       4.53 MB

     Dynamical RAM for      wfcinit/wfcrot:       5.88 MB

     Dynamical RAM for           addusdens:     143.27 MB

     Dynamical RAM for          addusforce:     164.57 MB

     Dynamical RAM for         addusstress:     142.92 MB

     Estimated static dynamical RAM per process >     782.18 MB

     Estimated max dynamical RAM per process >     946.75 MB

     Estimated total dynamical RAM >      22.19 GB

     Check: negative core charge=   -0.000003
     Generating pointlists ...
     new r_m :   0.0759 (alat units)  1.4185 (a.u.) for type    1
     new r_m :   0.0888 (alat units)  1.6591 (a.u.) for type    2
     new r_m :   0.0610 (alat units)  1.1389 (a.u.) for type    3
     new r_m :   0.0610 (alat units)  1.1389 (a.u.) for type    4

     Initial potential from superposition of free atoms

     starting charge  188.99132, renormalised to  189.00000
     Starting wfcs are  137 randomized atomic wfcs
     Checking if some PAW data can be deallocated... 
       PAW data deallocated on   20 nodes for type:  1
       PAW data deallocated on    8 nodes for type:  3

     total cpu time spent up to now is      471.4 secs

     Self-consistent Calculation

     iteration #  1     ecut=   100.00 Ry     beta= 0.40
     Davidson diagonalization with overlap
     ethr =  1.00E-02,  avg # of iterations =  3.9

     negative rho (up, down):  0.000E+00 1.305E-04

     total cpu time spent up to now is     1054.1 secs

     total energy              =   -2123.81599482 Ry
     estimated scf accuracy    <       6.87728773 Ry

     total magnetization       =    19.00 Bohr mag/cell
     absolute magnetization    =    19.00 Bohr mag/cell

     iteration #  2     ecut=   100.00 Ry     beta= 0.40
     Davidson diagonalization with overlap
     ethr =  3.64E-03,  avg # of iterations =  2.0

     negative rho (up, down):  0.000E+00 9.495E-05

     total cpu time spent up to now is     3020.7 secs

     total energy              =   -2120.98609033 Ry
     estimated scf accuracy    <      40.27967348 Ry

     total magnetization       =     7.94 Bohr mag/cell
     absolute magnetization    =     9.07 Bohr mag/cell

     iteration #  3     ecut=   100.00 Ry     beta= 0.40
     Davidson diagonalization with overlap
     ethr =  3.64E-03,  avg # of iterations =  2.6

     negative rho (up, down):  0.000E+00 6.206E-05

     total cpu time spent up to now is     3438.7 secs

     total energy              =   -2123.46300651 Ry
     estimated scf accuracy    <      60.69649414 Ry

     total magnetization       =     3.06 Bohr mag/cell
     absolute magnetization    =     7.18 Bohr mag/cell

     iteration #  4     ecut=   100.00 Ry     beta= 0.40
     Davidson diagonalization with overlap
     ethr =  3.64E-03,  avg # of iterations =  1.4

     negative rho (up, down):  0.000E+00 5.734E-05

     total cpu time spent up to now is     3791.6 secs

     total energy              =   -2124.36031280 Ry
     estimated scf accuracy    <      31.61557221 Ry

     total magnetization       =     9.00 Bohr mag/cell
     absolute magnetization    =     9.54 Bohr mag/cell

     iteration #  5     ecut=   100.00 Ry     beta= 0.40
     Davidson diagonalization with overlap
     ethr =  3.64E-03,  avg # of iterations =  2.0

     negative rho (up, down):  0.000E+00 1.764E-04

     total cpu time spent up to now is     4191.3 secs

     total energy              =   -2125.75281505 Ry
     estimated scf accuracy    <       1.16904018 Ry

     total magnetization       =    19.01 Bohr mag/cell
     absolute magnetization    =    19.01 Bohr mag/cell

     iteration #  6     ecut=   100.00 Ry     beta= 0.40
     Davidson diagonalization with overlap
     ethr =  6.19E-04,  avg # of iterations =  2.2

     negative rho (up, down):  0.000E+00 2.786E-04

     total cpu time spent up to now is     4595.3 secs

     total energy              =   -2125.84811836 Ry
     estimated scf accuracy    <       0.39885865 Ry

     total magnetization       =    19.06 Bohr mag/cell
     absolute magnetization    =    19.06 Bohr mag/cell

     iteration #  7     ecut=   100.00 Ry     beta= 0.40
     Davidson diagonalization with overlap
     ethr =  2.11E-04,  avg # of iterations =  4.5

     negative rho (up, down):  0.000E+00 4.585E-04

     total cpu time spent up to now is     5043.2 secs

     total energy              =   -2125.85868931 Ry
     estimated scf accuracy    <       0.18069659 Ry

     total magnetization       =    19.00 Bohr mag/cell
     absolute magnetization    =    19.00 Bohr mag/cell

     iteration #  8     ecut=   100.00 Ry     beta= 0.40
     Davidson diagonalization with overlap
     c_bands:  1 eigenvalues not converged
     ethr =  9.56E-05,  avg # of iterations =  9.8

     negative rho (up, down):  0.000E+00 5.368E-04

     total cpu time spent up to now is     5670.7 secs

     total energy              =   -2125.85689704 Ry
     estimated scf accuracy    <       0.60745250 Ry

     total magnetization       =    19.00 Bohr mag/cell
     absolute magnetization    =    19.01 Bohr mag/cell

     iteration #  9     ecut=   100.00 Ry     beta= 0.40
     Davidson diagonalization with overlap
     ethr =  9.56E-05,  avg # of iterations =  1.2

     negative rho (up, down):  0.000E+00 5.360E-04

     total cpu time spent up to now is     6014.7 secs

     total energy              =   -2125.87369286 Ry
     estimated scf accuracy    <       0.22645980 Ry

     total magnetization       =    19.00 Bohr mag/cell
     absolute magnetization    =    19.01 Bohr mag/cell

     iteration # 10     ecut=   100.00 Ry     beta= 0.40
     Davidson diagonalization with overlap
     ethr =  9.56E-05,  avg # of iterations =  1.0

     negative rho (up, down):  0.000E+00 6.381E-04

     total cpu time spent up to now is     6349.9 secs

     total energy              =   -2125.88013620 Ry
     estimated scf accuracy    <       0.04308709 Ry

     total magnetization       =    19.00 Bohr mag/cell
     absolute magnetization    =    19.01 Bohr mag/cell

     iteration # 11     ecut=   100.00 Ry     beta= 0.40
     Davidson diagonalization with overlap
     c_bands:  2 eigenvalues not converged
     c_bands:  1 eigenvalues not converged
     c_bands:  1 eigenvalues not converged
     c_bands:  1 eigenvalues not converged
     c_bands:  1 eigenvalues not converged
     c_bands:  1 eigenvalues not converged
     c_bands:  1 eigenvalues not converged
     c_bands:  1 eigenvalues not converged
     c_bands:  1 eigenvalues not converged
     c_bands:  1 eigenvalues not converged
     c_bands:  1 eigenvalues not converged
     c_bands:  2 eigenvalues not converged
     ethr =  2.28E-05,  avg # of iterations =  5.1

     negative rho (up, down):  0.000E+00 7.601E-04

     total cpu time spent up to now is     6782.3 secs

     total energy              =   -2125.88121788 Ry
     estimated scf accuracy    <       0.04766039 Ry

     total magnetization       =    19.00 Bohr mag/cell
     absolute magnetization    =    19.02 Bohr mag/cell

     iteration # 12     ecut=   100.00 Ry     beta= 0.40
     Davidson diagonalization with overlap
     ethr =  2.28E-05,  avg # of iterations =  1.3

     negative rho (up, down):  0.000E+00 8.012E-04

     total cpu time spent up to now is     7122.4 secs

     total energy              =   -2125.88275872 Ry
     estimated scf accuracy    <       0.00318212 Ry

     total magnetization       =    19.00 Bohr mag/cell
     absolute magnetization    =    19.03 Bohr mag/cell

     iteration # 13     ecut=   100.00 Ry     beta= 0.40
     Davidson diagonalization with overlap
     c_bands:  1 eigenvalues not converged
     c_bands:  1 eigenvalues not converged
     c_bands:  2 eigenvalues not converged
     c_bands:  1 eigenvalues not converged
     c_bands:  1 eigenvalues not converged
     c_bands:  1 eigenvalues not converged
     c_bands:  1 eigenvalues not converged
     c_bands:  1 eigenvalues not converged
     c_bands:  1 eigenvalues not converged
     c_bands:  1 eigenvalues not converged
     c_bands:  1 eigenvalues not converged
     c_bands:  1 eigenvalues not converged
     c_bands:  1 eigenvalues not converged
     c_bands:  1 eigenvalues not converged
     c_bands:  1 eigenvalues not converged
     c_bands:  1 eigenvalues not converged
     c_bands:  1 eigenvalues not converged
     c_bands:  1 eigenvalues not converged
     c_bands:  1 eigenvalues not converged
     c_bands:  1 eigenvalues not converged
     c_bands:  1 eigenvalues not converged
     c_bands:  1 eigenvalues not converged
     c_bands:  1 eigenvalues not converged
     c_bands:  1 eigenvalues not converged
     c_bands:  1 eigenvalues not converged
     c_bands:  1 eigenvalues not converged
     c_bands:  1 eigenvalues not converged
     c_bands:  1 eigenvalues not converged
     c_bands:  1 eigenvalues not converged
     c_bands:  1 eigenvalues not converged
     c_bands:  2 eigenvalues not converged
     c_bands:  1 eigenvalues not converged
     c_bands:  1 eigenvalues not converged
     c_bands:  1 eigenvalues not converged
     c_bands:  1 eigenvalues not converged
     c_bands:  1 eigenvalues not converged
     c_bands:  1 eigenvalues not converged
     c_bands:  2 eigenvalues not converged
     c_bands:  1 eigenvalues not converged
     c_bands:  1 eigenvalues not converged
     c_bands:  1 eigenvalues not converged
     c_bands:  1 eigenvalues not converged
     c_bands:  1 eigenvalues not converged
     c_bands:  1 eigenvalues not converged
     c_bands:  1 eigenvalues not converged
     c_bands:  1 eigenvalues not converged
     c_bands:  1 eigenvalues not converged
     c_bands:  1 eigenvalues not converged
     c_bands:  1 eigenvalues not converged
     c_bands:  1 eigenvalues not converged
     c_bands:  1 eigenvalues not converged
     c_bands:  1 eigenvalues not converged
     c_bands:  1 eigenvalues not converged
     c_bands:  1 eigenvalues not converged
     c_bands:  1 eigenvalues not converged
     c_bands:  1 eigenvalues not converged
     c_bands:  1 eigenvalues not converged
     ethr =  1.68E-06,  avg # of iterations = 14.8

     negative rho (up, down):  0.000E+00 7.899E-04

     total cpu time spent up to now is     8085.1 secs

     total energy              =   -2125.88387359 Ry
     estimated scf accuracy    <       0.00256946 Ry

     total magnetization       =    19.00 Bohr mag/cell
     absolute magnetization    =    19.03 Bohr mag/cell

     iteration # 14     ecut=   100.00 Ry     beta= 0.40
     Davidson diagonalization with overlap
     c_bands:  1 eigenvalues not converged
     ethr =  1.36E-06,  avg # of iterations =  1.5

     negative rho (up, down):  0.000E+00 7.847E-04

     total cpu time spent up to now is     8430.3 secs

     total energy              =   -2125.88395972 Ry
     estimated scf accuracy    <       0.00084881 Ry

     total magnetization       =    19.00 Bohr mag/cell
     absolute magnetization    =    19.04 Bohr mag/cell

     iteration # 15     ecut=   100.00 Ry     beta= 0.40
     Davidson diagonalization with overlap
     ethr =  4.49E-07,  avg # of iterations =  1.0

     negative rho (up, down):  0.000E+00 7.826E-04

     total cpu time spent up to now is     8766.5 secs

     total energy              =   -2125.88399108 Ry
     estimated scf accuracy    <       0.00023384 Ry

     total magnetization       =    19.00 Bohr mag/cell
     absolute magnetization    =    19.04 Bohr mag/cell

     iteration # 16     ecut=   100.00 Ry     beta= 0.40
     Davidson diagonalization with overlap
     ethr =  1.24E-07,  avg # of iterations =  1.1

     negative rho (up, down):  0.000E+00 7.749E-04

     total cpu time spent up to now is     9110.0 secs

     total energy              =   -2125.88400553 Ry
     estimated scf accuracy    <       0.00002972 Ry

     total magnetization       =    19.00 Bohr mag/cell
     absolute magnetization    =    19.04 Bohr mag/cell

     iteration # 17     ecut=   100.00 Ry     beta= 0.40
     Davidson diagonalization with overlap
     ethr =  1.57E-08,  avg # of iterations =  3.6

     negative rho (up, down):  0.000E+00 7.717E-04

     total cpu time spent up to now is     9576.3 secs

     total energy              =   -2125.88401150 Ry
     estimated scf accuracy    <       0.00002787 Ry

     total magnetization       =    19.00 Bohr mag/cell
     absolute magnetization    =    19.04 Bohr mag/cell

     iteration # 18     ecut=   100.00 Ry     beta= 0.40
     Davidson diagonalization with overlap
     ethr =  1.47E-08,  avg # of iterations =  1.0

     negative rho (up, down):  0.000E+00 7.714E-04

     total cpu time spent up to now is     9910.9 secs

     total energy              =   -2125.88401252 Ry
     estimated scf accuracy    <       0.00000968 Ry

     total magnetization       =    19.00 Bohr mag/cell
     absolute magnetization    =    19.04 Bohr mag/cell

     iteration # 19     ecut=   100.00 Ry     beta= 0.40
     Davidson diagonalization with overlap
     ethr =  5.12E-09,  avg # of iterations =  1.4

     negative rho (up, down):  0.000E+00 7.712E-04

     total cpu time spent up to now is    10272.3 secs

     total energy              =   -2125.88401314 Ry
     estimated scf accuracy    <       0.00000106 Ry

     total magnetization       =    19.00 Bohr mag/cell
     absolute magnetization    =    19.04 Bohr mag/cell

     iteration # 20     ecut=   100.00 Ry     beta= 0.40
     Davidson diagonalization with overlap
     ethr =  5.61E-10,  avg # of iterations =  4.3

     negative rho (up, down):  0.000E+00 7.707E-04

     total cpu time spent up to now is    10888.4 secs

     total energy              =   -2125.88401360 Ry
     estimated scf accuracy    <       0.00000126 Ry

     total magnetization       =    19.00 Bohr mag/cell
     absolute magnetization    =    19.04 Bohr mag/cell

     iteration # 21     ecut=   100.00 Ry     beta= 0.40
     Davidson diagonalization with overlap
     ethr =  5.61E-10,  avg # of iterations =  1.5

     negative rho (up, down):  0.000E+00 7.705E-04

     total cpu time spent up to now is    11246.4 secs

     total energy              =   -2125.88401368 Ry
     estimated scf accuracy    <       0.00000030 Ry

     total magnetization       =    19.00 Bohr mag/cell
     absolute magnetization    =    19.04 Bohr mag/cell

     iteration # 22     ecut=   100.00 Ry     beta= 0.40
     Davidson diagonalization with overlap
     ethr =  1.57E-10,  avg # of iterations =  2.1

     negative rho (up, down):  0.000E+00 7.705E-04

     total cpu time spent up to now is    11652.7 secs

     total energy              =   -2125.88401374 Ry
     estimated scf accuracy    <       0.00000004 Ry

     total magnetization       =    19.00 Bohr mag/cell
     absolute magnetization    =    19.04 Bohr mag/cell

     iteration # 23     ecut=   100.00 Ry     beta= 0.40
     Davidson diagonalization with overlap
     ethr =  2.18E-11,  avg # of iterations =  3.3

     negative rho (up, down):  0.000E+00 7.705E-04

     total cpu time spent up to now is    12130.3 secs

     total energy              =   -2125.88401375 Ry
     estimated scf accuracy    <          5.0E-09 Ry

     total magnetization       =    19.00 Bohr mag/cell
     absolute magnetization    =    19.04 Bohr mag/cell

     iteration # 24     ecut=   100.00 Ry     beta= 0.40
     Davidson diagonalization with overlap
     ethr =  2.67E-12,  avg # of iterations =  4.0

     negative rho (up, down):  0.000E+00 7.705E-04

     total cpu time spent up to now is    12734.9 secs

     total energy              =   -2125.88401375 Ry
     estimated scf accuracy    <          1.7E-09 Ry

     total magnetization       =    19.00 Bohr mag/cell
     absolute magnetization    =    19.04 Bohr mag/cell

     iteration # 25     ecut=   100.00 Ry     beta= 0.40
     Davidson diagonalization with overlap
     ethr =  8.84E-13,  avg # of iterations =  2.1

     negative rho (up, down):  0.000E+00 7.705E-04

     total cpu time spent up to now is    13146.3 secs

     total energy              =   -2125.88401375 Ry
     estimated scf accuracy    <          2.3E-09 Ry

     total magnetization       =    19.00 Bohr mag/cell
     absolute magnetization    =    19.04 Bohr mag/cell

     iteration # 26     ecut=   100.00 Ry     beta= 0.40
     Davidson diagonalization with overlap
     ethr =  8.84E-13,  avg # of iterations =  2.0

     negative rho (up, down):  0.000E+00 7.705E-04

     total cpu time spent up to now is    13532.8 secs

     total energy              =   -2125.88401375 Ry
     estimated scf accuracy    <          3.6E-09 Ry

     total magnetization       =    19.00 Bohr mag/cell
     absolute magnetization    =    19.04 Bohr mag/cell

     iteration # 27     ecut=   100.00 Ry     beta= 0.40
     Davidson diagonalization with overlap
     ethr =  8.84E-13,  avg # of iterations =  1.0

     negative rho (up, down):  0.000E+00 7.705E-04

     total cpu time spent up to now is    13867.2 secs

     total energy              =   -2125.88401375 Ry
     estimated scf accuracy    <          6.2E-10 Ry

     total magnetization       =    19.00 Bohr mag/cell
     absolute magnetization    =    19.04 Bohr mag/cell

     iteration # 28     ecut=   100.00 Ry     beta= 0.40
     Davidson diagonalization with overlap
     ethr =  3.28E-13,  avg # of iterations =  2.0

     negative rho (up, down):  0.000E+00 7.705E-04

     total cpu time spent up to now is    14284.3 secs

     total energy              =   -2125.88401375 Ry
     estimated scf accuracy    <          7.5E-10 Ry

     total magnetization       =    19.00 Bohr mag/cell
     absolute magnetization    =    19.04 Bohr mag/cell

     iteration # 29     ecut=   100.00 Ry     beta= 0.40
     Davidson diagonalization with overlap
     ethr =  3.28E-13,  avg # of iterations =  1.5

     negative rho (up, down):  0.000E+00 7.705E-04

     Magnetic moment per site:
     atom:    1    charge:    7.8559    magn:    0.0008    constr:    0.0000
     atom:    2    charge:   12.6100    magn:    3.5834    constr:    0.0000
     atom:    3    charge:   12.6152    magn:    3.5709    constr:    0.0000
     atom:    4    charge:   12.6612    magn:    3.4448    constr:    0.0000
     atom:    5    charge:   12.6178    magn:    3.5688    constr:    0.0000
     atom:    6    charge:    0.7700    magn:    0.0119    constr:    0.0000
     atom:    7    charge:    0.7735    magn:    0.0094    constr:    0.0000
     atom:    8    charge:    0.7731    magn:    0.0126    constr:    0.0000
     atom:    9    charge:    0.7673    magn:    0.0101    constr:    0.0000
     atom:   10    charge:    4.0691    magn:    0.1279    constr:    0.0000
     atom:   11    charge:    4.0837    magn:    0.0873    constr:    0.0000
     atom:   12    charge:    4.0715    magn:    0.1203    constr:    0.0000
     atom:   13    charge:    4.0668    magn:    0.1046    constr:    0.0000
     atom:   14    charge:    4.0580    magn:    0.1089    constr:    0.0000
     atom:   15    charge:    4.0666    magn:    0.1220    constr:    0.0000
     atom:   16    charge:    4.0613    magn:    0.0749    constr:    0.0000
     atom:   17    charge:    4.0591    magn:    0.1307    constr:    0.0000
     atom:   18    charge:    4.0378    magn:    0.1512    constr:    0.0000
     atom:   19    charge:    4.0412    magn:    0.1340    constr:    0.0000
     atom:   20    charge:    4.0453    magn:    0.1476    constr:    0.0000
     atom:   21    charge:    4.0358    magn:    0.1256    constr:    0.0000
     atom:   22    charge:    4.0454    magn:    0.1476    constr:    0.0000
     atom:   23    charge:    4.0358    magn:    0.1256    constr:    0.0000
     atom:   24    charge:    4.0378    magn:    0.1512    constr:    0.0000
     atom:   25    charge:    4.0412    magn:    0.1340    constr:    0.0000

     total cpu time spent up to now is    14644.7 secs

     End of self-consistent calculation

 ------ SPIN UP ------------


          k = 0.0000 0.0000 0.0000 ( 31277 PWs)   bands (ev):

   -83.0508 -83.0441 -83.0017 -82.5486 -49.1918 -49.1416 -49.1233 -49.0066
   -49.0052 -48.9950 -48.9941 -48.9731 -48.9171 -48.9104 -48.4969 -48.3212
   -43.2089 -15.5999 -15.5188 -15.2869 -15.1713 -15.1670 -15.0798 -14.9407
   -12.7485 -12.6720 -12.5140 -12.4164 -12.3513 -12.3464 -12.3084 -12.2490
   -12.2051 -12.0868 -12.0741 -11.9645  -2.7493  -2.1701  -1.9965  -1.4473
    -1.1956  -0.7506  -0.6426  -0.4835  -0.4512  -0.1734  -0.0635   0.0211
     0.0711   0.4051   0.4897   0.7028   0.9002   1.0460   1.6111   1.6210
     1.7351   1.8000   1.9742   2.0234   2.1906   2.2001   2.5523   2.6611
     2.7727   2.8894   3.0282   3.0657   3.1558   3.1861   3.2028   3.2285
     3.3448   3.6687   3.8278   3.9402   3.9746   4.0445   4.0475   4.2333
     4.4043   4.4552   4.6461   4.7478   4.7763   4.9109   5.1419   5.1815
     5.2747   5.3056   5.3117   5.5019   5.5452   5.5454   5.7186   5.8290
     5.8844   6.0660   6.3990   6.5998   6.8102   7.0283   7.0921   7.2762
    12.0430  14.2196  14.2852  14.8834  15.1315  15.3279  16.2732  16.4347
    16.5954  16.6180

     occupation numbers 
     1.0000   1.0000   1.0000   1.0000   1.0000   1.0000   1.0000   1.0000
     1.0000   1.0000   1.0000   1.0000   1.0000   1.0000   1.0000   1.0000
     1.0000   1.0000   1.0000   1.0000   1.0000   1.0000   1.0000   1.0000
     1.0000   1.0000   1.0000   1.0000   1.0000   1.0000   1.0000   1.0000
     1.0000   1.0000   1.0000   1.0000   1.0000   1.0000   1.0000   1.0000
     1.0000   1.0000   1.0000   1.0000   1.0000   1.0000   1.0000   1.0000
     1.0000   1.0000   1.0000   1.0000   1.0000   1.0000   1.0000   1.0000
     1.0000   1.0000   1.0000   1.0000   1.0000   1.0000   1.0000   1.0000
     1.0000   1.0000   1.0000   1.0000   1.0000   1.0000   1.0000   1.0000
     1.0000   1.0000   1.0000   1.0000   1.0000   1.0000   1.0000   1.0000
     1.0000   1.0000   1.0000   1.0000   1.0000   1.0000   1.0000   1.0000
     1.0000   1.0000   1.0000   1.0000   1.0000   1.0000   1.0000   1.0000
     1.0000   1.0000   1.0000   1.0000   1.0000   1.0000   1.0000   1.0000
     0.0000   0.0000   0.0000   0.0000   0.0000   0.0000   0.0000   0.0000
     0.0000   0.0000

          k = 0.0000 0.0000 0.2337 ( 31269 PWs)   bands (ev):

   -83.0508 -83.0441 -83.0017 -82.5486 -49.1918 -49.1416 -49.1233 -49.0066
   -49.0052 -48.9950 -48.9941 -48.9731 -48.9171 -48.9104 -48.4969 -48.3212
   -43.2089 -15.6061 -15.5060 -15.2914 -15.1711 -15.1517 -15.0705 -14.9348
   -12.7584 -12.6750 -12.5341 -12.4222 -12.3555 -12.3407 -12.3113 -12.2433
   -12.2158 -12.0951 -12.0789 -11.9696  -2.7210  -2.1559  -1.9981  -1.4686
    -1.1276  -0.7161  -0.6480  -0.4708  -0.4481  -0.1978  -0.0792   0.0729
     0.1056   0.4320   0.4437   0.7357   0.9223   0.9981   1.6162   1.6169
     1.7360   1.8328   1.9453   2.0567   2.1794   2.1968   2.4944   2.6995
     2.7608   2.8264   2.9940   3.0346   3.0933   3.1766   3.1986   3.2584
     3.4575   3.6435   3.8407   3.8833   3.9615   3.9852   4.0854   4.1797
     4.4513   4.4884   4.5484   4.8012   4.8166   4.9270   5.0510   5.1443
     5.2718   5.2755   5.3253   5.4470   5.5698   5.6110   5.7918   5.8159
     5.9490   6.0541   6.4332   6.5871   6.8039   7.0067   7.0619   7.2510
    12.1942  14.2680  14.3703  14.8490  15.2020  15.3559  16.2889  16.3121
    16.3435  16.4745

     occupation numbers 
     1.0000   1.0000   1.0000   1.0000   1.0000   1.0000   1.0000   1.0000
     1.0000   1.0000   1.0000   1.0000   1.0000   1.0000   1.0000   1.0000
     1.0000   1.0000   1.0000   1.0000   1.0000   1.0000   1.0000   1.0000
     1.0000   1.0000   1.0000   1.0000   1.0000   1.0000   1.0000   1.0000
     1.0000   1.0000   1.0000   1.0000   1.0000   1.0000   1.0000   1.0000
     1.0000   1.0000   1.0000   1.0000   1.0000   1.0000   1.0000   1.0000
     1.0000   1.0000   1.0000   1.0000   1.0000   1.0000   1.0000   1.0000
     1.0000   1.0000   1.0000   1.0000   1.0000   1.0000   1.0000   1.0000
     1.0000   1.0000   1.0000   1.0000   1.0000   1.0000   1.0000   1.0000
     1.0000   1.0000   1.0000   1.0000   1.0000   1.0000   1.0000   1.0000
     1.0000   1.0000   1.0000   1.0000   1.0000   1.0000   1.0000   1.0000
     1.0000   1.0000   1.0000   1.0000   1.0000   1.0000   1.0000   1.0000
     1.0000   1.0000   1.0000   1.0000   1.0000   1.0000   1.0000   1.0000
     0.0000   0.0000   0.0000   0.0000   0.0000   0.0000   0.0000   0.0000
     0.0000   0.0000

          k = 0.0000 0.0000 0.4675 ( 31276 PWs)   bands (ev):

   -83.0508 -83.0441 -83.0017 -82.5486 -49.1918 -49.1416 -49.1233 -49.0066
   -49.0052 -48.9950 -48.9941 -48.9731 -48.9171 -48.9104 -48.4969 -48.3212
   -43.2088 -15.6231 -15.4727 -15.2957 -15.1708 -15.1156 -15.0461 -14.9231
   -12.7857 -12.6889 -12.5784 -12.4390 -12.3728 -12.3252 -12.3183 -12.2345
   -12.2279 -12.1141 -12.0922 -11.9838  -2.6390  -2.1349  -1.9922  -1.5361
    -0.9464  -0.6815  -0.6163  -0.4592  -0.4310  -0.2292  -0.0664   0.0794
     0.2883   0.2909   0.5484   0.8317   0.8549   0.9877   1.6039   1.6395
     1.7607   1.8608   1.9840   2.0467   2.1958   2.2151   2.3529   2.7375
     2.7378   2.8147   2.9045   2.9482   2.9594   3.1027   3.1802   3.2763
     3.4382   3.6263   3.7304   3.8886   3.9338   3.9788   4.0488   4.2167
     4.3343   4.5502   4.7042   4.7950   4.7965   4.8350   5.0081   5.1414
     5.1765   5.2629   5.3257   5.3843   5.6868   5.7028   5.8171   5.9323
     5.9965   6.1130   6.5053   6.5705   6.7890   6.9510   6.9702   7.1743
    12.6013  14.3999  14.6073  14.8345  15.3078  15.4498  15.8187  16.0688
    16.1727  16.3132

     occupation numbers 
     1.0000   1.0000   1.0000   1.0000   1.0000   1.0000   1.0000   1.0000
     1.0000   1.0000   1.0000   1.0000   1.0000   1.0000   1.0000   1.0000
     1.0000   1.0000   1.0000   1.0000   1.0000   1.0000   1.0000   1.0000
     1.0000   1.0000   1.0000   1.0000   1.0000   1.0000   1.0000   1.0000
     1.0000   1.0000   1.0000   1.0000   1.0000   1.0000   1.0000   1.0000
     1.0000   1.0000   1.0000   1.0000   1.0000   1.0000   1.0000   1.0000
     1.0000   1.0000   1.0000   1.0000   1.0000   1.0000   1.0000   1.0000
     1.0000   1.0000   1.0000   1.0000   1.0000   1.0000   1.0000   1.0000
     1.0000   1.0000   1.0000   1.0000   1.0000   1.0000   1.0000   1.0000
     1.0000   1.0000   1.0000   1.0000   1.0000   1.0000   1.0000   1.0000
     1.0000   1.0000   1.0000   1.0000   1.0000   1.0000   1.0000   1.0000
     1.0000   1.0000   1.0000   1.0000   1.0000   1.0000   1.0000   1.0000
     1.0000   1.0000   1.0000   1.0000   1.0000   1.0000   1.0000   1.0000
     0.0000   0.0000   0.0000   0.0000   0.0000   0.0000   0.0000   0.0000
     0.0000   0.0000

          k = 0.0000 0.0000 0.7012 ( 31286 PWs)   bands (ev):

   -83.0508 -83.0441 -83.0017 -82.5486 -49.1918 -49.1416 -49.1233 -49.0066
   -49.0051 -48.9950 -48.9941 -48.9731 -48.9171 -48.9104 -48.4969 -48.3212
   -43.2088 -15.6440 -15.4315 -15.2963 -15.1705 -15.0717 -15.0156 -14.9183
   -12.8204 -12.7180 -12.6175 -12.4665 -12.4006 -12.3222 -12.3047 -12.2431
   -12.2085 -12.1326 -12.1092 -12.0028  -2.5153  -2.1488  -1.9643  -1.6383
    -0.7826  -0.6570  -0.5384  -0.4379  -0.3835  -0.2410  -0.0370   0.0254
     0.2045   0.5080   0.6506   0.6885   0.9910   1.1172   1.5944   1.6962
     1.8277   1.8319   1.9879   2.1174   2.1409   2.1870   2.3022   2.6166
     2.7366   2.7524   2.8137   2.8504   2.9824   3.0240   3.1059   3.1762
     3.2799   3.4441   3.7235   3.7493   3.9296   4.0089   4.2240   4.2501
     4.3274   4.5881   4.6423   4.7192   4.7614   4.8965   5.0268   5.0781
     5.1180   5.2547   5.2923   5.4535   5.7260   5.7715   5.9187   6.0161
     6.0452   6.3029   6.5425   6.6002   6.7792   6.8161   6.8832   7.0472
    13.1651  14.5898  14.8818  14.9074  15.1607  15.4422  15.6247  15.8928
    15.9434  16.1013

     occupation numbers 
     1.0000   1.0000   1.0000   1.0000   1.0000   1.0000   1.0000   1.0000
     1.0000   1.0000   1.0000   1.0000   1.0000   1.0000   1.0000   1.0000
     1.0000   1.0000   1.0000   1.0000   1.0000   1.0000   1.0000   1.0000
     1.0000   1.0000   1.0000   1.0000   1.0000   1.0000   1.0000   1.0000
     1.0000   1.0000   1.0000   1.0000   1.0000   1.0000   1.0000   1.0000
     1.0000   1.0000   1.0000   1.0000   1.0000   1.0000   1.0000   1.0000
     1.0000   1.0000   1.0000   1.0000   1.0000   1.0000   1.0000   1.0000
     1.0000   1.0000   1.0000   1.0000   1.0000   1.0000   1.0000   1.0000
     1.0000   1.0000   1.0000   1.0000   1.0000   1.0000   1.0000   1.0000
     1.0000   1.0000   1.0000   1.0000   1.0000   1.0000   1.0000   1.0000
     1.0000   1.0000   1.0000   1.0000   1.0000   1.0000   1.0000   1.0000
     1.0000   1.0000   1.0000   1.0000   1.0000   1.0000   1.0000   1.0000
     1.0000   1.0000   1.0000   1.0000   1.0000   1.0000   1.0000   1.0000
     0.0000   0.0000   0.0000   0.0000   0.0000   0.0000   0.0000   0.0000
     0.0000   0.0000

          k = 0.0000 0.0000 0.9349 ( 31288 PWs)   bands (ev):

   -83.0508 -83.0441 -83.0017 -82.5486 -49.1918 -49.1416 -49.1233 -49.0066
   -49.0051 -48.9950 -48.9941 -48.9731 -48.9171 -48.9104 -48.4969 -48.3212
   -43.2088 -15.6580 -15.4012 -15.2978 -15.1702 -15.0394 -14.9868 -14.9277
   -12.8449 -12.7441 -12.6371 -12.4940 -12.4167 -12.3215 -12.2887 -12.2442
   -12.1950 -12.1430 -12.1212 -12.0178  -2.3799  -2.2152  -1.9182  -1.7380
    -0.7531  -0.6252  -0.4661  -0.3744  -0.2945  -0.2304  -0.1320  -0.0378
     0.2866   0.4466   0.6529   0.7790   1.2143   1.3469   1.6083   1.6655
     1.7853   1.9209   1.9479   2.0050   2.0748   2.1214   2.3301   2.5217
     2.6422   2.7544   2.7761   2.7855   2.8553   3.0666   3.0799   3.2032
     3.2835   3.3656   3.5008   3.5550   3.9602   4.1458   4.2081   4.3348
     4.4235   4.5463   4.6260   4.6554   4.7284   4.9170   4.9298   5.1003
     5.1083   5.2293   5.4001   5.5068   5.6720   5.8070   5.8738   6.1047
     6.2830   6.4907   6.5477   6.6118   6.6413   6.7863   6.8273   6.8983
    13.7931  14.4291  14.8027  15.0197  15.2843  15.3868  15.6557  15.7753
    15.8478  16.0493

     occupation numbers 
     1.0000   1.0000   1.0000   1.0000   1.0000   1.0000   1.0000   1.0000
     1.0000   1.0000   1.0000   1.0000   1.0000   1.0000   1.0000   1.0000
     1.0000   1.0000   1.0000   1.0000   1.0000   1.0000   1.0000   1.0000
     1.0000   1.0000   1.0000   1.0000   1.0000   1.0000   1.0000   1.0000
     1.0000   1.0000   1.0000   1.0000   1.0000   1.0000   1.0000   1.0000
     1.0000   1.0000   1.0000   1.0000   1.0000   1.0000   1.0000   1.0000
     1.0000   1.0000   1.0000   1.0000   1.0000   1.0000   1.0000   1.0000
     1.0000   1.0000   1.0000   1.0000   1.0000   1.0000   1.0000   1.0000
     1.0000   1.0000   1.0000   1.0000   1.0000   1.0000   1.0000   1.0000
     1.0000   1.0000   1.0000   1.0000   1.0000   1.0000   1.0000   1.0000
     1.0000   1.0000   1.0000   1.0000   1.0000   1.0000   1.0000   1.0000
     1.0000   1.0000   1.0000   1.0000   1.0000   1.0000   1.0000   1.0000
     1.0000   1.0000   1.0000   1.0000   1.0000   1.0000   1.0000   1.0000
     0.0000   0.0000   0.0000   0.0000   0.0000   0.0000   0.0000   0.0000
     0.0000   0.0000

          k = 0.0000 0.2391 0.0000 ( 31251 PWs)   bands (ev):

   -83.0508 -83.0441 -83.0017 -82.5486 -49.1918 -49.1416 -49.1233 -49.0066
   -49.0052 -48.9950 -48.9941 -48.9731 -48.9171 -48.9104 -48.4969 -48.3212
   -43.2089 -15.5883 -15.5093 -15.2870 -15.2041 -15.1398 -15.0717 -14.9583
   -12.7530 -12.6712 -12.5155 -12.4385 -12.4095 -12.3466 -12.2907 -12.2490
   -12.1584 -12.0858 -12.0672 -11.9670  -2.7184  -2.1925  -1.9609  -1.4475
    -1.1694  -0.7591  -0.6508  -0.4953  -0.3961  -0.1752  -0.0611   0.0158
     0.1430   0.3969   0.5322   0.7337   0.8701   1.0593   1.5979   1.6478
     1.6978   1.7871   1.8734   1.9367   2.0432   2.3367   2.5863   2.6938
     2.8682   2.9605   2.9741   2.9886   3.0451   3.0891   3.2305   3.2830
     3.4046   3.6523   3.7991   3.9473   3.9814   4.0434   4.1059   4.1877
     4.3600   4.5058   4.6416   4.7010   4.7611   4.9056   5.0766   5.1007
     5.1932   5.2691   5.4011   5.4550   5.5310   5.6860   5.7468   5.8276
     5.8889   6.0478   6.4915   6.5416   6.7991   6.8797   7.2134   7.3175
    12.2019  14.3123  14.3867  14.9115  15.1638  15.4249  16.1577  16.3431
    16.5402  16.5909

     occupation numbers 
     1.0000   1.0000   1.0000   1.0000   1.0000   1.0000   1.0000   1.0000
     1.0000   1.0000   1.0000   1.0000   1.0000   1.0000   1.0000   1.0000
     1.0000   1.0000   1.0000   1.0000   1.0000   1.0000   1.0000   1.0000
     1.0000   1.0000   1.0000   1.0000   1.0000   1.0000   1.0000   1.0000
     1.0000   1.0000   1.0000   1.0000   1.0000   1.0000   1.0000   1.0000
     1.0000   1.0000   1.0000   1.0000   1.0000   1.0000   1.0000   1.0000
     1.0000   1.0000   1.0000   1.0000   1.0000   1.0000   1.0000   1.0000
     1.0000   1.0000   1.0000   1.0000   1.0000   1.0000   1.0000   1.0000
     1.0000   1.0000   1.0000   1.0000   1.0000   1.0000   1.0000   1.0000
     1.0000   1.0000   1.0000   1.0000   1.0000   1.0000   1.0000   1.0000
     1.0000   1.0000   1.0000   1.0000   1.0000   1.0000   1.0000   1.0000
     1.0000   1.0000   1.0000   1.0000   1.0000   1.0000   1.0000   1.0000
     1.0000   1.0000   1.0000   1.0000   1.0000   1.0000   1.0000   1.0000
     0.0000   0.0000   0.0000   0.0000   0.0000   0.0000   0.0000   0.0000
     0.0000   0.0000

          k = 0.0000 0.2391 0.2337 ( 31298 PWs)   bands (ev):

   -83.0508 -83.0441 -83.0017 -82.5486 -49.1918 -49.1416 -49.1233 -49.0066
   -49.0051 -48.9950 -48.9941 -48.9731 -48.9171 -48.9104 -48.4969 -48.3212
   -43.2089 -15.5956 -15.4964 -15.2899 -15.2003 -15.1289 -15.0630 -14.9513
   -12.7626 -12.6736 -12.5385 -12.4427 -12.4056 -12.3486 -12.2943 -12.2552
   -12.1597 -12.0933 -12.0709 -11.9709  -2.6904  -2.1771  -1.9636  -1.4660
    -1.1066  -0.7248  -0.6516  -0.4822  -0.3925  -0.2003  -0.0670   0.0805
     0.1597   0.4305   0.4768   0.7410   0.8725   1.0474   1.5793   1.6504
     1.7254   1.7788   1.8793   1.9608   2.0423   2.3264   2.6033   2.6519
     2.7989   2.8768   2.9422   2.9974   3.0617   3.1348   3.2131   3.2801
     3.4978   3.6330   3.7854   3.9177   3.9507   4.0330   4.0763   4.1622
     4.4248   4.4682   4.5844   4.7107   4.8202   4.9195   5.0290   5.0985
     5.1170   5.2854   5.3848   5.4535   5.6087   5.6480   5.8041   5.8346
     5.9400   6.0382   6.5131   6.5344   6.7749   6.8731   7.1927   7.2994
    12.3474  14.3596  14.4701  14.8997  15.2255  15.4313  16.1346  16.2227
    16.4022  16.4213

     occupation numbers 
     1.0000   1.0000   1.0000   1.0000   1.0000   1.0000   1.0000   1.0000
     1.0000   1.0000   1.0000   1.0000   1.0000   1.0000   1.0000   1.0000
     1.0000   1.0000   1.0000   1.0000   1.0000   1.0000   1.0000   1.0000
     1.0000   1.0000   1.0000   1.0000   1.0000   1.0000   1.0000   1.0000
     1.0000   1.0000   1.0000   1.0000   1.0000   1.0000   1.0000   1.0000
     1.0000   1.0000   1.0000   1.0000   1.0000   1.0000   1.0000   1.0000
     1.0000   1.0000   1.0000   1.0000   1.0000   1.0000   1.0000   1.0000
     1.0000   1.0000   1.0000   1.0000   1.0000   1.0000   1.0000   1.0000
     1.0000   1.0000   1.0000   1.0000   1.0000   1.0000   1.0000   1.0000
     1.0000   1.0000   1.0000   1.0000   1.0000   1.0000   1.0000   1.0000
     1.0000   1.0000   1.0000   1.0000   1.0000   1.0000   1.0000   1.0000
     1.0000   1.0000   1.0000   1.0000   1.0000   1.0000   1.0000   1.0000
     1.0000   1.0000   1.0000   1.0000   1.0000   1.0000   1.0000   1.0000
     0.0000   0.0000   0.0000   0.0000   0.0000   0.0000   0.0000   0.0000
     0.0000   0.0000

          k = 0.0000 0.2391 0.4675 ( 31274 PWs)   bands (ev):

   -83.0508 -83.0441 -83.0017 -82.5486 -49.1918 -49.1416 -49.1233 -49.0066
   -49.0051 -48.9950 -48.9941 -48.9731 -48.9171 -48.9104 -48.4969 -48.3212
   -43.2088 -15.6145 -15.4633 -15.2924 -15.1932 -15.0993 -15.0408 -14.9362
   -12.7900 -12.6866 -12.5877 -12.4531 -12.4075 -12.3535 -12.3123 -12.2534
   -12.1620 -12.1089 -12.0811 -11.9819  -2.6098  -2.1500  -1.9624  -1.5321
    -0.9336  -0.6781  -0.6174  -0.4654  -0.3765  -0.2280  -0.0531   0.1288
     0.2883   0.3320   0.5384   0.7248   0.9029   1.0275   1.5497   1.6657
     1.7123   1.7872   1.9694   1.9846   2.0950   2.2885   2.5007   2.6870
     2.7179   2.8177   2.8949   2.9368   3.0330   3.0887   3.1871   3.2622
     3.4523   3.6197   3.7426   3.8939   3.9094   3.9539   4.0675   4.1867
     4.3247   4.5759   4.6330   4.7175   4.8086   4.8416   5.0043   5.0581
     5.0942   5.3110   5.3658   5.4465   5.6054   5.7536   5.8237   5.9444
     6.0040   6.0656   6.4698   6.6120   6.7132   6.8571   7.1323   7.2464
    12.7409  14.4885  14.7023  14.9113  15.3440  15.4749  15.8263  15.9858
    16.1700  16.3248

     occupation numbers 
     1.0000   1.0000   1.0000   1.0000   1.0000   1.0000   1.0000   1.0000
     1.0000   1.0000   1.0000   1.0000   1.0000   1.0000   1.0000   1.0000
     1.0000   1.0000   1.0000   1.0000   1.0000   1.0000   1.0000   1.0000
     1.0000   1.0000   1.0000   1.0000   1.0000   1.0000   1.0000   1.0000
     1.0000   1.0000   1.0000   1.0000   1.0000   1.0000   1.0000   1.0000
     1.0000   1.0000   1.0000   1.0000   1.0000   1.0000   1.0000   1.0000
     1.0000   1.0000   1.0000   1.0000   1.0000   1.0000   1.0000   1.0000
     1.0000   1.0000   1.0000   1.0000   1.0000   1.0000   1.0000   1.0000
     1.0000   1.0000   1.0000   1.0000   1.0000   1.0000   1.0000   1.0000
     1.0000   1.0000   1.0000   1.0000   1.0000   1.0000   1.0000   1.0000
     1.0000   1.0000   1.0000   1.0000   1.0000   1.0000   1.0000   1.0000
     1.0000   1.0000   1.0000   1.0000   1.0000   1.0000   1.0000   1.0000
     1.0000   1.0000   1.0000   1.0000   1.0000   1.0000   1.0000   1.0000
     0.0000   0.0000   0.0000   0.0000   0.0000   0.0000   0.0000   0.0000
     0.0000   0.0000

          k = 0.0000 0.2391 0.7012 ( 31293 PWs)   bands (ev):

   -83.0508 -83.0441 -83.0017 -82.5486 -49.1918 -49.1416 -49.1233 -49.0067
   -49.0051 -48.9950 -48.9941 -48.9731 -48.9171 -48.9104 -48.4969 -48.3212
   -43.2088 -15.6367 -15.4228 -15.2926 -15.1874 -15.0596 -15.0137 -14.9259
   -12.8255 -12.7162 -12.6301 -12.4697 -12.4336 -12.3508 -12.3216 -12.2390
   -12.1658 -12.1218 -12.0930 -11.9972  -2.4891  -2.1508  -1.9435  -1.6358
    -0.7661  -0.6490  -0.5289  -0.4446  -0.3316  -0.2341  -0.0269   0.0715
     0.2332   0.4951   0.6074   0.6952   0.9976   1.0790   1.5088   1.6329
     1.7289   1.8622   2.0068   2.0781   2.1684   2.2820   2.3737   2.6238
     2.6550   2.7456   2.8518   2.9011   2.9825   3.0620   3.0980   3.1636
     3.2522   3.4304   3.6842   3.7771   3.9141   4.0242   4.1547   4.2445
     4.2946   4.6095   4.6224   4.7003   4.7877   4.8382   4.9442   5.0592
     5.1107   5.2738   5.3775   5.4869   5.6980   5.7580   5.9003   5.9600
     6.0679   6.2249   6.4235   6.6173   6.7162   6.8408   7.0421   7.1663
    13.2891  14.6740  14.9703  14.9961  15.2222  15.4942  15.6363  15.7985
    15.9458  16.1217

     occupation numbers 
     1.0000   1.0000   1.0000   1.0000   1.0000   1.0000   1.0000   1.0000
     1.0000   1.0000   1.0000   1.0000   1.0000   1.0000   1.0000   1.0000
     1.0000   1.0000   1.0000   1.0000   1.0000   1.0000   1.0000   1.0000
     1.0000   1.0000   1.0000   1.0000   1.0000   1.0000   1.0000   1.0000
     1.0000   1.0000   1.0000   1.0000   1.0000   1.0000   1.0000   1.0000
     1.0000   1.0000   1.0000   1.0000   1.0000   1.0000   1.0000   1.0000
     1.0000   1.0000   1.0000   1.0000   1.0000   1.0000   1.0000   1.0000
     1.0000   1.0000   1.0000   1.0000   1.0000   1.0000   1.0000   1.0000
     1.0000   1.0000   1.0000   1.0000   1.0000   1.0000   1.0000   1.0000
     1.0000   1.0000   1.0000   1.0000   1.0000   1.0000   1.0000   1.0000
     1.0000   1.0000   1.0000   1.0000   1.0000   1.0000   1.0000   1.0000
     1.0000   1.0000   1.0000   1.0000   1.0000   1.0000   1.0000   1.0000
     1.0000   1.0000   1.0000   1.0000   1.0000   1.0000   1.0000   1.0000
     0.0000   0.0000   0.0000   0.0000   0.0000   0.0000   0.0000   0.0000
     0.0000   0.0000

          k = 0.0000 0.2391 0.9349 ( 31292 PWs)   bands (ev):

   -83.0508 -83.0441 -83.0017 -82.5486 -49.1918 -49.1416 -49.1233 -49.0067
   -49.0051 -48.9950 -48.9941 -48.9731 -48.9172 -48.9104 -48.4969 -48.3212
   -43.2088 -15.6514 -15.3931 -15.2941 -15.1844 -15.0301 -14.9887 -14.9290
   -12.8508 -12.7436 -12.6511 -12.4946 -12.4489 -12.3458 -12.3183 -12.2262
   -12.1706 -12.1297 -12.0984 -12.0095  -2.3603  -2.2012  -1.9101  -1.7317
    -0.7287  -0.6081  -0.4637  -0.3807  -0.2494  -0.2188  -0.0857  -0.0261
     0.2988   0.4359   0.6517   0.7910   1.1441   1.2540   1.4392   1.5132
     1.8160   1.9811   2.0195   2.1105   2.1656   2.2290   2.3078   2.5078
     2.5834   2.7292   2.8161   2.8580   2.8783   3.0255   3.0660   3.1781
     3.2135   3.3465   3.4768   3.6114   3.9508   4.1083   4.1948   4.2828
     4.3748   4.5285   4.6576   4.6915   4.7441   4.8580   4.8854   5.0536
     5.1534   5.2367   5.4531   5.5380   5.6743   5.7947   5.8745   6.0549
     6.1432   6.3236   6.4134   6.5555   6.7686   6.8355   6.9612   7.0907
    13.9009  14.5234  14.8968  15.1092  15.3498  15.4267  15.6483  15.7463
    15.8565  16.0512

     occupation numbers 
     1.0000   1.0000   1.0000   1.0000   1.0000   1.0000   1.0000   1.0000
     1.0000   1.0000   1.0000   1.0000   1.0000   1.0000   1.0000   1.0000
     1.0000   1.0000   1.0000   1.0000   1.0000   1.0000   1.0000   1.0000
     1.0000   1.0000   1.0000   1.0000   1.0000   1.0000   1.0000   1.0000
     1.0000   1.0000   1.0000   1.0000   1.0000   1.0000   1.0000   1.0000
     1.0000   1.0000   1.0000   1.0000   1.0000   1.0000   1.0000   1.0000
     1.0000   1.0000   1.0000   1.0000   1.0000   1.0000   1.0000   1.0000
     1.0000   1.0000   1.0000   1.0000   1.0000   1.0000   1.0000   1.0000
     1.0000   1.0000   1.0000   1.0000   1.0000   1.0000   1.0000   1.0000
     1.0000   1.0000   1.0000   1.0000   1.0000   1.0000   1.0000   1.0000
     1.0000   1.0000   1.0000   1.0000   1.0000   1.0000   1.0000   1.0000
     1.0000   1.0000   1.0000   1.0000   1.0000   1.0000   1.0000   1.0000
     1.0000   1.0000   1.0000   1.0000   1.0000   1.0000   1.0000   1.0000
     0.0000   0.0000   0.0000   0.0000   0.0000   0.0000   0.0000   0.0000
     0.0000   0.0000

          k = 0.0000 0.4781 0.0000 ( 31226 PWs)   bands (ev):

   -83.0508 -83.0441 -83.0017 -82.5486 -49.1918 -49.1416 -49.1233 -49.0066
   -49.0051 -48.9950 -48.9941 -48.9731 -48.9171 -48.9104 -48.4969 -48.3212
   -43.2089 -15.5659 -15.4769 -15.2890 -15.2386 -15.1193 -15.0567 -14.9988
   -12.7642 -12.6657 -12.5408 -12.5077 -12.4226 -12.3517 -12.2740 -12.2520
   -12.1189 -12.0706 -12.0541 -11.9654  -2.6342  -2.2579  -1.8655  -1.4759
    -1.0902  -0.7838  -0.6655  -0.5143  -0.2904  -0.1676  -0.0385   0.0616
     0.2510   0.4115   0.5882   0.7781   0.8237   1.1274   1.4801   1.5563
     1.7048   1.7353   1.7930   1.8418   1.9924   2.3887   2.4972   2.7122
     2.7534   2.8619   2.9396   2.9957   3.0968   3.1707   3.2708   3.3466
     3.5529   3.5908   3.7735   3.8549   3.9202   4.0090   4.0712   4.2638
     4.4045   4.5111   4.5309   4.7074   4.7548   4.8615   4.9273   4.9739
     5.1270   5.1673   5.4652   5.5219   5.6364   5.7089   5.7676   5.8691
     5.9517   6.0150   6.3398   6.5496   6.7070   7.0104   7.2782   7.3546
    12.6359  14.4660  14.6628  14.7090  15.4419  15.6821  15.9045  16.0636
    16.4165  16.5737

     occupation numbers 
     1.0000   1.0000   1.0000   1.0000   1.0000   1.0000   1.0000   1.0000
     1.0000   1.0000   1.0000   1.0000   1.0000   1.0000   1.0000   1.0000
     1.0000   1.0000   1.0000   1.0000   1.0000   1.0000   1.0000   1.0000
     1.0000   1.0000   1.0000   1.0000   1.0000   1.0000   1.0000   1.0000
     1.0000   1.0000   1.0000   1.0000   1.0000   1.0000   1.0000   1.0000
     1.0000   1.0000   1.0000   1.0000   1.0000   1.0000   1.0000   1.0000
     1.0000   1.0000   1.0000   1.0000   1.0000   1.0000   1.0000   1.0000
     1.0000   1.0000   1.0000   1.0000   1.0000   1.0000   1.0000   1.0000
     1.0000   1.0000   1.0000   1.0000   1.0000   1.0000   1.0000   1.0000
     1.0000   1.0000   1.0000   1.0000   1.0000   1.0000   1.0000   1.0000
     1.0000   1.0000   1.0000   1.0000   1.0000   1.0000   1.0000   1.0000
     1.0000   1.0000   1.0000   1.0000   1.0000   1.0000   1.0000   1.0000
     1.0000   1.0000   1.0000   1.0000   1.0000   1.0000   1.0000   1.0000
     0.0000   0.0000   0.0000   0.0000   0.0000   0.0000   0.0000   0.0000
     0.0000   0.0000

          k = 0.0000 0.4781 0.2337 ( 31258 PWs)   bands (ev):

   -83.0508 -83.0441 -83.0017 -82.5486 -49.1918 -49.1416 -49.1233 -49.0066
   -49.0051 -48.9950 -48.9941 -48.9731 -48.9171 -48.9104 -48.4969 -48.3212
[...]
     atom   17 type  3   force =    -0.10744861   -0.00000054   -0.04949052
     atom   18 type  3   force =     0.04725474    0.10123415   -0.05930023
     atom   19 type  3   force =    -0.04724733   -0.10895624   -0.06349525
     atom   20 type  3   force =    -0.04531508    0.10441033    0.04660441
     atom   21 type  3   force =     0.04430983   -0.10012589    0.05513338
     atom   22 type  3   force =    -0.04531219   -0.10440594    0.04660498
     atom   23 type  3   force =     0.04430271    0.10011471    0.05512692
     atom   24 type  3   force =     0.04725447   -0.10123609   -0.05929542
     atom   25 type  3   force =    -0.04725455    0.10896915   -0.06350168
     The non-local contrib.  to forces
     atom    1 type  2   force =     0.13525006    0.00000097   -0.03260821
     atom    2 type  1   force =     0.04680259   -0.00000371    0.13794531
     atom    3 type  1   force =     0.04993281    0.00001514    0.11301866
     atom    4 type  1   force =    -0.20232604    0.00000622   -0.07692913
     atom    5 type  1   force =    -0.02851304   -0.00001293   -0.12416401
     atom    6 type  4   force =    -0.02150333    0.00000137   -0.04923066
     atom    7 type  4   force =     0.05015992   -0.00001294   -0.01701203
     atom    8 type  4   force =    -0.00791829   -0.00000343    0.04953207
     atom    9 type  4   force =     0.00820848    0.00001200    0.05844119
     atom   10 type  3   force =     0.25333707   -0.00000654   -1.42752347
     atom   11 type  3   force =    -0.07672063    0.00000170   -1.35981214
     atom   12 type  3   force =    -0.33875980    0.00000480    1.42768984
     atom   13 type  3   force =     0.17193267    0.00000038    1.42479477
     atom   14 type  3   force =     1.17839770    0.00000118   -0.53453661
     atom   15 type  3   force =    -1.16338194    0.00000489   -0.70828389
     atom   16 type  3   force =    -1.16283242    0.00001600    0.27781999
     atom   17 type  3   force =     1.13404548   -0.00000371    0.55031958
     atom   18 type  3   force =    -0.51400855   -1.05378052    0.73580915
     atom   19 type  3   force =     0.52821521    1.12188207    0.76534332
     atom   20 type  3   force =     0.54323637   -1.06769752   -0.64638482
     atom   21 type  3   force =    -0.53258651    1.03376240   -0.66124914
     atom   22 type  3   force =     0.54321517    1.06766630   -0.64638869
     atom   23 type  3   force =    -0.53257060   -1.03374063   -0.66124230
     atom   24 type  3   force =    -0.51402844    1.05381125    0.73581108
     atom   25 type  3   force =     0.52823313   -1.12190657    0.76534619
     The ionic contribution  to forces
     atom    1 type  2   force =    -4.19197624    0.00036756    2.74856526
     atom    2 type  1   force =     0.10620181   -0.00091496   -0.45620973
     atom    3 type  1   force =    -9.10431669    0.00110175   -0.64855228
     atom    4 type  1   force =     4.18161771    0.00087502   -0.39043759
     atom    5 type  1   force =     9.43044632   -0.00123138    0.60045474
     atom    6 type  4   force =    -3.84878405   -0.00030148    0.29926510
     atom    7 type  4   force =     0.77292901    0.00019689    0.39686670
     atom    8 type  4   force =     5.82256391    0.00028202   -0.59094941
     atom    9 type  4   force =    -3.04779321   -0.00019348   -0.72857570
     atom   10 type  3   force =   -11.28100823   -0.00031264    2.98566074
     atom   11 type  3   force =     4.23668296    0.00028747    1.49489478
     atom   12 type  3   force =    13.59630735    0.00029381   -3.13044846
     atom   13 type  3   force =    -9.26774451   -0.00034100   -2.41113914
     atom   14 type  3   force =     0.76758559   -0.00024992    5.90159364
     atom   15 type  3   force =    -2.05003658    0.00029234    7.54611731
     atom   16 type  3   force =    -2.24903201    0.00015889   -2.82613018
     atom   17 type  3   force =     3.93867587   -0.00030208   -6.63702023
     atom   18 type  3   force =    -4.56670260    3.00767584   -3.32321570
     atom   19 type  3   force =     1.11060368   -4.48367294   -2.89049763
     atom   20 type  3   force =     6.08930376    4.81389762    2.63957135
     atom   21 type  3   force =    -1.53934576   -1.39317241    1.49707159
     atom   22 type  3   force =     6.08958994   -4.81335290    2.63972814
     atom   23 type  3   force =    -1.53960101    1.39275808    1.49695477
     atom   24 type  3   force =    -4.56647522   -3.00823674   -3.32299665
     atom   25 type  3   force =     1.11030819    4.48409465   -2.89057143
     The local contribution  to forces
     atom    1 type  2   force =     4.07067312   -0.00036717   -2.71793874
     atom    2 type  1   force =    -0.14362153    0.00091049    0.32966064
     atom    3 type  1   force =     9.05766397   -0.00110626    0.54155371
     atom    4 type  1   force =    -4.01355578   -0.00087377    0.46497236
     atom    5 type  1   force =    -9.40212765    0.00123220   -0.48578349
     atom    6 type  4   force =     3.86190143    0.00029265   -0.26500656
     atom    7 type  4   force =    -0.80555604   -0.00018980   -0.38647255
     atom    8 type  4   force =    -5.81767413   -0.00027396    0.55438026
     atom    9 type  4   force =     3.04275393    0.00018582    0.68862914
     atom   10 type  3   force =    11.00787500    0.00031796   -1.44586596
     atom   11 type  3   force =    -4.15920082   -0.00028916   -0.02134360
     atom   12 type  3   force =   -13.23161777   -0.00029813    1.58948352
     atom   13 type  3   force =     9.08235232    0.00034087    0.86982032
     atom   14 type  3   force =    -2.05664866    0.00025003   -5.32301376
     atom   15 type  3   force =     3.32219371   -0.00029652   -6.78303208
     atom   16 type  3   force =     3.51877200   -0.00017492    2.52785381
     atom   17 type  3   force =    -5.17220901    0.00030522    6.04167176
     atom   18 type  3   force =     5.12427246   -1.86027051    2.53381082
     atom   19 type  3   force =    -1.68228887    3.26095648    2.06759200
     atom   20 type  3   force =    -6.67386719   -3.64952156   -1.95155941
     atom   21 type  3   force =     2.11239434    0.26682599   -0.78585359
     atom   22 type  3   force =    -6.67412946    3.64901221   -1.95171176
     atom   23 type  3   force =     2.11262664   -0.26644459   -0.78575007
     atom   24 type  3   force =     5.12406450    1.86079899    2.53359474
     atom   25 type  3   force =    -1.68201844   -3.26134082    2.06765646
     The core correction contribution to forces
     atom    1 type  2   force =     0.00000000    0.00000000    0.00000000
     atom    2 type  1   force =    -0.00116974    0.00000020   -0.00050445
     atom    3 type  1   force =    -0.00005406   -0.00000042    0.00027064
     atom    4 type  1   force =     0.00513562   -0.00000016   -0.00112395
     atom    5 type  1   force =    -0.00004583    0.00000040    0.00042775
     atom    6 type  4   force =     0.00215208    0.00000008    0.00310017
     atom    7 type  4   force =    -0.00360890    0.00000095    0.00073648
     atom    8 type  4   force =    -0.00060972    0.00000013   -0.00286677
     atom    9 type  4   force =    -0.00019735   -0.00000096   -0.00358497
     atom   10 type  3   force =    -0.00252187    0.00000007    0.01047264
     atom   11 type  3   force =     0.00130731   -0.00000001    0.00981340
     atom   12 type  3   force =     0.00321738   -0.00000004   -0.01040789
     atom   13 type  3   force =    -0.00191434   -0.00000001   -0.01037896
     atom   14 type  3   force =    -0.00813728   -0.00000003    0.00437094
     atom   15 type  3   force =     0.00804755   -0.00000005    0.00568960
     atom   16 type  3   force =     0.00795694   -0.00000014   -0.00239824
     atom   17 type  3   force =    -0.00795718    0.00000004   -0.00446067
     atom   18 type  3   force =     0.00369726    0.00760428   -0.00570613
     atom   19 type  3   force =    -0.00377750   -0.00812678   -0.00592896
     atom   20 type  3   force =    -0.00398616    0.00773345    0.00497644
     atom   21 type  3   force =     0.00384462   -0.00753918    0.00516602
     atom   22 type  3   force =    -0.00398599   -0.00773321    0.00497646
     atom   23 type  3   force =     0.00384455    0.00753915    0.00516603
     atom   24 type  3   force =     0.00369745   -0.00760454   -0.00570621
     atom   25 type  3   force =    -0.00377758    0.00812682   -0.00592892
     The Hubbard contrib.    to forces
     atom    1 type  2   force =     0.00000000    0.00000000    0.00000000
     atom    2 type  1   force =     0.00000000    0.00000000    0.00000000
     atom    3 type  1   force =     0.00000000    0.00000000    0.00000000
     atom    4 type  1   force =     0.00000000    0.00000000    0.00000000
     atom    5 type  1   force =     0.00000000    0.00000000    0.00000000
     atom    6 type  4   force =     0.00000000    0.00000000    0.00000000
     atom    7 type  4   force =     0.00000000    0.00000000    0.00000000
     atom    8 type  4   force =     0.00000000    0.00000000    0.00000000
     atom    9 type  4   force =     0.00000000    0.00000000    0.00000000
     atom   10 type  3   force =     0.00000000    0.00000000    0.00000000
     atom   11 type  3   force =     0.00000000    0.00000000    0.00000000
     atom   12 type  3   force =     0.00000000    0.00000000    0.00000000
     atom   13 type  3   force =     0.00000000    0.00000000    0.00000000
     atom   14 type  3   force =     0.00000000    0.00000000    0.00000000
     atom   15 type  3   force =     0.00000000    0.00000000    0.00000000
     atom   16 type  3   force =     0.00000000    0.00000000    0.00000000
     atom   17 type  3   force =     0.00000000    0.00000000    0.00000000
     atom   18 type  3   force =     0.00000000    0.00000000    0.00000000
     atom   19 type  3   force =     0.00000000    0.00000000    0.00000000
     atom   20 type  3   force =     0.00000000    0.00000000    0.00000000
     atom   21 type  3   force =     0.00000000    0.00000000    0.00000000
     atom   22 type  3   force =     0.00000000    0.00000000    0.00000000
     atom   23 type  3   force =     0.00000000    0.00000000    0.00000000
     atom   24 type  3   force =     0.00000000    0.00000000    0.00000000
     atom   25 type  3   force =     0.00000000    0.00000000    0.00000000
     The SCF correction term to forces
     atom    1 type  2   force =     0.00000582    0.00000000   -0.00000062
     atom    2 type  1   force =    -0.00000286    0.00000003   -0.00000102
     atom    3 type  1   force =    -0.00000408   -0.00000001   -0.00000084
     atom    4 type  1   force =     0.00000397    0.00000000    0.00000111
     atom    5 type  1   force =    -0.00000008   -0.00000000    0.00000030
     atom    6 type  4   force =    -0.00000364    0.00000000    0.00000056
     atom    7 type  4   force =     0.00000183   -0.00000000   -0.00000041
     atom    8 type  4   force =    -0.00000211   -0.00000000    0.00000017
     atom    9 type  4   force =     0.00000358    0.00000000    0.00000012
     atom   10 type  3   force =    -0.00000702   -0.00000000   -0.00000201
     atom   11 type  3   force =     0.00000033   -0.00000000    0.00000187
     atom   12 type  3   force =    -0.00000351   -0.00000001   -0.00000238
     atom   13 type  3   force =     0.00000353   -0.00000000   -0.00000044
     atom   14 type  3   force =     0.00000720   -0.00000000    0.00000208
     atom   15 type  3   force =    -0.00000145   -0.00000000   -0.00000073
     atom   16 type  3   force =     0.00000601    0.00000001    0.00000045
     atom   17 type  3   force =    -0.00000369    0.00000000    0.00000002
     atom   18 type  3   force =    -0.00000373    0.00000506    0.00000261
     atom   19 type  3   force =     0.00000023    0.00000492   -0.00000300
     atom   20 type  3   force =    -0.00000177   -0.00000165    0.00000182
     atom   21 type  3   force =     0.00000323   -0.00000270   -0.00000053
     atom   22 type  3   force =    -0.00000176    0.00000166    0.00000182
     atom   23 type  3   force =     0.00000322    0.00000270   -0.00000053
     atom   24 type  3   force =    -0.00000374   -0.00000505    0.00000261
     atom   25 type  3   force =     0.00000024   -0.00000493   -0.00000300

     Total force =     0.505475     Total SCF correction =     0.000023


     Computing stress (Cartesian axis) and pressure


     negative rho (up, down):  0.000E+00 7.705E-04
          total   stress  (Ry/bohr**3)                   (kbar)     P=      297.97
   0.00216505   0.00000000  -0.00003375          318.49        0.00       -4.97
   0.00000000   0.00165741  -0.00000001            0.00      243.81       -0.00
  -0.00003375  -0.00000001   0.00225417           -4.97       -0.00      331.60

     kinetic stress (kbar)  31462.26      0.00    -15.24
                                0.00  31674.68      0.00
                              -15.24      0.00  31472.47

     local   stress (kbar)  -2688.40     -0.11   1454.08
                               -0.11 -14468.41     -0.00
                             1454.08     -0.00  -8780.87

     nonloc. stress (kbar)  -8106.76     -0.00      2.28
                               -0.00  -8011.46     -0.00
                                2.28     -0.00  -8021.92

     hartree stress (kbar)  13559.89      0.05   -588.28
                                0.05  20149.15      0.00
                             -588.28      0.00  17086.72

     exc-cor stress (kbar)  -3319.41     -0.00     -1.06
                               -0.00  -3329.07     -0.00
                               -1.06     -0.00  -3325.68

     corecor stress (kbar)  -3641.73      0.00      1.21
                                0.00  -3639.29      0.00
                                1.21      0.00  -3641.97

     ewald   stress (kbar) -26947.37      0.06   -857.96
                                0.06 -22131.79      0.00
                             -857.96      0.00 -24457.15

     hubbard stress (kbar)      0.00      0.00      0.00
                                0.00      0.00      0.00
                                0.00      0.00      0.00

     DFT-D   stress (kbar)      0.00      0.00      0.00
                                0.00      0.00      0.00
                                0.00      0.00      0.00

     XDM     stress (kbar)      0.00      0.00      0.00
                                0.00      0.00      0.00
                                0.00      0.00      0.00

     dft-nl  stress (kbar)      0.00      0.00      0.00
                                0.00      0.00      0.00
                                0.00      0.00      0.00

     TS-vdW  stress (kbar)      0.00      0.00      0.00
                                0.00      0.00      0.00
                                0.00      0.00      0.00



     init_run     :    446.58s CPU    470.04s WALL (       1 calls)
     electrons    :  13974.40s CPU  14173.34s WALL (       1 calls)
     forces       :    102.68s CPU    104.85s WALL (       1 calls)
     stress       :    672.62s CPU    678.59s WALL (       1 calls)

     Called by init_run:
     wfcinit      :    437.56s CPU    460.19s WALL (       1 calls)
     wfcinit:atom :      2.47s CPU      2.55s WALL (     316 calls)
     wfcinit:wfcr :    427.29s CPU    449.55s WALL (     316 calls)
     potinit      :      3.11s CPU      3.24s WALL (       1 calls)
     hinit0       :      3.30s CPU      3.47s WALL (       1 calls)

     Called by electrons:
     c_bands      :  12422.28s CPU  12567.03s WALL (      29 calls)
     sum_band     :   1476.18s CPU   1513.73s WALL (      29 calls)
     v_of_rho     :     19.58s CPU     20.89s WALL (      30 calls)
     v_h          :      0.90s CPU      0.97s WALL (      30 calls)
     v_xc         :     20.16s CPU     21.45s WALL (      32 calls)
     newd         :     37.58s CPU     52.43s WALL (      30 calls)
     PAW_pot      :     12.98s CPU     13.04s WALL (      30 calls)
     mix_rho      :      6.35s CPU      7.05s WALL (      29 calls)

     Called by c_bands:
     init_us_2    :    226.42s CPU    232.47s WALL (   19276 calls)
     cegterg      :  12047.62s CPU  12183.61s WALL (    9164 calls)

     Called by sum_band:
     sum_band:wei :      0.44s CPU      0.44s WALL (      29 calls)
     sum_band:loo :   1364.53s CPU   1382.33s WALL (      29 calls)
     sum_band:buf :     58.63s CPU     60.16s WALL (    9164 calls)
     sum_band:ini :    109.01s CPU    111.73s WALL (    9164 calls)
     sum_band:cal :    547.50s CPU    554.69s WALL (    9164 calls)
     sum_band:bec :      4.90s CPU      4.99s WALL (    9164 calls)
     addusdens    :    107.28s CPU    126.88s WALL (      29 calls)
     addusd:skk   :      0.66s CPU      0.70s WALL (      87 calls)
     addusd:dgemm :     55.84s CPU     72.66s WALL (     174 calls)
     addusd:qvan2 :     49.50s CPU     49.90s WALL (     174 calls)

     Called by *egterg:
     cdiaghg      :    840.02s CPU    860.48s WALL (   36078 calls)
     cegterg:over :   1146.76s CPU   1169.58s WALL (   26914 calls)
     cegterg:upda :    620.06s CPU    624.04s WALL (   26914 calls)
     cegterg:last :   1209.68s CPU   1217.27s WALL (   15892 calls)
     h_psi        :   6486.99s CPU   6568.82s WALL (   36394 calls)
     s_psi        :   1357.31s CPU   1366.13s WALL (   36394 calls)
     g_psi        :     10.94s CPU     11.09s WALL (   26914 calls)

     Called by h_psi:
     h_psi:calbec :   1490.31s CPU   1511.95s WALL (   36394 calls)
     vloc_psi     :   3407.72s CPU   3454.35s WALL (   36394 calls)
     add_vuspsi   :   1467.22s CPU   1476.99s WALL (   36394 calls)

     General routines
     calbec       :   2127.69s CPU   2158.12s WALL (   47138 calls)
     fft          :     16.73s CPU     18.36s WALL (     788 calls)
     ffts         :      0.39s CPU      0.43s WALL (     118 calls)
     fftw         :   3857.28s CPU   3907.24s WALL ( 5787642 calls)
     interpolate  :      1.20s CPU      1.33s WALL (      60 calls)

     Parallel routines
     fft_scatt_xy :    227.71s CPU    230.36s WALL ( 5788548 calls)
     fft_scatt_yz :   2353.27s CPU   2387.34s WALL ( 5788548 calls)

     PAW routines
     PAW_pot      :     12.98s CPU     13.04s WALL (      30 calls)

     PWSCF        :      4h13m CPU      4h17m WALL


   This run was terminated on:   9:45:49  21Dec2022            

=------------------------------------------------------------------------------=
   JOB DONE.
=------------------------------------------------------------------------------=
Note: The following floating-point exceptions are signalling: IEEE_UNDERFLOW_FLAG IEEE_DENORMAL
Note: The following floating-point exceptions are signalling: IEEE_DENORMAL
Note: The following floating-point exceptions are signalling: IEEE_DENORMAL
Note: The following floating-point exceptions are signalling: IEEE_INVALID_FLAG IEEE_DENORMAL
Note: The following floating-point exceptions are signalling: IEEE_DENORMAL
Note: The following floating-point exceptions are signalling: IEEE_DENORMAL
Note: The following floating-point exceptions are signalling: IEEE_INVALID_FLAG IEEE_DENORMAL
Note: The following floating-point exceptions are signalling: IEEE_DENORMAL
Note: The following floating-point exceptions are signalling: IEEE_DENORMAL
Note: The following floating-point exceptions are signalling: IEEE_DENORMAL
Note: The following floating-point exceptions are signalling: IEEE_DENORMAL
Note: The following floating-point exceptions are signalling: IEEE_DENORMAL
Note: The following floating-point exceptions are signalling: IEEE_DENORMAL
Note: The following floating-point exceptions are signalling: IEEE_DENORMAL
Note: The following floating-point exceptions are signalling: IEEE_DENORMAL
Note: The following floating-point exceptions are signalling: IEEE_DENORMAL
Note: The following floating-point exceptions are signalling: IEEE_DENORMAL
