
     Program PWSCF v.6.7MaX starts on 29Dec2022 at 17:41: 0 

     This program is part of the open-source Quantum ESPRESSO suite
     for quantum simulation of materials; please cite
         "P. Giannozzi et al., J. Phys.:Condens. Matter 21 395502 (2009);
         "P. Giannozzi et al., J. Phys.:Condens. Matter 29 465901 (2017);
          URL http://www.quantum-espresso.org", 
     in publications or presentations arising from this work. More details at
     http://www.quantum-espresso.org/quote

     Parallel version (MPI), running on    48 processors

     MPI processes distributed on     2 nodes
     R & G space division:  proc/nbgrp/npool/nimage =      48
     Reading input from scale_3d-04.in

     Current dimensions of program PWSCF are:
     Max number of different atomic species (ntypx) = 10
     Max number of k-points (npk) =  40000
     Max angular momentum in pseudopotentials (lmaxx) =  3
     Message from routine read_pp_mesh:
     mesh size missing, using the one in header
     file Fe.pbe-spn-kjpaw_psl.0.2.1.UPF: wavefunction(s)  3D renormalized
     file O.pbe-n-kjpaw_psl.0.1.UPF: wavefunction(s)  2P renormalized

     Subspace diagonalization in iterative solution of the eigenvalue problem:
     a serial algorithm will be used


     Parallelization info
     --------------------
     sticks:   dense  smooth     PW     G-vecs:    dense   smooth      PW
     Min         441     163     44                29765     6711     936
     Max         442     164     45                29768     6716     940
     Sum       21211    7849   2119              1428783   322201   45025



     bravais-lattice index     =            0
     lattice parameter (alat)  =      20.3206  a.u.
     unit-cell volume          =    2383.6748 (a.u.)^3
     number of atoms/cell      =           25
     number of atomic types    =            4
     number of electrons       =       189.00
     number of Kohn-Sham states=          114
     kinetic-energy cutoff     =     100.0000  Ry
     charge density cutoff     =    1080.0000  Ry
     scf convergence threshold =      2.0E-10
     mixing beta               =       0.4000
     number of iterations used =            8  plain     mixing
     Exchange-correlation= PBE
                           (   1   4   3   4   0   0   0)

     celldm(1)=  20.320559  celldm(2)=   0.000000  celldm(3)=   0.000000
     celldm(4)=   0.000000  celldm(5)=   0.000000  celldm(6)=   0.000000

     crystal axes: (cart. coord. in units of alat)
               a(1) = (   1.000000   0.000000   0.000000 )  
               a(2) = (   0.000000   0.597590   0.000000 )  
               a(3) = (   0.000000   0.000000   0.475375 )  

     reciprocal axes: (cart. coord. in units 2 pi/alat)
               b(1) = (  1.000000  0.000000  0.000000 )  
               b(2) = (  0.000000  1.673388  0.000000 )  
               b(3) = (  0.000000  0.000000  2.103600 )  


     PseudoPot. # 1 for Fe read from file:
     /opt/QEpot/SSSP_precision_pseudos/Fe.pbe-spn-kjpaw_psl.0.2.1.UPF
     MD5 check sum: e86618425769142926afa95317d90200
     Pseudo is Projector augmented-wave + core cor, Zval = 16.0
     Generated using "atomic" code by A. Dal Corso  v.5.0.99 svn rev. 10869
     Shape of augmentation charge: PSQ
     Using radial grid of 1191 points,  6 beta functions with: 
                l(1) =   0
                l(2) =   0
                l(3) =   1
                l(4) =   1
                l(5) =   2
                l(6) =   2
     Q(r) pseudized with 0 coefficients 


     PseudoPot. # 2 for Na read from file:
     /opt/QEpot/SSSP_precision_pseudos/Na_ONCV_PBE-1.0.oncvpsp.upf
     MD5 check sum: 24a298df0a6742ae313db96548fdb2a4
     Pseudo is Norm-conserving, Zval =  9.0
     Generated using ONCVPSP code by D. R. Hamann
     Using radial grid of 1992 points,  4 beta functions with: 
                l(1) =   0
                l(2) =   0
                l(3) =   1
                l(4) =   1

     PseudoPot. # 3 for O  read from file:
     /opt/QEpot/SSSP_precision_pseudos/O.pbe-n-kjpaw_psl.0.1.UPF
     MD5 check sum: 0234752ac141de4415c5fc33072bef88
     Pseudo is Projector augmented-wave + core cor, Zval =  6.0
     Generated using "atomic" code by A. Dal Corso  v.5.0.99 svn rev. 10869
     Shape of augmentation charge: BESSEL
     Using radial grid of 1095 points,  4 beta functions with: 
                l(1) =   0
                l(2) =   0
                l(3) =   1
                l(4) =   1
     Q(r) pseudized with 0 coefficients 


     PseudoPot. # 4 for P  read from file:
     /opt/QEpot/SSSP_precision_pseudos/P.pbe-n-rrkjus_psl.1.0.0.UPF
     MD5 check sum: 8b930f418f0a4573dca56cd030ffe088
     Pseudo is Ultrasoft + core correction, Zval =  5.0
     Generated using "atomic" code by A. Dal Corso  v.5.1
     Using radial grid of 1147 points,  6 beta functions with: 
                l(1) =   0
                l(2) =   0
                l(3) =   1
                l(4) =   1
                l(5) =   2
                l(6) =   2
     Q(r) pseudized with 0 coefficients 


     atomic species   valence    mass     pseudopotential
        Fe            16.00    55.84500     Fe( 1.00)
        Na             9.00    22.98977     Na( 1.00)
        O              6.00    15.99940     O ( 1.00)
        P              5.00    30.97376     P ( 1.00)

     Starting magnetic structure 
     atomic species   magnetization
        Fe           0.312
        Na           0.000
        O            0.000
        P            0.000

     No symmetry found


                                    s                        frac. trans.

      isym =  1     identity                                     

 cryst.   s( 1) = (     1          0          0      )
                  (     0          1          0      )
                  (     0          0          1      )

 cart.    s( 1) = (  1.0000000  0.0000000  0.0000000 )
                  (  0.0000000  1.0000000  0.0000000 )
                  (  0.0000000  0.0000000  1.0000000 )


   Cartesian axes

     site n.     atom                  positions (alat units)
         1           Na  tau(   1) = (   0.5574590   0.1493981   0.2117218  )
         2           Fe  tau(   2) = (   0.2771150   0.4481954   0.4712830  )
         3           Fe  tau(   3) = (   0.2107060   0.1493969   0.2331517  )
         4           Fe  tau(   4) = (   0.7302140   0.1493975   0.0000509  )
         5           Fe  tau(   5) = (   0.7810190   0.4481960   0.2445945  )
         6           P   tau(   6) = (   0.1051510   0.4481942   0.2110135  )
         7           P   tau(   7) = (   0.3871250   0.1493987   0.4475898  )
         8           P   tau(   8) = (   0.8922730   0.1493987   0.2646059  )
         9           P   tau(   9) = (   0.6039150   0.4481942   0.0314295  )
        10           O   tau(  10) = (   0.1313210   0.4481948   0.3569352  )
        11           O   tau(  11) = (   0.3628270   0.1493981   0.1186442  )
        12           O   tau(  12) = (   0.8714480   0.1493981   0.1180971  )
        13           O   tau(  13) = (   0.6323650   0.4481948   0.3613614  )
        14           O   tau(  14) = (   0.4574600   0.4481948   0.0568269  )
        15           O   tau(  15) = (   0.0361810   0.1493981   0.2982587  )
        16           O   tau(  16) = (   0.5358400   0.1493975   0.4259246  )
        17           O   tau(  17) = (   0.9582930   0.4481948   0.1859797  )
        18           O   tau(  18) = (   0.1741600   0.5648814   0.1424125  )
        19           O   tau(  19) = (   0.3208130   0.0329153   0.3780219  )
        20           O   tau(  20) = (   0.8175190   0.2646445   0.3306455  )
        21           O   tau(  21) = (   0.6721860   0.3307857   0.1012997  )
        22           O   tau(  22) = (   0.8175190   0.0341529   0.3306460  )
        23           O   tau(  23) = (   0.6721870   0.5656027   0.1013006  )
        24           O   tau(  24) = (   0.1741600   0.3315070   0.1424125  )
        25           O   tau(  25) = (   0.3208140   0.2658821   0.3780229  )

   Crystallographic axes

     site n.     atom                  positions (cryst. coord.)
         1           Na  tau(   1) = (  0.5574590  0.2500010  0.4453780  )
         2           Fe  tau(   2) = (  0.2771150  0.7500050  0.9913910  )
         3           Fe  tau(   3) = (  0.2107060  0.2499990  0.4904580  )
         4           Fe  tau(   4) = (  0.7302140  0.2500000  0.0001070  )
         5           Fe  tau(   5) = (  0.7810190  0.7500060  0.5145290  )
         6           P   tau(   6) = (  0.1051510  0.7500030  0.4438880  )
         7           P   tau(   7) = (  0.3871250  0.2500020  0.9415500  )
         8           P   tau(   8) = (  0.8922730  0.2500020  0.5566250  )
         9           P   tau(   9) = (  0.6039150  0.7500030  0.0661150  )
        10           O   tau(  10) = (  0.1313210  0.7500040  0.7508490  )
        11           O   tau(  11) = (  0.3628270  0.2500010  0.2495800  )
        12           O   tau(  12) = (  0.8714480  0.2500010  0.2484290  )
        13           O   tau(  13) = (  0.6323650  0.7500040  0.7601600  )
        14           O   tau(  14) = (  0.4574600  0.7500040  0.1195410  )
        15           O   tau(  15) = (  0.0361810  0.2500010  0.6274170  )
        16           O   tau(  16) = (  0.5358400  0.2500000  0.8959750  )
        17           O   tau(  17) = (  0.9582930  0.7500040  0.3912270  )
        18           O   tau(  18) = (  0.1741600  0.9452660  0.2995790  )
        19           O   tau(  19) = (  0.3208130  0.0550800  0.7952070  )
        20           O   tau(  20) = (  0.8175190  0.4428530  0.6955460  )
        21           O   tau(  21) = (  0.6721860  0.5535330  0.2130940  )
        22           O   tau(  22) = (  0.8175190  0.0571510  0.6955470  )
        23           O   tau(  23) = (  0.6721870  0.9464730  0.2130960  )
        24           O   tau(  24) = (  0.1741600  0.5547400  0.2995790  )
        25           O   tau(  25) = (  0.3208140  0.4449240  0.7952090  )

     number of k points=   158  Marzari-Vanderbilt smearing, width (Ry)=  0.0073
                       cart. coord. in units 2pi/alat
        k(    1) = (   0.0000000   0.0000000   0.0000000), wk =   0.0031746
        k(    2) = (   0.0000000   0.0000000   0.2337334), wk =   0.0063492
        k(    3) = (   0.0000000   0.0000000   0.4674667), wk =   0.0063492
        k(    4) = (   0.0000000   0.0000000   0.7012001), wk =   0.0063492
        k(    5) = (   0.0000000   0.0000000   0.9349334), wk =   0.0063492
        k(    6) = (   0.0000000   0.2390555   0.0000000), wk =   0.0063492
        k(    7) = (   0.0000000   0.2390555   0.2337334), wk =   0.0063492
        k(    8) = (   0.0000000   0.2390555   0.4674667), wk =   0.0063492
        k(    9) = (   0.0000000   0.2390555   0.7012001), wk =   0.0063492
        k(   10) = (   0.0000000   0.2390555   0.9349334), wk =   0.0063492
        k(   11) = (   0.0000000   0.4781110   0.0000000), wk =   0.0063492
        k(   12) = (   0.0000000   0.4781110   0.2337334), wk =   0.0063492
        k(   13) = (   0.0000000   0.4781110   0.4674667), wk =   0.0063492
        k(   14) = (   0.0000000   0.4781110   0.7012001), wk =   0.0063492
        k(   15) = (   0.0000000   0.4781110   0.9349334), wk =   0.0063492
        k(   16) = (   0.0000000   0.7171664   0.0000000), wk =   0.0063492
        k(   17) = (   0.0000000   0.7171664   0.2337334), wk =   0.0063492
        k(   18) = (   0.0000000   0.7171664   0.4674667), wk =   0.0063492
        k(   19) = (   0.0000000   0.7171664   0.7012001), wk =   0.0063492
        k(   20) = (   0.0000000   0.7171664   0.9349334), wk =   0.0063492
        k(   21) = (   0.2000000   0.0000000   0.0000000), wk =   0.0063492
        k(   22) = (   0.2000000   0.0000000   0.2337334), wk =   0.0063492
        k(   23) = (   0.2000000   0.0000000   0.4674667), wk =   0.0063492
        k(   24) = (   0.2000000   0.0000000   0.7012001), wk =   0.0063492
        k(   25) = (   0.2000000   0.0000000   0.9349334), wk =   0.0063492
        k(   26) = (   0.2000000   0.2390555   0.0000000), wk =   0.0063492
        k(   27) = (   0.2000000   0.2390555   0.2337334), wk =   0.0063492
        k(   28) = (   0.2000000   0.2390555   0.4674667), wk =   0.0063492
        k(   29) = (   0.2000000   0.2390555   0.7012001), wk =   0.0063492
        k(   30) = (   0.2000000   0.2390555   0.9349334), wk =   0.0063492
        k(   31) = (   0.2000000   0.4781110   0.0000000), wk =   0.0063492
        k(   32) = (   0.2000000   0.4781110   0.2337334), wk =   0.0063492
        k(   33) = (   0.2000000   0.4781110   0.4674667), wk =   0.0063492
        k(   34) = (   0.2000000   0.4781110   0.7012001), wk =   0.0063492
        k(   35) = (   0.2000000   0.4781110   0.9349334), wk =   0.0063492
        k(   36) = (   0.2000000   0.7171664   0.0000000), wk =   0.0063492
        k(   37) = (   0.2000000   0.7171664   0.2337334), wk =   0.0063492
        k(   38) = (   0.2000000   0.7171664   0.4674667), wk =   0.0063492
        k(   39) = (   0.2000000   0.7171664   0.7012001), wk =   0.0063492
        k(   40) = (   0.2000000   0.7171664   0.9349334), wk =   0.0063492
        k(   41) = (   0.4000000   0.0000000   0.0000000), wk =   0.0063492
        k(   42) = (   0.4000000   0.0000000   0.2337334), wk =   0.0063492
        k(   43) = (   0.4000000   0.0000000   0.4674667), wk =   0.0063492
        k(   44) = (   0.4000000   0.0000000   0.7012001), wk =   0.0063492
        k(   45) = (   0.4000000   0.0000000   0.9349334), wk =   0.0063492
        k(   46) = (   0.4000000   0.2390555   0.0000000), wk =   0.0063492
        k(   47) = (   0.4000000   0.2390555   0.2337334), wk =   0.0063492
        k(   48) = (   0.4000000   0.2390555   0.4674667), wk =   0.0063492
        k(   49) = (   0.4000000   0.2390555   0.7012001), wk =   0.0063492
        k(   50) = (   0.4000000   0.2390555   0.9349334), wk =   0.0063492
        k(   51) = (   0.4000000   0.4781110   0.0000000), wk =   0.0063492
        k(   52) = (   0.4000000   0.4781110   0.2337334), wk =   0.0063492
        k(   53) = (   0.4000000   0.4781110   0.4674667), wk =   0.0063492
        k(   54) = (   0.4000000   0.4781110   0.7012001), wk =   0.0063492
        k(   55) = (   0.4000000   0.4781110   0.9349334), wk =   0.0063492
        k(   56) = (   0.4000000   0.7171664   0.0000000), wk =   0.0063492
        k(   57) = (   0.4000000   0.7171664   0.2337334), wk =   0.0063492
        k(   58) = (   0.4000000   0.7171664   0.4674667), wk =   0.0063492
        k(   59) = (   0.4000000   0.7171664   0.7012001), wk =   0.0063492
        k(   60) = (   0.4000000   0.7171664   0.9349334), wk =   0.0063492
        k(   61) = (   0.0000000  -0.2390555   0.2337334), wk =   0.0063492
        k(   62) = (   0.0000000  -0.2390555   0.4674667), wk =   0.0063492
        k(   63) = (   0.0000000  -0.2390555   0.7012001), wk =   0.0063492
        k(   64) = (   0.0000000  -0.2390555   0.9349334), wk =   0.0063492
        k(   65) = (   0.0000000  -0.4781110   0.2337334), wk =   0.0063492
        k(   66) = (   0.0000000  -0.4781110   0.4674667), wk =   0.0063492
        k(   67) = (   0.0000000  -0.4781110   0.7012001), wk =   0.0063492
        k(   68) = (   0.0000000  -0.4781110   0.9349334), wk =   0.0063492
        k(   69) = (   0.0000000  -0.7171664   0.2337334), wk =   0.0063492
        k(   70) = (   0.0000000  -0.7171664   0.4674667), wk =   0.0063492
        k(   71) = (   0.0000000  -0.7171664   0.7012001), wk =   0.0063492
        k(   72) = (   0.0000000  -0.7171664   0.9349334), wk =   0.0063492
        k(   73) = (  -0.2000000   0.0000000   0.2337334), wk =   0.0063492
        k(   74) = (  -0.2000000   0.0000000   0.4674667), wk =   0.0063492
        k(   75) = (  -0.2000000   0.0000000   0.7012001), wk =   0.0063492
        k(   76) = (  -0.2000000   0.0000000   0.9349334), wk =   0.0063492
        k(   77) = (  -0.2000000   0.2390555   0.0000000), wk =   0.0063492
        k(   78) = (  -0.2000000  -0.2390555   0.2337334), wk =   0.0063492
        k(   79) = (  -0.2000000   0.2390555  -0.2337334), wk =   0.0063492
        k(   80) = (   0.2000000  -0.2390555  -0.2337334), wk =   0.0063492
        k(   81) = (  -0.2000000  -0.2390555   0.4674667), wk =   0.0063492
        k(   82) = (  -0.2000000   0.2390555  -0.4674667), wk =   0.0063492
        k(   83) = (   0.2000000  -0.2390555  -0.4674667), wk =   0.0063492
        k(   84) = (  -0.2000000  -0.2390555   0.7012001), wk =   0.0063492
        k(   85) = (  -0.2000000   0.2390555  -0.7012001), wk =   0.0063492
        k(   86) = (   0.2000000  -0.2390555  -0.7012001), wk =   0.0063492
        k(   87) = (  -0.2000000  -0.2390555   0.9349334), wk =   0.0063492
        k(   88) = (  -0.2000000   0.2390555  -0.9349334), wk =   0.0063492
        k(   89) = (   0.2000000  -0.2390555  -0.9349334), wk =   0.0063492
        k(   90) = (  -0.2000000   0.4781110   0.0000000), wk =   0.0063492
        k(   91) = (  -0.2000000  -0.4781110   0.2337334), wk =   0.0063492
        k(   92) = (  -0.2000000   0.4781110  -0.2337334), wk =   0.0063492
        k(   93) = (   0.2000000  -0.4781110  -0.2337334), wk =   0.0063492
        k(   94) = (  -0.2000000  -0.4781110   0.4674667), wk =   0.0063492
        k(   95) = (  -0.2000000   0.4781110  -0.4674667), wk =   0.0063492
        k(   96) = (   0.2000000  -0.4781110  -0.4674667), wk =   0.0063492
        k(   97) = (  -0.2000000  -0.4781110   0.7012001), wk =   0.0063492
        k(   98) = (  -0.2000000   0.4781110  -0.7012001), wk =   0.0063492
        k(   99) = (   0.2000000  -0.4781110  -0.7012001), wk =   0.0063492
        k(  100) = (  -0.2000000  -0.4781110   0.9349334), wk =   0.0063492
        k(  101) = (  -0.2000000   0.4781110  -0.9349334), wk =   0.0063492
        k(  102) = (   0.2000000  -0.4781110  -0.9349334), wk =   0.0063492
        k(  103) = (  -0.2000000   0.7171664   0.0000000), wk =   0.0063492
        k(  104) = (  -0.2000000  -0.7171664   0.2337334), wk =   0.0063492
        k(  105) = (  -0.2000000   0.7171664  -0.2337334), wk =   0.0063492
        k(  106) = (   0.2000000  -0.7171664  -0.2337334), wk =   0.0063492
        k(  107) = (  -0.2000000  -0.7171664   0.4674667), wk =   0.0063492
        k(  108) = (  -0.2000000   0.7171664  -0.4674667), wk =   0.0063492
        k(  109) = (   0.2000000  -0.7171664  -0.4674667), wk =   0.0063492
        k(  110) = (  -0.2000000  -0.7171664   0.7012001), wk =   0.0063492
        k(  111) = (  -0.2000000   0.7171664  -0.7012001), wk =   0.0063492
        k(  112) = (   0.2000000  -0.7171664  -0.7012001), wk =   0.0063492
        k(  113) = (  -0.2000000  -0.7171664   0.9349334), wk =   0.0063492
        k(  114) = (  -0.2000000   0.7171664  -0.9349334), wk =   0.0063492
        k(  115) = (   0.2000000  -0.7171664  -0.9349334), wk =   0.0063492
        k(  116) = (  -0.4000000   0.0000000   0.2337334), wk =   0.0063492
        k(  117) = (  -0.4000000   0.0000000   0.4674667), wk =   0.0063492
        k(  118) = (  -0.4000000   0.0000000   0.7012001), wk =   0.0063492
        k(  119) = (  -0.4000000   0.0000000   0.9349334), wk =   0.0063492
        k(  120) = (  -0.4000000   0.2390555   0.0000000), wk =   0.0063492
        k(  121) = (  -0.4000000  -0.2390555   0.2337334), wk =   0.0063492
        k(  122) = (  -0.4000000   0.2390555  -0.2337334), wk =   0.0063492
        k(  123) = (   0.4000000  -0.2390555  -0.2337334), wk =   0.0063492
        k(  124) = (  -0.4000000  -0.2390555   0.4674667), wk =   0.0063492
        k(  125) = (  -0.4000000   0.2390555  -0.4674667), wk =   0.0063492
        k(  126) = (   0.4000000  -0.2390555  -0.4674667), wk =   0.0063492
        k(  127) = (  -0.4000000  -0.2390555   0.7012001), wk =   0.0063492
        k(  128) = (  -0.4000000   0.2390555  -0.7012001), wk =   0.0063492
        k(  129) = (   0.4000000  -0.2390555  -0.7012001), wk =   0.0063492
        k(  130) = (  -0.4000000  -0.2390555   0.9349334), wk =   0.0063492
        k(  131) = (  -0.4000000   0.2390555  -0.9349334), wk =   0.0063492
        k(  132) = (   0.4000000  -0.2390555  -0.9349334), wk =   0.0063492
        k(  133) = (  -0.4000000   0.4781110   0.0000000), wk =   0.0063492
        k(  134) = (  -0.4000000  -0.4781110   0.2337334), wk =   0.0063492
        k(  135) = (  -0.4000000   0.4781110  -0.2337334), wk =   0.0063492
        k(  136) = (   0.4000000  -0.4781110  -0.2337334), wk =   0.0063492
        k(  137) = (  -0.4000000  -0.4781110   0.4674667), wk =   0.0063492
        k(  138) = (  -0.4000000   0.4781110  -0.4674667), wk =   0.0063492
        k(  139) = (   0.4000000  -0.4781110  -0.4674667), wk =   0.0063492
        k(  140) = (  -0.4000000  -0.4781110   0.7012001), wk =   0.0063492
        k(  141) = (  -0.4000000   0.4781110  -0.7012001), wk =   0.0063492
        k(  142) = (   0.4000000  -0.4781110  -0.7012001), wk =   0.0063492
        k(  143) = (  -0.4000000  -0.4781110   0.9349334), wk =   0.0063492
        k(  144) = (  -0.4000000   0.4781110  -0.9349334), wk =   0.0063492
        k(  145) = (   0.4000000  -0.4781110  -0.9349334), wk =   0.0063492
        k(  146) = (  -0.4000000   0.7171664   0.0000000), wk =   0.0063492
        k(  147) = (  -0.4000000  -0.7171664   0.2337334), wk =   0.0063492
        k(  148) = (  -0.4000000   0.7171664  -0.2337334), wk =   0.0063492
        k(  149) = (   0.4000000  -0.7171664  -0.2337334), wk =   0.0063492
        k(  150) = (  -0.4000000  -0.7171664   0.4674667), wk =   0.0063492
        k(  151) = (  -0.4000000   0.7171664  -0.4674667), wk =   0.0063492
        k(  152) = (   0.4000000  -0.7171664  -0.4674667), wk =   0.0063492
        k(  153) = (  -0.4000000  -0.7171664   0.7012001), wk =   0.0063492
        k(  154) = (  -0.4000000   0.7171664  -0.7012001), wk =   0.0063492
        k(  155) = (   0.4000000  -0.7171664  -0.7012001), wk =   0.0063492
        k(  156) = (  -0.4000000  -0.7171664   0.9349334), wk =   0.0063492
        k(  157) = (  -0.4000000   0.7171664  -0.9349334), wk =   0.0063492
        k(  158) = (   0.4000000  -0.7171664  -0.9349334), wk =   0.0063492

                       cryst. coord.
        k(    1) = (   0.0000000   0.0000000   0.0000000), wk =   0.0031746
        k(    2) = (   0.0000000   0.0000000   0.1111111), wk =   0.0063492
        k(    3) = (   0.0000000   0.0000000   0.2222222), wk =   0.0063492
        k(    4) = (   0.0000000   0.0000000   0.3333333), wk =   0.0063492
        k(    5) = (   0.0000000   0.0000000   0.4444444), wk =   0.0063492
        k(    6) = (   0.0000000   0.1428571   0.0000000), wk =   0.0063492
        k(    7) = (   0.0000000   0.1428571   0.1111111), wk =   0.0063492
        k(    8) = (   0.0000000   0.1428571   0.2222222), wk =   0.0063492
        k(    9) = (   0.0000000   0.1428571   0.3333333), wk =   0.0063492
        k(   10) = (   0.0000000   0.1428571   0.4444444), wk =   0.0063492
        k(   11) = (   0.0000000   0.2857143   0.0000000), wk =   0.0063492
        k(   12) = (   0.0000000   0.2857143   0.1111111), wk =   0.0063492
        k(   13) = (   0.0000000   0.2857143   0.2222222), wk =   0.0063492
        k(   14) = (   0.0000000   0.2857143   0.3333333), wk =   0.0063492
        k(   15) = (   0.0000000   0.2857143   0.4444444), wk =   0.0063492
        k(   16) = (   0.0000000   0.4285714   0.0000000), wk =   0.0063492
        k(   17) = (   0.0000000   0.4285714   0.1111111), wk =   0.0063492
        k(   18) = (   0.0000000   0.4285714   0.2222222), wk =   0.0063492
        k(   19) = (   0.0000000   0.4285714   0.3333333), wk =   0.0063492
        k(   20) = (   0.0000000   0.4285714   0.4444444), wk =   0.0063492
        k(   21) = (   0.2000000   0.0000000   0.0000000), wk =   0.0063492
        k(   22) = (   0.2000000   0.0000000   0.1111111), wk =   0.0063492
        k(   23) = (   0.2000000   0.0000000   0.2222222), wk =   0.0063492
        k(   24) = (   0.2000000   0.0000000   0.3333333), wk =   0.0063492
        k(   25) = (   0.2000000   0.0000000   0.4444444), wk =   0.0063492
        k(   26) = (   0.2000000   0.1428571   0.0000000), wk =   0.0063492
        k(   27) = (   0.2000000   0.1428571   0.1111111), wk =   0.0063492
        k(   28) = (   0.2000000   0.1428571   0.2222222), wk =   0.0063492
        k(   29) = (   0.2000000   0.1428571   0.3333333), wk =   0.0063492
        k(   30) = (   0.2000000   0.1428571   0.4444444), wk =   0.0063492
        k(   31) = (   0.2000000   0.2857143   0.0000000), wk =   0.0063492
        k(   32) = (   0.2000000   0.2857143   0.1111111), wk =   0.0063492
        k(   33) = (   0.2000000   0.2857143   0.2222222), wk =   0.0063492
        k(   34) = (   0.2000000   0.2857143   0.3333333), wk =   0.0063492
        k(   35) = (   0.2000000   0.2857143   0.4444444), wk =   0.0063492
        k(   36) = (   0.2000000   0.4285714   0.0000000), wk =   0.0063492
        k(   37) = (   0.2000000   0.4285714   0.1111111), wk =   0.0063492
        k(   38) = (   0.2000000   0.4285714   0.2222222), wk =   0.0063492
        k(   39) = (   0.2000000   0.4285714   0.3333333), wk =   0.0063492
        k(   40) = (   0.2000000   0.4285714   0.4444444), wk =   0.0063492
        k(   41) = (   0.4000000   0.0000000   0.0000000), wk =   0.0063492
        k(   42) = (   0.4000000   0.0000000   0.1111111), wk =   0.0063492
        k(   43) = (   0.4000000   0.0000000   0.2222222), wk =   0.0063492
        k(   44) = (   0.4000000   0.0000000   0.3333333), wk =   0.0063492
        k(   45) = (   0.4000000   0.0000000   0.4444444), wk =   0.0063492
        k(   46) = (   0.4000000   0.1428571   0.0000000), wk =   0.0063492
        k(   47) = (   0.4000000   0.1428571   0.1111111), wk =   0.0063492
        k(   48) = (   0.4000000   0.1428571   0.2222222), wk =   0.0063492
        k(   49) = (   0.4000000   0.1428571   0.3333333), wk =   0.0063492
        k(   50) = (   0.4000000   0.1428571   0.4444444), wk =   0.0063492
        k(   51) = (   0.4000000   0.2857143   0.0000000), wk =   0.0063492
        k(   52) = (   0.4000000   0.2857143   0.1111111), wk =   0.0063492
        k(   53) = (   0.4000000   0.2857143   0.2222222), wk =   0.0063492
        k(   54) = (   0.4000000   0.2857143   0.3333333), wk =   0.0063492
        k(   55) = (   0.4000000   0.2857143   0.4444444), wk =   0.0063492
        k(   56) = (   0.4000000   0.4285714   0.0000000), wk =   0.0063492
        k(   57) = (   0.4000000   0.4285714   0.1111111), wk =   0.0063492
        k(   58) = (   0.4000000   0.4285714   0.2222222), wk =   0.0063492
        k(   59) = (   0.4000000   0.4285714   0.3333333), wk =   0.0063492
        k(   60) = (   0.4000000   0.4285714   0.4444444), wk =   0.0063492
        k(   61) = (   0.0000000  -0.1428571   0.1111111), wk =   0.0063492
        k(   62) = (   0.0000000  -0.1428571   0.2222222), wk =   0.0063492
        k(   63) = (   0.0000000  -0.1428571   0.3333333), wk =   0.0063492
        k(   64) = (   0.0000000  -0.1428571   0.4444444), wk =   0.0063492
        k(   65) = (   0.0000000  -0.2857143   0.1111111), wk =   0.0063492
        k(   66) = (   0.0000000  -0.2857143   0.2222222), wk =   0.0063492
        k(   67) = (   0.0000000  -0.2857143   0.3333333), wk =   0.0063492
        k(   68) = (   0.0000000  -0.2857143   0.4444444), wk =   0.0063492
        k(   69) = (   0.0000000  -0.4285714   0.1111111), wk =   0.0063492
        k(   70) = (   0.0000000  -0.4285714   0.2222222), wk =   0.0063492
        k(   71) = (   0.0000000  -0.4285714   0.3333333), wk =   0.0063492
        k(   72) = (   0.0000000  -0.4285714   0.4444444), wk =   0.0063492
        k(   73) = (  -0.2000000   0.0000000   0.1111111), wk =   0.0063492
        k(   74) = (  -0.2000000   0.0000000   0.2222222), wk =   0.0063492
        k(   75) = (  -0.2000000   0.0000000   0.3333333), wk =   0.0063492
        k(   76) = (  -0.2000000   0.0000000   0.4444444), wk =   0.0063492
        k(   77) = (  -0.2000000   0.1428571   0.0000000), wk =   0.0063492
        k(   78) = (  -0.2000000  -0.1428571   0.1111111), wk =   0.0063492
        k(   79) = (  -0.2000000   0.1428571  -0.1111111), wk =   0.0063492
        k(   80) = (   0.2000000  -0.1428571  -0.1111111), wk =   0.0063492
        k(   81) = (  -0.2000000  -0.1428571   0.2222222), wk =   0.0063492
        k(   82) = (  -0.2000000   0.1428571  -0.2222222), wk =   0.0063492
        k(   83) = (   0.2000000  -0.1428571  -0.2222222), wk =   0.0063492
        k(   84) = (  -0.2000000  -0.1428571   0.3333333), wk =   0.0063492
        k(   85) = (  -0.2000000   0.1428571  -0.3333333), wk =   0.0063492
        k(   86) = (   0.2000000  -0.1428571  -0.3333333), wk =   0.0063492
        k(   87) = (  -0.2000000  -0.1428571   0.4444444), wk =   0.0063492
        k(   88) = (  -0.2000000   0.1428571  -0.4444444), wk =   0.0063492
        k(   89) = (   0.2000000  -0.1428571  -0.4444444), wk =   0.0063492
        k(   90) = (  -0.2000000   0.2857143   0.0000000), wk =   0.0063492
        k(   91) = (  -0.2000000  -0.2857143   0.1111111), wk =   0.0063492
        k(   92) = (  -0.2000000   0.2857143  -0.1111111), wk =   0.0063492
        k(   93) = (   0.2000000  -0.2857143  -0.1111111), wk =   0.0063492
        k(   94) = (  -0.2000000  -0.2857143   0.2222222), wk =   0.0063492
        k(   95) = (  -0.2000000   0.2857143  -0.2222222), wk =   0.0063492
        k(   96) = (   0.2000000  -0.2857143  -0.2222222), wk =   0.0063492
        k(   97) = (  -0.2000000  -0.2857143   0.3333333), wk =   0.0063492
        k(   98) = (  -0.2000000   0.2857143  -0.3333333), wk =   0.0063492
        k(   99) = (   0.2000000  -0.2857143  -0.3333333), wk =   0.0063492
        k(  100) = (  -0.2000000  -0.2857143   0.4444444), wk =   0.0063492
        k(  101) = (  -0.2000000   0.2857143  -0.4444444), wk =   0.0063492
        k(  102) = (   0.2000000  -0.2857143  -0.4444444), wk =   0.0063492
        k(  103) = (  -0.2000000   0.4285714   0.0000000), wk =   0.0063492
        k(  104) = (  -0.2000000  -0.4285714   0.1111111), wk =   0.0063492
        k(  105) = (  -0.2000000   0.4285714  -0.1111111), wk =   0.0063492
        k(  106) = (   0.2000000  -0.4285714  -0.1111111), wk =   0.0063492
        k(  107) = (  -0.2000000  -0.4285714   0.2222222), wk =   0.0063492
        k(  108) = (  -0.2000000   0.4285714  -0.2222222), wk =   0.0063492
        k(  109) = (   0.2000000  -0.4285714  -0.2222222), wk =   0.0063492
        k(  110) = (  -0.2000000  -0.4285714   0.3333333), wk =   0.0063492
        k(  111) = (  -0.2000000   0.4285714  -0.3333333), wk =   0.0063492
        k(  112) = (   0.2000000  -0.4285714  -0.3333333), wk =   0.0063492
        k(  113) = (  -0.2000000  -0.4285714   0.4444444), wk =   0.0063492
        k(  114) = (  -0.2000000   0.4285714  -0.4444444), wk =   0.0063492
        k(  115) = (   0.2000000  -0.4285714  -0.4444444), wk =   0.0063492
        k(  116) = (  -0.4000000   0.0000000   0.1111111), wk =   0.0063492
        k(  117) = (  -0.4000000   0.0000000   0.2222222), wk =   0.0063492
        k(  118) = (  -0.4000000   0.0000000   0.3333333), wk =   0.0063492
        k(  119) = (  -0.4000000   0.0000000   0.4444444), wk =   0.0063492
        k(  120) = (  -0.4000000   0.1428571   0.0000000), wk =   0.0063492
        k(  121) = (  -0.4000000  -0.1428571   0.1111111), wk =   0.0063492
        k(  122) = (  -0.4000000   0.1428571  -0.1111111), wk =   0.0063492
        k(  123) = (   0.4000000  -0.1428571  -0.1111111), wk =   0.0063492
        k(  124) = (  -0.4000000  -0.1428571   0.2222222), wk =   0.0063492
        k(  125) = (  -0.4000000   0.1428571  -0.2222222), wk =   0.0063492
        k(  126) = (   0.4000000  -0.1428571  -0.2222222), wk =   0.0063492
        k(  127) = (  -0.4000000  -0.1428571   0.3333333), wk =   0.0063492
        k(  128) = (  -0.4000000   0.1428571  -0.3333333), wk =   0.0063492
        k(  129) = (   0.4000000  -0.1428571  -0.3333333), wk =   0.0063492
        k(  130) = (  -0.4000000  -0.1428571   0.4444444), wk =   0.0063492
        k(  131) = (  -0.4000000   0.1428571  -0.4444444), wk =   0.0063492
        k(  132) = (   0.4000000  -0.1428571  -0.4444444), wk =   0.0063492
        k(  133) = (  -0.4000000   0.2857143   0.0000000), wk =   0.0063492
        k(  134) = (  -0.4000000  -0.2857143   0.1111111), wk =   0.0063492
        k(  135) = (  -0.4000000   0.2857143  -0.1111111), wk =   0.0063492
        k(  136) = (   0.4000000  -0.2857143  -0.1111111), wk =   0.0063492
        k(  137) = (  -0.4000000  -0.2857143   0.2222222), wk =   0.0063492
        k(  138) = (  -0.4000000   0.2857143  -0.2222222), wk =   0.0063492
        k(  139) = (   0.4000000  -0.2857143  -0.2222222), wk =   0.0063492
        k(  140) = (  -0.4000000  -0.2857143   0.3333333), wk =   0.0063492
        k(  141) = (  -0.4000000   0.2857143  -0.3333333), wk =   0.0063492
        k(  142) = (   0.4000000  -0.2857143  -0.3333333), wk =   0.0063492
        k(  143) = (  -0.4000000  -0.2857143   0.4444444), wk =   0.0063492
        k(  144) = (  -0.4000000   0.2857143  -0.4444444), wk =   0.0063492
        k(  145) = (   0.4000000  -0.2857143  -0.4444444), wk =   0.0063492
        k(  146) = (  -0.4000000   0.4285714   0.0000000), wk =   0.0063492
        k(  147) = (  -0.4000000  -0.4285714   0.1111111), wk =   0.0063492
        k(  148) = (  -0.4000000   0.4285714  -0.1111111), wk =   0.0063492
        k(  149) = (   0.4000000  -0.4285714  -0.1111111), wk =   0.0063492
        k(  150) = (  -0.4000000  -0.4285714   0.2222222), wk =   0.0063492
        k(  151) = (  -0.4000000   0.4285714  -0.2222222), wk =   0.0063492
        k(  152) = (   0.4000000  -0.4285714  -0.2222222), wk =   0.0063492
        k(  153) = (  -0.4000000  -0.4285714   0.3333333), wk =   0.0063492
        k(  154) = (  -0.4000000   0.4285714  -0.3333333), wk =   0.0063492
        k(  155) = (   0.4000000  -0.4285714  -0.3333333), wk =   0.0063492
        k(  156) = (  -0.4000000  -0.4285714   0.4444444), wk =   0.0063492
        k(  157) = (  -0.4000000   0.4285714  -0.4444444), wk =   0.0063492
        k(  158) = (   0.4000000  -0.4285714  -0.4444444), wk =   0.0063492

     Dense  grid:  1428783 G-vectors     FFT dimensions: ( 216, 128, 108)

     Smooth grid:   322201 G-vectors     FFT dimensions: ( 135,  80,  64)

     Dynamical RAM for                 wfc:       1.46 MB

     Dynamical RAM for     wfc (w. buffer):     462.09 MB

     Dynamical RAM for           str. fact:       1.82 MB

     Dynamical RAM for           local pot:       0.00 MB

     Dynamical RAM for          nlocal pot:       3.58 MB

     Dynamical RAM for                qrad:      10.54 MB

     Dynamical RAM for          rho,v,vnew:       6.52 MB

     Dynamical RAM for               rhoin:       2.17 MB

     Dynamical RAM for            rho*nmix:      14.54 MB

     Dynamical RAM for           G-vectors:       1.75 MB

     Dynamical RAM for          h,s,v(r/c):       2.38 MB

     Dynamical RAM for          <psi|beta>:       0.49 MB

     Dynamical RAM for                 psi:       2.92 MB

     Dynamical RAM for                hpsi:       2.92 MB

     Dynamical RAM for                spsi:       2.92 MB

     Dynamical RAM for      wfcinit/wfcrot:       3.93 MB

     Dynamical RAM for           addusdens:      92.21 MB

     Dynamical RAM for          addusforce:     105.96 MB

     Dynamical RAM for         addusstress:      91.98 MB

     Estimated static dynamical RAM per process >     509.09 MB

     Estimated max dynamical RAM per process >     615.04 MB

     Estimated total dynamical RAM >      28.83 GB

     Check: negative core charge=   -0.000003
     Generating pointlists ...
     new r_m :   0.0759 (alat units)  1.5429 (a.u.) for type    1
     new r_m :   0.0888 (alat units)  1.8046 (a.u.) for type    2
     new r_m :   0.0610 (alat units)  1.2388 (a.u.) for type    3
     new r_m :   0.0610 (alat units)  1.2388 (a.u.) for type    4

     Initial potential from superposition of free atoms

     starting charge  188.99132, renormalised to  189.00000
     Starting wfcs are  137 randomized atomic wfcs
     Checking if some PAW data can be deallocated... 
       PAW data deallocated on   40 nodes for type:  1
       PAW data deallocated on   18 nodes for type:  3

     total cpu time spent up to now is     2484.0 secs

     Self-consistent Calculation

     iteration #  1     ecut=   100.00 Ry     beta= 0.40
     Davidson diagonalization with overlap
     ethr =  1.00E-02,  avg # of iterations =  2.8

     negative rho (up, down):  0.000E+00 1.409E-04

     total cpu time spent up to now is     9154.7 secs

     total energy              =   -2123.57207458 Ry
     estimated scf accuracy    <       7.31276309 Ry

     total magnetization       =    19.00 Bohr mag/cell
     absolute magnetization    =    19.00 Bohr mag/cell

     iteration #  2     ecut=   100.00 Ry     beta= 0.40
     Davidson diagonalization with overlap
     ethr =  3.87E-03,  avg # of iterations =  2.0

     negative rho (up, down):  0.000E+00 6.514E-05

     total cpu time spent up to now is    15671.6 secs

     total energy              =   -2119.95390047 Ry
     estimated scf accuracy    <      55.58567387 Ry

     total magnetization       =     5.96 Bohr mag/cell
     absolute magnetization    =     7.61 Bohr mag/cell

     iteration #  3     ecut=   100.00 Ry     beta= 0.40
     Davidson diagonalization with overlap
     ethr =  3.87E-03,  avg # of iterations =  2.9

     negative rho (up, down):  0.000E+00 5.312E-05

     total cpu time spent up to now is    21401.7 secs

     total energy              =   -2123.10810931 Ry
     estimated scf accuracy    <      53.66167126 Ry

     total magnetization       =     4.87 Bohr mag/cell
     absolute magnetization    =     9.01 Bohr mag/cell

     iteration #  4     ecut=   100.00 Ry     beta= 0.40
     Davidson diagonalization with overlap
     ethr =  3.87E-03,  avg # of iterations =  1.5

     negative rho (up, down):  0.000E+00 5.286E-05

     total cpu time spent up to now is    26627.6 secs

     total energy              =   -2124.45716673 Ry
     estimated scf accuracy    <      33.13511216 Ry

     total magnetization       =     9.00 Bohr mag/cell
     absolute magnetization    =     9.32 Bohr mag/cell

     iteration #  5     ecut=   100.00 Ry     beta= 0.40
     Davidson diagonalization with overlap
     ethr =  3.87E-03,  avg # of iterations =  1.8

     negative rho (up, down):  0.000E+00 1.356E-04

     total cpu time spent up to now is    31928.4 secs

     total energy              =   -2125.84074013 Ry
     estimated scf accuracy    <       2.77102960 Ry

     total magnetization       =    18.61 Bohr mag/cell
     absolute magnetization    =    18.61 Bohr mag/cell

     iteration #  6     ecut=   100.00 Ry     beta= 0.40
     Davidson diagonalization with overlap
     ethr =  1.47E-03,  avg # of iterations =  1.7

     negative rho (up, down):  0.000E+00 2.387E-04

     total cpu time spent up to now is    37193.6 secs

     total energy              =   -2125.96347975 Ry
     estimated scf accuracy    <       1.01931372 Ry

     total magnetization       =    19.00 Bohr mag/cell
     absolute magnetization    =    19.01 Bohr mag/cell

     iteration #  7     ecut=   100.00 Ry     beta= 0.40
     Davidson diagonalization with overlap
     ethr =  5.39E-04,  avg # of iterations =  1.1

     negative rho (up, down):  0.000E+00 3.567E-04

     total cpu time spent up to now is    42344.0 secs

     total energy              =   -2125.96916158 Ry
     estimated scf accuracy    <       0.35950426 Ry

     total magnetization       =    19.00 Bohr mag/cell
     absolute magnetization    =    19.00 Bohr mag/cell

     iteration #  8     ecut=   100.00 Ry     beta= 0.40
     Davidson diagonalization with overlap
     ethr =  1.90E-04,  avg # of iterations =  3.0

     negative rho (up, down):  0.000E+00 4.545E-04

     total cpu time spent up to now is    47806.4 secs

     total energy              =   -2125.96554526 Ry
     estimated scf accuracy    <       0.29028189 Ry

     total magnetization       =    19.00 Bohr mag/cell
     absolute magnetization    =    19.00 Bohr mag/cell

     iteration #  9     ecut=   100.00 Ry     beta= 0.40
     Davidson diagonalization with overlap
     c_bands:  1 eigenvalues not converged
     ethr =  1.54E-04,  avg # of iterations =  2.5

     negative rho (up, down):  0.000E+00 7.971E-04

     total cpu time spent up to now is    53159.5 secs

     total energy              =   -2125.96408476 Ry
     estimated scf accuracy    <       0.31172760 Ry

     total magnetization       =    19.00 Bohr mag/cell
     absolute magnetization    =    19.01 Bohr mag/cell

     iteration # 10     ecut=   100.00 Ry     beta= 0.40
     Davidson diagonalization with overlap
     ethr =  1.54E-04,  avg # of iterations =  1.6

     negative rho (up, down):  0.000E+00 8.034E-04

     total cpu time spent up to now is    58394.5 secs

     total energy              =   -2125.98688051 Ry
     estimated scf accuracy    <       0.54084122 Ry

     total magnetization       =    19.00 Bohr mag/cell
     absolute magnetization    =    19.02 Bohr mag/cell

     iteration # 11     ecut=   100.00 Ry     beta= 0.40
     Davidson diagonalization with overlap
     ethr =  1.54E-04,  avg # of iterations =  1.0

     negative rho (up, down):  0.000E+00 8.486E-04

     total cpu time spent up to now is    63528.7 secs

     total energy              =   -2125.98911772 Ry
     estimated scf accuracy    <       0.22909203 Ry

     total magnetization       =    19.00 Bohr mag/cell
     absolute magnetization    =    19.03 Bohr mag/cell

     iteration # 12     ecut=   100.00 Ry     beta= 0.40
     Davidson diagonalization with overlap
     ethr =  1.21E-04,  avg # of iterations =  1.1

     negative rho (up, down):  0.000E+00 8.012E-04

     total cpu time spent up to now is    68701.4 secs

     total energy              =   -2125.98463759 Ry
     estimated scf accuracy    <       0.22137354 Ry

     total magnetization       =    19.00 Bohr mag/cell
     absolute magnetization    =    19.03 Bohr mag/cell

     iteration # 13     ecut=   100.00 Ry     beta= 0.40
     Davidson diagonalization with overlap
     c_bands:  1 eigenvalues not converged
     ethr =  1.17E-04,  avg # of iterations =  1.8

     negative rho (up, down):  0.000E+00 8.437E-04

     total cpu time spent up to now is    73953.4 secs

     total energy              =   -2125.98680899 Ry
     estimated scf accuracy    <       0.01643913 Ry

     total magnetization       =    19.00 Bohr mag/cell
     absolute magnetization    =    19.04 Bohr mag/cell

     iteration # 14     ecut=   100.00 Ry     beta= 0.40
     Davidson diagonalization with overlap
     c_bands:  1 eigenvalues not converged
     c_bands:  1 eigenvalues not converged
     c_bands:  1 eigenvalues not converged
     c_bands:  1 eigenvalues not converged
     c_bands:  1 eigenvalues not converged
     c_bands:  2 eigenvalues not converged
     c_bands:  1 eigenvalues not converged
     c_bands:  1 eigenvalues not converged
     c_bands:  1 eigenvalues not converged
     c_bands:  1 eigenvalues not converged
     c_bands:  1 eigenvalues not converged
     c_bands:  1 eigenvalues not converged
     c_bands:  1 eigenvalues not converged
     c_bands:  1 eigenvalues not converged
     c_bands:  1 eigenvalues not converged
     c_bands:  1 eigenvalues not converged
     c_bands:  1 eigenvalues not converged
     c_bands:  1 eigenvalues not converged
     c_bands:  1 eigenvalues not converged
     c_bands:  1 eigenvalues not converged
     c_bands:  1 eigenvalues not converged
     c_bands:  1 eigenvalues not converged
     c_bands:  1 eigenvalues not converged
     c_bands:  1 eigenvalues not converged
     c_bands:  1 eigenvalues not converged
     c_bands:  1 eigenvalues not converged
     c_bands:  1 eigenvalues not converged
     c_bands:  1 eigenvalues not converged
     c_bands:  1 eigenvalues not converged
     c_bands:  1 eigenvalues not converged
     c_bands:  1 eigenvalues not converged
     c_bands:  1 eigenvalues not converged
     c_bands:  1 eigenvalues not converged
     ethr =  8.70E-06,  avg # of iterations = 17.0

     negative rho (up, down):  0.000E+00 8.715E-04

     total cpu time spent up to now is    76928.3 secs

     total energy              =   -2125.98851847 Ry
     estimated scf accuracy    <       0.01562200 Ry

     total magnetization       =    19.00 Bohr mag/cell
     absolute magnetization    =    19.05 Bohr mag/cell

     iteration # 15     ecut=   100.00 Ry     beta= 0.40
     Davidson diagonalization with overlap
     ethr =  8.27E-06,  avg # of iterations =  1.2

     negative rho (up, down):  0.000E+00 8.715E-04

     total cpu time spent up to now is    77285.2 secs

     total energy              =   -2125.98892602 Ry
     estimated scf accuracy    <       0.00792684 Ry

     total magnetization       =    19.00 Bohr mag/cell
     absolute magnetization    =    19.05 Bohr mag/cell

     iteration # 16     ecut=   100.00 Ry     beta= 0.40
     Davidson diagonalization with overlap
     c_bands:  1 eigenvalues not converged
     ethr =  4.19E-06,  avg # of iterations =  1.1

     negative rho (up, down):  0.000E+00 8.643E-04

     total cpu time spent up to now is    77640.6 secs

     total energy              =   -2125.98914607 Ry
     estimated scf accuracy    <       0.00125893 Ry

     total magnetization       =    19.00 Bohr mag/cell
     absolute magnetization    =    19.05 Bohr mag/cell

     iteration # 17     ecut=   100.00 Ry     beta= 0.40
     Davidson diagonalization with overlap
     c_bands:  1 eigenvalues not converged
     ethr =  6.66E-07,  avg # of iterations =  3.7

     negative rho (up, down):  0.000E+00 8.639E-04

     total cpu time spent up to now is    78104.3 secs

     total energy              =   -2125.98936626 Ry
     estimated scf accuracy    <       0.00019816 Ry

     total magnetization       =    19.00 Bohr mag/cell
     absolute magnetization    =    19.06 Bohr mag/cell

     iteration # 18     ecut=   100.00 Ry     beta= 0.40
     Davidson diagonalization with overlap
     ethr =  1.05E-07,  avg # of iterations =  3.6

     negative rho (up, down):  0.000E+00 8.597E-04

     total cpu time spent up to now is    78656.4 secs

     total energy              =   -2125.98942476 Ry
     estimated scf accuracy    <       0.00016266 Ry

     total magnetization       =    19.00 Bohr mag/cell
     absolute magnetization    =    19.06 Bohr mag/cell

     iteration # 19     ecut=   100.00 Ry     beta= 0.40
     Davidson diagonalization with overlap
     ethr =  8.61E-08,  avg # of iterations =  1.0

     negative rho (up, down):  0.000E+00 8.587E-04

     total cpu time spent up to now is    79013.6 secs

     total energy              =   -2125.98943455 Ry
     estimated scf accuracy    <       0.00003670 Ry

     total magnetization       =    19.00 Bohr mag/cell
     absolute magnetization    =    19.06 Bohr mag/cell

     iteration # 20     ecut=   100.00 Ry     beta= 0.40
     Davidson diagonalization with overlap
     ethr =  1.94E-08,  avg # of iterations =  2.0

     negative rho (up, down):  0.000E+00 8.578E-04

     total cpu time spent up to now is    79491.2 secs

     total energy              =   -2125.98943869 Ry
     estimated scf accuracy    <       0.00006716 Ry

     total magnetization       =    19.00 Bohr mag/cell
     absolute magnetization    =    19.06 Bohr mag/cell

     iteration # 21     ecut=   100.00 Ry     beta= 0.40
     Davidson diagonalization with overlap
     ethr =  1.94E-08,  avg # of iterations =  2.0

     negative rho (up, down):  0.000E+00 8.567E-04

     total cpu time spent up to now is    79889.4 secs

     total energy              =   -2125.98944299 Ry
     estimated scf accuracy    <       0.00000611 Ry

     total magnetization       =    19.00 Bohr mag/cell
     absolute magnetization    =    19.06 Bohr mag/cell

     iteration # 22     ecut=   100.00 Ry     beta= 0.40
     Davidson diagonalization with overlap
     ethr =  3.23E-09,  avg # of iterations =  2.5

     negative rho (up, down):  0.000E+00 8.574E-04

     total cpu time spent up to now is    83755.7 secs

     total energy              =   -2125.98944469 Ry
     estimated scf accuracy    <       0.00000889 Ry

     total magnetization       =    19.00 Bohr mag/cell
     absolute magnetization    =    19.06 Bohr mag/cell

     iteration # 23     ecut=   100.00 Ry     beta= 0.40
     Davidson diagonalization with overlap
     ethr =  3.23E-09,  avg # of iterations =  1.0

     negative rho (up, down):  0.000E+00 8.577E-04

     total cpu time spent up to now is    88834.8 secs

     total energy              =   -2125.98944484 Ry
     estimated scf accuracy    <       0.00000224 Ry

     total magnetization       =    19.00 Bohr mag/cell
     absolute magnetization    =    19.06 Bohr mag/cell

     iteration # 24     ecut=   100.00 Ry     beta= 0.40
     Davidson diagonalization with overlap
     ethr =  1.19E-09,  avg # of iterations =  2.7

     negative rho (up, down):  0.000E+00 8.582E-04

     total cpu time spent up to now is    94427.1 secs

     total energy              =   -2125.98944533 Ry
     estimated scf accuracy    <       0.00000037 Ry

     total magnetization       =    19.00 Bohr mag/cell
     absolute magnetization    =    19.06 Bohr mag/cell

     iteration # 25     ecut=   100.00 Ry     beta= 0.40
     Davidson diagonalization with overlap
     ethr =  1.96E-10,  avg # of iterations =  4.7

     negative rho (up, down):  0.000E+00 8.585E-04

     total cpu time spent up to now is   101715.8 secs

     total energy              =   -2125.98944549 Ry
     estimated scf accuracy    <       0.00000019 Ry

     total magnetization       =    19.00 Bohr mag/cell
     absolute magnetization    =    19.06 Bohr mag/cell

     iteration # 26     ecut=   100.00 Ry     beta= 0.40
     Davidson diagonalization with overlap
     ethr =  1.01E-10,  avg # of iterations =  1.5

     negative rho (up, down):  0.000E+00 8.587E-04

     total cpu time spent up to now is   106931.7 secs

     total energy              =   -2125.98944551 Ry
     estimated scf accuracy    <       0.00000003 Ry

     total magnetization       =    19.00 Bohr mag/cell
     absolute magnetization    =    19.06 Bohr mag/cell

     iteration # 27     ecut=   100.00 Ry     beta= 0.40
     Davidson diagonalization with overlap
     ethr =  1.41E-11,  avg # of iterations =  3.6

     negative rho (up, down):  0.000E+00 8.588E-04

     total cpu time spent up to now is   113803.0 secs

     total energy              =   -2125.98944553 Ry
     estimated scf accuracy    <       0.00000010 Ry

     total magnetization       =    19.00 Bohr mag/cell
     absolute magnetization    =    19.06 Bohr mag/cell

     iteration # 28     ecut=   100.00 Ry     beta= 0.40
     Davidson diagonalization with overlap
     ethr =  1.41E-11,  avg # of iterations =  1.2

     negative rho (up, down):  0.000E+00 8.588E-04

     total cpu time spent up to now is   118950.3 secs

     total energy              =   -2125.98944553 Ry
     estimated scf accuracy    <       0.00000008 Ry

     total magnetization       =    19.00 Bohr mag/cell
     absolute magnetization    =    19.06 Bohr mag/cell

     iteration # 29     ecut=   100.00 Ry     beta= 0.40
     Davidson diagonalization with overlap
     ethr =  1.41E-11,  avg # of iterations =  1.0

     negative rho (up, down):  0.000E+00 8.588E-04

     total cpu time spent up to now is   124067.2 secs

     total energy              =   -2125.98944554 Ry
     estimated scf accuracy    <       0.00000003 Ry

     total magnetization       =    19.00 Bohr mag/cell
     absolute magnetization    =    19.06 Bohr mag/cell

     iteration # 30     ecut=   100.00 Ry     beta= 0.40
     Davidson diagonalization with overlap
     ethr =  1.41E-11,  avg # of iterations =  1.0

     negative rho (up, down):  0.000E+00 8.588E-04

     total cpu time spent up to now is   129180.9 secs

     total energy              =   -2125.98944554 Ry
     estimated scf accuracy    <       0.00000002 Ry

     total magnetization       =    19.00 Bohr mag/cell
     absolute magnetization    =    19.06 Bohr mag/cell

     iteration # 31     ecut=   100.00 Ry     beta= 0.40
     Davidson diagonalization with overlap
     ethr =  9.61E-12,  avg # of iterations =  1.0

     negative rho (up, down):  0.000E+00 8.588E-04

     total cpu time spent up to now is   134273.6 secs

     total energy              =   -2125.98944554 Ry
     estimated scf accuracy    <       0.00000001 Ry

     total magnetization       =    19.00 Bohr mag/cell
     absolute magnetization    =    19.06 Bohr mag/cell

     iteration # 32     ecut=   100.00 Ry     beta= 0.40
     Davidson diagonalization with overlap
     ethr =  6.09E-12,  avg # of iterations =  1.0

     negative rho (up, down):  0.000E+00 8.588E-04

     total cpu time spent up to now is   139365.0 secs

     total energy              =   -2125.98944554 Ry
     estimated scf accuracy    <          9.2E-10 Ry

     total magnetization       =    19.00 Bohr mag/cell
     absolute magnetization    =    19.06 Bohr mag/cell

     iteration # 33     ecut=   100.00 Ry     beta= 0.40
     Davidson diagonalization with overlap
     ethr =  4.85E-13,  avg # of iterations =  4.1

     negative rho (up, down):  0.000E+00 8.587E-04

     total cpu time spent up to now is   146089.7 secs

     total energy              =   -2125.98944554 Ry
     estimated scf accuracy    <          1.4E-09 Ry

     total magnetization       =    19.00 Bohr mag/cell
     absolute magnetization    =    19.06 Bohr mag/cell

     iteration # 34     ecut=   100.00 Ry     beta= 0.40
     Davidson diagonalization with overlap
     ethr =  4.85E-13,  avg # of iterations =  2.0

     negative rho (up, down):  0.000E+00 8.588E-04

     Magnetic moment per site:
     atom:    1    charge:    7.9255    magn:    0.0003    constr:    0.0000
     atom:    2    charge:   12.9738    magn:    3.7092    constr:    0.0000
     atom:    3    charge:   12.9807    magn:    3.6934    constr:    0.0000
     atom:    4    charge:   13.0242    magn:    3.5876    constr:    0.0000
     atom:    5    charge:   12.9810    magn:    3.6961    constr:    0.0000
     atom:    6    charge:    0.9061    magn:    0.0093    constr:    0.0000
     atom:    7    charge:    0.9103    magn:    0.0076    constr:    0.0000
     atom:    8    charge:    0.9092    magn:    0.0105    constr:    0.0000
     atom:    9    charge:    0.9040    magn:    0.0081    constr:    0.0000
     atom:   10    charge:    4.3861    magn:    0.1460    constr:    0.0000
     atom:   11    charge:    4.4031    magn:    0.0922    constr:    0.0000
     atom:   12    charge:    4.3902    magn:    0.1296    constr:    0.0000
     atom:   13    charge:    4.3865    magn:    0.1177    constr:    0.0000
     atom:   14    charge:    4.3806    magn:    0.1235    constr:    0.0000
     atom:   15    charge:    4.3867    magn:    0.1345    constr:    0.0000
     atom:   16    charge:    4.3859    magn:    0.0775    constr:    0.0000
     atom:   17    charge:    4.3801    magn:    0.1486    constr:    0.0000
     atom:   18    charge:    4.3588    magn:    0.1554    constr:    0.0000
     atom:   19    charge:    4.3629    magn:    0.1351    constr:    0.0000
     atom:   20    charge:    4.3656    magn:    0.1456    constr:    0.0000
     atom:   21    charge:    4.3596    magn:    0.1258    constr:    0.0000
     atom:   22    charge:    4.3656    magn:    0.1456    constr:    0.0000
     atom:   23    charge:    4.3596    magn:    0.1258    constr:    0.0000
     atom:   24    charge:    4.3588    magn:    0.1554    constr:    0.0000
     atom:   25    charge:    4.3629    magn:    0.1350    constr:    0.0000

     total cpu time spent up to now is   151404.5 secs

     End of self-consistent calculation

 ------ SPIN UP ------------


          k = 0.0000 0.0000 0.0000 ( 40357 PWs)   bands (ev):

   -86.5407 -86.4969 -86.4928 -86.0831 -52.6365 -52.5908 -52.5863 -52.4864
   -52.4833 -52.4600 -52.4187 -52.4033 -52.3924 -52.3881 -52.0239 -51.8118
   -46.2616 -18.2485 -18.1970 -18.1824 -16.5710 -16.4391 -16.2488 -16.1834
   -14.4820 -14.3940 -14.3209 -14.2294 -14.1867 -14.1732 -14.1495 -14.0833
   -14.0711 -14.0293 -13.9768 -13.8882  -5.0019  -4.5734  -4.5302  -4.1933
    -2.8902  -2.6064  -2.5557  -2.3511  -2.1263  -2.1253  -1.9674  -1.9188
    -1.8064  -1.7024  -1.4206  -1.1979  -1.0666  -1.0665  -0.6548  -0.6343
    -0.5283  -0.4693  -0.3346  -0.1519  -0.1505  -0.0444  -0.0320  -0.0207
     0.0577   0.2299   0.2308   0.5036   0.6669   0.7204   0.8483   0.9081
     0.9380   1.0002   1.0994   1.1940   1.2434   1.3309   1.4166   1.4378
     1.5651   1.6353   1.6924   1.7468   1.7877   1.9667   1.9947   2.1090
     2.2348   2.2559   2.3604   2.3693   2.3750   2.5961   2.7115   2.7688
     2.7897   2.9419   2.9679   3.0537   3.1029   3.1594   3.4720   3.5685
     7.2371   9.1729   9.7597  10.0901  10.3961  11.0372  11.2554  11.4748
    11.6676  11.9324

     occupation numbers 
     1.0000   1.0000   1.0000   1.0000   1.0000   1.0000   1.0000   1.0000
     1.0000   1.0000   1.0000   1.0000   1.0000   1.0000   1.0000   1.0000
     1.0000   1.0000   1.0000   1.0000   1.0000   1.0000   1.0000   1.0000
     1.0000   1.0000   1.0000   1.0000   1.0000   1.0000   1.0000   1.0000
     1.0000   1.0000   1.0000   1.0000   1.0000   1.0000   1.0000   1.0000
     1.0000   1.0000   1.0000   1.0000   1.0000   1.0000   1.0000   1.0000
     1.0000   1.0000   1.0000   1.0000   1.0000   1.0000   1.0000   1.0000
     1.0000   1.0000   1.0000   1.0000   1.0000   1.0000   1.0000   1.0000
     1.0000   1.0000   1.0000   1.0000   1.0000   1.0000   1.0000   1.0000
     1.0000   1.0000   1.0000   1.0000   1.0000   1.0000   1.0000   1.0000
     1.0000   1.0000   1.0000   1.0000   1.0000   1.0000   1.0000   1.0000
     1.0000   1.0000   1.0000   1.0000   1.0000   1.0000   1.0000   1.0000
     1.0000   1.0000   1.0000   1.0000   1.0000   1.0000   1.0000   1.0000
     0.0000   0.0000   0.0000   0.0000   0.0000   0.0000   0.0000   0.0000
     0.0000   0.0000

          k = 0.0000 0.0000 0.2337 ( 40255 PWs)   bands (ev):

   -86.5407 -86.4969 -86.4928 -86.0831 -52.6365 -52.5908 -52.5863 -52.4864
   -52.4833 -52.4600 -52.4187 -52.4033 -52.3924 -52.3881 -52.0239 -51.8118
   -46.2616 -18.2485 -18.1993 -18.1824 -16.5603 -16.4318 -16.2437 -16.1802
   -14.4884 -14.4019 -14.3293 -14.2343 -14.1906 -14.1700 -14.1524 -14.0868
   -14.0677 -14.0332 -13.9797 -13.8914  -4.9819  -4.5726  -4.5246  -4.2012
    -2.8542  -2.5880  -2.5480  -2.3422  -2.1315  -2.1201  -1.9896  -1.8588
    -1.7999  -1.6733  -1.4591  -1.1724  -1.1094  -1.0464  -0.6475  -0.6051
    -0.5267  -0.4318  -0.3275  -0.1613  -0.1571  -0.0603  -0.0581   0.0107
     0.0530   0.2244   0.2325   0.4971   0.6367   0.6436   0.8134   0.8674
     0.8916   1.0345   1.0827   1.1740   1.2288   1.2756   1.4620   1.5271
     1.5586   1.6221   1.7079   1.7218   1.8206   1.9330   2.0153   2.0704
     2.1938   2.2591   2.3141   2.3727   2.3933   2.6321   2.7158   2.7822
     2.7919   2.9576   2.9779   3.0471   3.1005   3.1745   3.4508   3.5506
     7.3801   9.2519   9.7834  10.1037  10.4339  10.9692  11.2075  11.5128
    11.5964  11.9165

     occupation numbers 
     1.0000   1.0000   1.0000   1.0000   1.0000   1.0000   1.0000   1.0000
     1.0000   1.0000   1.0000   1.0000   1.0000   1.0000   1.0000   1.0000
     1.0000   1.0000   1.0000   1.0000   1.0000   1.0000   1.0000   1.0000
     1.0000   1.0000   1.0000   1.0000   1.0000   1.0000   1.0000   1.0000
     1.0000   1.0000   1.0000   1.0000   1.0000   1.0000   1.0000   1.0000
     1.0000   1.0000   1.0000   1.0000   1.0000   1.0000   1.0000   1.0000
     1.0000   1.0000   1.0000   1.0000   1.0000   1.0000   1.0000   1.0000
     1.0000   1.0000   1.0000   1.0000   1.0000   1.0000   1.0000   1.0000
     1.0000   1.0000   1.0000   1.0000   1.0000   1.0000   1.0000   1.0000
     1.0000   1.0000   1.0000   1.0000   1.0000   1.0000   1.0000   1.0000
     1.0000   1.0000   1.0000   1.0000   1.0000   1.0000   1.0000   1.0000
     1.0000   1.0000   1.0000   1.0000   1.0000   1.0000   1.0000   1.0000
     1.0000   1.0000   1.0000   1.0000   1.0000   1.0000   1.0000   1.0000
     0.0000   0.0000   0.0000   0.0000   0.0000   0.0000   0.0000   0.0000
     0.0000   0.0000

          k = 0.0000 0.0000 0.4675 ( 40285 PWs)   bands (ev):

   -86.5407 -86.4969 -86.4928 -86.0831 -52.6365 -52.5908 -52.5863 -52.4864
   -52.4833 -52.4600 -52.4187 -52.4033 -52.3924 -52.3881 -52.0239 -51.8118
   -46.2616 -18.2485 -18.2048 -18.1823 -16.5317 -16.4137 -16.2299 -16.1730
   -14.5061 -14.4240 -14.3485 -14.2471 -14.2046 -14.1614 -14.1594 -14.0921
   -14.0583 -14.0421 -13.9873 -13.9001  -4.9250  -4.5739  -4.5099  -4.2300
    -2.7563  -2.5551  -2.5119  -2.3336  -2.1404  -2.0979  -1.9936  -1.7792
    -1.7445  -1.5983  -1.5576  -1.2188  -1.0950  -0.9827  -0.6059  -0.5517
    -0.5029  -0.3458  -0.3102  -0.1928  -0.1681  -0.1027  -0.0886   0.0373
     0.0516   0.2053   0.2491   0.4717   0.4752   0.5908   0.6968   0.7722
     0.8381   0.8776   1.1154   1.1380   1.1941   1.3145   1.4516   1.5379
     1.5742   1.6691   1.6894   1.7636   1.7689   1.8553   1.9586   2.0959
     2.1282   2.2786   2.2935   2.4137   2.4633   2.6440   2.7292   2.7968
     2.8439   2.9925   2.9989   3.0512   3.0911   3.2054   3.3859   3.4959
     7.7602   9.4626   9.8171  10.1457  10.5525  10.8436  11.0744  11.4535
    11.4822  11.6797

     occupation numbers 
     1.0000   1.0000   1.0000   1.0000   1.0000   1.0000   1.0000   1.0000
     1.0000   1.0000   1.0000   1.0000   1.0000   1.0000   1.0000   1.0000
     1.0000   1.0000   1.0000   1.0000   1.0000   1.0000   1.0000   1.0000
     1.0000   1.0000   1.0000   1.0000   1.0000   1.0000   1.0000   1.0000
     1.0000   1.0000   1.0000   1.0000   1.0000   1.0000   1.0000   1.0000
     1.0000   1.0000   1.0000   1.0000   1.0000   1.0000   1.0000   1.0000
     1.0000   1.0000   1.0000   1.0000   1.0000   1.0000   1.0000   1.0000
     1.0000   1.0000   1.0000   1.0000   1.0000   1.0000   1.0000   1.0000
     1.0000   1.0000   1.0000   1.0000   1.0000   1.0000   1.0000   1.0000
     1.0000   1.0000   1.0000   1.0000   1.0000   1.0000   1.0000   1.0000
     1.0000   1.0000   1.0000   1.0000   1.0000   1.0000   1.0000   1.0000
     1.0000   1.0000   1.0000   1.0000   1.0000   1.0000   1.0000   1.0000
     1.0000   1.0000   1.0000   1.0000   1.0000   1.0000   1.0000   1.0000
     0.0000   0.0000   0.0000   0.0000   0.0000   0.0000   0.0000   0.0000
     0.0000   0.0000

          k = 0.0000 0.0000 0.7012 ( 40253 PWs)   bands (ev):

   -86.5407 -86.4969 -86.4928 -86.0831 -52.6365 -52.5908 -52.5863 -52.4864
   -52.4833 -52.4600 -52.4187 -52.4033 -52.3924 -52.3881 -52.0239 -51.8118
   -46.2616 -18.2489 -18.2107 -18.1823 -16.4962 -16.3942 -16.2116 -16.1677
   -14.5284 -14.4526 -14.3673 -14.2636 -14.2270 -14.1636 -14.1506 -14.0939
   -14.0506 -14.0464 -13.9969 -13.9116  -4.8414  -4.5892  -4.4884  -4.2815
    -2.6376  -2.5292  -2.4510  -2.3396  -2.1395  -2.0525  -1.9825  -1.7654
    -1.6538  -1.6213  -1.5028  -1.3598  -0.9629  -0.8607  -0.5354  -0.4870
    -0.4595  -0.3291  -0.2512  -0.2405  -0.1797  -0.1679  -0.0955   0.0331
     0.0726   0.1747   0.2888   0.3289   0.4174   0.4741   0.5123   0.5706
     0.7581   0.8776   1.0925   1.1022   1.1597   1.3730   1.4605   1.4893
     1.5623   1.6088   1.6223   1.7097   1.7702   1.8322   1.8644   2.0365
     2.1951   2.2981   2.3394   2.5694   2.6139   2.6179   2.7523   2.8012
     2.8828   3.0227   3.0456   3.0781   3.0818   3.2315   3.2748   3.4040
     8.2758   9.6444   9.8379  10.2392  10.6391  10.7731  10.9101  11.3497
    11.3597  11.5536

     occupation numbers 
     1.0000   1.0000   1.0000   1.0000   1.0000   1.0000   1.0000   1.0000
     1.0000   1.0000   1.0000   1.0000   1.0000   1.0000   1.0000   1.0000
     1.0000   1.0000   1.0000   1.0000   1.0000   1.0000   1.0000   1.0000
     1.0000   1.0000   1.0000   1.0000   1.0000   1.0000   1.0000   1.0000
     1.0000   1.0000   1.0000   1.0000   1.0000   1.0000   1.0000   1.0000
     1.0000   1.0000   1.0000   1.0000   1.0000   1.0000   1.0000   1.0000
     1.0000   1.0000   1.0000   1.0000   1.0000   1.0000   1.0000   1.0000
     1.0000   1.0000   1.0000   1.0000   1.0000   1.0000   1.0000   1.0000
     1.0000   1.0000   1.0000   1.0000   1.0000   1.0000   1.0000   1.0000
     1.0000   1.0000   1.0000   1.0000   1.0000   1.0000   1.0000   1.0000
     1.0000   1.0000   1.0000   1.0000   1.0000   1.0000   1.0000   1.0000
     1.0000   1.0000   1.0000   1.0000   1.0000   1.0000   1.0000   1.0000
     1.0000   1.0000   1.0000   1.0000   1.0000   1.0000   1.0000   1.0000
     0.0000   0.0000   0.0000   0.0000   0.0000   0.0000   0.0000   0.0000
     0.0000   0.0000

          k = 0.0000 0.0000 0.9349 ( 40286 PWs)   bands (ev):

   -86.5407 -86.4969 -86.4928 -86.0831 -52.6365 -52.5908 -52.5863 -52.4864
   -52.4833 -52.4600 -52.4187 -52.4033 -52.3924 -52.3881 -52.0239 -51.8118
   -46.2616 -18.2492 -18.2144 -18.1822 -16.4705 -16.3830 -16.1953 -16.1686
   -14.5441 -14.4725 -14.3786 -14.2768 -14.2426 -14.1643 -14.1427 -14.0938
   -14.0555 -14.0377 -14.0036 -13.9203  -4.7559  -4.6277  -4.4630  -4.3333
    -2.5615  -2.5148  -2.4045  -2.3434  -2.1253  -1.9855  -1.9831  -1.8487
    -1.6121  -1.5403  -1.4995  -1.4358  -0.8006  -0.6723  -0.4791  -0.4535
    -0.4151  -0.4145  -0.3279  -0.2685  -0.2307  -0.0914  -0.0613  -0.0016
     0.1164   0.1555   0.2220   0.2429   0.2983   0.3398   0.4147   0.4889
     0.7676   0.9290   1.0469   1.0859   1.1785   1.3128   1.3685   1.4591
     1.5630   1.5697   1.6363   1.6655   1.7342   1.8129   1.8517   2.0135
     2.2181   2.3043   2.3902   2.5878   2.7102   2.7466   2.8138   2.8602
     2.8873   3.0179   3.0431   3.0938   3.1234   3.1619   3.2413   3.2931
     8.8197   9.3643  10.1117  10.3508  10.5101  10.6246  11.0300  11.3227
    11.3318  11.4888

     occupation numbers 
     1.0000   1.0000   1.0000   1.0000   1.0000   1.0000   1.0000   1.0000
     1.0000   1.0000   1.0000   1.0000   1.0000   1.0000   1.0000   1.0000
     1.0000   1.0000   1.0000   1.0000   1.0000   1.0000   1.0000   1.0000
     1.0000   1.0000   1.0000   1.0000   1.0000   1.0000   1.0000   1.0000
     1.0000   1.0000   1.0000   1.0000   1.0000   1.0000   1.0000   1.0000
     1.0000   1.0000   1.0000   1.0000   1.0000   1.0000   1.0000   1.0000
     1.0000   1.0000   1.0000   1.0000   1.0000   1.0000   1.0000   1.0000
     1.0000   1.0000   1.0000   1.0000   1.0000   1.0000   1.0000   1.0000
     1.0000   1.0000   1.0000   1.0000   1.0000   1.0000   1.0000   1.0000
     1.0000   1.0000   1.0000   1.0000   1.0000   1.0000   1.0000   1.0000
     1.0000   1.0000   1.0000   1.0000   1.0000   1.0000   1.0000   1.0000
     1.0000   1.0000   1.0000   1.0000   1.0000   1.0000   1.0000   1.0000
     1.0000   1.0000   1.0000   1.0000   1.0000   1.0000   1.0000   1.0000
     0.0000   0.0000   0.0000   0.0000   0.0000   0.0000   0.0000   0.0000
     0.0000   0.0000

          k = 0.0000 0.2391 0.0000 ( 40305 PWs)   bands (ev):

   -86.5407 -86.4969 -86.4928 -86.0831 -52.6365 -52.5908 -52.5863 -52.4864
   -52.4833 -52.4600 -52.4187 -52.4033 -52.3924 -52.3881 -52.0239 -51.8118
   -46.2616 -18.2484 -18.1970 -18.1826 -16.5597 -16.4362 -16.2481 -16.1955
   -14.4817 -14.3914 -14.3213 -14.2391 -14.2016 -14.1924 -14.1372 -14.1002
   -14.0400 -14.0214 -13.9746 -13.8905  -4.9798  -4.5873  -4.5152  -4.2008
    -2.8690  -2.6110  -2.5474  -2.3540  -2.1421  -2.0916  -1.9498  -1.9111
    -1.7599  -1.7043  -1.4109  -1.1778  -1.1212  -1.0219  -0.6212  -0.5980
    -0.5096  -0.4846  -0.4142  -0.2759  -0.1701  -0.0767   0.0050   0.0505
     0.1463   0.2203   0.2346   0.4636   0.5632   0.6555   0.6985   0.8616
     0.9419   1.0945   1.1263   1.1528   1.2753   1.3339   1.3545   1.4556
     1.5907   1.6467   1.6793   1.7416   1.8364   2.0055   2.0270   2.1023
     2.2095   2.2544   2.2858   2.3780   2.4606   2.5973   2.6965   2.7282
     2.7997   2.9354   2.9517   3.0196   3.1095   3.2040   3.4766   3.5492
     7.3897   9.2602   9.8163   9.9883  10.4520  11.0005  11.3483  11.5429
    11.5990  11.9100

     occupation numbers 
     1.0000   1.0000   1.0000   1.0000   1.0000   1.0000   1.0000   1.0000
     1.0000   1.0000   1.0000   1.0000   1.0000   1.0000   1.0000   1.0000
     1.0000   1.0000   1.0000   1.0000   1.0000   1.0000   1.0000   1.0000
     1.0000   1.0000   1.0000   1.0000   1.0000   1.0000   1.0000   1.0000
     1.0000   1.0000   1.0000   1.0000   1.0000   1.0000   1.0000   1.0000
     1.0000   1.0000   1.0000   1.0000   1.0000   1.0000   1.0000   1.0000
     1.0000   1.0000   1.0000   1.0000   1.0000   1.0000   1.0000   1.0000
     1.0000   1.0000   1.0000   1.0000   1.0000   1.0000   1.0000   1.0000
     1.0000   1.0000   1.0000   1.0000   1.0000   1.0000   1.0000   1.0000
     1.0000   1.0000   1.0000   1.0000   1.0000   1.0000   1.0000   1.0000
     1.0000   1.0000   1.0000   1.0000   1.0000   1.0000   1.0000   1.0000
     1.0000   1.0000   1.0000   1.0000   1.0000   1.0000   1.0000   1.0000
     1.0000   1.0000   1.0000   1.0000   1.0000   1.0000   1.0000   1.0000
     0.0000   0.0000   0.0000   0.0000   0.0000   0.0000   0.0000   0.0000
     0.0000   0.0000

          k = 0.0000 0.2391 0.2337 ( 40274 PWs)   bands (ev):

   -86.5407 -86.4969 -86.4928 -86.0831 -52.6365 -52.5908 -52.5863 -52.4864
   -52.4833 -52.4600 -52.4187 -52.4033 -52.3924 -52.3881 -52.0239 -51.8118
   -46.2616 -18.2484 -18.1992 -18.1826 -16.5493 -16.4289 -16.2430 -16.1916
   -14.4882 -14.3994 -14.3305 -14.2442 -14.2028 -14.1918 -14.1414 -14.1012
   -14.0415 -14.0224 -13.9767 -13.8931  -4.9604  -4.5843  -4.5109  -4.2082
    -2.8341  -2.5916  -2.5389  -2.3448  -2.1414  -2.0930  -1.9627  -1.8606
    -1.7516  -1.6776  -1.4483  -1.1850  -1.1226  -1.0125  -0.6086  -0.5862
    -0.5182  -0.4387  -0.4105  -0.2771  -0.1727  -0.0629  -0.0114   0.0412
     0.1332   0.2173   0.2355   0.4567   0.5253   0.5999   0.6753   0.8283
     0.9864   1.0487   1.1228   1.1759   1.2581   1.2819   1.3777   1.4895
     1.5603   1.6527   1.6873   1.7352   1.8451   1.9430   2.0367   2.0879
     2.1785   2.2320   2.3024   2.3731   2.4452   2.6276   2.7056   2.7518
     2.8038   2.9391   2.9591   3.0373   3.1060   3.2095   3.4636   3.5358
     7.5265   9.3390   9.8382  10.0237  10.4817  10.9500  11.2872  11.5222
    11.5954  11.8640

     occupation numbers 
     1.0000   1.0000   1.0000   1.0000   1.0000   1.0000   1.0000   1.0000
     1.0000   1.0000   1.0000   1.0000   1.0000   1.0000   1.0000   1.0000
     1.0000   1.0000   1.0000   1.0000   1.0000   1.0000   1.0000   1.0000
     1.0000   1.0000   1.0000   1.0000   1.0000   1.0000   1.0000   1.0000
     1.0000   1.0000   1.0000   1.0000   1.0000   1.0000   1.0000   1.0000
     1.0000   1.0000   1.0000   1.0000   1.0000   1.0000   1.0000   1.0000
     1.0000   1.0000   1.0000   1.0000   1.0000   1.0000   1.0000   1.0000
     1.0000   1.0000   1.0000   1.0000   1.0000   1.0000   1.0000   1.0000
     1.0000   1.0000   1.0000   1.0000   1.0000   1.0000   1.0000   1.0000
     1.0000   1.0000   1.0000   1.0000   1.0000   1.0000   1.0000   1.0000
     1.0000   1.0000   1.0000   1.0000   1.0000   1.0000   1.0000   1.0000
     1.0000   1.0000   1.0000   1.0000   1.0000   1.0000   1.0000   1.0000
     1.0000   1.0000   1.0000   1.0000   1.0000   1.0000   1.0000   1.0000
     0.0000   0.0000   0.0000   0.0000   0.0000   0.0000   0.0000   0.0000
     0.0000   0.0000

          k = 0.0000 0.2391 0.4675 ( 40259 PWs)   bands (ev):

   -86.5407 -86.4969 -86.4928 -86.0831 -52.6365 -52.5908 -52.5863 -52.4864
   -52.4833 -52.4600 -52.4187 -52.4033 -52.3924 -52.3881 -52.0239 -51.8118
   -46.2616 -18.2484 -18.2047 -18.1825 -16.5221 -16.4105 -16.2293 -16.1825
   -14.5062 -14.4221 -14.3508 -14.2564 -14.2140 -14.1890 -14.1503 -14.0994
   -14.0468 -14.0217 -13.9825 -13.9002  -4.9053  -4.5813  -4.4981  -4.2352
    -2.7393  -2.5514  -2.5066  -2.3333  -2.1412  -2.0792  -1.9614  -1.7642
    -1.7283  -1.6008  -1.5427  -1.2586  -1.0721  -0.9724  -0.5691  -0.5599
    -0.4962  -0.4290  -0.3368  -0.2734  -0.1611  -0.0714  -0.0320   0.0204
     0.1036   0.2212   0.2335   0.3952   0.4458   0.5354   0.6254   0.8147
     0.8324   0.9824   1.0759   1.1878   1.2049   1.2949   1.4163   1.4797
     1.5714   1.6682   1.6750   1.7204   1.7884   1.8644   1.9656   2.0578
     2.1345   2.2208   2.3550   2.4046   2.4844   2.6358   2.7313   2.7943
     2.8334   2.9357   2.9970   3.0828   3.0966   3.2225   3.4245   3.4939
     7.8930   9.5502   9.8817  10.1023  10.5891  10.8490  11.1415  11.3967
    11.5549  11.6996

     occupation numbers 
     1.0000   1.0000   1.0000   1.0000   1.0000   1.0000   1.0000   1.0000
     1.0000   1.0000   1.0000   1.0000   1.0000   1.0000   1.0000   1.0000
     1.0000   1.0000   1.0000   1.0000   1.0000   1.0000   1.0000   1.0000
     1.0000   1.0000   1.0000   1.0000   1.0000   1.0000   1.0000   1.0000
     1.0000   1.0000   1.0000   1.0000   1.0000   1.0000   1.0000   1.0000
     1.0000   1.0000   1.0000   1.0000   1.0000   1.0000   1.0000   1.0000
     1.0000   1.0000   1.0000   1.0000   1.0000   1.0000   1.0000   1.0000
     1.0000   1.0000   1.0000   1.0000   1.0000   1.0000   1.0000   1.0000
     1.0000   1.0000   1.0000   1.0000   1.0000   1.0000   1.0000   1.0000
     1.0000   1.0000   1.0000   1.0000   1.0000   1.0000   1.0000   1.0000
     1.0000   1.0000   1.0000   1.0000   1.0000   1.0000   1.0000   1.0000
     1.0000   1.0000   1.0000   1.0000   1.0000   1.0000   1.0000   1.0000
     1.0000   1.0000   1.0000   1.0000   1.0000   1.0000   1.0000   1.0000
     0.0000   0.0000   0.0000   0.0000   0.0000   0.0000   0.0000   0.0000
     0.0000   0.0000

          k = 0.0000 0.2391 0.7012 ( 40257 PWs)   bands (ev):

   -86.5407 -86.4969 -86.4928 -86.0831 -52.6365 -52.5908 -52.5863 -52.4864
   -52.4833 -52.4600 -52.4187 -52.4033 -52.3924 -52.3881 -52.0239 -51.8118
   -46.2616 -18.2487 -18.2107 -18.1825 -16.4889 -16.3899 -16.2120 -16.1742
   -14.5290 -14.4519 -14.3704 -14.2701 -14.2385 -14.1849 -14.1521 -14.0943
   -14.0537 -14.0180 -13.9892 -13.9096  -4.8252  -4.5907  -4.4789  -4.2831
    -2.6234  -2.5214  -2.4483  -2.3348  -2.1349  -2.0405  -1.9467  -1.7427
    -1.6482  -1.6186  -1.5001  -1.3739  -0.9713  -0.8838  -0.5562  -0.4955
    -0.4739  -0.4317  -0.2914  -0.1810  -0.1389  -0.1144  -0.0744   0.0229
     0.0802   0.2049   0.2536   0.2838   0.4025   0.4660   0.5301   0.5822
     0.7699   0.9009   1.0036   1.1717   1.2054   1.3410   1.3715   1.4933
     1.5300   1.5853   1.6748   1.7123   1.7386   1.8077   1.8827   2.0177
     2.1523   2.2188   2.3846   2.5115   2.6116   2.6398   2.7601   2.7975
     2.8535   2.9756   3.0517   3.0827   3.1318   3.2327   3.3620   3.4238
     8.3952   9.7468   9.9064  10.2266  10.6747  10.8299  10.9409  11.2919
    11.4161  11.5444

     occupation numbers 
     1.0000   1.0000   1.0000   1.0000   1.0000   1.0000   1.0000   1.0000
     1.0000   1.0000   1.0000   1.0000   1.0000   1.0000   1.0000   1.0000
     1.0000   1.0000   1.0000   1.0000   1.0000   1.0000   1.0000   1.0000
     1.0000   1.0000   1.0000   1.0000   1.0000   1.0000   1.0000   1.0000
     1.0000   1.0000   1.0000   1.0000   1.0000   1.0000   1.0000   1.0000
     1.0000   1.0000   1.0000   1.0000   1.0000   1.0000   1.0000   1.0000
     1.0000   1.0000   1.0000   1.0000   1.0000   1.0000   1.0000   1.0000
     1.0000   1.0000   1.0000   1.0000   1.0000   1.0000   1.0000   1.0000
     1.0000   1.0000   1.0000   1.0000   1.0000   1.0000   1.0000   1.0000
     1.0000   1.0000   1.0000   1.0000   1.0000   1.0000   1.0000   1.0000
     1.0000   1.0000   1.0000   1.0000   1.0000   1.0000   1.0000   1.0000
     1.0000   1.0000   1.0000   1.0000   1.0000   1.0000   1.0000   1.0000
     1.0000   1.0000   1.0000   1.0000   1.0000   1.0000   1.0000   1.0000
     0.0000   0.0000   0.0000   0.0000   0.0000   0.0000   0.0000   0.0000
     0.0000   0.0000

          k = 0.0000 0.2391 0.9349 ( 40230 PWs)   bands (ev):

   -86.5407 -86.4969 -86.4928 -86.0831 -52.6365 -52.5908 -52.5863 -52.4864
   -52.4833 -52.4600 -52.4187 -52.4033 -52.3924 -52.3881 -52.0239 -51.8118
   -46.2616 -18.2491 -18.2144 -18.1824 -16.4652 -16.3772 -16.1981 -16.1714
   -14.5451 -14.4727 -14.3822 -14.2800 -14.2575 -14.1820 -14.1497 -14.0901
   -14.0580 -14.0155 -13.9929 -13.9168  -4.7459  -4.6202  -4.4590  -4.3296
    -2.5467  -2.5075  -2.4024  -2.3374  -2.1182  -1.9973  -1.9284  -1.8219
    -1.6107  -1.5506  -1.4986  -1.4226  -0.8531  -0.7386  -0.6047  -0.5680
    -0.4084  -0.3342  -0.2697  -0.2108  -0.1620  -0.0581  -0.0412   0.0033
     0.1052   0.1662   0.1992   0.2838   0.2970   0.3304   0.4152   0.4656
     0.7665   0.9158   0.9868   1.1238   1.2155   1.2927   1.3295   1.4462
     1.4929   1.5429   1.6472   1.7058   1.7470   1.8028   1.8608   1.9912
     2.1624   2.2181   2.4056   2.5630   2.6752   2.7424   2.7670   2.8030
     2.8770   2.9923   3.0667   3.1221   3.1663   3.2259   3.2965   3.3524
     8.9314   9.4669  10.1829  10.3825  10.5573  10.6795  11.0458  11.2584
    11.3729  11.4306

     occupation numbers 
     1.0000   1.0000   1.0000   1.0000   1.0000   1.0000   1.0000   1.0000
     1.0000   1.0000   1.0000   1.0000   1.0000   1.0000   1.0000   1.0000
     1.0000   1.0000   1.0000   1.0000   1.0000   1.0000   1.0000   1.0000
     1.0000   1.0000   1.0000   1.0000   1.0000   1.0000   1.0000   1.0000
     1.0000   1.0000   1.0000   1.0000   1.0000   1.0000   1.0000   1.0000
     1.0000   1.0000   1.0000   1.0000   1.0000   1.0000   1.0000   1.0000
     1.0000   1.0000   1.0000   1.0000   1.0000   1.0000   1.0000   1.0000
     1.0000   1.0000   1.0000   1.0000   1.0000   1.0000   1.0000   1.0000
     1.0000   1.0000   1.0000   1.0000   1.0000   1.0000   1.0000   1.0000
     1.0000   1.0000   1.0000   1.0000   1.0000   1.0000   1.0000   1.0000
     1.0000   1.0000   1.0000   1.0000   1.0000   1.0000   1.0000   1.0000
     1.0000   1.0000   1.0000   1.0000   1.0000   1.0000   1.0000   1.0000
     1.0000   1.0000   1.0000   1.0000   1.0000   1.0000   1.0000   1.0000
     0.0000   0.0000   0.0000   0.0000   0.0000   0.0000   0.0000   0.0000
     0.0000   0.0000

          k = 0.0000 0.4781 0.0000 ( 40251 PWs)   bands (ev):

   -86.5407 -86.4969 -86.4928 -86.0831 -52.6365 -52.5908 -52.5863 -52.4864
   -52.4833 -52.4600 -52.4187 -52.4033 -52.3924 -52.3881 -52.0239 -51.8118
   -46.2616 -18.2482 -18.1970 -18.1831 -16.5311 -16.4284 -16.2540 -16.2196
   -14.4812 -14.3844 -14.3218 -14.2802 -14.2144 -14.2056 -14.1368 -14.0975
   -14.0369 -13.9803 -13.9749 -13.8940  -4.9199  -4.6369  -4.4660  -4.2257
    -2.8163  -2.6242  -2.5289  -2.3588  -2.1488  -2.0593  -1.9352  -1.8180
    -1.7288  -1.6344  -1.4159  -1.2190  -1.0935  -0.9427  -0.5922  -0.5397
    -0.5229  -0.4812  -0.4398  -0.3881  -0.3222  -0.1222   0.0872   0.1351
     0.1545   0.2329   0.2606   0.2865   0.3401   0.5090   0.6255   0.8358
     0.9212   0.9837   1.1167   1.1893   1.2904   1.4020   1.4649   1.5313
     1.5932   1.6125   1.6626   1.7215   1.7901   1.9840   2.0462   2.0984
     2.1665   2.2797   2.3676   2.3985   2.5272   2.6020   2.6349   2.7104
     2.8323   2.8617   2.9368   3.0078   3.0654   3.2886   3.4554   3.5313
     7.7994   9.4635   9.6066  10.0391  10.5143  10.8947  11.5254  11.5874
    11.7569  11.8821

     occupation numbers 
     1.0000   1.0000   1.0000   1.0000   1.0000   1.0000   1.0000   1.0000
     1.0000   1.0000   1.0000   1.0000   1.0000   1.0000   1.0000   1.0000
     1.0000   1.0000   1.0000   1.0000   1.0000   1.0000   1.0000   1.0000
     1.0000   1.0000   1.0000   1.0000   1.0000   1.0000   1.0000   1.0000
     1.0000   1.0000   1.0000   1.0000   1.0000   1.0000   1.0000   1.0000
[...]
     atom   20 type  3   force =     0.55974511   -1.12080385   -0.67755599
     atom   21 type  3   force =    -0.55811080    1.08364063   -0.69253225
     atom   22 type  3   force =     0.55972143    1.12076674   -0.67756135
     atom   23 type  3   force =    -0.55808989   -1.08361086   -0.69252172
     atom   24 type  3   force =    -0.53344793    1.11592101    0.77902442
     atom   25 type  3   force =     0.53956275   -1.17350221    0.81354227
     The ionic contribution  to forces
     atom    1 type  2   force =    -3.54311415    0.00031067    2.32312396
     atom    2 type  1   force =     0.08976319   -0.00077334   -0.38559454
     atom    3 type  1   force =    -7.69508973    0.00093121   -0.54816502
     atom    4 type  1   force =     3.53435899    0.00073958   -0.33000306
     atom    5 type  1   force =     7.97073884   -0.00104078    0.50751235
     atom    6 type  4   force =    -3.25304354   -0.00025481    0.25294285
     atom    7 type  4   force =     0.65328990    0.00016642    0.33543702
     atom    8 type  4   force =     4.92130857    0.00023836   -0.49947831
     atom    9 type  4   force =    -2.57603542   -0.00016353   -0.61580189
     atom   10 type  3   force =    -9.53485841   -0.00026425    2.52352022
     atom   11 type  3   force =     3.58090087    0.00024297    1.26350498
     atom   12 type  3   force =    11.49178007    0.00024833   -2.64589673
     atom   13 type  3   force =    -7.83322110   -0.00028822   -2.03792691
     atom   14 type  3   force =     0.64877356   -0.00021124    4.98810555
     atom   15 type  3   force =    -1.73271822    0.00024709    6.37807886
     atom   16 type  3   force =    -1.90091181    0.00013430   -2.38868287
     atom   17 type  3   force =     3.32902131   -0.00025533   -5.60969790
     atom   18 type  3   force =    -3.85983787    2.54212768   -2.80882617
     atom   19 type  3   force =     0.93869702   -3.78966009   -2.44308709
     atom   20 type  3   force =     5.14676064    4.06877038    2.23100086
     atom   21 type  3   force =    -1.30107554   -1.17752787    1.26534485
     atom   22 type  3   force =     5.14700253   -4.06830998    2.23113338
     atom   23 type  3   force =    -1.30129128    1.17717768    1.26524611
     atom   24 type  3   force =    -3.85964568   -2.54260176   -2.80864103
     atom   25 type  3   force =     0.93844727    3.79001652   -2.44314947
     The local contribution  to forces
     atom    1 type  2   force =     3.41400657   -0.00031158   -2.29582527
     atom    2 type  1   force =    -0.16362110    0.00077923    0.26317083
     atom    3 type  1   force =     7.66708967   -0.00094983    0.45641447
     atom    4 type  1   force =    -3.29617790   -0.00074710    0.38662412
     atom    5 type  1   force =    -7.96451781    0.00105637   -0.40367352
     atom    6 type  4   force =     3.28449235    0.00024785   -0.22009987
     atom    7 type  4   force =    -0.69793010   -0.00015803   -0.32959911
     atom    8 type  4   force =    -4.93259963   -0.00023125    0.46244534
     atom    9 type  4   force =     2.58183242    0.00015487    0.57558200
     atom   10 type  3   force =     9.21328110    0.00026941   -1.08780281
     atom   11 type  3   force =    -3.46405687   -0.00024467    0.09298701
     atom   12 type  3   force =   -11.08462376   -0.00025255    1.21162890
     atom   13 type  3   force =     7.58741520    0.00028813    0.60233048
     atom   14 type  3   force =    -1.83720603    0.00021149   -4.38570124
     atom   15 type  3   force =     2.90276788   -0.00025076   -5.60425272
     atom   16 type  3   force =     3.06628496   -0.00015020    2.08778065
     atom   17 type  3   force =    -4.47104287    0.00025821    4.99094646
     atom   18 type  3   force =     4.36763618   -1.48436444    2.06341344
     atom   19 type  3   force =    -1.45263156    2.67473838    1.66540014
     atom   20 type  3   force =    -5.67971973   -3.00396870   -1.58316586
     atom   21 type  3   force =     1.83226413    0.15012319   -0.60154623
     atom   22 type  3   force =    -5.67993923    3.00354253   -1.58329317
     atom   23 type  3   force =     1.83245781   -0.14980384   -0.60145993
     atom   24 type  3   force =     4.36746212    1.48480691    2.06323280
     atom   25 type  3   force =    -1.45240554   -2.67506076    1.66545412
     The core correction contribution to forces
     atom    1 type  2   force =     0.00000000    0.00000000    0.00000000
     atom    2 type  1   force =    -0.00063281    0.00000017   -0.00040941
     atom    3 type  1   force =     0.00016733   -0.00000027    0.00031656
     atom    4 type  1   force =     0.00364629   -0.00000015   -0.00113545
     atom    5 type  1   force =    -0.00011134    0.00000030    0.00039533
     atom    6 type  4   force =     0.00211158   -0.00000007    0.00247467
     atom    7 type  4   force =    -0.00315984    0.00000075    0.00045719
     atom    8 type  4   force =    -0.00061905    0.00000020   -0.00249919
     atom    9 type  4   force =     0.00013976   -0.00000071   -0.00294926
     atom   10 type  3   force =    -0.00382272    0.00000007    0.01418029
     atom   11 type  3   force =     0.00180368   -0.00000002    0.01330128
     atom   12 type  3   force =     0.00467580   -0.00000005   -0.01413660
     atom   13 type  3   force =    -0.00307965   -0.00000001   -0.01418654
     atom   14 type  3   force =    -0.01152124   -0.00000002    0.00647268
     atom   15 type  3   force =     0.01129735   -0.00000005    0.00819599
     atom   16 type  3   force =     0.01134319   -0.00000018   -0.00330885
     atom   17 type  3   force =    -0.01113562    0.00000004   -0.00661777
     atom   18 type  3   force =     0.00500724    0.01047741   -0.00759977
     atom   19 type  3   force =    -0.00500845   -0.01098673   -0.00794601
     atom   20 type  3   force =    -0.00531552    0.01049723    0.00657185
     atom   21 type  3   force =     0.00525067   -0.01023097    0.00678446
     atom   22 type  3   force =    -0.00531528   -0.01049686    0.00657189
     atom   23 type  3   force =     0.00525050    0.01023076    0.00678439
     atom   24 type  3   force =     0.00500747   -0.01047779   -0.00759979
     atom   25 type  3   force =    -0.00500864    0.01098696   -0.00794603
     The Hubbard contrib.    to forces
     atom    1 type  2   force =     0.00000000    0.00000000    0.00000000
     atom    2 type  1   force =     0.00000000    0.00000000    0.00000000
     atom    3 type  1   force =     0.00000000    0.00000000    0.00000000
     atom    4 type  1   force =     0.00000000    0.00000000    0.00000000
     atom    5 type  1   force =     0.00000000    0.00000000    0.00000000
     atom    6 type  4   force =     0.00000000    0.00000000    0.00000000
     atom    7 type  4   force =     0.00000000    0.00000000    0.00000000
     atom    8 type  4   force =     0.00000000    0.00000000    0.00000000
     atom    9 type  4   force =     0.00000000    0.00000000    0.00000000
     atom   10 type  3   force =     0.00000000    0.00000000    0.00000000
     atom   11 type  3   force =     0.00000000    0.00000000    0.00000000
     atom   12 type  3   force =     0.00000000    0.00000000    0.00000000
     atom   13 type  3   force =     0.00000000    0.00000000    0.00000000
     atom   14 type  3   force =     0.00000000    0.00000000    0.00000000
     atom   15 type  3   force =     0.00000000    0.00000000    0.00000000
     atom   16 type  3   force =     0.00000000    0.00000000    0.00000000
     atom   17 type  3   force =     0.00000000    0.00000000    0.00000000
     atom   18 type  3   force =     0.00000000    0.00000000    0.00000000
     atom   19 type  3   force =     0.00000000    0.00000000    0.00000000
     atom   20 type  3   force =     0.00000000    0.00000000    0.00000000
     atom   21 type  3   force =     0.00000000    0.00000000    0.00000000
     atom   22 type  3   force =     0.00000000    0.00000000    0.00000000
     atom   23 type  3   force =     0.00000000    0.00000000    0.00000000
     atom   24 type  3   force =     0.00000000    0.00000000    0.00000000
     atom   25 type  3   force =     0.00000000    0.00000000    0.00000000
     The SCF correction term to forces
     atom    1 type  2   force =    -0.00000115   -0.00000001   -0.00000026
     atom    2 type  1   force =    -0.00000184    0.00000003    0.00000056
     atom    3 type  1   force =    -0.00000225   -0.00000004    0.00000079
     atom    4 type  1   force =    -0.00000028   -0.00000001    0.00000043
     atom    5 type  1   force =     0.00000316    0.00000007   -0.00000075
     atom    6 type  4   force =    -0.00000021    0.00000001   -0.00000039
     atom    7 type  4   force =     0.00000027   -0.00000001   -0.00000004
     atom    8 type  4   force =     0.00000147   -0.00000001   -0.00000029
     atom    9 type  4   force =    -0.00000089    0.00000001   -0.00000045
     atom   10 type  3   force =     0.00000032    0.00000000    0.00000020
     atom   11 type  3   force =     0.00000086   -0.00000000   -0.00000034
     atom   12 type  3   force =     0.00000155   -0.00000002    0.00000073
     atom   13 type  3   force =    -0.00000294    0.00000000    0.00000207
     atom   14 type  3   force =    -0.00000034    0.00000001   -0.00000021
     atom   15 type  3   force =    -0.00000144    0.00000000   -0.00000027
     atom   16 type  3   force =    -0.00000052    0.00000000    0.00000009
     atom   17 type  3   force =     0.00000337    0.00000000   -0.00000084
     atom   18 type  3   force =    -0.00000094   -0.00000066   -0.00000005
     atom   19 type  3   force =     0.00000005   -0.00000043    0.00000023
     atom   20 type  3   force =     0.00000158   -0.00000237    0.00000059
     atom   21 type  3   force =    -0.00000132   -0.00000133   -0.00000151
     atom   22 type  3   force =     0.00000158    0.00000234    0.00000058
     atom   23 type  3   force =    -0.00000131    0.00000134   -0.00000149
     atom   24 type  3   force =    -0.00000094    0.00000067   -0.00000005
     atom   25 type  3   force =     0.00000006    0.00000042    0.00000024

     Total force =     0.224598     Total SCF correction =     0.000009


     Computing stress (Cartesian axis) and pressure


     negative rho (up, down):  0.000E+00 8.588E-04
          total   stress  (Ry/bohr**3)                   (kbar)     P=     -142.82
  -0.00119434   0.00000001  -0.00001460         -175.69        0.00       -2.15
   0.00000001  -0.00089339  -0.00000000            0.00     -131.42       -0.00
  -0.00001460  -0.00000000  -0.00082497           -2.15       -0.00     -121.36

     kinetic stress (kbar)  23616.39      0.00     -8.76
                                0.00  23855.56      0.00
                               -8.76      0.00  23679.82

     local   stress (kbar)  -4832.56     -0.08   1059.27
                               -0.08 -13153.99     -0.00
                             1059.27     -0.00  -9063.87

     nonloc. stress (kbar)  -5979.43     -0.00     -0.69
                               -0.00  -5936.38     -0.00
                               -0.69     -0.00  -5949.98

     hartree stress (kbar)  11601.07      0.04   -439.22
                                0.04  16251.10      0.00
                             -439.22      0.00  14019.62

     exc-cor stress (kbar)  -2510.22     -0.00     -0.69
                               -0.00  -2516.85     -0.00
                               -0.69     -0.00  -2514.05

     corecor stress (kbar)  -2820.13      0.00      0.87
                                0.00  -2820.23      0.00
                                0.87      0.00  -2821.06

     ewald   stress (kbar) -19250.81      0.04   -612.91
                                0.04 -15810.63      0.00
                             -612.91      0.00 -17471.83

     hubbard stress (kbar)      0.00      0.00      0.00
                                0.00      0.00      0.00
                                0.00      0.00      0.00

     DFT-D   stress (kbar)      0.00      0.00      0.00
                                0.00      0.00      0.00
                                0.00      0.00      0.00

     XDM     stress (kbar)      0.00      0.00      0.00
                                0.00      0.00      0.00
                                0.00      0.00      0.00

     dft-nl  stress (kbar)      0.00      0.00      0.00
                                0.00      0.00      0.00
                                0.00      0.00      0.00

     TS-vdW  stress (kbar)      0.00      0.00      0.00
                                0.00      0.00      0.00
                                0.00      0.00      0.00



     init_run     :   2258.63s CPU   2457.64s WALL (       1 calls)
     electrons    : 136414.82s CPU 148920.63s WALL (       1 calls)
     forces       :    287.29s CPU    288.17s WALL (       1 calls)
     stress       :    294.36s CPU    315.63s WALL (       1 calls)

     Called by init_run:
     wfcinit      :   2244.45s CPU   2440.95s WALL (       1 calls)
     wfcinit:atom :      0.47s CPU      0.48s WALL (     316 calls)
     wfcinit:wfcr :   2241.22s CPU   2437.38s WALL (     316 calls)
     potinit      :      4.22s CPU      4.73s WALL (       1 calls)
     hinit0       :      6.51s CPU      7.67s WALL (       1 calls)

     Called by electrons:
     c_bands      : 113231.32s CPU 123505.96s WALL (      34 calls)
     sum_band     :  23040.97s CPU  25252.36s WALL (      34 calls)
     v_of_rho     :     39.34s CPU     42.32s WALL (      35 calls)
     v_h          :      5.21s CPU      5.53s WALL (      35 calls)
     v_xc         :     37.08s CPU     39.80s WALL (      37 calls)
     newd         :     39.54s CPU     50.14s WALL (      35 calls)
     PAW_pot      :     16.27s CPU     17.43s WALL (      35 calls)
     mix_rho      :     41.21s CPU     45.82s WALL (      34 calls)

     Called by c_bands:
     init_us_2    :     98.73s CPU    105.02s WALL (   22436 calls)
     cegterg      : 112393.75s CPU 122560.40s WALL (   10744 calls)

     Called by sum_band:
     sum_band:wei :      0.59s CPU      0.69s WALL (      34 calls)
     sum_band:loo :  22960.70s CPU  25156.27s WALL (      34 calls)
     sum_band:buf :     19.92s CPU     20.86s WALL (   10744 calls)
     sum_band:ini :     38.72s CPU     40.02s WALL (   10744 calls)
     sum_band:cal :   1524.16s CPU   1672.81s WALL (   10744 calls)
     sum_band:bec :      5.21s CPU      5.41s WALL (   10744 calls)
     addusdens    :     66.37s CPU     81.37s WALL (      34 calls)
     addusd:skk   :      0.63s CPU      0.73s WALL (     102 calls)
     addusd:dgemm :     34.95s CPU     47.13s WALL (     204 calls)
     addusd:qvan2 :     29.82s CPU     32.19s WALL (     204 calls)

     Called by *egterg:
     cdiaghg      :   4931.33s CPU   5342.17s WALL (   37211 calls)
     cegterg:over :   4930.54s CPU   5355.85s WALL (   26467 calls)
     cegterg:upda :    331.19s CPU    357.08s WALL (   26467 calls)
     cegterg:last :    692.94s CPU    751.12s WALL (   17388 calls)
     h_psi        :  98326.11s CPU 107318.34s WALL (   37527 calls)
     s_psi        :    756.92s CPU    817.76s WALL (   37527 calls)
     g_psi        :      6.21s CPU      6.66s WALL (   26467 calls)

     Called by h_psi:
     h_psi:calbec :   3958.47s CPU   4317.75s WALL (   37527 calls)
     vloc_psi     :  93529.79s CPU 102087.82s WALL (   37527 calls)
     add_vuspsi   :    798.14s CPU    865.47s WALL (   37527 calls)

     General routines
     calbec       :   5922.76s CPU   6442.08s WALL (   49851 calls)
     fft          :     53.00s CPU     56.71s WALL (     913 calls)
     ffts         :      3.05s CPU      3.43s WALL (     138 calls)
     fftw         : 114717.33s CPU 125309.40s WALL ( 6624046 calls)
     interpolate  :      3.62s CPU      3.96s WALL (      70 calls)

     Parallel routines
     fft_scatt_xy :    227.46s CPU    239.49s WALL ( 6625097 calls)
     fft_scatt_yz : 113052.01s CPU 123550.25s WALL ( 6625097 calls)

     PAW routines
     PAW_pot      :     16.27s CPU     17.43s WALL (      35 calls)

     PWSCF        :   1d14h41m CPU   1d18h13m WALL


   This run was terminated on:  11:54:29  31Dec2022            

=------------------------------------------------------------------------------=
   JOB DONE.
=------------------------------------------------------------------------------=
Note: The following floating-point exceptions are signalling: IEEE_INVALID_FLAG IEEE_DENORMAL
Note: The following floating-point exceptions are signalling: IEEE_DENORMAL
Note: The following floating-point exceptions are signalling: IEEE_DENORMAL
Note: The following floating-point exceptions are signalling: IEEE_DENORMAL
Note: The following floating-point exceptions are signalling: IEEE_INVALID_FLAG IEEE_DENORMAL
Note: The following floating-point exceptions are signalling: IEEE_DENORMAL
Note: The following floating-point exceptions are signalling: IEEE_DENORMAL
Note: The following floating-point exceptions are signalling: IEEE_DENORMAL
Note: The following floating-point exceptions are signalling: IEEE_DENORMAL
Note: The following floating-point exceptions are signalling: IEEE_DENORMAL
Note: The following floating-point exceptions are signalling: IEEE_DENORMAL
Note: The following floating-point exceptions are signalling: IEEE_INVALID_FLAG IEEE_DENORMAL
Note: The following floating-point exceptions are signalling: IEEE_DENORMAL
Note: The following floating-point exceptions are signalling: IEEE_DENORMAL
Note: The following floating-point exceptions are signalling: IEEE_DENORMAL
Note: The following floating-point exceptions are signalling: IEEE_INVALID_FLAG IEEE_DENORMAL
Note: The following floating-point exceptions are signalling: IEEE_DENORMAL
Note: The following floating-point exceptions are signalling: IEEE_INVALID_FLAG IEEE_DENORMAL
Note: The following floating-point exceptions are signalling: IEEE_DENORMAL
Note: The following floating-point exceptions are signalling: IEEE_DENORMAL
Note: The following floating-point exceptions are signalling: IEEE_DENORMAL
Note: The following floating-point exceptions are signalling: IEEE_DENORMAL
Note: The following floating-point exceptions are signalling: IEEE_DENORMAL
Note: The following floating-point exceptions are signalling: IEEE_DENORMAL
Note: The following floating-point exceptions are signalling: IEEE_UNDERFLOW_FLAG IEEE_DENORMAL
Note: The following floating-point exceptions are signalling: IEEE_DENORMAL
Note: The following floating-point exceptions are signalling: IEEE_DENORMAL
Note: The following floating-point exceptions are signalling: IEEE_DENORMAL
Note: The following floating-point exceptions are signalling: IEEE_DENORMAL
Note: The following floating-point exceptions are signalling: IEEE_DENORMAL
Note: The following floating-point exceptions are signalling: IEEE_DENORMAL
Note: The following floating-point exceptions are signalling: IEEE_DENORMAL
Note: The following floating-point exceptions are signalling: IEEE_DENORMAL
Note: The following floating-point exceptions are signalling: IEEE_DENORMAL
Note: The following floating-point exceptions are signalling: IEEE_DENORMAL
Note: The following floating-point exceptions are signalling: IEEE_DENORMAL
Note: The following floating-point exceptions are signalling: IEEE_DENORMAL
Note: The following floating-point exceptions are signalling: IEEE_DENORMAL
Note: The following floating-point exceptions are signalling: IEEE_DENORMAL
Note: The following floating-point exceptions are signalling: IEEE_DENORMAL
Note: The following floating-point exceptions are signalling: IEEE_DENORMAL
Note: The following floating-point exceptions are signalling: IEEE_DENORMAL
Note: The following floating-point exceptions are signalling: IEEE_DENORMAL
Note: The following floating-point exceptions are signalling: IEEE_DENORMAL
Note: The following floating-point exceptions are signalling: IEEE_DENORMAL
