
     Program PWSCF v.6.7MaX starts on 18Dec2022 at  5:30:23 

     This program is part of the open-source Quantum ESPRESSO suite
     for quantum simulation of materials; please cite
         "P. Giannozzi et al., J. Phys.:Condens. Matter 21 395502 (2009);
         "P. Giannozzi et al., J. Phys.:Condens. Matter 29 465901 (2017);
          URL http://www.quantum-espresso.org", 
     in publications or presentations arising from this work. More details at
     http://www.quantum-espresso.org/quote

     Parallel version (MPI), running on    24 processors

     MPI processes distributed on     1 nodes
     R & G space division:  proc/nbgrp/npool/nimage =      24
     Reading input from scale_1da-00.in

     Current dimensions of program PWSCF are:
     Max number of different atomic species (ntypx) = 10
     Max number of k-points (npk) =  40000
     Max angular momentum in pseudopotentials (lmaxx) =  3
     Message from routine read_pp_mesh:
     mesh size missing, using the one in header
     file Fe.pbe-spn-kjpaw_psl.0.2.1.UPF: wavefunction(s)  3D renormalized
     file O.pbe-n-kjpaw_psl.0.1.UPF: wavefunction(s)  2P renormalized

     Subspace diagonalization in iterative solution of the eigenvalue problem:
     a serial algorithm will be used

     Message from routine setup:
     using ibrav=0 with symmetry is DISCOURAGED, use correct ibrav instead

     Parallelization info
     --------------------
     sticks:   dense  smooth     PW     G-vecs:    dense   smooth      PW
     Min         786     291     78                51256    11557    1624
     Max         787     292     79                51257    11560    1627
     Sum       18873    6997   1891              1230153   277403   39017



     bravais-lattice index     =            0
     lattice parameter (alat)  =      18.6818  a.u.
     unit-cell volume          =    2052.3399 (a.u.)^3
     number of atoms/cell      =           25
     number of atomic types    =            4
     number of electrons       =       189.00
     number of Kohn-Sham states=          114
     kinetic-energy cutoff     =     100.0000  Ry
     charge density cutoff     =    1080.0000  Ry
     scf convergence threshold =      2.0E-10
     mixing beta               =       0.4000
     number of iterations used =            8  plain     mixing
     Exchange-correlation= PBE
                           (   1   4   3   4   0   0   0)

     celldm(1)=  18.681804  celldm(2)=   0.000000  celldm(3)=   0.000000
     celldm(4)=   0.000000  celldm(5)=   0.000000  celldm(6)=   0.000000

     crystal axes: (cart. coord. in units of alat)
               a(1) = (   1.000000   0.000000   0.000000 )  
               a(2) = (   0.000000   0.629042   0.000000 )  
               a(3) = (   0.000000   0.000000   0.500395 )  

     reciprocal axes: (cart. coord. in units 2 pi/alat)
               b(1) = (  1.000000  0.000000  0.000000 )  
               b(2) = (  0.000000  1.589719  0.000000 )  
               b(3) = (  0.000000  0.000000  1.998420 )  


     PseudoPot. # 1 for Fe read from file:
     /opt/QEpot/SSSP_precision_pseudos/Fe.pbe-spn-kjpaw_psl.0.2.1.UPF
     MD5 check sum: e86618425769142926afa95317d90200
     Pseudo is Projector augmented-wave + core cor, Zval = 16.0
     Generated using "atomic" code by A. Dal Corso  v.5.0.99 svn rev. 10869
     Shape of augmentation charge: PSQ
     Using radial grid of 1191 points,  6 beta functions with: 
                l(1) =   0
                l(2) =   0
                l(3) =   1
                l(4) =   1
                l(5) =   2
                l(6) =   2
     Q(r) pseudized with 0 coefficients 


     PseudoPot. # 2 for Na read from file:
     /opt/QEpot/SSSP_precision_pseudos/Na_ONCV_PBE-1.0.oncvpsp.upf
     MD5 check sum: 24a298df0a6742ae313db96548fdb2a4
     Pseudo is Norm-conserving, Zval =  9.0
     Generated using ONCVPSP code by D. R. Hamann
     Using radial grid of 1992 points,  4 beta functions with: 
                l(1) =   0
                l(2) =   0
                l(3) =   1
                l(4) =   1

     PseudoPot. # 3 for O  read from file:
     /opt/QEpot/SSSP_precision_pseudos/O.pbe-n-kjpaw_psl.0.1.UPF
     MD5 check sum: 0234752ac141de4415c5fc33072bef88
     Pseudo is Projector augmented-wave + core cor, Zval =  6.0
     Generated using "atomic" code by A. Dal Corso  v.5.0.99 svn rev. 10869
     Shape of augmentation charge: BESSEL
     Using radial grid of 1095 points,  4 beta functions with: 
                l(1) =   0
                l(2) =   0
                l(3) =   1
                l(4) =   1
     Q(r) pseudized with 0 coefficients 


     PseudoPot. # 4 for P  read from file:
     /opt/QEpot/SSSP_precision_pseudos/P.pbe-n-rrkjus_psl.1.0.0.UPF
     MD5 check sum: 8b930f418f0a4573dca56cd030ffe088
     Pseudo is Ultrasoft + core correction, Zval =  5.0
     Generated using "atomic" code by A. Dal Corso  v.5.1
     Using radial grid of 1147 points,  6 beta functions with: 
                l(1) =   0
                l(2) =   0
                l(3) =   1
                l(4) =   1
                l(5) =   2
                l(6) =   2
     Q(r) pseudized with 0 coefficients 


     atomic species   valence    mass     pseudopotential
        Fe            16.00    55.84500     Fe( 1.00)
        Na             9.00    22.98977     Na( 1.00)
        O              6.00    15.99940     O ( 1.00)
        P              5.00    30.97376     P ( 1.00)

     Starting magnetic structure 
     atomic species   magnetization
        Fe           0.312
        Na           0.000
        O            0.000
        P            0.000

      2 Sym. Ops. (no inversion) found ( 1 have fractional translation)


                                    s                        frac. trans.

      isym =  1     identity                                     

 cryst.   s( 1) = (     1          0          0      )
                  (     0          1          0      )
                  (     0          0          1      )

 cart.    s( 1) = (  1.0000000  0.0000000  0.0000000 )
                  (  0.0000000  1.0000000  0.0000000 )
                  (  0.0000000  0.0000000  1.0000000 )


      isym =  2     inv. 180 deg rotation - cart. axis [0,1,0]   

 cryst.   s( 2) = (     1          0          0      )    f =(  0.0000000 )
                  (     0         -1          0      )       (  0.4999980 )
                  (     0          0          1      )       (  0.0000000 )

 cart.    s( 2) = (  1.0000000  0.0000000  0.0000000 )    f =(  0.0000000 )
                  (  0.0000000 -1.0000000  0.0000000 )       (  0.3145198 )
                  (  0.0000000  0.0000000  1.0000000 )       (  0.0000000 )


   Cartesian axes

     site n.     atom                  positions (alat units)
         1           Na  tau(   1) = (   0.5574590   0.1572611   0.2228650  )
         2           Fe  tau(   2) = (   0.2771150   0.4717847   0.4960874  )
         3           Fe  tau(   3) = (   0.2107060   0.1572599   0.2454229  )
         4           Fe  tau(   4) = (   0.7302140   0.1572605   0.0000535  )
         5           Fe  tau(   5) = (   0.7810190   0.4717853   0.2574679  )
         6           P   tau(   6) = (   0.1051510   0.4717834   0.2221194  )
         7           P   tau(   7) = (   0.3871250   0.1572618   0.4711472  )
         8           P   tau(   8) = (   0.8922730   0.1572618   0.2785325  )
         9           P   tau(   9) = (   0.6039150   0.4717834   0.0330836  )
        10           O   tau(  10) = (   0.1313210   0.4717840   0.3757213  )
        11           O   tau(  11) = (   0.3628270   0.1572611   0.1248886  )
        12           O   tau(  12) = (   0.8714480   0.1572611   0.1243127  )
        13           O   tau(  13) = (   0.6323650   0.4717840   0.3803805  )
        14           O   tau(  14) = (   0.4574600   0.4717840   0.0598177  )
        15           O   tau(  15) = (   0.0361810   0.1572611   0.3139565  )
        16           O   tau(  16) = (   0.5358400   0.1572605   0.4483416  )
        17           O   tau(  17) = (   0.9582930   0.4717840   0.1957681  )
        18           O   tau(  18) = (   0.1741600   0.5946120   0.1499079  )
        19           O   tau(  19) = (   0.3208130   0.0346476   0.3979178  )
        20           O   tau(  20) = (   0.8175190   0.2785731   0.3480479  )
        21           O   tau(  21) = (   0.6721860   0.3481955   0.1066312  )
        22           O   tau(  22) = (   0.8175190   0.0359504   0.3480484  )
        23           O   tau(  23) = (   0.6721870   0.5953713   0.1066322  )
        24           O   tau(  24) = (   0.1741600   0.3489548   0.1499079  )
        25           O   tau(  25) = (   0.3208140   0.2798759   0.3979188  )

   Crystallographic axes

     site n.     atom                  positions (cryst. coord.)
         1           Na  tau(   1) = (  0.5574590  0.2500010  0.4453780  )
         2           Fe  tau(   2) = (  0.2771150  0.7500050  0.9913910  )
         3           Fe  tau(   3) = (  0.2107060  0.2499990  0.4904580  )
         4           Fe  tau(   4) = (  0.7302140  0.2500000  0.0001070  )
         5           Fe  tau(   5) = (  0.7810190  0.7500060  0.5145290  )
         6           P   tau(   6) = (  0.1051510  0.7500030  0.4438880  )
         7           P   tau(   7) = (  0.3871250  0.2500020  0.9415500  )
         8           P   tau(   8) = (  0.8922730  0.2500020  0.5566250  )
         9           P   tau(   9) = (  0.6039150  0.7500030  0.0661150  )
        10           O   tau(  10) = (  0.1313210  0.7500040  0.7508490  )
        11           O   tau(  11) = (  0.3628270  0.2500010  0.2495800  )
        12           O   tau(  12) = (  0.8714480  0.2500010  0.2484290  )
        13           O   tau(  13) = (  0.6323650  0.7500040  0.7601600  )
        14           O   tau(  14) = (  0.4574600  0.7500040  0.1195410  )
        15           O   tau(  15) = (  0.0361810  0.2500010  0.6274170  )
        16           O   tau(  16) = (  0.5358400  0.2500000  0.8959750  )
        17           O   tau(  17) = (  0.9582930  0.7500040  0.3912270  )
        18           O   tau(  18) = (  0.1741600  0.9452660  0.2995790  )
        19           O   tau(  19) = (  0.3208130  0.0550800  0.7952070  )
        20           O   tau(  20) = (  0.8175190  0.4428530  0.6955460  )
        21           O   tau(  21) = (  0.6721860  0.5535330  0.2130940  )
        22           O   tau(  22) = (  0.8175190  0.0571510  0.6955470  )
        23           O   tau(  23) = (  0.6721870  0.9464730  0.2130960  )
        24           O   tau(  24) = (  0.1741600  0.5547400  0.2995790  )
        25           O   tau(  25) = (  0.3208140  0.4449240  0.7952090  )

     number of k points=    92  Marzari-Vanderbilt smearing, width (Ry)=  0.0073
                       cart. coord. in units 2pi/alat
        k(    1) = (   0.0000000   0.0000000   0.0000000), wk =   0.0031746
        k(    2) = (   0.0000000   0.0000000   0.2220467), wk =   0.0063492
        k(    3) = (   0.0000000   0.0000000   0.4440934), wk =   0.0063492
        k(    4) = (   0.0000000   0.0000000   0.6661401), wk =   0.0063492
        k(    5) = (   0.0000000   0.0000000   0.8881868), wk =   0.0063492
        k(    6) = (   0.0000000   0.2271027   0.0000000), wk =   0.0063492
        k(    7) = (   0.0000000   0.2271027   0.2220467), wk =   0.0126984
        k(    8) = (   0.0000000   0.2271027   0.4440934), wk =   0.0126984
        k(    9) = (   0.0000000   0.2271027   0.6661401), wk =   0.0126984
        k(   10) = (   0.0000000   0.2271027   0.8881868), wk =   0.0126984
        k(   11) = (   0.0000000   0.4542054   0.0000000), wk =   0.0063492
        k(   12) = (   0.0000000   0.4542054   0.2220467), wk =   0.0126984
        k(   13) = (   0.0000000   0.4542054   0.4440934), wk =   0.0126984
        k(   14) = (   0.0000000   0.4542054   0.6661401), wk =   0.0126984
        k(   15) = (   0.0000000   0.4542054   0.8881868), wk =   0.0126984
        k(   16) = (   0.0000000   0.6813081   0.0000000), wk =   0.0063492
        k(   17) = (   0.0000000   0.6813081   0.2220467), wk =   0.0126984
        k(   18) = (   0.0000000   0.6813081   0.4440934), wk =   0.0126984
        k(   19) = (   0.0000000   0.6813081   0.6661401), wk =   0.0126984
        k(   20) = (   0.0000000   0.6813081   0.8881868), wk =   0.0126984
        k(   21) = (   0.2000000   0.0000000   0.0000000), wk =   0.0063492
        k(   22) = (   0.2000000   0.0000000   0.2220467), wk =   0.0063492
        k(   23) = (   0.2000000   0.0000000   0.4440934), wk =   0.0063492
        k(   24) = (   0.2000000   0.0000000   0.6661401), wk =   0.0063492
        k(   25) = (   0.2000000   0.0000000   0.8881868), wk =   0.0063492
        k(   26) = (   0.2000000   0.2271027   0.0000000), wk =   0.0126984
        k(   27) = (   0.2000000   0.2271027   0.2220467), wk =   0.0126984
        k(   28) = (   0.2000000   0.2271027   0.4440934), wk =   0.0126984
        k(   29) = (   0.2000000   0.2271027   0.6661401), wk =   0.0126984
        k(   30) = (   0.2000000   0.2271027   0.8881868), wk =   0.0126984
        k(   31) = (   0.2000000   0.4542054   0.0000000), wk =   0.0126984
        k(   32) = (   0.2000000   0.4542054   0.2220467), wk =   0.0126984
        k(   33) = (   0.2000000   0.4542054   0.4440934), wk =   0.0126984
        k(   34) = (   0.2000000   0.4542054   0.6661401), wk =   0.0126984
        k(   35) = (   0.2000000   0.4542054   0.8881868), wk =   0.0126984
        k(   36) = (   0.2000000   0.6813081   0.0000000), wk =   0.0126984
        k(   37) = (   0.2000000   0.6813081   0.2220467), wk =   0.0126984
        k(   38) = (   0.2000000   0.6813081   0.4440934), wk =   0.0126984
        k(   39) = (   0.2000000   0.6813081   0.6661401), wk =   0.0126984
        k(   40) = (   0.2000000   0.6813081   0.8881868), wk =   0.0126984
        k(   41) = (   0.4000000   0.0000000   0.0000000), wk =   0.0063492
        k(   42) = (   0.4000000   0.0000000   0.2220467), wk =   0.0063492
        k(   43) = (   0.4000000   0.0000000   0.4440934), wk =   0.0063492
        k(   44) = (   0.4000000   0.0000000   0.6661401), wk =   0.0063492
        k(   45) = (   0.4000000   0.0000000   0.8881868), wk =   0.0063492
        k(   46) = (   0.4000000   0.2271027   0.0000000), wk =   0.0126984
        k(   47) = (   0.4000000   0.2271027   0.2220467), wk =   0.0126984
        k(   48) = (   0.4000000   0.2271027   0.4440934), wk =   0.0126984
        k(   49) = (   0.4000000   0.2271027   0.6661401), wk =   0.0126984
        k(   50) = (   0.4000000   0.2271027   0.8881868), wk =   0.0126984
        k(   51) = (   0.4000000   0.4542054   0.0000000), wk =   0.0126984
        k(   52) = (   0.4000000   0.4542054   0.2220467), wk =   0.0126984
        k(   53) = (   0.4000000   0.4542054   0.4440934), wk =   0.0126984
        k(   54) = (   0.4000000   0.4542054   0.6661401), wk =   0.0126984
        k(   55) = (   0.4000000   0.4542054   0.8881868), wk =   0.0126984
        k(   56) = (   0.4000000   0.6813081   0.0000000), wk =   0.0126984
        k(   57) = (   0.4000000   0.6813081   0.2220467), wk =   0.0126984
        k(   58) = (   0.4000000   0.6813081   0.4440934), wk =   0.0126984
        k(   59) = (   0.4000000   0.6813081   0.6661401), wk =   0.0126984
        k(   60) = (   0.4000000   0.6813081   0.8881868), wk =   0.0126984
        k(   61) = (   0.2000000   0.0000000  -0.2220467), wk =   0.0063492
        k(   62) = (   0.2000000   0.0000000  -0.4440934), wk =   0.0063492
        k(   63) = (   0.2000000   0.0000000  -0.6661401), wk =   0.0063492
        k(   64) = (   0.2000000   0.0000000  -0.8881868), wk =   0.0063492
        k(   65) = (   0.2000000  -0.2271027  -0.2220467), wk =   0.0126984
        k(   66) = (   0.2000000  -0.2271027  -0.4440934), wk =   0.0126984
        k(   67) = (   0.2000000  -0.2271027  -0.6661401), wk =   0.0126984
        k(   68) = (   0.2000000  -0.2271027  -0.8881868), wk =   0.0126984
        k(   69) = (   0.2000000  -0.4542054  -0.2220467), wk =   0.0126984
        k(   70) = (   0.2000000  -0.4542054  -0.4440934), wk =   0.0126984
        k(   71) = (   0.2000000  -0.4542054  -0.6661401), wk =   0.0126984
        k(   72) = (   0.2000000  -0.4542054  -0.8881868), wk =   0.0126984
        k(   73) = (   0.2000000  -0.6813081  -0.2220467), wk =   0.0126984
        k(   74) = (   0.2000000  -0.6813081  -0.4440934), wk =   0.0126984
        k(   75) = (   0.2000000  -0.6813081  -0.6661401), wk =   0.0126984
        k(   76) = (   0.2000000  -0.6813081  -0.8881868), wk =   0.0126984
        k(   77) = (   0.4000000   0.0000000  -0.2220467), wk =   0.0063492
        k(   78) = (   0.4000000   0.0000000  -0.4440934), wk =   0.0063492
        k(   79) = (   0.4000000   0.0000000  -0.6661401), wk =   0.0063492
        k(   80) = (   0.4000000   0.0000000  -0.8881868), wk =   0.0063492
        k(   81) = (   0.4000000  -0.2271027  -0.2220467), wk =   0.0126984
        k(   82) = (   0.4000000  -0.2271027  -0.4440934), wk =   0.0126984
        k(   83) = (   0.4000000  -0.2271027  -0.6661401), wk =   0.0126984
        k(   84) = (   0.4000000  -0.2271027  -0.8881868), wk =   0.0126984
        k(   85) = (   0.4000000  -0.4542054  -0.2220467), wk =   0.0126984
        k(   86) = (   0.4000000  -0.4542054  -0.4440934), wk =   0.0126984
        k(   87) = (   0.4000000  -0.4542054  -0.6661401), wk =   0.0126984
        k(   88) = (   0.4000000  -0.4542054  -0.8881868), wk =   0.0126984
        k(   89) = (   0.4000000  -0.6813081  -0.2220467), wk =   0.0126984
        k(   90) = (   0.4000000  -0.6813081  -0.4440934), wk =   0.0126984
        k(   91) = (   0.4000000  -0.6813081  -0.6661401), wk =   0.0126984
        k(   92) = (   0.4000000  -0.6813081  -0.8881868), wk =   0.0126984

                       cryst. coord.
        k(    1) = (   0.0000000   0.0000000   0.0000000), wk =   0.0031746
        k(    2) = (   0.0000000   0.0000000   0.1111111), wk =   0.0063492
        k(    3) = (   0.0000000   0.0000000   0.2222222), wk =   0.0063492
        k(    4) = (   0.0000000   0.0000000   0.3333333), wk =   0.0063492
        k(    5) = (   0.0000000   0.0000000   0.4444444), wk =   0.0063492
        k(    6) = (   0.0000000   0.1428571   0.0000000), wk =   0.0063492
        k(    7) = (   0.0000000   0.1428571   0.1111111), wk =   0.0126984
        k(    8) = (   0.0000000   0.1428571   0.2222222), wk =   0.0126984
        k(    9) = (   0.0000000   0.1428571   0.3333333), wk =   0.0126984
        k(   10) = (   0.0000000   0.1428571   0.4444444), wk =   0.0126984
        k(   11) = (   0.0000000   0.2857143   0.0000000), wk =   0.0063492
        k(   12) = (   0.0000000   0.2857143   0.1111111), wk =   0.0126984
        k(   13) = (   0.0000000   0.2857143   0.2222222), wk =   0.0126984
        k(   14) = (   0.0000000   0.2857143   0.3333333), wk =   0.0126984
        k(   15) = (   0.0000000   0.2857143   0.4444444), wk =   0.0126984
        k(   16) = (   0.0000000   0.4285714   0.0000000), wk =   0.0063492
        k(   17) = (   0.0000000   0.4285714   0.1111111), wk =   0.0126984
        k(   18) = (   0.0000000   0.4285714   0.2222222), wk =   0.0126984
        k(   19) = (   0.0000000   0.4285714   0.3333333), wk =   0.0126984
        k(   20) = (   0.0000000   0.4285714   0.4444444), wk =   0.0126984
        k(   21) = (   0.2000000   0.0000000   0.0000000), wk =   0.0063492
        k(   22) = (   0.2000000   0.0000000   0.1111111), wk =   0.0063492
        k(   23) = (   0.2000000   0.0000000   0.2222222), wk =   0.0063492
        k(   24) = (   0.2000000   0.0000000   0.3333333), wk =   0.0063492
        k(   25) = (   0.2000000   0.0000000   0.4444444), wk =   0.0063492
        k(   26) = (   0.2000000   0.1428571   0.0000000), wk =   0.0126984
        k(   27) = (   0.2000000   0.1428571   0.1111111), wk =   0.0126984
        k(   28) = (   0.2000000   0.1428571   0.2222222), wk =   0.0126984
        k(   29) = (   0.2000000   0.1428571   0.3333333), wk =   0.0126984
        k(   30) = (   0.2000000   0.1428571   0.4444444), wk =   0.0126984
        k(   31) = (   0.2000000   0.2857143   0.0000000), wk =   0.0126984
        k(   32) = (   0.2000000   0.2857143   0.1111111), wk =   0.0126984
        k(   33) = (   0.2000000   0.2857143   0.2222222), wk =   0.0126984
        k(   34) = (   0.2000000   0.2857143   0.3333333), wk =   0.0126984
        k(   35) = (   0.2000000   0.2857143   0.4444444), wk =   0.0126984
        k(   36) = (   0.2000000   0.4285714   0.0000000), wk =   0.0126984
        k(   37) = (   0.2000000   0.4285714   0.1111111), wk =   0.0126984
        k(   38) = (   0.2000000   0.4285714   0.2222222), wk =   0.0126984
        k(   39) = (   0.2000000   0.4285714   0.3333333), wk =   0.0126984
        k(   40) = (   0.2000000   0.4285714   0.4444444), wk =   0.0126984
        k(   41) = (   0.4000000   0.0000000   0.0000000), wk =   0.0063492
        k(   42) = (   0.4000000   0.0000000   0.1111111), wk =   0.0063492
        k(   43) = (   0.4000000   0.0000000   0.2222222), wk =   0.0063492
        k(   44) = (   0.4000000   0.0000000   0.3333333), wk =   0.0063492
        k(   45) = (   0.4000000   0.0000000   0.4444444), wk =   0.0063492
        k(   46) = (   0.4000000   0.1428571   0.0000000), wk =   0.0126984
        k(   47) = (   0.4000000   0.1428571   0.1111111), wk =   0.0126984
        k(   48) = (   0.4000000   0.1428571   0.2222222), wk =   0.0126984
        k(   49) = (   0.4000000   0.1428571   0.3333333), wk =   0.0126984
        k(   50) = (   0.4000000   0.1428571   0.4444444), wk =   0.0126984
        k(   51) = (   0.4000000   0.2857143   0.0000000), wk =   0.0126984
        k(   52) = (   0.4000000   0.2857143   0.1111111), wk =   0.0126984
        k(   53) = (   0.4000000   0.2857143   0.2222222), wk =   0.0126984
        k(   54) = (   0.4000000   0.2857143   0.3333333), wk =   0.0126984
        k(   55) = (   0.4000000   0.2857143   0.4444444), wk =   0.0126984
        k(   56) = (   0.4000000   0.4285714   0.0000000), wk =   0.0126984
        k(   57) = (   0.4000000   0.4285714   0.1111111), wk =   0.0126984
        k(   58) = (   0.4000000   0.4285714   0.2222222), wk =   0.0126984
        k(   59) = (   0.4000000   0.4285714   0.3333333), wk =   0.0126984
        k(   60) = (   0.4000000   0.4285714   0.4444444), wk =   0.0126984
        k(   61) = (   0.2000000   0.0000000  -0.1111111), wk =   0.0063492
        k(   62) = (   0.2000000   0.0000000  -0.2222222), wk =   0.0063492
        k(   63) = (   0.2000000   0.0000000  -0.3333333), wk =   0.0063492
        k(   64) = (   0.2000000   0.0000000  -0.4444444), wk =   0.0063492
        k(   65) = (   0.2000000  -0.1428571  -0.1111111), wk =   0.0126984
        k(   66) = (   0.2000000  -0.1428571  -0.2222222), wk =   0.0126984
        k(   67) = (   0.2000000  -0.1428571  -0.3333333), wk =   0.0126984
        k(   68) = (   0.2000000  -0.1428571  -0.4444444), wk =   0.0126984
        k(   69) = (   0.2000000  -0.2857143  -0.1111111), wk =   0.0126984
        k(   70) = (   0.2000000  -0.2857143  -0.2222222), wk =   0.0126984
        k(   71) = (   0.2000000  -0.2857143  -0.3333333), wk =   0.0126984
        k(   72) = (   0.2000000  -0.2857143  -0.4444444), wk =   0.0126984
        k(   73) = (   0.2000000  -0.4285714  -0.1111111), wk =   0.0126984
        k(   74) = (   0.2000000  -0.4285714  -0.2222222), wk =   0.0126984
        k(   75) = (   0.2000000  -0.4285714  -0.3333333), wk =   0.0126984
        k(   76) = (   0.2000000  -0.4285714  -0.4444444), wk =   0.0126984
        k(   77) = (   0.4000000   0.0000000  -0.1111111), wk =   0.0063492
        k(   78) = (   0.4000000   0.0000000  -0.2222222), wk =   0.0063492
        k(   79) = (   0.4000000   0.0000000  -0.3333333), wk =   0.0063492
        k(   80) = (   0.4000000   0.0000000  -0.4444444), wk =   0.0063492
        k(   81) = (   0.4000000  -0.1428571  -0.1111111), wk =   0.0126984
        k(   82) = (   0.4000000  -0.1428571  -0.2222222), wk =   0.0126984
        k(   83) = (   0.4000000  -0.1428571  -0.3333333), wk =   0.0126984
        k(   84) = (   0.4000000  -0.1428571  -0.4444444), wk =   0.0126984
        k(   85) = (   0.4000000  -0.2857143  -0.1111111), wk =   0.0126984
        k(   86) = (   0.4000000  -0.2857143  -0.2222222), wk =   0.0126984
        k(   87) = (   0.4000000  -0.2857143  -0.3333333), wk =   0.0126984
        k(   88) = (   0.4000000  -0.2857143  -0.4444444), wk =   0.0126984
        k(   89) = (   0.4000000  -0.4285714  -0.1111111), wk =   0.0126984
        k(   90) = (   0.4000000  -0.4285714  -0.2222222), wk =   0.0126984
        k(   91) = (   0.4000000  -0.4285714  -0.3333333), wk =   0.0126984
        k(   92) = (   0.4000000  -0.4285714  -0.4444444), wk =   0.0126984

     Dense  grid:  1230153 G-vectors     FFT dimensions: ( 200, 128, 100)

     Smooth grid:   277403 G-vectors     FFT dimensions: ( 120,  80,  60)

     Dynamical RAM for                 wfc:       2.51 MB

     Dynamical RAM for     wfc (w. buffer):     464.69 MB

     Dynamical RAM for           str. fact:       3.13 MB

     Dynamical RAM for           local pot:       0.00 MB

     Dynamical RAM for          nlocal pot:       6.17 MB

     Dynamical RAM for                qrad:      10.54 MB

     Dynamical RAM for          rho,v,vnew:      10.55 MB

     Dynamical RAM for               rhoin:       3.52 MB

     Dynamical RAM for            rho*nmix:      25.03 MB

     Dynamical RAM for           G-vectors:       3.02 MB

     Dynamical RAM for          h,s,v(r/c):       2.38 MB

     Dynamical RAM for          <psi|beta>:       0.49 MB

     Dynamical RAM for                 psi:       5.02 MB

     Dynamical RAM for                hpsi:       5.02 MB

     Dynamical RAM for                spsi:       5.02 MB

     Dynamical RAM for      wfcinit/wfcrot:       6.47 MB

     Dynamical RAM for           addusdens:     158.77 MB

     Dynamical RAM for          addusforce:     182.36 MB

     Dynamical RAM for         addusstress:     158.38 MB

     Estimated static dynamical RAM per process >     536.42 MB

     Estimated max dynamical RAM per process >     718.78 MB

     Estimated total dynamical RAM >      16.85 GB

     Check: negative core charge=   -0.000003
     Generating pointlists ...
     new r_m :   0.0773 (alat units)  1.4449 (a.u.) for type    1
     new r_m :   0.0899 (alat units)  1.6792 (a.u.) for type    2
     new r_m :   0.0611 (alat units)  1.1421 (a.u.) for type    3
     new r_m :   0.0611 (alat units)  1.1421 (a.u.) for type    4

     Initial potential from superposition of free atoms

     starting charge  188.99132, renormalised to  189.00000
     Starting wfcs are  137 randomized atomic wfcs
     Checking if some PAW data can be deallocated... 
       PAW data deallocated on   20 nodes for type:  1
       PAW data deallocated on    8 nodes for type:  3

     total cpu time spent up to now is      118.9 secs

     Self-consistent Calculation

     iteration #  1     ecut=   100.00 Ry     beta= 0.40
     Davidson diagonalization with overlap
     ethr =  1.00E-02,  avg # of iterations =  3.2

     negative rho (up, down):  0.000E+00 1.396E-04

     total cpu time spent up to now is      481.5 secs

     total energy              =   -2123.89568610 Ry
     estimated scf accuracy    <       6.96222570 Ry

     total magnetization       =    19.00 Bohr mag/cell
     absolute magnetization    =    19.01 Bohr mag/cell

     iteration #  2     ecut=   100.00 Ry     beta= 0.40
     Davidson diagonalization with overlap
     ethr =  3.68E-03,  avg # of iterations =  2.0

     negative rho (up, down):  0.000E+00 8.711E-05

     total cpu time spent up to now is      792.4 secs

     total energy              =   -2120.76746345 Ry
     estimated scf accuracy    <      44.66852980 Ry

     total magnetization       =     7.17 Bohr mag/cell
     absolute magnetization    =     8.45 Bohr mag/cell

     iteration #  3     ecut=   100.00 Ry     beta= 0.40
     Davidson diagonalization with overlap
     ethr =  3.68E-03,  avg # of iterations =  2.8

     negative rho (up, down):  0.000E+00 5.927E-05

     total cpu time spent up to now is     1068.6 secs

     total energy              =   -2123.49354718 Ry
     estimated scf accuracy    <      54.60760545 Ry

     total magnetization       =     4.01 Bohr mag/cell
     absolute magnetization    =     7.84 Bohr mag/cell

     iteration #  4     ecut=   100.00 Ry     beta= 0.40
     Davidson diagonalization with overlap
     ethr =  3.68E-03,  avg # of iterations =  1.8

     negative rho (up, down):  0.000E+00 5.174E-05

     total cpu time spent up to now is     1314.4 secs

     total energy              =   -2124.58263543 Ry
     estimated scf accuracy    <      29.84089618 Ry

     total magnetization       =     9.00 Bohr mag/cell
     absolute magnetization    =     9.35 Bohr mag/cell

     iteration #  5     ecut=   100.00 Ry     beta= 0.40
     Davidson diagonalization with overlap
     ethr =  3.68E-03,  avg # of iterations =  2.0

     negative rho (up, down):  0.000E+00 1.580E-04

     total cpu time spent up to now is     1575.9 secs

     total energy              =   -2125.94572567 Ry
     estimated scf accuracy    <       1.65190638 Ry

     total magnetization       =    19.00 Bohr mag/cell
     absolute magnetization    =    19.00 Bohr mag/cell

     iteration #  6     ecut=   100.00 Ry     beta= 0.40
     Davidson diagonalization with overlap
     ethr =  8.74E-04,  avg # of iterations =  2.0

     negative rho (up, down):  0.000E+00 2.703E-04

     total cpu time spent up to now is     1838.8 secs

     total energy              =   -2126.04839833 Ry
     estimated scf accuracy    <       0.55882686 Ry

     total magnetization       =    19.00 Bohr mag/cell
     absolute magnetization    =    19.01 Bohr mag/cell

     iteration #  7     ecut=   100.00 Ry     beta= 0.40
     Davidson diagonalization with overlap
     ethr =  2.96E-04,  avg # of iterations =  3.0

     negative rho (up, down):  0.000E+00 3.686E-04

     total cpu time spent up to now is     2097.7 secs

     total energy              =   -2126.05708066 Ry
     estimated scf accuracy    <       0.21730933 Ry

     total magnetization       =    19.00 Bohr mag/cell
     absolute magnetization    =    19.00 Bohr mag/cell

     iteration #  8     ecut=   100.00 Ry     beta= 0.40
     Davidson diagonalization with overlap
     c_bands:  1 eigenvalues not converged
     c_bands:  1 eigenvalues not converged
     c_bands:  1 eigenvalues not converged
     c_bands:  1 eigenvalues not converged
     ethr =  1.15E-04,  avg # of iterations = 11.6

     negative rho (up, down):  0.000E+00 4.559E-04

     total cpu time spent up to now is     2518.7 secs

     total energy              =   -2126.05061724 Ry
     estimated scf accuracy    <       0.37186447 Ry

     total magnetization       =    19.00 Bohr mag/cell
     absolute magnetization    =    19.01 Bohr mag/cell

     iteration #  9     ecut=   100.00 Ry     beta= 0.40
     Davidson diagonalization with overlap
     ethr =  1.15E-04,  avg # of iterations =  1.5

     negative rho (up, down):  0.000E+00 5.551E-04

     total cpu time spent up to now is     2749.0 secs

     total energy              =   -2126.07277918 Ry
     estimated scf accuracy    <       0.06163394 Ry

     total magnetization       =    19.00 Bohr mag/cell
     absolute magnetization    =    19.01 Bohr mag/cell

     iteration # 10     ecut=   100.00 Ry     beta= 0.40
     Davidson diagonalization with overlap
     c_bands:  1 eigenvalues not converged
     c_bands:  1 eigenvalues not converged
     c_bands:  1 eigenvalues not converged
     ethr =  3.26E-05,  avg # of iterations =  6.5

     negative rho (up, down):  0.000E+00 7.323E-04

     total cpu time spent up to now is     3070.9 secs

     total energy              =   -2126.07866673 Ry
     estimated scf accuracy    <       0.01672103 Ry

     total magnetization       =    19.00 Bohr mag/cell
     absolute magnetization    =    19.02 Bohr mag/cell

     iteration # 11     ecut=   100.00 Ry     beta= 0.40
     Davidson diagonalization with overlap
     c_bands:  1 eigenvalues not converged
     c_bands:  1 eigenvalues not converged
     c_bands:  1 eigenvalues not converged
     c_bands:  1 eigenvalues not converged
     c_bands:  1 eigenvalues not converged
     c_bands:  1 eigenvalues not converged
     c_bands:  1 eigenvalues not converged
     c_bands:  1 eigenvalues not converged
     c_bands:  1 eigenvalues not converged
     c_bands:  1 eigenvalues not converged
     ethr =  8.85E-06,  avg # of iterations = 11.0

     negative rho (up, down):  0.000E+00 7.933E-04

     total cpu time spent up to now is     3510.9 secs

     total energy              =   -2126.08128570 Ry
     estimated scf accuracy    <       0.08451464 Ry

     total magnetization       =    19.00 Bohr mag/cell
     absolute magnetization    =    19.03 Bohr mag/cell

     iteration # 12     ecut=   100.00 Ry     beta= 0.40
     Davidson diagonalization with overlap
     ethr =  8.85E-06,  avg # of iterations =  1.3

     negative rho (up, down):  0.000E+00 8.086E-04

     total cpu time spent up to now is     3737.7 secs

     total energy              =   -2126.08152009 Ry
     estimated scf accuracy    <       0.03876842 Ry

     total magnetization       =    19.00 Bohr mag/cell
     absolute magnetization    =    19.03 Bohr mag/cell

     iteration # 13     ecut=   100.00 Ry     beta= 0.40
     Davidson diagonalization with overlap
     ethr =  8.85E-06,  avg # of iterations =  1.0

     negative rho (up, down):  0.000E+00 8.118E-04

     total cpu time spent up to now is     3957.3 secs

     total energy              =   -2126.08257055 Ry
     estimated scf accuracy    <       0.00069541 Ry

     total magnetization       =    19.00 Bohr mag/cell
     absolute magnetization    =    19.04 Bohr mag/cell

     iteration # 14     ecut=   100.00 Ry     beta= 0.40
     Davidson diagonalization with overlap
     c_bands:  1 eigenvalues not converged
     c_bands:  1 eigenvalues not converged
     c_bands:  1 eigenvalues not converged
     c_bands:  1 eigenvalues not converged
     c_bands:  1 eigenvalues not converged
     c_bands:  1 eigenvalues not converged
     c_bands:  1 eigenvalues not converged
     c_bands:  2 eigenvalues not converged
     ethr =  3.68E-07,  avg # of iterations =  7.7

     negative rho (up, down):  0.000E+00 8.150E-04

     total cpu time spent up to now is     4475.3 secs

     total energy              =   -2126.08292366 Ry
     estimated scf accuracy    <       0.01288223 Ry

     total magnetization       =    19.00 Bohr mag/cell
     absolute magnetization    =    19.04 Bohr mag/cell

     iteration # 15     ecut=   100.00 Ry     beta= 0.40
     Davidson diagonalization with overlap
     c_bands:  1 eigenvalues not converged
     ethr =  3.68E-07,  avg # of iterations =  1.4

     negative rho (up, down):  0.000E+00 8.117E-04

     total cpu time spent up to now is     4703.4 secs

     total energy              =   -2126.08298571 Ry
     estimated scf accuracy    <       0.00177793 Ry

     total magnetization       =    19.00 Bohr mag/cell
     absolute magnetization    =    19.04 Bohr mag/cell

     iteration # 16     ecut=   100.00 Ry     beta= 0.40
     Davidson diagonalization with overlap
     ethr =  3.68E-07,  avg # of iterations =  1.0

     negative rho (up, down):  0.000E+00 8.063E-04

     total cpu time spent up to now is     4922.9 secs

     total energy              =   -2126.08302525 Ry
     estimated scf accuracy    <       0.00005970 Ry

     total magnetization       =    19.00 Bohr mag/cell
     absolute magnetization    =    19.04 Bohr mag/cell

     iteration # 17     ecut=   100.00 Ry     beta= 0.40
     Davidson diagonalization with overlap
     ethr =  3.16E-08,  avg # of iterations =  1.1

     negative rho (up, down):  0.000E+00 8.008E-04

     total cpu time spent up to now is     5145.3 secs

     total energy              =   -2126.08302912 Ry
     estimated scf accuracy    <       0.00002153 Ry

     total magnetization       =    19.00 Bohr mag/cell
     absolute magnetization    =    19.04 Bohr mag/cell

     iteration # 18     ecut=   100.00 Ry     beta= 0.40
     Davidson diagonalization with overlap
     ethr =  1.14E-08,  avg # of iterations =  1.9

     negative rho (up, down):  0.000E+00 7.990E-04

     total cpu time spent up to now is     5391.5 secs

     total energy              =   -2126.08303139 Ry
     estimated scf accuracy    <       0.00000329 Ry

     total magnetization       =    19.00 Bohr mag/cell
     absolute magnetization    =    19.04 Bohr mag/cell

     iteration # 19     ecut=   100.00 Ry     beta= 0.40
     Davidson diagonalization with overlap
     ethr =  1.74E-09,  avg # of iterations =  4.8

     negative rho (up, down):  0.000E+00 7.984E-04

     total cpu time spent up to now is     5805.5 secs

     total energy              =   -2126.08303327 Ry
     estimated scf accuracy    <       0.00000183 Ry

     total magnetization       =    19.00 Bohr mag/cell
     absolute magnetization    =    19.04 Bohr mag/cell

     iteration # 20     ecut=   100.00 Ry     beta= 0.40
     Davidson diagonalization with overlap
     ethr =  9.66E-10,  avg # of iterations =  1.9

     negative rho (up, down):  0.000E+00 7.988E-04

     total cpu time spent up to now is     6058.4 secs

     total energy              =   -2126.08303349 Ry
     estimated scf accuracy    <       0.00000123 Ry

     total magnetization       =    19.00 Bohr mag/cell
     absolute magnetization    =    19.04 Bohr mag/cell

     iteration # 21     ecut=   100.00 Ry     beta= 0.40
     Davidson diagonalization with overlap
     ethr =  6.50E-10,  avg # of iterations =  1.0

     negative rho (up, down):  0.000E+00 7.990E-04

     total cpu time spent up to now is     6278.6 secs

     total energy              =   -2126.08303354 Ry
     estimated scf accuracy    <       0.00000038 Ry

     total magnetization       =    19.00 Bohr mag/cell
     absolute magnetization    =    19.04 Bohr mag/cell

     iteration # 22     ecut=   100.00 Ry     beta= 0.40
     Davidson diagonalization with overlap
     ethr =  2.01E-10,  avg # of iterations =  1.9

     negative rho (up, down):  0.000E+00 7.992E-04

     total cpu time spent up to now is     6526.2 secs

     total energy              =   -2126.08303359 Ry
     estimated scf accuracy    <       0.00000014 Ry

     total magnetization       =    19.00 Bohr mag/cell
     absolute magnetization    =    19.04 Bohr mag/cell

     iteration # 23     ecut=   100.00 Ry     beta= 0.40
     Davidson diagonalization with overlap
     ethr =  7.22E-11,  avg # of iterations =  1.8

     negative rho (up, down):  0.000E+00 7.993E-04

     total cpu time spent up to now is     6769.0 secs

     total energy              =   -2126.08303361 Ry
     estimated scf accuracy    <       0.00000002 Ry

     total magnetization       =    19.00 Bohr mag/cell
     absolute magnetization    =    19.04 Bohr mag/cell

     iteration # 24     ecut=   100.00 Ry     beta= 0.40
     Davidson diagonalization with overlap
     ethr =  1.13E-11,  avg # of iterations =  4.4

     negative rho (up, down):  0.000E+00 7.993E-04

     total cpu time spent up to now is     7146.4 secs

     total energy              =   -2126.08303362 Ry
     estimated scf accuracy    <          7.3E-09 Ry

     total magnetization       =    19.00 Bohr mag/cell
     absolute magnetization    =    19.04 Bohr mag/cell

     iteration # 25     ecut=   100.00 Ry     beta= 0.40
     Davidson diagonalization with overlap
     ethr =  3.88E-12,  avg # of iterations =  2.3

     negative rho (up, down):  0.000E+00 7.993E-04

     total cpu time spent up to now is     7417.8 secs

     total energy              =   -2126.08303362 Ry
     estimated scf accuracy    <          2.8E-09 Ry

     total magnetization       =    19.00 Bohr mag/cell
     absolute magnetization    =    19.04 Bohr mag/cell

     iteration # 26     ecut=   100.00 Ry     beta= 0.40
     Davidson diagonalization with overlap
     ethr =  1.48E-12,  avg # of iterations =  2.4

     negative rho (up, down):  0.000E+00 7.993E-04

     total cpu time spent up to now is     7685.3 secs

     total energy              =   -2126.08303362 Ry
     estimated scf accuracy    <          6.2E-09 Ry

     total magnetization       =    19.00 Bohr mag/cell
     absolute magnetization    =    19.04 Bohr mag/cell

     iteration # 27     ecut=   100.00 Ry     beta= 0.40
     Davidson diagonalization with overlap
     ethr =  1.48E-12,  avg # of iterations =  2.0

     negative rho (up, down):  0.000E+00 7.993E-04

     total cpu time spent up to now is     7951.3 secs

     total energy              =   -2126.08303362 Ry
     estimated scf accuracy    <          2.9E-09 Ry

     total magnetization       =    19.00 Bohr mag/cell
     absolute magnetization    =    19.04 Bohr mag/cell

     iteration # 28     ecut=   100.00 Ry     beta= 0.40
     Davidson diagonalization with overlap
     ethr =  1.48E-12,  avg # of iterations =  1.5

     negative rho (up, down):  0.000E+00 7.993E-04

     total cpu time spent up to now is     8186.9 secs

     total energy              =   -2126.08303362 Ry
     estimated scf accuracy    <          2.4E-09 Ry

     total magnetization       =    19.00 Bohr mag/cell
     absolute magnetization    =    19.04 Bohr mag/cell

     iteration # 29     ecut=   100.00 Ry     beta= 0.40
     Davidson diagonalization with overlap
     ethr =  1.28E-12,  avg # of iterations =  1.0

     negative rho (up, down):  0.000E+00 7.993E-04

     total cpu time spent up to now is     8405.9 secs

     total energy              =   -2126.08303362 Ry
     estimated scf accuracy    <          3.1E-10 Ry

     total magnetization       =    19.00 Bohr mag/cell
     absolute magnetization    =    19.04 Bohr mag/cell

     iteration # 30     ecut=   100.00 Ry     beta= 0.40
     Davidson diagonalization with overlap
     ethr =  1.66E-13,  avg # of iterations =  3.5

     negative rho (up, down):  0.000E+00 7.993E-04

     Magnetic moment per site:
     atom:    1    charge:    7.8567    magn:    0.0007    constr:    0.0000
     atom:    2    charge:   12.6890    magn:    3.6079    constr:    0.0000
     atom:    3    charge:   12.6958    magn:    3.5926    constr:    0.0000
     atom:    4    charge:   12.7368    magn:    3.4774    constr:    0.0000
     atom:    5    charge:   12.6954    magn:    3.5972    constr:    0.0000
     atom:    6    charge:    0.7286    magn:    0.0099    constr:    0.0000
     atom:    7    charge:    0.7306    magn:    0.0078    constr:    0.0000
     atom:    8    charge:    0.7327    magn:    0.0107    constr:    0.0000
     atom:    9    charge:    0.7266    magn:    0.0086    constr:    0.0000
     atom:   10    charge:    4.0165    magn:    0.1331    constr:    0.0000
     atom:   11    charge:    4.0329    magn:    0.0891    constr:    0.0000
     atom:   12    charge:    4.0181    magn:    0.1213    constr:    0.0000
     atom:   13    charge:    4.0142    magn:    0.1099    constr:    0.0000
     atom:   14    charge:    4.0625    magn:    0.1067    constr:    0.0000
     atom:   15    charge:    4.0699    magn:    0.1170    constr:    0.0000
     atom:   16    charge:    4.0603    magn:    0.0738    constr:    0.0000
     atom:   17    charge:    4.0640    magn:    0.1268    constr:    0.0000
     atom:   18    charge:    3.9901    magn:    0.1478    constr:    0.0000
     atom:   19    charge:    3.9924    magn:    0.1298    constr:    0.0000
     atom:   20    charge:    3.9967    magn:    0.1408    constr:    0.0000
     atom:   21    charge:    3.9889    magn:    0.1233    constr:    0.0000
     atom:   22    charge:    3.9967    magn:    0.1408    constr:    0.0000
     atom:   23    charge:    3.9889    magn:    0.1233    constr:    0.0000
     atom:   24    charge:    3.9901    magn:    0.1478    constr:    0.0000
     atom:   25    charge:    3.9924    magn:    0.1298    constr:    0.0000

     total cpu time spent up to now is     8700.2 secs

     End of self-consistent calculation

 ------ SPIN UP ------------


          k = 0.0000 0.0000 0.0000 ( 34615 PWs)   bands (ev):

   -84.5097 -84.5075 -84.4936 -84.0301 -50.6720 -50.6013 -50.5764 -50.4850
   -50.4791 -50.4497 -50.4486 -50.3896 -50.3803 -50.3700 -49.9711 -49.7970
   -44.5747 -16.6466 -16.5790 -16.5096 -16.0801 -15.8804 -15.6606 -15.6021
   -13.7911 -13.5605 -13.3758 -13.3650 -13.2751 -13.2387 -13.0336 -12.9773
   -12.9217 -12.9076 -12.7845 -12.6673  -3.7996  -3.3527  -3.0487  -2.6657
    -2.0663  -1.7738  -1.3914  -1.2299  -1.1782  -1.0798  -0.9266  -0.7969
    -0.6436  -0.6428  -0.3423  -0.0473   0.1550   0.1683   0.6588   0.7467
     0.8485   0.8516   1.0766   1.1487   1.1882   1.2488   1.3274   1.4132
     1.5279   1.8841   1.9111   1.9699   2.0376   2.0434   2.1541   2.2532
     2.3065   2.3908   2.7532   2.7819   2.8096   2.8505   2.9578   3.0165
     3.0683   3.2381   3.2699   3.4037   3.4549   3.6612   3.7792   3.7916
     3.8674   3.9634   4.0154   4.1315   4.2082   4.3064   4.3716   4.4847
     4.5785   4.7953   4.8100   4.9939   5.1815   5.3845   5.4569   5.5750
    10.0819  12.1250  12.5127  13.0032  13.3050  13.6088  14.2727  14.3547
    14.4185  14.6733

     occupation numbers 
     1.0000   1.0000   1.0000   1.0000   1.0000   1.0000   1.0000   1.0000
     1.0000   1.0000   1.0000   1.0000   1.0000   1.0000   1.0000   1.0000
     1.0000   1.0000   1.0000   1.0000   1.0000   1.0000   1.0000   1.0000
     1.0000   1.0000   1.0000   1.0000   1.0000   1.0000   1.0000   1.0000
     1.0000   1.0000   1.0000   1.0000   1.0000   1.0000   1.0000   1.0000
     1.0000   1.0000   1.0000   1.0000   1.0000   1.0000   1.0000   1.0000
     1.0000   1.0000   1.0000   1.0000   1.0000   1.0000   1.0000   1.0000
     1.0000   1.0000   1.0000   1.0000   1.0000   1.0000   1.0000   1.0000
     1.0000   1.0000   1.0000   1.0000   1.0000   1.0000   1.0000   1.0000
     1.0000   1.0000   1.0000   1.0000   1.0000   1.0000   1.0000   1.0000
     1.0000   1.0000   1.0000   1.0000   1.0000   1.0000   1.0000   1.0000
     1.0000   1.0000   1.0000   1.0000   1.0000   1.0000   1.0000   1.0000
     1.0000   1.0000   1.0000   1.0000   1.0000   1.0000   1.0000   1.0000
     0.0000   0.0000   0.0000   0.0000   0.0000   0.0000   0.0000   0.0000
     0.0000   0.0000

          k = 0.0000 0.0000 0.2220 ( 34593 PWs)   bands (ev):

   -84.5097 -84.5075 -84.4936 -84.0301 -50.6720 -50.6013 -50.5764 -50.4850
   -50.4791 -50.4497 -50.4486 -50.3896 -50.3803 -50.3700 -49.9711 -49.7970
   -44.5747 -16.6501 -16.5870 -16.5096 -16.0635 -15.8714 -15.6553 -15.5979
   -13.7870 -13.5603 -13.3811 -13.3666 -13.2866 -13.2431 -13.0291 -12.9922
   -12.9205 -12.9173 -12.7885 -12.6715  -3.7736  -3.3438  -3.0498  -2.6807
    -2.0214  -1.7526  -1.3930  -1.2206  -1.1711  -1.0940  -0.9106  -0.7766
    -0.6382  -0.6059  -0.3867  -0.0176   0.1365   0.1758   0.6576   0.7561
     0.8518   0.8893   1.0767   1.1527   1.1858   1.2240   1.3172   1.4602
     1.5063   1.8700   1.8724   1.9348   2.0081   2.0293   2.1141   2.1569
     2.3975   2.4565   2.6657   2.7499   2.7998   2.8501   2.8978   3.0656
     3.0826   3.1679   3.3035   3.4833   3.5295   3.6528   3.7191   3.7846
     3.8113   3.9672   4.0360   4.0709   4.2321   4.3069   4.4339   4.4829
     4.6078   4.7835   4.8461   4.9878   5.1814   5.3611   5.4309   5.5541
    10.2337  12.1954  12.5855  12.9958  13.3554  13.5780  14.1344  14.3028
    14.3714  14.5661

     occupation numbers 
     1.0000   1.0000   1.0000   1.0000   1.0000   1.0000   1.0000   1.0000
     1.0000   1.0000   1.0000   1.0000   1.0000   1.0000   1.0000   1.0000
     1.0000   1.0000   1.0000   1.0000   1.0000   1.0000   1.0000   1.0000
     1.0000   1.0000   1.0000   1.0000   1.0000   1.0000   1.0000   1.0000
     1.0000   1.0000   1.0000   1.0000   1.0000   1.0000   1.0000   1.0000
     1.0000   1.0000   1.0000   1.0000   1.0000   1.0000   1.0000   1.0000
     1.0000   1.0000   1.0000   1.0000   1.0000   1.0000   1.0000   1.0000
     1.0000   1.0000   1.0000   1.0000   1.0000   1.0000   1.0000   1.0000
     1.0000   1.0000   1.0000   1.0000   1.0000   1.0000   1.0000   1.0000
     1.0000   1.0000   1.0000   1.0000   1.0000   1.0000   1.0000   1.0000
     1.0000   1.0000   1.0000   1.0000   1.0000   1.0000   1.0000   1.0000
     1.0000   1.0000   1.0000   1.0000   1.0000   1.0000   1.0000   1.0000
     1.0000   1.0000   1.0000   1.0000   1.0000   1.0000   1.0000   1.0000
     0.0000   0.0000   0.0000   0.0000   0.0000   0.0000   0.0000   0.0000
     0.0000   0.0000

          k = 0.0000 0.0000 0.4441 ( 34664 PWs)   bands (ev):

   -84.5097 -84.5075 -84.4936 -84.0301 -50.6720 -50.6013 -50.5764 -50.4850
   -50.4791 -50.4497 -50.4486 -50.3896 -50.3803 -50.3700 -49.9711 -49.7970
   -44.5747 -16.6636 -16.6000 -16.5095 -16.0238 -15.8481 -15.6410 -15.5880
   -13.7755 -13.5622 -13.4053 -13.3651 -13.3116 -13.2508 -13.0313 -13.0170
   -12.9534 -12.9055 -12.7992 -12.6830  -3.7003  -3.3279  -3.0493  -2.7289
    -1.9028  -1.6980  -1.3994  -1.2180  -1.1453  -1.1038  -0.8878  -0.6833
    -0.6306  -0.5304  -0.4891   0.0387   0.0716   0.2467   0.6624   0.7858
     0.8695   0.9707   1.0736   1.1696   1.1729   1.2198   1.2807   1.4774
     1.5270   1.7647   1.8656   1.8800   1.9539   1.9863   1.9976   2.0636
     2.3399   2.4376   2.6221   2.6716   2.7696   2.7701   2.9689   3.0136
     3.1395   3.1403   3.4409   3.4757   3.5159   3.6364   3.6753   3.7438
     3.8145   3.9474   3.9964   4.1485   4.2800   4.3174   4.4760   4.5476
     4.6899   4.7489   4.9019   4.9973   5.1807   5.3044   5.3513   5.4896
    10.6430  12.3813  12.7747  13.0160  13.4461  13.5452  13.8539  14.0917
    14.2195  14.3525

     occupation numbers 
     1.0000   1.0000   1.0000   1.0000   1.0000   1.0000   1.0000   1.0000
     1.0000   1.0000   1.0000   1.0000   1.0000   1.0000   1.0000   1.0000
     1.0000   1.0000   1.0000   1.0000   1.0000   1.0000   1.0000   1.0000
     1.0000   1.0000   1.0000   1.0000   1.0000   1.0000   1.0000   1.0000
     1.0000   1.0000   1.0000   1.0000   1.0000   1.0000   1.0000   1.0000
     1.0000   1.0000   1.0000   1.0000   1.0000   1.0000   1.0000   1.0000
     1.0000   1.0000   1.0000   1.0000   1.0000   1.0000   1.0000   1.0000
     1.0000   1.0000   1.0000   1.0000   1.0000   1.0000   1.0000   1.0000
     1.0000   1.0000   1.0000   1.0000   1.0000   1.0000   1.0000   1.0000
     1.0000   1.0000   1.0000   1.0000   1.0000   1.0000   1.0000   1.0000
     1.0000   1.0000   1.0000   1.0000   1.0000   1.0000   1.0000   1.0000
     1.0000   1.0000   1.0000   1.0000   1.0000   1.0000   1.0000   1.0000
     1.0000   1.0000   1.0000   1.0000   1.0000   1.0000   1.0000   1.0000
     0.0000   0.0000   0.0000   0.0000   0.0000   0.0000   0.0000   0.0000
     0.0000   0.0000

          k = 0.0000 0.0000 0.6661 ( 34722 PWs)   bands (ev):

   -84.5097 -84.5075 -84.4936 -84.0301 -50.6720 -50.6013 -50.5764 -50.4850
   -50.4791 -50.4497 -50.4486 -50.3896 -50.3803 -50.3700 -49.9711 -49.7970
   -44.5747 -16.6847 -16.6057 -16.5093 -15.9814 -15.8205 -15.6224 -15.5794
   -13.7594 -13.5714 -13.4367 -13.3726 -13.3234 -13.2563 -13.0781 -13.0013
   -12.9923 -12.8909 -12.8126 -12.6979  -3.5949  -3.3286  -3.0408  -2.8025
    -1.7695  -1.6365  -1.4009  -1.2374  -1.0911  -1.0825  -0.8627  -0.7127
    -0.5718  -0.5067  -0.4450  -0.1120   0.2237   0.3895   0.6840   0.8383
     0.9195   1.0073   1.0646   1.1221   1.2083   1.2097   1.2719   1.4863
     1.5453   1.6357   1.7544   1.7819   1.9119   1.9528   1.9942   2.0406
     2.0783   2.2807   2.5384   2.6028   2.6724   2.8959   2.9355   3.1134
     3.1797   3.2120   3.2671   3.4070   3.5558   3.5729   3.6721   3.7282
     3.8361   3.9034   4.0936   4.2908   4.3303   4.4126   4.4856   4.6190
     4.6968   4.8140   4.9459   5.0267   5.1769   5.2155   5.2520   5.3800
    11.2114  12.6143  12.8815  13.1651  13.3385  13.6087  13.6977  13.9420
    13.9974  14.0433

     occupation numbers 
     1.0000   1.0000   1.0000   1.0000   1.0000   1.0000   1.0000   1.0000
     1.0000   1.0000   1.0000   1.0000   1.0000   1.0000   1.0000   1.0000
     1.0000   1.0000   1.0000   1.0000   1.0000   1.0000   1.0000   1.0000
     1.0000   1.0000   1.0000   1.0000   1.0000   1.0000   1.0000   1.0000
     1.0000   1.0000   1.0000   1.0000   1.0000   1.0000   1.0000   1.0000
     1.0000   1.0000   1.0000   1.0000   1.0000   1.0000   1.0000   1.0000
     1.0000   1.0000   1.0000   1.0000   1.0000   1.0000   1.0000   1.0000
     1.0000   1.0000   1.0000   1.0000   1.0000   1.0000   1.0000   1.0000
     1.0000   1.0000   1.0000   1.0000   1.0000   1.0000   1.0000   1.0000
     1.0000   1.0000   1.0000   1.0000   1.0000   1.0000   1.0000   1.0000
     1.0000   1.0000   1.0000   1.0000   1.0000   1.0000   1.0000   1.0000
     1.0000   1.0000   1.0000   1.0000   1.0000   1.0000   1.0000   1.0000
     1.0000   1.0000   1.0000   1.0000   1.0000   1.0000   1.0000   1.0000
     0.0000   0.0000   0.0000   0.0000   0.0000   0.0000   0.0000   0.0000
     0.0000   0.0000

          k = 0.0000 0.0000 0.8882 ( 34692 PWs)   bands (ev):

   -84.5097 -84.5075 -84.4936 -84.0301 -50.6720 -50.6013 -50.5764 -50.4850
   -50.4791 -50.4497 -50.4486 -50.3896 -50.3803 -50.3700 -49.9711 -49.7970
   -44.5747 -16.6995 -16.6069 -16.5092 -15.9547 -15.8019 -15.6070 -15.5771
   -13.7459 -13.5847 -13.4566 -13.3850 -13.3165 -13.2616 -13.1095 -13.0190
   -12.9896 -12.8809 -12.8218 -12.7092  -3.4892  -3.3627  -3.0253  -2.8674
    -1.6925  -1.5994  -1.3939  -1.2513  -1.0385  -1.0036  -0.8678  -0.8562
    -0.5015  -0.4163  -0.3870  -0.2759   0.3969   0.6010   0.7324   0.9003
     0.9113   0.9952   1.0444   1.0446   1.1215   1.1940   1.3038   1.4802
     1.5339   1.5753   1.6514   1.7128   1.8088   1.9122   1.9586   2.0095
     2.1246   2.2969   2.3690   2.4929   2.6522   2.8037   3.0656   3.1557
     3.1997   3.2243   3.2774   3.3221   3.4693   3.5234   3.6835   3.7430
     3.8462   3.8976   4.2225   4.3095   4.3606   4.4223   4.6452   4.6480
     4.7153   4.9491   4.9764   5.0378   5.0429   5.1622   5.2381   5.2460
    11.8408  12.4473  12.9215  13.1839  13.4807  13.5521  13.7648  13.8396
    13.9091  14.0011

     occupation numbers 
     1.0000   1.0000   1.0000   1.0000   1.0000   1.0000   1.0000   1.0000
     1.0000   1.0000   1.0000   1.0000   1.0000   1.0000   1.0000   1.0000
     1.0000   1.0000   1.0000   1.0000   1.0000   1.0000   1.0000   1.0000
     1.0000   1.0000   1.0000   1.0000   1.0000   1.0000   1.0000   1.0000
     1.0000   1.0000   1.0000   1.0000   1.0000   1.0000   1.0000   1.0000
     1.0000   1.0000   1.0000   1.0000   1.0000   1.0000   1.0000   1.0000
     1.0000   1.0000   1.0000   1.0000   1.0000   1.0000   1.0000   1.0000
     1.0000   1.0000   1.0000   1.0000   1.0000   1.0000   1.0000   1.0000
     1.0000   1.0000   1.0000   1.0000   1.0000   1.0000   1.0000   1.0000
     1.0000   1.0000   1.0000   1.0000   1.0000   1.0000   1.0000   1.0000
     1.0000   1.0000   1.0000   1.0000   1.0000   1.0000   1.0000   1.0000
     1.0000   1.0000   1.0000   1.0000   1.0000   1.0000   1.0000   1.0000
     1.0000   1.0000   1.0000   1.0000   1.0000   1.0000   1.0000   1.0000
     0.0000   0.0000   0.0000   0.0000   0.0000   0.0000   0.0000   0.0000
     0.0000   0.0000

          k = 0.0000 0.2271 0.0000 ( 34607 PWs)   bands (ev):

   -84.5097 -84.5075 -84.4936 -84.0301 -50.6720 -50.6013 -50.5764 -50.4850
   -50.4791 -50.4497 -50.4486 -50.3896 -50.3803 -50.3700 -49.9711 -49.7970
   -44.5747 -16.6463 -16.5788 -16.5111 -16.0648 -15.8765 -15.6620 -15.6172
   -13.7870 -13.5588 -13.4040 -13.3677 -13.2731 -13.2367 -13.0279 -12.9739
   -12.9313 -12.8864 -12.7863 -12.6724  -3.7775  -3.3719  -3.0255  -2.6697
    -2.0500  -1.7796  -1.3983  -1.2373  -1.1335  -1.0689  -0.9319  -0.7914
    -0.6615  -0.5681  -0.3007  -0.0168   0.0654   0.2418   0.6599   0.7628
     0.7743   0.8843   0.9645   1.0533   1.1114   1.2795   1.3900   1.4656
     1.6130   1.8641   1.9232   1.9604   1.9964   2.0641   2.0973   2.1673
     2.3314   2.4125   2.6702   2.7652   2.7923   2.8730   2.9771   3.0211
     3.1562   3.1847   3.2616   3.3236   3.4692   3.6512   3.7492   3.7862
     3.8633   3.9259   3.9902   4.1939   4.2477   4.3037   4.4061   4.4980
     4.5779   4.7612   4.8735   4.9479   5.1736   5.2542   5.5682   5.6285
    10.2316  12.2102  12.5868  12.9958  13.2875  13.6948  14.2342  14.3125
    14.3477  14.6136

     occupation numbers 
     1.0000   1.0000   1.0000   1.0000   1.0000   1.0000   1.0000   1.0000
     1.0000   1.0000   1.0000   1.0000   1.0000   1.0000   1.0000   1.0000
     1.0000   1.0000   1.0000   1.0000   1.0000   1.0000   1.0000   1.0000
     1.0000   1.0000   1.0000   1.0000   1.0000   1.0000   1.0000   1.0000
     1.0000   1.0000   1.0000   1.0000   1.0000   1.0000   1.0000   1.0000
     1.0000   1.0000   1.0000   1.0000   1.0000   1.0000   1.0000   1.0000
     1.0000   1.0000   1.0000   1.0000   1.0000   1.0000   1.0000   1.0000
     1.0000   1.0000   1.0000   1.0000   1.0000   1.0000   1.0000   1.0000
     1.0000   1.0000   1.0000   1.0000   1.0000   1.0000   1.0000   1.0000
     1.0000   1.0000   1.0000   1.0000   1.0000   1.0000   1.0000   1.0000
     1.0000   1.0000   1.0000   1.0000   1.0000   1.0000   1.0000   1.0000
     1.0000   1.0000   1.0000   1.0000   1.0000   1.0000   1.0000   1.0000
     1.0000   1.0000   1.0000   1.0000   1.0000   1.0000   1.0000   1.0000
     0.0000   0.0000   0.0000   0.0000   0.0000   0.0000   0.0000   0.0000
     0.0000   0.0000

          k = 0.0000 0.2271 0.2220 ( 34613 PWs)   bands (ev):

   -84.5097 -84.5075 -84.4936 -84.0301 -50.6720 -50.6013 -50.5764 -50.4850
   -50.4791 -50.4497 -50.4486 -50.3896 -50.3803 -50.3700 -49.9711 -49.7970
   -44.5747 -16.6497 -16.5867 -16.5110 -16.0490 -15.8672 -15.6570 -15.6123
   -13.7827 -13.5583 -13.4006 -13.3755 -13.2853 -13.2434 -13.0331 -12.9805
   -12.9414 -12.8854 -12.7894 -12.6757  -3.7520  -3.3616  -3.0276  -2.6842
    -2.0073  -1.7576  -1.3965  -1.2279  -1.1272  -1.0793  -0.9104  -0.7769
    -0.6233  -0.5680  -0.3463  -0.0225   0.0788   0.2469   0.6399   0.7664
     0.8238   0.8907   0.9688   1.0581   1.1140   1.2663   1.4123   1.4673
     1.5758   1.8605   1.8862   1.9211   1.9846   2.0230   2.0735   2.1188
     2.4052   2.4712   2.6285   2.7361   2.7907   2.8657   2.9311   2.9908
     3.1374   3.2054   3.2534   3.3989   3.4990   3.6452   3.7169   3.7550
     3.8064   3.9542   4.0085   4.1392   4.2726   4.3134   4.4476   4.5006
     4.6021   4.7552   4.9042   4.9443   5.1482   5.2527   5.5510   5.6132
    10.3782  12.2808  12.6604  13.0160  13.3132  13.6566  14.0878  14.2870
    14.3463  14.5001

     occupation numbers 
     1.0000   1.0000   1.0000   1.0000   1.0000   1.0000   1.0000   1.0000
     1.0000   1.0000   1.0000   1.0000   1.0000   1.0000   1.0000   1.0000
     1.0000   1.0000   1.0000   1.0000   1.0000   1.0000   1.0000   1.0000
     1.0000   1.0000   1.0000   1.0000   1.0000   1.0000   1.0000   1.0000
     1.0000   1.0000   1.0000   1.0000   1.0000   1.0000   1.0000   1.0000
     1.0000   1.0000   1.0000   1.0000   1.0000   1.0000   1.0000   1.0000
     1.0000   1.0000   1.0000   1.0000   1.0000   1.0000   1.0000   1.0000
     1.0000   1.0000   1.0000   1.0000   1.0000   1.0000   1.0000   1.0000
     1.0000   1.0000   1.0000   1.0000   1.0000   1.0000   1.0000   1.0000
     1.0000   1.0000   1.0000   1.0000   1.0000   1.0000   1.0000   1.0000
     1.0000   1.0000   1.0000   1.0000   1.0000   1.0000   1.0000   1.0000
     1.0000   1.0000   1.0000   1.0000   1.0000   1.0000   1.0000   1.0000
     1.0000   1.0000   1.0000   1.0000   1.0000   1.0000   1.0000   1.0000
     0.0000   0.0000   0.0000   0.0000   0.0000   0.0000   0.0000   0.0000
     0.0000   0.0000

          k = 0.0000 0.2271 0.4441 ( 34660 PWs)   bands (ev):

   -84.5097 -84.5075 -84.4936 -84.0301 -50.6720 -50.6013 -50.5764 -50.4850
   -50.4791 -50.4497 -50.4486 -50.3896 -50.3803 -50.3700 -49.9711 -49.7970
   -44.5747 -16.6630 -16.5997 -16.5107 -16.0114 -15.8428 -15.6435 -15.6005
   -13.7708 -13.5589 -13.4016 -13.3899 -13.3138 -13.2561 -13.0612 -12.9870
   -12.9671 -12.8786 -12.7979 -12.6847  -3.6803  -3.3407  -3.0307  -2.7314
    -1.8937  -1.7002  -1.3952  -1.2204  -1.1071  -1.0798  -0.8789  -0.7005
    -0.5762  -0.5346  -0.4529  -0.0624   0.1350   0.2725   0.6263   0.7787
     0.8562   0.9169   1.0268   1.1015   1.1324   1.2242   1.4129   1.4790
     1.5450   1.7704   1.8605   1.8860   1.9144   1.9504   2.0088   2.0823
     2.3495   2.4476   2.6279   2.6841   2.7516   2.8062   2.9054   3.0216
     3.0505   3.2289   3.3729   3.4493   3.4961   3.5509   3.6836   3.7257
     3.7718   3.9778   4.0415   4.1161   4.2908   4.3618   4.4826   4.5565
     4.6671   4.7357   4.8846   5.0164   5.0894   5.2496   5.4997   5.5679
    10.7758  12.4679  12.8559  13.0791  13.3763  13.6082  13.8639  14.0740
    14.2102  14.3846

     occupation numbers 
     1.0000   1.0000   1.0000   1.0000   1.0000   1.0000   1.0000   1.0000
     1.0000   1.0000   1.0000   1.0000   1.0000   1.0000   1.0000   1.0000
     1.0000   1.0000   1.0000   1.0000   1.0000   1.0000   1.0000   1.0000
     1.0000   1.0000   1.0000   1.0000   1.0000   1.0000   1.0000   1.0000
     1.0000   1.0000   1.0000   1.0000   1.0000   1.0000   1.0000   1.0000
     1.0000   1.0000   1.0000   1.0000   1.0000   1.0000   1.0000   1.0000
     1.0000   1.0000   1.0000   1.0000   1.0000   1.0000   1.0000   1.0000
     1.0000   1.0000   1.0000   1.0000   1.0000   1.0000   1.0000   1.0000
     1.0000   1.0000   1.0000   1.0000   1.0000   1.0000   1.0000   1.0000
     1.0000   1.0000   1.0000   1.0000   1.0000   1.0000   1.0000   1.0000
     1.0000   1.0000   1.0000   1.0000   1.0000   1.0000   1.0000   1.0000
     1.0000   1.0000   1.0000   1.0000   1.0000   1.0000   1.0000   1.0000
     1.0000   1.0000   1.0000   1.0000   1.0000   1.0000   1.0000   1.0000
     0.0000   0.0000   0.0000   0.0000   0.0000   0.0000   0.0000   0.0000
     0.0000   0.0000

          k = 0.0000 0.2271 0.6661 ( 34677 PWs)   bands (ev):

   -84.5097 -84.5075 -84.4936 -84.0301 -50.6720 -50.6013 -50.5764 -50.4850
   -50.4791 -50.4497 -50.4486 -50.3896 -50.3803 -50.3700 -49.9711 -49.7970
   -44.5747 -16.6837 -16.6055 -16.5104 -15.9716 -15.8134 -15.6267 -15.5891
   -13.7543 -13.5662 -13.4330 -13.3823 -13.3375 -13.2663 -13.1052 -13.0154
   -12.9679 -12.8678 -12.8088 -12.6966  -3.5781  -3.3326  -3.0290  -2.8034
    -1.7642  -1.6332  -1.3914  -1.2312  -1.0714  -1.0402  -0.8506  -0.6849
    -0.5743  -0.4962  -0.4331  -0.1551   0.2410   0.3579   0.6326   0.7969
     0.8243   0.9791   1.0870   1.1424   1.1767   1.2431   1.3928   1.4387
     1.5746   1.6455   1.7564   1.7981   1.8826   1.9409   1.9942   2.0440
     2.1313   2.2680   2.5260   2.6320   2.6841   2.8780   2.9295   3.0536
     3.0831   3.2285   3.3206   3.4385   3.4828   3.5440   3.5865   3.7511
     3.7895   3.9238   4.1316   4.2636   4.3130   4.4007   4.4910   4.6167
     4.6892   4.7721   4.8635   5.0021   5.1248   5.2463   5.4215   5.4980
    11.3323  12.7089  12.9862  13.2173  13.3722  13.6373  13.7167  13.8757
    13.9907  14.0746

     occupation numbers 
     1.0000   1.0000   1.0000   1.0000   1.0000   1.0000   1.0000   1.0000
     1.0000   1.0000   1.0000   1.0000   1.0000   1.0000   1.0000   1.0000
     1.0000   1.0000   1.0000   1.0000   1.0000   1.0000   1.0000   1.0000
     1.0000   1.0000   1.0000   1.0000   1.0000   1.0000   1.0000   1.0000
     1.0000   1.0000   1.0000   1.0000   1.0000   1.0000   1.0000   1.0000
     1.0000   1.0000   1.0000   1.0000   1.0000   1.0000   1.0000   1.0000
     1.0000   1.0000   1.0000   1.0000   1.0000   1.0000   1.0000   1.0000
     1.0000   1.0000   1.0000   1.0000   1.0000   1.0000   1.0000   1.0000
     1.0000   1.0000   1.0000   1.0000   1.0000   1.0000   1.0000   1.0000
     1.0000   1.0000   1.0000   1.0000   1.0000   1.0000   1.0000   1.0000
     1.0000   1.0000   1.0000   1.0000   1.0000   1.0000   1.0000   1.0000
     1.0000   1.0000   1.0000   1.0000   1.0000   1.0000   1.0000   1.0000
     1.0000   1.0000   1.0000   1.0000   1.0000   1.0000   1.0000   1.0000
     0.0000   0.0000   0.0000   0.0000   0.0000   0.0000   0.0000   0.0000
     0.0000   0.0000

          k = 0.0000 0.2271 0.8882 ( 34672 PWs)   bands (ev):

   -84.5097 -84.5075 -84.4936 -84.0301 -50.6720 -50.6013 -50.5764 -50.4850
   -50.4791 -50.4497 -50.4486 -50.3896 -50.3803 -50.3700 -49.9711 -49.7970
   -44.5747 -16.6983 -16.6067 -16.5102 -15.9468 -15.7934 -15.6139 -15.5836
   -13.7404 -13.5783 -13.4536 -13.3856 -13.3355 -13.2765 -13.1356 -13.0418
   -12.9595 -12.8604 -12.8161 -12.7057  -3.4781  -3.3557  -3.0219  -2.8648
    -1.6870  -1.5904  -1.3844  -1.2408  -1.0246  -0.9606  -0.8533  -0.8168
    -0.5206  -0.4374  -0.3637  -0.2717   0.3649   0.5139   0.6472   0.6950
     0.8616   1.0196   1.1085   1.1659   1.2461   1.2781   1.3206   1.4030
     1.5472   1.5682   1.6751   1.7607   1.8302   1.8876   1.9363   2.0101
     2.1184   2.2471   2.3808   2.5153   2.6744   2.8029   3.0162   3.0794
     3.1536   3.2469   3.2679   3.3489   3.4798   3.5164   3.5836   3.7699
     3.8057   3.9015   4.2379   4.3084   4.3603   4.4240   4.5550   4.6241
     4.6614   4.7907   4.8932   4.9784   5.1857   5.2376   5.3502   5.4304
    11.9545  12.5552  13.0115  13.2732  13.5291  13.5843  13.7750  13.8355
    13.8641  14.0221

     occupation numbers 
     1.0000   1.0000   1.0000   1.0000   1.0000   1.0000   1.0000   1.0000
     1.0000   1.0000   1.0000   1.0000   1.0000   1.0000   1.0000   1.0000
     1.0000   1.0000   1.0000   1.0000   1.0000   1.0000   1.0000   1.0000
     1.0000   1.0000   1.0000   1.0000   1.0000   1.0000   1.0000   1.0000
     1.0000   1.0000   1.0000   1.0000   1.0000   1.0000   1.0000   1.0000
     1.0000   1.0000   1.0000   1.0000   1.0000   1.0000   1.0000   1.0000
     1.0000   1.0000   1.0000   1.0000   1.0000   1.0000   1.0000   1.0000
     1.0000   1.0000   1.0000   1.0000   1.0000   1.0000   1.0000   1.0000
     1.0000   1.0000   1.0000   1.0000   1.0000   1.0000   1.0000   1.0000
     1.0000   1.0000   1.0000   1.0000   1.0000   1.0000   1.0000   1.0000
     1.0000   1.0000   1.0000   1.0000   1.0000   1.0000   1.0000   1.0000
     1.0000   1.0000   1.0000   1.0000   1.0000   1.0000   1.0000   1.0000
     1.0000   1.0000   1.0000   1.0000   1.0000   1.0000   1.0000   1.0000
     0.0000   0.0000   0.0000   0.0000   0.0000   0.0000   0.0000   0.0000
     0.0000   0.0000

          k = 0.0000 0.4542 0.0000 ( 34657 PWs)   bands (ev):

   -84.5097 -84.5075 -84.4936 -84.0301 -50.6720 -50.6013 -50.5764 -50.4850
   -50.4791 -50.4497 -50.4486 -50.3896 -50.3803 -50.3700 -49.9711 -49.7970
   -44.5747 -16.6457 -16.5785 -16.5143 -16.0256 -15.8662 -15.6840 -15.6383
   -13.7741 -13.5555 -13.4740 -13.3616 -13.2682 -13.2304 -13.0346 -12.9636
   -12.9328 -12.8487 -12.7942 -12.6845  -3.7175  -3.4254  -2.9648  -2.6900
    -2.0074  -1.7956  -1.4111  -1.2514  -1.0812  -0.9865  -0.9293  -0.7526
    -0.6818  -0.4251  -0.2501  -0.0707   0.0844   0.3539   0.6244   0.6939
     0.7495   0.8151   0.8790   0.9508   1.0667   1.3081   1.3652   1.5760
     1.6828   1.7117   1.8072   1.8935   1.9432   2.0527   2.1811   2.2122
     2.3547   2.4402   2.6262   2.6991   2.7474   2.8403   2.8806   3.0215
     3.1664   3.1972   3.2563   3.3530   3.4843   3.6057   3.6641   3.7257
     3.8072   3.8736   4.1461   4.2268   4.2853   4.3366   4.4376   4.5420
     4.5762   4.7101   4.7712   4.9362   5.0650   5.3952   5.6399   5.6728
    10.6427  12.4240  12.5998  12.7856  13.4821  13.9224  14.0372  14.1147
    14.5237  14.5972

     occupation numbers 
     1.0000   1.0000   1.0000   1.0000   1.0000   1.0000   1.0000   1.0000
     1.0000   1.0000   1.0000   1.0000   1.0000   1.0000   1.0000   1.0000
     1.0000   1.0000   1.0000   1.0000   1.0000   1.0000   1.0000   1.0000
     1.0000   1.0000   1.0000   1.0000   1.0000   1.0000   1.0000   1.0000
     1.0000   1.0000   1.0000   1.0000   1.0000   1.0000   1.0000   1.0000
     1.0000   1.0000   1.0000   1.0000   1.0000   1.0000   1.0000   1.0000
     1.0000   1.0000   1.0000   1.0000   1.0000   1.0000   1.0000   1.0000
     1.0000   1.0000   1.0000   1.0000   1.0000   1.0000   1.0000   1.0000
     1.0000   1.0000   1.0000   1.0000   1.0000   1.0000   1.0000   1.0000
     1.0000   1.0000   1.0000   1.0000   1.0000   1.0000   1.0000   1.0000
     1.0000   1.0000   1.0000   1.0000   1.0000   1.0000   1.0000   1.0000
     1.0000   1.0000   1.0000   1.0000   1.0000   1.0000   1.0000   1.0000
     1.0000   1.0000   1.0000   1.0000   1.0000   1.0000   1.0000   1.0000
     0.0000   0.0000   0.0000   0.0000   0.0000   0.0000   0.0000   0.0000
     0.0000   0.0000

          k = 0.0000 0.4542 0.2220 ( 34661 PWs)   bands (ev):

   -84.5097 -84.5075 -84.4936 -84.0301 -50.6720 -50.6013 -50.5764 -50.4850
   -50.4791 -50.4497 -50.4486 -50.3896 -50.3803 -50.3700 -49.9711 -49.7970
   -44.5747 -16.6490 -16.5861 -16.5141 -16.0121 -15.8558 -15.6781 -15.6334
   -13.7695 -13.5538 -13.4692 -13.3664 -13.2825 -13.2415 -13.0515 -12.9731
   -12.9349 -12.8454 -12.7949 -12.6856  -3.6935  -3.4115  -2.9695  -2.7028
    -1.9703  -1.7712  -1.4023  -1.2409  -1.0776  -0.9877  -0.8976  -0.7511
    -0.6419  -0.4356  -0.2917  -0.1125   0.1195   0.3509   0.5812   0.6961
     0.7580   0.8325   0.9134   0.9817   1.0827   1.3166   1.3545   1.5503
     1.6258   1.7330   1.7811   1.8778   1.9227   2.0532   2.1359   2.2265
     2.3730   2.5029   2.5913   2.7210   2.7610   2.8419   2.8971   2.9507
     3.1192   3.1703   3.2765   3.3356   3.4859   3.5951   3.6504   3.7028
     3.7531   3.9109   4.1468   4.2250   4.2882   4.3580   4.4612   4.5500
     4.5867   4.7073   4.7507   4.9138   5.1033   5.3952   5.6302   5.6690
    10.7752  12.4890  12.6642  12.8656  13.4971  13.8381  13.9726  14.1544
    14.3895  14.5222

     occupation numbers 
     1.0000   1.0000   1.0000   1.0000   1.0000   1.0000   1.0000   1.0000
     1.0000   1.0000   1.0000   1.0000   1.0000   1.0000   1.0000   1.0000
     1.0000   1.0000   1.0000   1.0000   1.0000   1.0000   1.0000   1.0000
     1.0000   1.0000   1.0000   1.0000   1.0000   1.0000   1.0000   1.0000
     1.0000   1.0000   1.0000   1.0000   1.0000   1.0000   1.0000   1.0000
     1.0000   1.0000   1.0000   1.0000   1.0000   1.0000   1.0000   1.0000
     1.0000   1.0000   1.0000   1.0000   1.0000   1.0000   1.0000   1.0000
     1.0000   1.0000   1.0000   1.0000   1.0000   1.0000   1.0000   1.0000
     1.0000   1.0000   1.0000   1.0000   1.0000   1.0000   1.0000   1.0000
     1.0000   1.0000   1.0000   1.0000   1.0000   1.0000   1.0000   1.0000
     1.0000   1.0000   1.0000   1.0000   1.0000   1.0000   1.0000   1.0000
     1.0000   1.0000   1.0000   1.0000   1.0000   1.0000   1.0000   1.0000
     1.0000   1.0000   1.0000   1.0000   1.0000   1.0000   1.0000   1.0000
     0.0000   0.0000   0.0000   0.0000   0.0000   0.0000   0.0000   0.0000
     0.0000   0.0000

          k = 0.0000 0.4542 0.4441 ( 34644 PWs)   bands (ev):

   -84.5097 -84.5075 -84.4936 -84.0301 -50.6720 -50.6013 -50.5764 -50.4850
   -50.4791 -50.4497 -50.4485 -50.3896 -50.3803 -50.3700 -49.9711 -49.7970
   -44.5747 -16.6617 -16.5988 -16.5135 -15.9802 -15.8280 -15.6630 -15.6209
   -13.7567 -13.5508 -13.4555 -13.3850 -13.3149 -13.2660 -13.0949 -13.0061
   -12.9304 -12.8380 -12.7977 -12.6892  -3.6270  -3.3785  -2.9825  -2.7447
    -1.8703  -1.7058  -1.3842  -1.2222  -1.0641  -0.9708  -0.8410  -0.7108
    -0.5637  -0.4537  -0.3926  -0.1877   0.1764   0.3463   0.5473   0.6563
     0.7236   0.9365   0.9952   1.0498   1.1475   1.2425   1.4058   1.4894
     1.5871   1.6920   1.7664   1.8444   1.8921   2.0298   2.0666   2.2079
     2.3489   2.4472   2.6409   2.7134   2.7841   2.8094   2.8457   2.9143
     3.0334   3.1596   3.2944   3.3347   3.4540   3.5323   3.5966   3.6690
     3.7599   3.9589   4.1020   4.2268   4.3185   4.4064   4.4963   4.5639
     4.6320   4.6933   4.7337   4.8632   5.1868   5.3983   5.6018   5.6562
    11.1394  12.6634  12.8516  13.0773  13.5361  13.7342  13.8167  14.1254
    14.1760  14.4090

     occupation numbers 
     1.0000   1.0000   1.0000   1.0000   1.0000   1.0000   1.0000   1.0000
     1.0000   1.0000   1.0000   1.0000   1.0000   1.0000   1.0000   1.0000
     1.0000   1.0000   1.0000   1.0000   1.0000   1.0000   1.0000   1.0000
     1.0000   1.0000   1.0000   1.0000   1.0000   1.0000   1.0000   1.0000
     1.0000   1.0000   1.0000   1.0000   1.0000   1.0000   1.0000   1.0000
     1.0000   1.0000   1.0000   1.0000   1.0000   1.0000   1.0000   1.0000
     1.0000   1.0000   1.0000   1.0000   1.0000   1.0000   1.0000   1.0000
     1.0000   1.0000   1.0000   1.0000   1.0000   1.0000   1.0000   1.0000
     1.0000   1.0000   1.0000   1.0000   1.0000   1.0000   1.0000   1.0000
     1.0000   1.0000   1.0000   1.0000   1.0000   1.0000   1.0000   1.0000
     1.0000   1.0000   1.0000   1.0000   1.0000   1.0000   1.0000   1.0000
     1.0000   1.0000   1.0000   1.0000   1.0000   1.0000   1.0000   1.0000
     1.0000   1.0000   1.0000   1.0000   1.0000   1.0000   1.0000   1.0000
     0.0000   0.0000   0.0000   0.0000   0.0000   0.0000   0.0000   0.0000
     0.0000   0.0000

          k = 0.0000 0.4542 0.6661 ( 34671 PWs)   bands (ev):

   -84.5097 -84.5075 -84.4936 -84.0301 -50.6720 -50.6013 -50.5764 -50.4850
   -50.4791 -50.4497 -50.4485 -50.3896 -50.3803 -50.3700 -49.9711 -49.7970
   -44.5747 -16.6815 -16.6049 -16.5129 -15.9475 -15.7940 -15.6456 -15.6071
   -13.7394 -13.5517 -13.4386 -13.4127 -13.3473 -13.2895 -13.1442 -13.0482
   -12.9214 -12.8305 -12.8021 -12.6943  -3.5351  -3.3477  -2.9998  -2.8080
    -1.7518  -1.6254  -1.3678  -1.2126  -1.0320  -0.9263  -0.8040  -0.6482
    -0.5674  -0.4775  -0.4014  -0.2520   0.2305   0.3567   0.5134   0.6029
     0.7426   1.0047   1.0822   1.1281   1.1971   1.2717   1.4029   1.5129
     1.5629   1.6293   1.7611   1.8087   1.8681   1.9419   2.0533   2.1238
     2.2168   2.2642   2.5283   2.6805   2.7065   2.8363   2.8800   2.9303
     3.0146   3.1835   3.2605   3.3546   3.4114   3.4909   3.5432   3.6721
     3.7957   3.9265   4.1640   4.2489   4.3423   4.4184   4.5097   4.5632
     4.6475   4.6926   4.7598   4.8512   5.2693   5.4116   5.5582   5.6331
    11.6594  12.9057  13.1167  13.2701  13.5172  13.6966  13.7702  13.9026
    13.9512  14.1664

     occupation numbers 
     1.0000   1.0000   1.0000   1.0000   1.0000   1.0000   1.0000   1.0000
     1.0000   1.0000   1.0000   1.0000   1.0000   1.0000   1.0000   1.0000
     1.0000   1.0000   1.0000   1.0000   1.0000   1.0000   1.0000   1.0000
     1.0000   1.0000   1.0000   1.0000   1.0000   1.0000   1.0000   1.0000
     1.0000   1.0000   1.0000   1.0000   1.0000   1.0000   1.0000   1.0000
     1.0000   1.0000   1.0000   1.0000   1.0000   1.0000   1.0000   1.0000
     1.0000   1.0000   1.0000   1.0000   1.0000   1.0000   1.0000   1.0000
     1.0000   1.0000   1.0000   1.0000   1.0000   1.0000   1.0000   1.0000
     1.0000   1.0000   1.0000   1.0000   1.0000   1.0000   1.0000   1.0000
     1.0000   1.0000   1.0000   1.0000   1.0000   1.0000   1.0000   1.0000
     1.0000   1.0000   1.0000   1.0000   1.0000   1.0000   1.0000   1.0000
     1.0000   1.0000   1.0000   1.0000   1.0000   1.0000   1.0000   1.0000
     1.0000   1.0000   1.0000   1.0000   1.0000   1.0000   1.0000   1.0000
     0.0000   0.0000   0.0000   0.0000   0.0000   0.0000   0.0000   0.0000
     0.0000   0.0000

          k = 0.0000 0.4542 0.8882 ( 34661 PWs)   bands (ev):

   -84.5097 -84.5075 -84.4936 -84.0301 -50.6720 -50.6013 -50.5764 -50.4850
   -50.4791 -50.4497 -50.4485 -50.3896 -50.3803 -50.3700 -49.9711 -49.7970
   -44.5747 -16.6958 -16.6063 -16.5125 -15.9276 -15.7703 -15.6341 -15.5984
   -13.7253 -13.5584 -13.4469 -13.4029 -13.3694 -13.3099 -13.1732 -13.0778
   -12.9149 -12.8266 -12.8048 -12.6983  -3.4528  -3.3408  -3.0144  -2.8588
    -1.6759  -1.5704  -1.3587  -1.2102  -0.9895  -0.8573  -0.7990  -0.7222
    -0.5597  -0.4679  -0.3637  -0.2742   0.2752   0.4095   0.4653   0.5369
     0.8150   1.0016   1.1024   1.2125   1.2548   1.3604   1.4523   1.4773
     1.5402   1.6107   1.7260   1.8086   1.8399   1.8654   1.9504   2.0794
     2.1293   2.1784   2.4068   2.5363   2.7107   2.7984   2.8982   3.0042
     3.0379   3.1935   3.2572   3.3174   3.3620   3.5177   3.5431   3.6631
     3.8283   3.8933   4.2328   4.2780   4.3703   4.4298   4.4884   4.5281
     4.6484   4.6912   4.7831   4.8887   5.3208   5.4372   5.5126   5.6091
    12.2532  12.8294  13.2086  13.4254  13.6221  13.6548  13.7188  13.8129
    13.9226  14.0286

     occupation numbers 
     1.0000   1.0000   1.0000   1.0000   1.0000   1.0000   1.0000   1.0000
     1.0000   1.0000   1.0000   1.0000   1.0000   1.0000   1.0000   1.0000
     1.0000   1.0000   1.0000   1.0000   1.0000   1.0000   1.0000   1.0000
     1.0000   1.0000   1.0000   1.0000   1.0000   1.0000   1.0000   1.0000
     1.0000   1.0000   1.0000   1.0000   1.0000   1.0000   1.0000   1.0000
     1.0000   1.0000   1.0000   1.0000   1.0000   1.0000   1.0000   1.0000
     1.0000   1.0000   1.0000   1.0000   1.0000   1.0000   1.0000   1.0000
     1.0000   1.0000   1.0000   1.0000   1.0000   1.0000   1.0000   1.0000
     1.0000   1.0000   1.0000   1.0000   1.0000   1.0000   1.0000   1.0000
     1.0000   1.0000   1.0000   1.0000   1.0000   1.0000   1.0000   1.0000
     1.0000   1.0000   1.0000   1.0000   1.0000   1.0000   1.0000   1.0000
     1.0000   1.0000   1.0000   1.0000   1.0000   1.0000   1.0000   1.0000
     1.0000   1.0000   1.0000   1.0000   1.0000   1.0000   1.0000   1.0000
     0.0000   0.0000   0.0000   0.0000   0.0000   0.0000   0.0000   0.0000
     0.0000   0.0000

          k = 0.0000 0.6813 0.0000 ( 34684 PWs)   bands (ev):

   -84.5097 -84.5075 -84.4936 -84.0301 -50.6720 -50.6013 -50.5764 -50.4850
   -50.4791 -50.4497 -50.4486 -50.3896 -50.3803 -50.3700 -49.9711 -49.7970
   -44.5747 -16.6451 -16.5782 -16.5168 -15.9868 -15.8533 -15.7285 -15.6405
   -13.7576 -13.5565 -13.5276 -13.3562 -13.2637 -13.2232 -13.0489 -12.9687
   -12.9121 -12.8190 -12.8067 -12.6954  -3.6420  -3.4957  -2.8972  -2.7277
    -1.9643  -1.8146  -1.4189  -1.2606  -1.0634  -0.9203  -0.9110  -0.7054
    -0.5948  -0.3594  -0.2864  -0.1796   0.2426   0.4827   0.5502   0.5666
     0.6916   0.7971   0.8253   0.9516   1.1533   1.2529   1.3050   1.4871
     1.6075   1.6290   1.7899   1.8473   2.0062   2.1135   2.1920   2.2476
     2.3279   2.4848   2.6103   2.6253   2.6864   2.8124   2.8903   2.9781
     3.1224   3.1773   3.3122   3.3823   3.5593   3.5775   3.6169   3.6877
     3.7428   3.8434   4.2000   4.2577   4.3383   4.4197   4.4748   4.5186
     4.5667   4.6137   4.6863   4.7583   5.2698   5.4924   5.6169   5.6914
    11.2166  11.9465  12.7352  12.9893  13.4693  13.7599  14.2130  14.2908
    14.4568  14.5581

     occupation numbers 
     1.0000   1.0000   1.0000   1.0000   1.0000   1.0000   1.0000   1.0000
     1.0000   1.0000   1.0000   1.0000   1.0000   1.0000   1.0000   1.0000
     1.0000   1.0000   1.0000   1.0000   1.0000   1.0000   1.0000   1.0000
     1.0000   1.0000   1.0000   1.0000   1.0000   1.0000   1.0000   1.0000
     1.0000   1.0000   1.0000   1.0000   1.0000   1.0000   1.0000   1.0000
     1.0000   1.0000   1.0000   1.0000   1.0000   1.0000   1.0000   1.0000
     1.0000   1.0000   1.0000   1.0000   1.0000   1.0000   1.0000   1.0000
     1.0000   1.0000   1.0000   1.0000   1.0000   1.0000   1.0000   1.0000
     1.0000   1.0000   1.0000   1.0000   1.0000   1.0000   1.0000   1.0000
     1.0000   1.0000   1.0000   1.0000   1.0000   1.0000   1.0000   1.0000
     1.0000   1.0000   1.0000   1.0000   1.0000   1.0000   1.0000   1.0000
     1.0000   1.0000   1.0000   1.0000   1.0000   1.0000   1.0000   1.0000
[...]
     atom   25 type  3   force =    -0.01099160    0.00725826   -0.00461646
     The non-local contrib.  to forces
     atom    1 type  2   force =     0.14319550    0.00000000   -0.00326543
     atom    2 type  1   force =     0.04526470    0.00000000    0.11586566
     atom    3 type  1   force =     0.05037352    0.00000000    0.08472683
     atom    4 type  1   force =    -0.18657545    0.00000000   -0.06527679
     atom    5 type  1   force =    -0.02834507    0.00000000   -0.09941861
     atom    6 type  4   force =     0.06989941    0.00000000    0.00296397
     atom    7 type  4   force =    -0.04508679    0.00000000    0.03028359
     atom    8 type  4   force =    -0.09177779    0.00000000   -0.01195679
     atom    9 type  4   force =     0.10018880    0.00000000    0.00685623
     atom   10 type  3   force =     0.31422704    0.00000000   -1.43644073
     atom   11 type  3   force =    -0.12675867    0.00000000   -1.35550806
     atom   12 type  3   force =    -0.39551288    0.00000000    1.44058096
     atom   13 type  3   force =     0.24310064    0.00000000    1.44280854
     atom   14 type  3   force =     1.17646988    0.00000000   -0.63478187
     atom   15 type  3   force =    -1.15593028    0.00000000   -0.81077644
     atom   16 type  3   force =    -1.16148626    0.00000000    0.34649218
     atom   17 type  3   force =     1.13236371    0.00000000    0.64324345
     atom   18 type  3   force =    -0.49601169   -1.15174915    0.77307517
     atom   19 type  3   force =     0.51130387    1.21719577    0.79920259
     atom   20 type  3   force =     0.52030608   -1.16738939   -0.68970358
     atom   21 type  3   force =    -0.51789871    1.12178659   -0.69093154
     atom   22 type  3   force =     0.52030608    1.16738939   -0.68970358
     atom   23 type  3   force =    -0.51789871   -1.12178659   -0.69093154
     atom   24 type  3   force =    -0.49601169    1.15174915    0.77307517
     atom   25 type  3   force =     0.51130387   -1.21719577    0.79920259
     The ionic contribution  to forces
     atom    1 type  2   force =    -3.11763385    0.00036032    2.76863559
     atom    2 type  1   force =    -1.07740016   -0.00084457   -0.74012315
     atom    3 type  1   force =    -7.08774839    0.00100148   -1.00101916
     atom    4 type  1   force =     4.86496296    0.00080984   -0.44172247
     atom    5 type  1   force =     6.81592873   -0.00113275    0.99121893
     atom    6 type  4   force =    -2.07211581   -0.00029153    0.61126915
     atom    7 type  4   force =    -0.58297851    0.00019995    0.69144462
     atom    8 type  4   force =     3.98738897    0.00027332   -0.95048077
     atom    9 type  4   force =    -1.40276116   -0.00019297   -0.99833613
     atom   10 type  3   force =   -10.21148611   -0.00030319    2.08141358
     atom   11 type  3   force =     3.59282314    0.00028256    0.44123373
     atom   12 type  3   force =    12.34961127    0.00028547   -2.28497407
     atom   13 type  3   force =    -8.45760410   -0.00033172   -1.57413551
     atom   14 type  3   force =     0.80339516   -0.00024159    6.04754978
     atom   15 type  3   force =    -1.85427859    0.00028893    7.67469009
     atom   16 type  3   force =    -1.95431637    0.00015036   -3.08406744
     atom   17 type  3   force =     3.58560626   -0.00029902   -6.75640000
     atom   18 type  3   force =    -3.66841379    2.86908448   -2.95228550
     atom   19 type  3   force =     0.59618789   -4.35450843   -2.44948673
     atom   20 type  3   force =     5.02324488    4.68636328    2.44180211
     atom   21 type  3   force =    -1.04169230   -1.32274401    1.22180481
     atom   22 type  3   force =     5.02349595   -4.68586120    2.44193969
     atom   23 type  3   force =    -1.04192322    1.32235922    1.22168575
     atom   24 type  3   force =    -3.66821652   -2.86960119   -2.95209055
     atom   25 type  3   force =     0.59592368    4.35489296   -2.44956638
     The local contribution  to forces
     atom    1 type  2   force =     2.98865447   -0.00000000   -2.75707549
     atom    2 type  1   force =     1.01304619   -0.00893310    0.62673982
     atom    3 type  1   force =     7.06355735    0.00448615    0.91184435
     atom    4 type  1   force =    -4.67840590    0.00228247    0.50177465
     atom    5 type  1   force =    -6.81439877   -0.01103408   -0.88884396
     atom    6 type  4   force =     2.12021622   -0.00002663   -0.59243100
     atom    7 type  4   force =     0.52574175   -0.00002006   -0.70153897
     atom    8 type  4   force =    -4.01841697   -0.00002362    0.92730113
     atom    9 type  4   force =     1.42468837   -0.00001496    0.97173492
     atom   10 type  3   force =     9.88389650   -0.00162727   -0.66590083
     atom   11 type  3   force =    -3.46667448   -0.00000000    0.89446829
     atom   12 type  3   force =   -11.93965554   -0.00000000    0.86852998
     atom   13 type  3   force =     8.20432580   -0.00158260    0.14993780
     atom   14 type  3   force =    -2.09423328   -0.00162438   -5.38829892
     atom   15 type  3   force =     3.12125392    0.00000000   -6.82995594
     atom   16 type  3   force =     3.22767421    0.00056441    2.71948505
     atom   17 type  3   force =    -4.82190144   -0.00165478    6.08641454
     atom   18 type  3   force =     4.17182989   -1.72260220    2.18182222
     atom   19 type  3   force =    -1.11376141    3.14022370    1.65314921
     atom   20 type  3   force =    -5.55229004   -3.51881295   -1.75759524
     atom   21 type  3   force =     1.56556294    0.20431498   -0.53198911
     atom   22 type  3   force =    -5.55228685    3.51800003   -1.75789198
     atom   23 type  3   force =     1.56481443   -0.20603962   -0.53281785
     atom   24 type  3   force =     4.17174151    1.72089628    2.18166075
     atom   25 type  3   force =    -1.11459280   -3.14106708    1.65250868
     The core correction contribution to forces
     atom    1 type  2   force =     0.00000000    0.00000000    0.00000000
     atom    2 type  1   force =    -0.00010169    0.00030406   -0.00005130
     atom    3 type  1   force =    -0.00005595   -0.00015313    0.00082240
     atom    4 type  1   force =     0.00355619   -0.00007612   -0.00145166
     atom    5 type  1   force =     0.00046832    0.00038285   -0.00005753
     atom    6 type  4   force =    -0.00713351    0.00000267   -0.00117581
     atom    7 type  4   force =     0.00578325    0.00000140   -0.00311355
     atom    8 type  4   force =     0.00806816    0.00000126    0.00225978
     atom    9 type  4   force =    -0.00947353    0.00000259    0.00055095
     atom   10 type  3   force =    -0.00319474   -0.00000090    0.01252341
     atom   11 type  3   force =     0.00177116   -0.00000000    0.01171339
     atom   12 type  3   force =     0.00393271    0.00000000   -0.01253825
     atom   13 type  3   force =    -0.00263852   -0.00000088   -0.01252826
     atom   14 type  3   force =    -0.00814484   -0.00000108    0.00552751
     atom   15 type  3   force =     0.00802387   -0.00000000    0.00688731
     atom   16 type  3   force =     0.00796267    0.00000030   -0.00308494
     atom   17 type  3   force =    -0.00795187   -0.00000109   -0.00553536
     atom   18 type  3   force =     0.00407044    0.00983264   -0.00689138
     atom   19 type  3   force =    -0.00417771   -0.01040104   -0.00711951
     atom   20 type  3   force =    -0.00430519    0.00993614    0.00611262
     atom   21 type  3   force =     0.00427823   -0.00965918    0.00618916
     atom   22 type  3   force =    -0.00430534   -0.00993733    0.00611226
     atom   23 type  3   force =     0.00427693    0.00965637    0.00618793
     atom   24 type  3   force =     0.00407095   -0.00983518   -0.00689143
     atom   25 type  3   force =    -0.00417825    0.01040005   -0.00712053
     The Hubbard contrib.    to forces
     atom    1 type  2   force =     0.00000000    0.00000000    0.00000000
     atom    2 type  1   force =     0.00000000    0.00000000    0.00000000
     atom    3 type  1   force =     0.00000000    0.00000000    0.00000000
     atom    4 type  1   force =     0.00000000    0.00000000    0.00000000
     atom    5 type  1   force =     0.00000000    0.00000000    0.00000000
     atom    6 type  4   force =     0.00000000    0.00000000    0.00000000
     atom    7 type  4   force =     0.00000000    0.00000000    0.00000000
     atom    8 type  4   force =     0.00000000    0.00000000    0.00000000
     atom    9 type  4   force =     0.00000000    0.00000000    0.00000000
     atom   10 type  3   force =     0.00000000    0.00000000    0.00000000
     atom   11 type  3   force =     0.00000000    0.00000000    0.00000000
     atom   12 type  3   force =     0.00000000    0.00000000    0.00000000
     atom   13 type  3   force =     0.00000000    0.00000000    0.00000000
     atom   14 type  3   force =     0.00000000    0.00000000    0.00000000
     atom   15 type  3   force =     0.00000000    0.00000000    0.00000000
     atom   16 type  3   force =     0.00000000    0.00000000    0.00000000
     atom   17 type  3   force =     0.00000000    0.00000000    0.00000000
     atom   18 type  3   force =     0.00000000    0.00000000    0.00000000
     atom   19 type  3   force =     0.00000000    0.00000000    0.00000000
     atom   20 type  3   force =     0.00000000    0.00000000    0.00000000
     atom   21 type  3   force =     0.00000000    0.00000000    0.00000000
     atom   22 type  3   force =     0.00000000    0.00000000    0.00000000
     atom   23 type  3   force =     0.00000000    0.00000000    0.00000000
     atom   24 type  3   force =     0.00000000    0.00000000    0.00000000
     atom   25 type  3   force =     0.00000000    0.00000000    0.00000000
     The SCF correction term to forces
     atom    1 type  2   force =     0.00000501    0.00000000   -0.00000139
     atom    2 type  1   force =     0.00000274   -0.00000002    0.00000065
     atom    3 type  1   force =     0.00000029    0.00000001    0.00000037
     atom    4 type  1   force =    -0.00000074    0.00000001   -0.00000031
     atom    5 type  1   force =    -0.00000411   -0.00000002   -0.00000008
     atom    6 type  4   force =    -0.00000209   -0.00000000    0.00000007
     atom    7 type  4   force =     0.00000354    0.00000000    0.00000015
     atom    8 type  4   force =    -0.00000378    0.00000000    0.00000085
     atom    9 type  4   force =     0.00000195   -0.00000000   -0.00000017
     atom   10 type  3   force =    -0.00000390   -0.00000000   -0.00000232
     atom   11 type  3   force =     0.00000524    0.00000000   -0.00000159
     atom   12 type  3   force =    -0.00000610    0.00000000   -0.00000326
     atom   13 type  3   force =     0.00000017   -0.00000000    0.00000198
     atom   14 type  3   force =     0.00000665   -0.00000000    0.00000105
     atom   15 type  3   force =    -0.00000592    0.00000000    0.00000117
     atom   16 type  3   force =     0.00000559    0.00000000    0.00000162
     atom   17 type  3   force =    -0.00000011   -0.00000000   -0.00000033
     atom   18 type  3   force =    -0.00000233   -0.00000037    0.00000058
     atom   19 type  3   force =     0.00000379    0.00000182    0.00000030
     atom   20 type  3   force =    -0.00000295   -0.00000481    0.00000351
     atom   21 type  3   force =     0.00000021   -0.00000373   -0.00000288
     atom   22 type  3   force =    -0.00000295    0.00000481    0.00000351
     atom   23 type  3   force =     0.00000021    0.00000373   -0.00000289
     atom   24 type  3   force =    -0.00000233    0.00000036    0.00000058
     atom   25 type  3   force =     0.00000379   -0.00000182    0.00000030

     Total force =     0.338418     Total SCF correction =     0.000022


     Computing stress (Cartesian axis) and pressure


     negative rho (up, down):  0.000E+00 7.993E-04
          total   stress  (Ry/bohr**3)                   (kbar)     P=       76.96
   0.00118969   0.00000000  -0.00001223          175.01        0.00       -1.80
   0.00000000   0.00006216   0.00000000            0.00        9.14        0.00
  -0.00001223   0.00000000   0.00031761           -1.80        0.00       46.72

     kinetic stress (kbar)  28096.20      0.00     -9.68
                                0.00  28204.60      0.00
                               -9.68      0.00  28004.65

     local   stress (kbar)  -5995.22     -0.06   1192.46
                               -0.06 -12018.60     -0.01
                             1192.46     -0.01  -8567.70

     nonloc. stress (kbar)  -7184.92      0.00      4.82
                                0.00  -7099.41      0.00
                                4.82      0.00  -7143.95

     hartree stress (kbar)  13654.93     -0.00   -490.12
                               -0.00  17676.70     -0.00
                             -490.12     -0.00  15558.09

     exc-cor stress (kbar)  -2961.85      0.00     -0.65
                                0.00  -2971.74     -0.00
                               -0.65     -0.00  -2967.62

     corecor stress (kbar)  -3283.38     -0.00      0.65
                               -0.00  -3280.17      0.00
                                0.65      0.00  -3280.83

     ewald   stress (kbar) -22150.75      0.04   -699.28
                                0.04 -20502.23      0.00
                             -699.28      0.00 -21555.92

     hubbard stress (kbar)      0.00      0.00      0.00
                                0.00      0.00      0.00
                                0.00      0.00      0.00

     DFT-D   stress (kbar)      0.00      0.00      0.00
                                0.00      0.00      0.00
                                0.00      0.00      0.00

     XDM     stress (kbar)      0.00      0.00      0.00
                                0.00      0.00      0.00
                                0.00      0.00      0.00

     dft-nl  stress (kbar)      0.00      0.00      0.00
                                0.00      0.00      0.00
                                0.00      0.00      0.00

     TS-vdW  stress (kbar)      0.00      0.00      0.00
                                0.00      0.00      0.00
                                0.00      0.00      0.00



     init_run     :    113.68s CPU    117.23s WALL (       1 calls)
     electrons    :   8442.22s CPU   8581.33s WALL (       1 calls)
     forces       :     99.52s CPU    100.79s WALL (       1 calls)
     stress       :    449.13s CPU    453.15s WALL (       1 calls)

     Called by init_run:
     wfcinit      :    103.77s CPU    106.50s WALL (       1 calls)
     wfcinit:atom :      1.74s CPU      1.79s WALL (     184 calls)
     wfcinit:wfcr :     96.22s CPU     98.76s WALL (     184 calls)
     potinit      :      3.52s CPU      3.64s WALL (       1 calls)
     hinit0       :      3.36s CPU      3.47s WALL (       1 calls)

     Called by electrons:
     c_bands      :   7432.66s CPU   7522.79s WALL (      30 calls)
     sum_band     :    911.07s CPU    944.58s WALL (      30 calls)
     v_of_rho     :     25.32s CPU     26.87s WALL (      31 calls)
     v_h          :      1.23s CPU      1.30s WALL (      31 calls)
     v_xc         :     26.12s CPU     27.67s WALL (      33 calls)
     newd         :     53.59s CPU     67.56s WALL (      31 calls)
     PAW_pot      :     13.33s CPU     13.38s WALL (      31 calls)
     mix_rho      :      6.50s CPU      6.76s WALL (      30 calls)

     Called by c_bands:
     init_us_2    :    154.95s CPU    159.30s WALL (   11592 calls)
     cegterg      :   7185.76s CPU   7269.97s WALL (    5520 calls)

     Called by sum_band:
     sum_band:wei :      0.28s CPU      0.28s WALL (      30 calls)
     sum_band:loo :    766.85s CPU    778.31s WALL (      30 calls)
     sum_band:buf :     39.32s CPU     40.34s WALL (    5520 calls)
     sum_band:ini :     75.64s CPU     77.55s WALL (    5520 calls)
     sum_band:cal :    362.63s CPU    367.12s WALL (    5520 calls)
     sum_band:bec :      3.16s CPU      3.22s WALL (    5520 calls)
     addusdens    :    139.88s CPU    161.53s WALL (      30 calls)
     addusd:skk   :      1.19s CPU      1.24s WALL (      90 calls)
     addusd:dgemm :     69.19s CPU     89.89s WALL (     180 calls)
     addusd:qvan2 :     65.99s CPU     66.58s WALL (     180 calls)

     Called by *egterg:
     cdiaghg      :    493.93s CPU    506.54s WALL (   22285 calls)
     cegterg:over :    739.33s CPU    753.74s WALL (   16765 calls)
     cegterg:upda :    412.67s CPU    415.29s WALL (   16765 calls)
     cegterg:last :    840.27s CPU    845.51s WALL (    9792 calls)
     h_psi        :   3343.41s CPU   3381.75s WALL (   22469 calls)
     s_psi        :    916.56s CPU    922.30s WALL (   22469 calls)
     g_psi        :      7.71s CPU      7.83s WALL (   16765 calls)

     Called by h_psi:
     h_psi:calbec :    980.81s CPU    993.10s WALL (   22469 calls)
     vloc_psi     :   1296.34s CPU   1313.17s WALL (   22469 calls)
     add_vuspsi   :    979.88s CPU    986.16s WALL (   22469 calls)

     General routines
     calbec       :   1441.74s CPU   1459.36s WALL (   28909 calls)
     fft          :     20.98s CPU     22.81s WALL (     813 calls)
     ffts         :      0.36s CPU      0.41s WALL (     122 calls)
     fftw         :   1451.99s CPU   1470.79s WALL ( 3478130 calls)
     interpolate  :      1.71s CPU      1.85s WALL (      62 calls)

     Parallel routines
     fft_scatt_xy :    154.32s CPU    156.10s WALL ( 3479065 calls)
     fft_scatt_yz :    463.06s CPU    471.94s WALL ( 3479065 calls)

     PAW routines
     PAW_pot      :     13.33s CPU     13.38s WALL (      31 calls)
     PAW_symme    :      0.14s CPU      0.14s WALL (      61 calls)

     PWSCF        :      2h31m CPU      2h34m WALL


   This run was terminated on:   8: 4:37  18Dec2022            

=------------------------------------------------------------------------------=
   JOB DONE.
=------------------------------------------------------------------------------=
Note: The following floating-point exceptions are signalling: IEEE_UNDERFLOW_FLAG IEEE_DENORMAL
Note: The following floating-point exceptions are signalling: IEEE_DENORMAL
Note: The following floating-point exceptions are signalling: IEEE_INVALID_FLAG IEEE_DENORMAL
Note: The following floating-point exceptions are signalling: IEEE_DENORMAL
Note: The following floating-point exceptions are signalling: IEEE_DENORMAL
Note: The following floating-point exceptions are signalling: IEEE_DENORMAL
Note: The following floating-point exceptions are signalling: IEEE_DENORMAL
Note: The following floating-point exceptions are signalling: IEEE_DENORMAL
Note: The following floating-point exceptions are signalling: IEEE_DENORMAL
Note: The following floating-point exceptions are signalling: IEEE_DENORMAL
Note: The following floating-point exceptions are signalling: IEEE_DENORMAL
Note: The following floating-point exceptions are signalling: IEEE_DENORMAL
Note: The following floating-point exceptions are signalling: IEEE_DENORMAL
Note: The following floating-point exceptions are signalling: IEEE_DENORMAL
Note: The following floating-point exceptions are signalling: IEEE_DENORMAL
Note: The following floating-point exceptions are signalling: IEEE_DENORMAL
Note: The following floating-point exceptions are signalling: IEEE_INVALID_FLAG IEEE_DENORMAL
Note: The following floating-point exceptions are signalling: IEEE_DENORMAL
Note: The following floating-point exceptions are signalling: IEEE_DENORMAL
Note: The following floating-point exceptions are signalling: IEEE_INVALID_FLAG IEEE_DENORMAL
Note: The following floating-point exceptions are signalling: IEEE_DENORMAL
Note: The following floating-point exceptions are signalling: IEEE_DENORMAL
Note: The following floating-point exceptions are signalling: IEEE_INVALID_FLAG IEEE_DENORMAL
Note: The following floating-point exceptions are signalling: IEEE_DENORMAL
