
     Program PWSCF v.6.7MaX starts on 17Dec2022 at 23:13:44 

     This program is part of the open-source Quantum ESPRESSO suite
     for quantum simulation of materials; please cite
         "P. Giannozzi et al., J. Phys.:Condens. Matter 21 395502 (2009);
         "P. Giannozzi et al., J. Phys.:Condens. Matter 29 465901 (2017);
          URL http://www.quantum-espresso.org", 
     in publications or presentations arising from this work. More details at
     http://www.quantum-espresso.org/quote

     Parallel version (MPI), running on    24 processors

     MPI processes distributed on     1 nodes
     R & G space division:  proc/nbgrp/npool/nimage =      24
     Reading input from scale_2dab-01.in

     Current dimensions of program PWSCF are:
     Max number of different atomic species (ntypx) = 10
     Max number of k-points (npk) =  40000
     Max angular momentum in pseudopotentials (lmaxx) =  3
     Message from routine read_pp_mesh:
     mesh size missing, using the one in header
     file Fe.pbe-spn-kjpaw_psl.0.2.1.UPF: wavefunction(s)  3D renormalized
     file O.pbe-n-kjpaw_psl.0.1.UPF: wavefunction(s)  2P renormalized

     Subspace diagonalization in iterative solution of the eigenvalue problem:
     a serial algorithm will be used


     Parallelization info
     --------------------
     sticks:   dense  smooth     PW     G-vecs:    dense   smooth      PW
     Min         773     287     77                50417    11365    1601
     Max         774     288     78                50419    11367    1604
     Sum       18565    6893   1859              1210029   272791   38441



     bravais-lattice index     =            0
     lattice parameter (alat)  =      19.0096  a.u.
     unit-cell volume          =    2018.7343 (a.u.)^3
     number of atoms/cell      =           25
     number of atomic types    =            4
     number of electrons       =       189.00
     number of Kohn-Sham states=          114
     kinetic-energy cutoff     =     100.0000  Ry
     charge density cutoff     =    1080.0000  Ry
     scf convergence threshold =      2.0E-10
     mixing beta               =       0.4000
     number of iterations used =            8  plain     mixing
     Exchange-correlation= PBE
                           (   1   4   3   4   0   0   0)

     celldm(1)=  19.009555  celldm(2)=   0.000000  celldm(3)=   0.000000
     celldm(4)=   0.000000  celldm(5)=   0.000000  celldm(6)=   0.000000

     crystal axes: (cart. coord. in units of alat)
               a(1) = (   1.000000   0.000000   0.000000 )  
               a(2) = (   0.000000   0.597590   0.000000 )  
               a(3) = (   0.000000   0.000000   0.491768 )  

     reciprocal axes: (cart. coord. in units 2 pi/alat)
               b(1) = (  1.000000  0.000000  0.000000 )  
               b(2) = (  0.000000  1.673388  0.000000 )  
               b(3) = (  0.000000  0.000000  2.033480 )  


     PseudoPot. # 1 for Fe read from file:
     /opt/QEpot/SSSP_precision_pseudos/Fe.pbe-spn-kjpaw_psl.0.2.1.UPF
     MD5 check sum: e86618425769142926afa95317d90200
     Pseudo is Projector augmented-wave + core cor, Zval = 16.0
     Generated using "atomic" code by A. Dal Corso  v.5.0.99 svn rev. 10869
     Shape of augmentation charge: PSQ
     Using radial grid of 1191 points,  6 beta functions with: 
                l(1) =   0
                l(2) =   0
                l(3) =   1
                l(4) =   1
                l(5) =   2
                l(6) =   2
     Q(r) pseudized with 0 coefficients 


     PseudoPot. # 2 for Na read from file:
     /opt/QEpot/SSSP_precision_pseudos/Na_ONCV_PBE-1.0.oncvpsp.upf
     MD5 check sum: 24a298df0a6742ae313db96548fdb2a4
     Pseudo is Norm-conserving, Zval =  9.0
     Generated using ONCVPSP code by D. R. Hamann
     Using radial grid of 1992 points,  4 beta functions with: 
                l(1) =   0
                l(2) =   0
                l(3) =   1
                l(4) =   1

     PseudoPot. # 3 for O  read from file:
     /opt/QEpot/SSSP_precision_pseudos/O.pbe-n-kjpaw_psl.0.1.UPF
     MD5 check sum: 0234752ac141de4415c5fc33072bef88
     Pseudo is Projector augmented-wave + core cor, Zval =  6.0
     Generated using "atomic" code by A. Dal Corso  v.5.0.99 svn rev. 10869
     Shape of augmentation charge: BESSEL
     Using radial grid of 1095 points,  4 beta functions with: 
                l(1) =   0
                l(2) =   0
                l(3) =   1
                l(4) =   1
     Q(r) pseudized with 0 coefficients 


     PseudoPot. # 4 for P  read from file:
     /opt/QEpot/SSSP_precision_pseudos/P.pbe-n-rrkjus_psl.1.0.0.UPF
     MD5 check sum: 8b930f418f0a4573dca56cd030ffe088
     Pseudo is Ultrasoft + core correction, Zval =  5.0
     Generated using "atomic" code by A. Dal Corso  v.5.1
     Using radial grid of 1147 points,  6 beta functions with: 
                l(1) =   0
                l(2) =   0
                l(3) =   1
                l(4) =   1
                l(5) =   2
                l(6) =   2
     Q(r) pseudized with 0 coefficients 


     atomic species   valence    mass     pseudopotential
        Fe            16.00    55.84500     Fe( 1.00)
        Na             9.00    22.98977     Na( 1.00)
        O              6.00    15.99940     O ( 1.00)
        P              5.00    30.97376     P ( 1.00)

     Starting magnetic structure 
     atomic species   magnetization
        Fe           0.312
        Na           0.000
        O            0.000
        P            0.000

     No symmetry found


                                    s                        frac. trans.

      isym =  1     identity                                     

 cryst.   s( 1) = (     1          0          0      )
                  (     0          1          0      )
                  (     0          0          1      )

 cart.    s( 1) = (  1.0000000  0.0000000  0.0000000 )
                  (  0.0000000  1.0000000  0.0000000 )
                  (  0.0000000  0.0000000  1.0000000 )


   Cartesian axes

     site n.     atom                  positions (alat units)
         1           Na  tau(   1) = (   0.5574590   0.1493981   0.2190225  )
         2           Fe  tau(   2) = (   0.2771150   0.4481954   0.4875341  )
         3           Fe  tau(   3) = (   0.2107060   0.1493969   0.2411914  )
         4           Fe  tau(   4) = (   0.7302140   0.1493975   0.0000526  )
         5           Fe  tau(   5) = (   0.7810190   0.4481960   0.2530288  )
         6           P   tau(   6) = (   0.1051510   0.4481942   0.2182898  )
         7           P   tau(   7) = (   0.3871250   0.1493987   0.4630239  )
         8           P   tau(   8) = (   0.8922730   0.1493987   0.2737302  )
         9           P   tau(   9) = (   0.6039150   0.4481942   0.0325132  )
        10           O   tau(  10) = (   0.1313210   0.4481948   0.3692433  )
        11           O   tau(  11) = (   0.3628270   0.1493981   0.1227354  )
        12           O   tau(  12) = (   0.8714480   0.1493981   0.1221694  )
        13           O   tau(  13) = (   0.6323650   0.4481948   0.3738222  )
        14           O   tau(  14) = (   0.4574600   0.4481948   0.0587864  )
        15           O   tau(  15) = (   0.0361810   0.1493981   0.3085434  )
        16           O   tau(  16) = (   0.5358400   0.1493975   0.4406116  )
        17           O   tau(  17) = (   0.9582930   0.4481948   0.1923928  )
        18           O   tau(  18) = (   0.1741600   0.5648814   0.1473233  )
        19           O   tau(  19) = (   0.3208130   0.0329153   0.3910572  )
        20           O   tau(  20) = (   0.8175190   0.2646445   0.3420471  )
        21           O   tau(  21) = (   0.6721860   0.3307857   0.1047928  )
        22           O   tau(  22) = (   0.8175190   0.0341529   0.3420476  )
        23           O   tau(  23) = (   0.6721870   0.5656027   0.1047937  )
        24           O   tau(  24) = (   0.1741600   0.3315070   0.1473233  )
        25           O   tau(  25) = (   0.3208140   0.2658821   0.3910581  )

   Crystallographic axes

     site n.     atom                  positions (cryst. coord.)
         1           Na  tau(   1) = (  0.5574590  0.2500010  0.4453780  )
         2           Fe  tau(   2) = (  0.2771150  0.7500050  0.9913910  )
         3           Fe  tau(   3) = (  0.2107060  0.2499990  0.4904580  )
         4           Fe  tau(   4) = (  0.7302140  0.2500000  0.0001070  )
         5           Fe  tau(   5) = (  0.7810190  0.7500060  0.5145290  )
         6           P   tau(   6) = (  0.1051510  0.7500030  0.4438880  )
         7           P   tau(   7) = (  0.3871250  0.2500020  0.9415500  )
         8           P   tau(   8) = (  0.8922730  0.2500020  0.5566250  )
         9           P   tau(   9) = (  0.6039150  0.7500030  0.0661150  )
        10           O   tau(  10) = (  0.1313210  0.7500040  0.7508490  )
        11           O   tau(  11) = (  0.3628270  0.2500010  0.2495800  )
        12           O   tau(  12) = (  0.8714480  0.2500010  0.2484290  )
        13           O   tau(  13) = (  0.6323650  0.7500040  0.7601600  )
        14           O   tau(  14) = (  0.4574600  0.7500040  0.1195410  )
        15           O   tau(  15) = (  0.0361810  0.2500010  0.6274170  )
        16           O   tau(  16) = (  0.5358400  0.2500000  0.8959750  )
        17           O   tau(  17) = (  0.9582930  0.7500040  0.3912270  )
        18           O   tau(  18) = (  0.1741600  0.9452660  0.2995790  )
        19           O   tau(  19) = (  0.3208130  0.0550800  0.7952070  )
        20           O   tau(  20) = (  0.8175190  0.4428530  0.6955460  )
        21           O   tau(  21) = (  0.6721860  0.5535330  0.2130940  )
        22           O   tau(  22) = (  0.8175190  0.0571510  0.6955470  )
        23           O   tau(  23) = (  0.6721870  0.9464730  0.2130960  )
        24           O   tau(  24) = (  0.1741600  0.5547400  0.2995790  )
        25           O   tau(  25) = (  0.3208140  0.4449240  0.7952090  )

     number of k points=   158  Marzari-Vanderbilt smearing, width (Ry)=  0.0073
                       cart. coord. in units 2pi/alat
        k(    1) = (   0.0000000   0.0000000   0.0000000), wk =   0.0031746
        k(    2) = (   0.0000000   0.0000000   0.2259422), wk =   0.0063492
        k(    3) = (   0.0000000   0.0000000   0.4518845), wk =   0.0063492
        k(    4) = (   0.0000000   0.0000000   0.6778267), wk =   0.0063492
        k(    5) = (   0.0000000   0.0000000   0.9037690), wk =   0.0063492
        k(    6) = (   0.0000000   0.2390555   0.0000000), wk =   0.0063492
        k(    7) = (   0.0000000   0.2390555   0.2259422), wk =   0.0063492
        k(    8) = (   0.0000000   0.2390555   0.4518845), wk =   0.0063492
        k(    9) = (   0.0000000   0.2390555   0.6778267), wk =   0.0063492
        k(   10) = (   0.0000000   0.2390555   0.9037690), wk =   0.0063492
        k(   11) = (   0.0000000   0.4781110   0.0000000), wk =   0.0063492
        k(   12) = (   0.0000000   0.4781110   0.2259422), wk =   0.0063492
        k(   13) = (   0.0000000   0.4781110   0.4518845), wk =   0.0063492
        k(   14) = (   0.0000000   0.4781110   0.6778267), wk =   0.0063492
        k(   15) = (   0.0000000   0.4781110   0.9037690), wk =   0.0063492
        k(   16) = (   0.0000000   0.7171664   0.0000000), wk =   0.0063492
        k(   17) = (   0.0000000   0.7171664   0.2259422), wk =   0.0063492
        k(   18) = (   0.0000000   0.7171664   0.4518845), wk =   0.0063492
        k(   19) = (   0.0000000   0.7171664   0.6778267), wk =   0.0063492
        k(   20) = (   0.0000000   0.7171664   0.9037690), wk =   0.0063492
        k(   21) = (   0.2000000   0.0000000   0.0000000), wk =   0.0063492
        k(   22) = (   0.2000000   0.0000000   0.2259422), wk =   0.0063492
        k(   23) = (   0.2000000   0.0000000   0.4518845), wk =   0.0063492
        k(   24) = (   0.2000000   0.0000000   0.6778267), wk =   0.0063492
        k(   25) = (   0.2000000   0.0000000   0.9037690), wk =   0.0063492
        k(   26) = (   0.2000000   0.2390555   0.0000000), wk =   0.0063492
        k(   27) = (   0.2000000   0.2390555   0.2259422), wk =   0.0063492
        k(   28) = (   0.2000000   0.2390555   0.4518845), wk =   0.0063492
        k(   29) = (   0.2000000   0.2390555   0.6778267), wk =   0.0063492
        k(   30) = (   0.2000000   0.2390555   0.9037690), wk =   0.0063492
        k(   31) = (   0.2000000   0.4781110   0.0000000), wk =   0.0063492
        k(   32) = (   0.2000000   0.4781110   0.2259422), wk =   0.0063492
        k(   33) = (   0.2000000   0.4781110   0.4518845), wk =   0.0063492
        k(   34) = (   0.2000000   0.4781110   0.6778267), wk =   0.0063492
        k(   35) = (   0.2000000   0.4781110   0.9037690), wk =   0.0063492
        k(   36) = (   0.2000000   0.7171664   0.0000000), wk =   0.0063492
        k(   37) = (   0.2000000   0.7171664   0.2259422), wk =   0.0063492
        k(   38) = (   0.2000000   0.7171664   0.4518845), wk =   0.0063492
        k(   39) = (   0.2000000   0.7171664   0.6778267), wk =   0.0063492
        k(   40) = (   0.2000000   0.7171664   0.9037690), wk =   0.0063492
        k(   41) = (   0.4000000   0.0000000   0.0000000), wk =   0.0063492
        k(   42) = (   0.4000000   0.0000000   0.2259422), wk =   0.0063492
        k(   43) = (   0.4000000   0.0000000   0.4518845), wk =   0.0063492
        k(   44) = (   0.4000000   0.0000000   0.6778267), wk =   0.0063492
        k(   45) = (   0.4000000   0.0000000   0.9037690), wk =   0.0063492
        k(   46) = (   0.4000000   0.2390555   0.0000000), wk =   0.0063492
        k(   47) = (   0.4000000   0.2390555   0.2259422), wk =   0.0063492
        k(   48) = (   0.4000000   0.2390555   0.4518845), wk =   0.0063492
        k(   49) = (   0.4000000   0.2390555   0.6778267), wk =   0.0063492
        k(   50) = (   0.4000000   0.2390555   0.9037690), wk =   0.0063492
        k(   51) = (   0.4000000   0.4781110   0.0000000), wk =   0.0063492
        k(   52) = (   0.4000000   0.4781110   0.2259422), wk =   0.0063492
        k(   53) = (   0.4000000   0.4781110   0.4518845), wk =   0.0063492
        k(   54) = (   0.4000000   0.4781110   0.6778267), wk =   0.0063492
        k(   55) = (   0.4000000   0.4781110   0.9037690), wk =   0.0063492
        k(   56) = (   0.4000000   0.7171664   0.0000000), wk =   0.0063492
        k(   57) = (   0.4000000   0.7171664   0.2259422), wk =   0.0063492
        k(   58) = (   0.4000000   0.7171664   0.4518845), wk =   0.0063492
        k(   59) = (   0.4000000   0.7171664   0.6778267), wk =   0.0063492
        k(   60) = (   0.4000000   0.7171664   0.9037690), wk =   0.0063492
        k(   61) = (   0.0000000  -0.2390555   0.2259422), wk =   0.0063492
        k(   62) = (   0.0000000  -0.2390555   0.4518845), wk =   0.0063492
        k(   63) = (   0.0000000  -0.2390555   0.6778267), wk =   0.0063492
        k(   64) = (   0.0000000  -0.2390555   0.9037690), wk =   0.0063492
        k(   65) = (   0.0000000  -0.4781110   0.2259422), wk =   0.0063492
        k(   66) = (   0.0000000  -0.4781110   0.4518845), wk =   0.0063492
        k(   67) = (   0.0000000  -0.4781110   0.6778267), wk =   0.0063492
        k(   68) = (   0.0000000  -0.4781110   0.9037690), wk =   0.0063492
        k(   69) = (   0.0000000  -0.7171664   0.2259422), wk =   0.0063492
        k(   70) = (   0.0000000  -0.7171664   0.4518845), wk =   0.0063492
        k(   71) = (   0.0000000  -0.7171664   0.6778267), wk =   0.0063492
        k(   72) = (   0.0000000  -0.7171664   0.9037690), wk =   0.0063492
        k(   73) = (  -0.2000000   0.0000000   0.2259422), wk =   0.0063492
        k(   74) = (  -0.2000000   0.0000000   0.4518845), wk =   0.0063492
        k(   75) = (  -0.2000000   0.0000000   0.6778267), wk =   0.0063492
        k(   76) = (  -0.2000000   0.0000000   0.9037690), wk =   0.0063492
        k(   77) = (  -0.2000000   0.2390555   0.0000000), wk =   0.0063492
        k(   78) = (  -0.2000000  -0.2390555   0.2259422), wk =   0.0063492
        k(   79) = (  -0.2000000   0.2390555  -0.2259422), wk =   0.0063492
        k(   80) = (   0.2000000  -0.2390555  -0.2259422), wk =   0.0063492
        k(   81) = (  -0.2000000  -0.2390555   0.4518845), wk =   0.0063492
        k(   82) = (  -0.2000000   0.2390555  -0.4518845), wk =   0.0063492
        k(   83) = (   0.2000000  -0.2390555  -0.4518845), wk =   0.0063492
        k(   84) = (  -0.2000000  -0.2390555   0.6778267), wk =   0.0063492
        k(   85) = (  -0.2000000   0.2390555  -0.6778267), wk =   0.0063492
        k(   86) = (   0.2000000  -0.2390555  -0.6778267), wk =   0.0063492
        k(   87) = (  -0.2000000  -0.2390555   0.9037690), wk =   0.0063492
        k(   88) = (  -0.2000000   0.2390555  -0.9037690), wk =   0.0063492
        k(   89) = (   0.2000000  -0.2390555  -0.9037690), wk =   0.0063492
        k(   90) = (  -0.2000000   0.4781110   0.0000000), wk =   0.0063492
        k(   91) = (  -0.2000000  -0.4781110   0.2259422), wk =   0.0063492
        k(   92) = (  -0.2000000   0.4781110  -0.2259422), wk =   0.0063492
        k(   93) = (   0.2000000  -0.4781110  -0.2259422), wk =   0.0063492
        k(   94) = (  -0.2000000  -0.4781110   0.4518845), wk =   0.0063492
        k(   95) = (  -0.2000000   0.4781110  -0.4518845), wk =   0.0063492
        k(   96) = (   0.2000000  -0.4781110  -0.4518845), wk =   0.0063492
        k(   97) = (  -0.2000000  -0.4781110   0.6778267), wk =   0.0063492
        k(   98) = (  -0.2000000   0.4781110  -0.6778267), wk =   0.0063492
        k(   99) = (   0.2000000  -0.4781110  -0.6778267), wk =   0.0063492
        k(  100) = (  -0.2000000  -0.4781110   0.9037690), wk =   0.0063492
        k(  101) = (  -0.2000000   0.4781110  -0.9037690), wk =   0.0063492
        k(  102) = (   0.2000000  -0.4781110  -0.9037690), wk =   0.0063492
        k(  103) = (  -0.2000000   0.7171664   0.0000000), wk =   0.0063492
        k(  104) = (  -0.2000000  -0.7171664   0.2259422), wk =   0.0063492
        k(  105) = (  -0.2000000   0.7171664  -0.2259422), wk =   0.0063492
        k(  106) = (   0.2000000  -0.7171664  -0.2259422), wk =   0.0063492
        k(  107) = (  -0.2000000  -0.7171664   0.4518845), wk =   0.0063492
        k(  108) = (  -0.2000000   0.7171664  -0.4518845), wk =   0.0063492
        k(  109) = (   0.2000000  -0.7171664  -0.4518845), wk =   0.0063492
        k(  110) = (  -0.2000000  -0.7171664   0.6778267), wk =   0.0063492
        k(  111) = (  -0.2000000   0.7171664  -0.6778267), wk =   0.0063492
        k(  112) = (   0.2000000  -0.7171664  -0.6778267), wk =   0.0063492
        k(  113) = (  -0.2000000  -0.7171664   0.9037690), wk =   0.0063492
        k(  114) = (  -0.2000000   0.7171664  -0.9037690), wk =   0.0063492
        k(  115) = (   0.2000000  -0.7171664  -0.9037690), wk =   0.0063492
        k(  116) = (  -0.4000000   0.0000000   0.2259422), wk =   0.0063492
        k(  117) = (  -0.4000000   0.0000000   0.4518845), wk =   0.0063492
        k(  118) = (  -0.4000000   0.0000000   0.6778267), wk =   0.0063492
        k(  119) = (  -0.4000000   0.0000000   0.9037690), wk =   0.0063492
        k(  120) = (  -0.4000000   0.2390555   0.0000000), wk =   0.0063492
        k(  121) = (  -0.4000000  -0.2390555   0.2259422), wk =   0.0063492
        k(  122) = (  -0.4000000   0.2390555  -0.2259422), wk =   0.0063492
        k(  123) = (   0.4000000  -0.2390555  -0.2259422), wk =   0.0063492
        k(  124) = (  -0.4000000  -0.2390555   0.4518845), wk =   0.0063492
        k(  125) = (  -0.4000000   0.2390555  -0.4518845), wk =   0.0063492
        k(  126) = (   0.4000000  -0.2390555  -0.4518845), wk =   0.0063492
        k(  127) = (  -0.4000000  -0.2390555   0.6778267), wk =   0.0063492
        k(  128) = (  -0.4000000   0.2390555  -0.6778267), wk =   0.0063492
        k(  129) = (   0.4000000  -0.2390555  -0.6778267), wk =   0.0063492
        k(  130) = (  -0.4000000  -0.2390555   0.9037690), wk =   0.0063492
        k(  131) = (  -0.4000000   0.2390555  -0.9037690), wk =   0.0063492
        k(  132) = (   0.4000000  -0.2390555  -0.9037690), wk =   0.0063492
        k(  133) = (  -0.4000000   0.4781110   0.0000000), wk =   0.0063492
        k(  134) = (  -0.4000000  -0.4781110   0.2259422), wk =   0.0063492
        k(  135) = (  -0.4000000   0.4781110  -0.2259422), wk =   0.0063492
        k(  136) = (   0.4000000  -0.4781110  -0.2259422), wk =   0.0063492
        k(  137) = (  -0.4000000  -0.4781110   0.4518845), wk =   0.0063492
        k(  138) = (  -0.4000000   0.4781110  -0.4518845), wk =   0.0063492
        k(  139) = (   0.4000000  -0.4781110  -0.4518845), wk =   0.0063492
        k(  140) = (  -0.4000000  -0.4781110   0.6778267), wk =   0.0063492
        k(  141) = (  -0.4000000   0.4781110  -0.6778267), wk =   0.0063492
        k(  142) = (   0.4000000  -0.4781110  -0.6778267), wk =   0.0063492
        k(  143) = (  -0.4000000  -0.4781110   0.9037690), wk =   0.0063492
        k(  144) = (  -0.4000000   0.4781110  -0.9037690), wk =   0.0063492
        k(  145) = (   0.4000000  -0.4781110  -0.9037690), wk =   0.0063492
        k(  146) = (  -0.4000000   0.7171664   0.0000000), wk =   0.0063492
        k(  147) = (  -0.4000000  -0.7171664   0.2259422), wk =   0.0063492
        k(  148) = (  -0.4000000   0.7171664  -0.2259422), wk =   0.0063492
        k(  149) = (   0.4000000  -0.7171664  -0.2259422), wk =   0.0063492
        k(  150) = (  -0.4000000  -0.7171664   0.4518845), wk =   0.0063492
        k(  151) = (  -0.4000000   0.7171664  -0.4518845), wk =   0.0063492
        k(  152) = (   0.4000000  -0.7171664  -0.4518845), wk =   0.0063492
        k(  153) = (  -0.4000000  -0.7171664   0.6778267), wk =   0.0063492
        k(  154) = (  -0.4000000   0.7171664  -0.6778267), wk =   0.0063492
        k(  155) = (   0.4000000  -0.7171664  -0.6778267), wk =   0.0063492
        k(  156) = (  -0.4000000  -0.7171664   0.9037690), wk =   0.0063492
        k(  157) = (  -0.4000000   0.7171664  -0.9037690), wk =   0.0063492
        k(  158) = (   0.4000000  -0.7171664  -0.9037690), wk =   0.0063492

                       cryst. coord.
        k(    1) = (   0.0000000   0.0000000   0.0000000), wk =   0.0031746
        k(    2) = (   0.0000000   0.0000000   0.1111111), wk =   0.0063492
        k(    3) = (   0.0000000   0.0000000   0.2222222), wk =   0.0063492
        k(    4) = (   0.0000000   0.0000000   0.3333333), wk =   0.0063492
        k(    5) = (   0.0000000   0.0000000   0.4444444), wk =   0.0063492
        k(    6) = (   0.0000000   0.1428571   0.0000000), wk =   0.0063492
        k(    7) = (   0.0000000   0.1428571   0.1111111), wk =   0.0063492
        k(    8) = (   0.0000000   0.1428571   0.2222222), wk =   0.0063492
        k(    9) = (   0.0000000   0.1428571   0.3333333), wk =   0.0063492
        k(   10) = (   0.0000000   0.1428571   0.4444444), wk =   0.0063492
        k(   11) = (   0.0000000   0.2857143   0.0000000), wk =   0.0063492
        k(   12) = (   0.0000000   0.2857143   0.1111111), wk =   0.0063492
        k(   13) = (   0.0000000   0.2857143   0.2222222), wk =   0.0063492
        k(   14) = (   0.0000000   0.2857143   0.3333333), wk =   0.0063492
        k(   15) = (   0.0000000   0.2857143   0.4444444), wk =   0.0063492
        k(   16) = (   0.0000000   0.4285714   0.0000000), wk =   0.0063492
        k(   17) = (   0.0000000   0.4285714   0.1111111), wk =   0.0063492
        k(   18) = (   0.0000000   0.4285714   0.2222222), wk =   0.0063492
        k(   19) = (   0.0000000   0.4285714   0.3333333), wk =   0.0063492
        k(   20) = (   0.0000000   0.4285714   0.4444444), wk =   0.0063492
        k(   21) = (   0.2000000   0.0000000   0.0000000), wk =   0.0063492
        k(   22) = (   0.2000000   0.0000000   0.1111111), wk =   0.0063492
        k(   23) = (   0.2000000   0.0000000   0.2222222), wk =   0.0063492
        k(   24) = (   0.2000000   0.0000000   0.3333333), wk =   0.0063492
        k(   25) = (   0.2000000   0.0000000   0.4444444), wk =   0.0063492
        k(   26) = (   0.2000000   0.1428571   0.0000000), wk =   0.0063492
        k(   27) = (   0.2000000   0.1428571   0.1111111), wk =   0.0063492
        k(   28) = (   0.2000000   0.1428571   0.2222222), wk =   0.0063492
        k(   29) = (   0.2000000   0.1428571   0.3333333), wk =   0.0063492
        k(   30) = (   0.2000000   0.1428571   0.4444444), wk =   0.0063492
        k(   31) = (   0.2000000   0.2857143   0.0000000), wk =   0.0063492
        k(   32) = (   0.2000000   0.2857143   0.1111111), wk =   0.0063492
        k(   33) = (   0.2000000   0.2857143   0.2222222), wk =   0.0063492
        k(   34) = (   0.2000000   0.2857143   0.3333333), wk =   0.0063492
        k(   35) = (   0.2000000   0.2857143   0.4444444), wk =   0.0063492
        k(   36) = (   0.2000000   0.4285714   0.0000000), wk =   0.0063492
        k(   37) = (   0.2000000   0.4285714   0.1111111), wk =   0.0063492
        k(   38) = (   0.2000000   0.4285714   0.2222222), wk =   0.0063492
        k(   39) = (   0.2000000   0.4285714   0.3333333), wk =   0.0063492
        k(   40) = (   0.2000000   0.4285714   0.4444444), wk =   0.0063492
        k(   41) = (   0.4000000   0.0000000   0.0000000), wk =   0.0063492
        k(   42) = (   0.4000000   0.0000000   0.1111111), wk =   0.0063492
        k(   43) = (   0.4000000   0.0000000   0.2222222), wk =   0.0063492
        k(   44) = (   0.4000000   0.0000000   0.3333333), wk =   0.0063492
        k(   45) = (   0.4000000   0.0000000   0.4444444), wk =   0.0063492
        k(   46) = (   0.4000000   0.1428571   0.0000000), wk =   0.0063492
        k(   47) = (   0.4000000   0.1428571   0.1111111), wk =   0.0063492
        k(   48) = (   0.4000000   0.1428571   0.2222222), wk =   0.0063492
        k(   49) = (   0.4000000   0.1428571   0.3333333), wk =   0.0063492
        k(   50) = (   0.4000000   0.1428571   0.4444444), wk =   0.0063492
        k(   51) = (   0.4000000   0.2857143   0.0000000), wk =   0.0063492
        k(   52) = (   0.4000000   0.2857143   0.1111111), wk =   0.0063492
        k(   53) = (   0.4000000   0.2857143   0.2222222), wk =   0.0063492
        k(   54) = (   0.4000000   0.2857143   0.3333333), wk =   0.0063492
        k(   55) = (   0.4000000   0.2857143   0.4444444), wk =   0.0063492
        k(   56) = (   0.4000000   0.4285714   0.0000000), wk =   0.0063492
        k(   57) = (   0.4000000   0.4285714   0.1111111), wk =   0.0063492
        k(   58) = (   0.4000000   0.4285714   0.2222222), wk =   0.0063492
        k(   59) = (   0.4000000   0.4285714   0.3333333), wk =   0.0063492
        k(   60) = (   0.4000000   0.4285714   0.4444444), wk =   0.0063492
        k(   61) = (   0.0000000  -0.1428571   0.1111111), wk =   0.0063492
        k(   62) = (   0.0000000  -0.1428571   0.2222222), wk =   0.0063492
        k(   63) = (   0.0000000  -0.1428571   0.3333333), wk =   0.0063492
        k(   64) = (   0.0000000  -0.1428571   0.4444444), wk =   0.0063492
        k(   65) = (   0.0000000  -0.2857143   0.1111111), wk =   0.0063492
        k(   66) = (   0.0000000  -0.2857143   0.2222222), wk =   0.0063492
        k(   67) = (   0.0000000  -0.2857143   0.3333333), wk =   0.0063492
        k(   68) = (   0.0000000  -0.2857143   0.4444444), wk =   0.0063492
        k(   69) = (   0.0000000  -0.4285714   0.1111111), wk =   0.0063492
        k(   70) = (   0.0000000  -0.4285714   0.2222222), wk =   0.0063492
        k(   71) = (   0.0000000  -0.4285714   0.3333333), wk =   0.0063492
        k(   72) = (   0.0000000  -0.4285714   0.4444444), wk =   0.0063492
        k(   73) = (  -0.2000000   0.0000000   0.1111111), wk =   0.0063492
        k(   74) = (  -0.2000000   0.0000000   0.2222222), wk =   0.0063492
        k(   75) = (  -0.2000000   0.0000000   0.3333333), wk =   0.0063492
        k(   76) = (  -0.2000000   0.0000000   0.4444444), wk =   0.0063492
        k(   77) = (  -0.2000000   0.1428571   0.0000000), wk =   0.0063492
        k(   78) = (  -0.2000000  -0.1428571   0.1111111), wk =   0.0063492
        k(   79) = (  -0.2000000   0.1428571  -0.1111111), wk =   0.0063492
        k(   80) = (   0.2000000  -0.1428571  -0.1111111), wk =   0.0063492
        k(   81) = (  -0.2000000  -0.1428571   0.2222222), wk =   0.0063492
        k(   82) = (  -0.2000000   0.1428571  -0.2222222), wk =   0.0063492
        k(   83) = (   0.2000000  -0.1428571  -0.2222222), wk =   0.0063492
        k(   84) = (  -0.2000000  -0.1428571   0.3333333), wk =   0.0063492
        k(   85) = (  -0.2000000   0.1428571  -0.3333333), wk =   0.0063492
        k(   86) = (   0.2000000  -0.1428571  -0.3333333), wk =   0.0063492
        k(   87) = (  -0.2000000  -0.1428571   0.4444444), wk =   0.0063492
        k(   88) = (  -0.2000000   0.1428571  -0.4444444), wk =   0.0063492
        k(   89) = (   0.2000000  -0.1428571  -0.4444444), wk =   0.0063492
        k(   90) = (  -0.2000000   0.2857143   0.0000000), wk =   0.0063492
        k(   91) = (  -0.2000000  -0.2857143   0.1111111), wk =   0.0063492
        k(   92) = (  -0.2000000   0.2857143  -0.1111111), wk =   0.0063492
        k(   93) = (   0.2000000  -0.2857143  -0.1111111), wk =   0.0063492
        k(   94) = (  -0.2000000  -0.2857143   0.2222222), wk =   0.0063492
        k(   95) = (  -0.2000000   0.2857143  -0.2222222), wk =   0.0063492
        k(   96) = (   0.2000000  -0.2857143  -0.2222222), wk =   0.0063492
        k(   97) = (  -0.2000000  -0.2857143   0.3333333), wk =   0.0063492
        k(   98) = (  -0.2000000   0.2857143  -0.3333333), wk =   0.0063492
        k(   99) = (   0.2000000  -0.2857143  -0.3333333), wk =   0.0063492
        k(  100) = (  -0.2000000  -0.2857143   0.4444444), wk =   0.0063492
        k(  101) = (  -0.2000000   0.2857143  -0.4444444), wk =   0.0063492
        k(  102) = (   0.2000000  -0.2857143  -0.4444444), wk =   0.0063492
        k(  103) = (  -0.2000000   0.4285714   0.0000000), wk =   0.0063492
        k(  104) = (  -0.2000000  -0.4285714   0.1111111), wk =   0.0063492
        k(  105) = (  -0.2000000   0.4285714  -0.1111111), wk =   0.0063492
        k(  106) = (   0.2000000  -0.4285714  -0.1111111), wk =   0.0063492
        k(  107) = (  -0.2000000  -0.4285714   0.2222222), wk =   0.0063492
        k(  108) = (  -0.2000000   0.4285714  -0.2222222), wk =   0.0063492
        k(  109) = (   0.2000000  -0.4285714  -0.2222222), wk =   0.0063492
        k(  110) = (  -0.2000000  -0.4285714   0.3333333), wk =   0.0063492
        k(  111) = (  -0.2000000   0.4285714  -0.3333333), wk =   0.0063492
        k(  112) = (   0.2000000  -0.4285714  -0.3333333), wk =   0.0063492
        k(  113) = (  -0.2000000  -0.4285714   0.4444444), wk =   0.0063492
        k(  114) = (  -0.2000000   0.4285714  -0.4444444), wk =   0.0063492
        k(  115) = (   0.2000000  -0.4285714  -0.4444444), wk =   0.0063492
        k(  116) = (  -0.4000000   0.0000000   0.1111111), wk =   0.0063492
        k(  117) = (  -0.4000000   0.0000000   0.2222222), wk =   0.0063492
        k(  118) = (  -0.4000000   0.0000000   0.3333333), wk =   0.0063492
        k(  119) = (  -0.4000000   0.0000000   0.4444444), wk =   0.0063492
        k(  120) = (  -0.4000000   0.1428571   0.0000000), wk =   0.0063492
        k(  121) = (  -0.4000000  -0.1428571   0.1111111), wk =   0.0063492
        k(  122) = (  -0.4000000   0.1428571  -0.1111111), wk =   0.0063492
        k(  123) = (   0.4000000  -0.1428571  -0.1111111), wk =   0.0063492
        k(  124) = (  -0.4000000  -0.1428571   0.2222222), wk =   0.0063492
        k(  125) = (  -0.4000000   0.1428571  -0.2222222), wk =   0.0063492
        k(  126) = (   0.4000000  -0.1428571  -0.2222222), wk =   0.0063492
        k(  127) = (  -0.4000000  -0.1428571   0.3333333), wk =   0.0063492
        k(  128) = (  -0.4000000   0.1428571  -0.3333333), wk =   0.0063492
        k(  129) = (   0.4000000  -0.1428571  -0.3333333), wk =   0.0063492
        k(  130) = (  -0.4000000  -0.1428571   0.4444444), wk =   0.0063492
        k(  131) = (  -0.4000000   0.1428571  -0.4444444), wk =   0.0063492
        k(  132) = (   0.4000000  -0.1428571  -0.4444444), wk =   0.0063492
        k(  133) = (  -0.4000000   0.2857143   0.0000000), wk =   0.0063492
        k(  134) = (  -0.4000000  -0.2857143   0.1111111), wk =   0.0063492
        k(  135) = (  -0.4000000   0.2857143  -0.1111111), wk =   0.0063492
        k(  136) = (   0.4000000  -0.2857143  -0.1111111), wk =   0.0063492
        k(  137) = (  -0.4000000  -0.2857143   0.2222222), wk =   0.0063492
        k(  138) = (  -0.4000000   0.2857143  -0.2222222), wk =   0.0063492
        k(  139) = (   0.4000000  -0.2857143  -0.2222222), wk =   0.0063492
        k(  140) = (  -0.4000000  -0.2857143   0.3333333), wk =   0.0063492
        k(  141) = (  -0.4000000   0.2857143  -0.3333333), wk =   0.0063492
        k(  142) = (   0.4000000  -0.2857143  -0.3333333), wk =   0.0063492
        k(  143) = (  -0.4000000  -0.2857143   0.4444444), wk =   0.0063492
        k(  144) = (  -0.4000000   0.2857143  -0.4444444), wk =   0.0063492
        k(  145) = (   0.4000000  -0.2857143  -0.4444444), wk =   0.0063492
        k(  146) = (  -0.4000000   0.4285714   0.0000000), wk =   0.0063492
        k(  147) = (  -0.4000000  -0.4285714   0.1111111), wk =   0.0063492
        k(  148) = (  -0.4000000   0.4285714  -0.1111111), wk =   0.0063492
        k(  149) = (   0.4000000  -0.4285714  -0.1111111), wk =   0.0063492
        k(  150) = (  -0.4000000  -0.4285714   0.2222222), wk =   0.0063492
        k(  151) = (  -0.4000000   0.4285714  -0.2222222), wk =   0.0063492
        k(  152) = (   0.4000000  -0.4285714  -0.2222222), wk =   0.0063492
        k(  153) = (  -0.4000000  -0.4285714   0.3333333), wk =   0.0063492
        k(  154) = (  -0.4000000   0.4285714  -0.3333333), wk =   0.0063492
        k(  155) = (   0.4000000  -0.4285714  -0.3333333), wk =   0.0063492
        k(  156) = (  -0.4000000  -0.4285714   0.4444444), wk =   0.0063492
        k(  157) = (  -0.4000000   0.4285714  -0.4444444), wk =   0.0063492
        k(  158) = (   0.4000000  -0.4285714  -0.4444444), wk =   0.0063492

     Dense  grid:  1210029 G-vectors     FFT dimensions: ( 200, 120, 100)

     Smooth grid:   272791 G-vectors     FFT dimensions: ( 125,  75,  60)

     Dynamical RAM for                 wfc:       2.47 MB

     Dynamical RAM for     wfc (w. buffer):     783.02 MB

     Dynamical RAM for           str. fact:       3.08 MB

     Dynamical RAM for           local pot:       0.00 MB

     Dynamical RAM for          nlocal pot:       6.07 MB

     Dynamical RAM for                qrad:      10.54 MB

     Dynamical RAM for          rho,v,vnew:      10.11 MB

     Dynamical RAM for               rhoin:       3.37 MB

     Dynamical RAM for            rho*nmix:      24.62 MB

     Dynamical RAM for           G-vectors:       2.97 MB

     Dynamical RAM for          h,s,v(r/c):       2.38 MB

     Dynamical RAM for          <psi|beta>:       0.49 MB

     Dynamical RAM for                 psi:       4.94 MB

     Dynamical RAM for                hpsi:       4.94 MB

     Dynamical RAM for                spsi:       4.94 MB

     Dynamical RAM for      wfcinit/wfcrot:       6.37 MB

     Dynamical RAM for           addusdens:     156.17 MB

     Dynamical RAM for          addusforce:     179.38 MB

     Dynamical RAM for         addusstress:     155.79 MB

     Estimated static dynamical RAM per process >     853.12 MB

     Estimated max dynamical RAM per process >       1.01 GB

     Estimated total dynamical RAM >      24.20 GB

     Check: negative core charge=   -0.000003
     Generating pointlists ...
     new r_m :   0.0770 (alat units)  1.4641 (a.u.) for type    1
     new r_m :   0.0896 (alat units)  1.7027 (a.u.) for type    2
     new r_m :   0.0611 (alat units)  1.1610 (a.u.) for type    3
     new r_m :   0.0611 (alat units)  1.1610 (a.u.) for type    4

     Initial potential from superposition of free atoms

     starting charge  188.99132, renormalised to  189.00000
     Starting wfcs are  137 randomized atomic wfcs
     Checking if some PAW data can be deallocated... 
       PAW data deallocated on   20 nodes for type:  1
       PAW data deallocated on    8 nodes for type:  3

     total cpu time spent up to now is      205.1 secs

     Self-consistent Calculation

     iteration #  1     ecut=   100.00 Ry     beta= 0.40
     Davidson diagonalization with overlap
     ethr =  1.00E-02,  avg # of iterations =  3.1

     negative rho (up, down):  0.000E+00 1.440E-04

     total cpu time spent up to now is      996.1 secs

     total energy              =   -2123.93331734 Ry
     estimated scf accuracy    <       6.91888831 Ry

     total magnetization       =    19.00 Bohr mag/cell
     absolute magnetization    =    19.00 Bohr mag/cell

     iteration #  2     ecut=   100.00 Ry     beta= 0.40
     Davidson diagonalization with overlap
     ethr =  3.66E-03,  avg # of iterations =  2.0

     negative rho (up, down):  0.000E+00 9.375E-05

     total cpu time spent up to now is     1580.3 secs

     total energy              =   -2120.82391246 Ry
     estimated scf accuracy    <      44.17170329 Ry

     total magnetization       =     7.30 Bohr mag/cell
     absolute magnetization    =     8.61 Bohr mag/cell

     iteration #  3     ecut=   100.00 Ry     beta= 0.40
     Davidson diagonalization with overlap
     ethr =  3.66E-03,  avg # of iterations =  2.8

     negative rho (up, down):  0.000E+00 6.099E-05

     total cpu time spent up to now is     2100.4 secs

     total energy              =   -2123.52036823 Ry
     estimated scf accuracy    <      58.77230716 Ry

     total magnetization       =     3.37 Bohr mag/cell
     absolute magnetization    =     7.55 Bohr mag/cell

     iteration #  4     ecut=   100.00 Ry     beta= 0.40
     Davidson diagonalization with overlap
     ethr =  3.66E-03,  avg # of iterations =  1.6

     negative rho (up, down):  0.000E+00 5.382E-05

     total cpu time spent up to now is     2549.2 secs

     total energy              =   -2124.55710429 Ry
     estimated scf accuracy    <      30.01677583 Ry

     total magnetization       =     9.00 Bohr mag/cell
     absolute magnetization    =     9.38 Bohr mag/cell

     iteration #  5     ecut=   100.00 Ry     beta= 0.40
     Davidson diagonalization with overlap
     ethr =  3.66E-03,  avg # of iterations =  2.0

     negative rho (up, down):  0.000E+00 1.681E-04

     total cpu time spent up to now is     3038.5 secs

     total energy              =   -2125.95999327 Ry
     estimated scf accuracy    <       1.58769632 Ry

     total magnetization       =    19.00 Bohr mag/cell
     absolute magnetization    =    19.00 Bohr mag/cell

     iteration #  6     ecut=   100.00 Ry     beta= 0.40
     Davidson diagonalization with overlap
     ethr =  8.40E-04,  avg # of iterations =  2.0

     negative rho (up, down):  0.000E+00 2.858E-04

     total cpu time spent up to now is     3528.1 secs

     total energy              =   -2126.05838291 Ry
     estimated scf accuracy    <       0.50351561 Ry

     total magnetization       =    19.00 Bohr mag/cell
     absolute magnetization    =    19.00 Bohr mag/cell

     iteration #  7     ecut=   100.00 Ry     beta= 0.40
     Davidson diagonalization with overlap
     ethr =  2.66E-04,  avg # of iterations =  3.4

     negative rho (up, down):  0.000E+00 3.897E-04

     total cpu time spent up to now is     4028.2 secs

     total energy              =   -2126.06763539 Ry
     estimated scf accuracy    <       0.19260254 Ry

     total magnetization       =    19.00 Bohr mag/cell
     absolute magnetization    =    19.00 Bohr mag/cell

     iteration #  8     ecut=   100.00 Ry     beta= 0.40
     Davidson diagonalization with overlap
     c_bands:  1 eigenvalues not converged
     c_bands:  1 eigenvalues not converged
     c_bands:  1 eigenvalues not converged
     ethr =  1.02E-04,  avg # of iterations = 11.1

     negative rho (up, down):  0.000E+00 4.827E-04

     total cpu time spent up to now is     4813.7 secs

     total energy              =   -2126.06069674 Ry
     estimated scf accuracy    <       0.36264973 Ry

     total magnetization       =    19.00 Bohr mag/cell
     absolute magnetization    =    19.01 Bohr mag/cell

     iteration #  9     ecut=   100.00 Ry     beta= 0.40
     Davidson diagonalization with overlap
     ethr =  1.02E-04,  avg # of iterations =  1.3

     negative rho (up, down):  0.000E+00 5.679E-04

     total cpu time spent up to now is     5245.9 secs

     total energy              =   -2126.08421198 Ry
     estimated scf accuracy    <       0.06350837 Ry

     total magnetization       =    19.00 Bohr mag/cell
     absolute magnetization    =    19.01 Bohr mag/cell

     iteration # 10     ecut=   100.00 Ry     beta= 0.40
     Davidson diagonalization with overlap
     c_bands:  1 eigenvalues not converged
     c_bands:  1 eigenvalues not converged
     c_bands:  1 eigenvalues not converged
     c_bands:  1 eigenvalues not converged
     c_bands:  1 eigenvalues not converged
     c_bands:  1 eigenvalues not converged
     ethr =  3.36E-05,  avg # of iterations =  4.9

     negative rho (up, down):  0.000E+00 7.405E-04

     total cpu time spent up to now is     5796.8 secs

     total energy              =   -2126.08930569 Ry
     estimated scf accuracy    <       0.02877637 Ry

     total magnetization       =    19.00 Bohr mag/cell
     absolute magnetization    =    19.02 Bohr mag/cell

     iteration # 11     ecut=   100.00 Ry     beta= 0.40
     Davidson diagonalization with overlap
     c_bands:  1 eigenvalues not converged
     c_bands:  1 eigenvalues not converged
     c_bands:  1 eigenvalues not converged
     c_bands:  1 eigenvalues not converged
     c_bands:  1 eigenvalues not converged
     c_bands:  1 eigenvalues not converged
     c_bands:  1 eigenvalues not converged
     c_bands:  1 eigenvalues not converged
     c_bands:  1 eigenvalues not converged
     c_bands:  1 eigenvalues not converged
     c_bands:  1 eigenvalues not converged
     c_bands:  1 eigenvalues not converged
     c_bands:  2 eigenvalues not converged
     c_bands:  1 eigenvalues not converged
     c_bands:  1 eigenvalues not converged
     c_bands:  1 eigenvalues not converged
     ethr =  1.52E-05,  avg # of iterations =  6.0

     negative rho (up, down):  0.000E+00 8.163E-04

     total cpu time spent up to now is     6380.0 secs

     total energy              =   -2126.09217424 Ry
     estimated scf accuracy    <       0.07371152 Ry

     total magnetization       =    19.00 Bohr mag/cell
     absolute magnetization    =    19.03 Bohr mag/cell

     iteration # 12     ecut=   100.00 Ry     beta= 0.40
     Davidson diagonalization with overlap
     ethr =  1.52E-05,  avg # of iterations =  1.4

     negative rho (up, down):  0.000E+00 8.216E-04

     total cpu time spent up to now is     6813.9 secs

     total energy              =   -2126.09275734 Ry
     estimated scf accuracy    <       0.03249770 Ry

     total magnetization       =    19.00 Bohr mag/cell
     absolute magnetization    =    19.04 Bohr mag/cell

     iteration # 13     ecut=   100.00 Ry     beta= 0.40
     Davidson diagonalization with overlap
     ethr =  1.52E-05,  avg # of iterations =  1.1

     negative rho (up, down):  0.000E+00 8.214E-04

     total cpu time spent up to now is     7233.4 secs

     total energy              =   -2126.09353442 Ry
     estimated scf accuracy    <       0.00139571 Ry

     total magnetization       =    19.00 Bohr mag/cell
     absolute magnetization    =    19.04 Bohr mag/cell

     iteration # 14     ecut=   100.00 Ry     beta= 0.40
     Davidson diagonalization with overlap
     c_bands:  1 eigenvalues not converged
     c_bands:  2 eigenvalues not converged
     c_bands:  1 eigenvalues not converged
     c_bands:  1 eigenvalues not converged
     c_bands:  1 eigenvalues not converged
     c_bands:  1 eigenvalues not converged
     c_bands:  1 eigenvalues not converged
     c_bands:  1 eigenvalues not converged
     c_bands:  1 eigenvalues not converged
     c_bands:  1 eigenvalues not converged
     c_bands:  1 eigenvalues not converged
     c_bands:  1 eigenvalues not converged
     c_bands:  1 eigenvalues not converged
     c_bands:  1 eigenvalues not converged
     c_bands:  2 eigenvalues not converged
     c_bands:  1 eigenvalues not converged
     c_bands:  1 eigenvalues not converged
     c_bands:  1 eigenvalues not converged
     c_bands:  1 eigenvalues not converged
     c_bands:  1 eigenvalues not converged
     c_bands:  2 eigenvalues not converged
     c_bands:  2 eigenvalues not converged
     c_bands:  1 eigenvalues not converged
     c_bands:  2 eigenvalues not converged
     c_bands:  1 eigenvalues not converged
     c_bands:  1 eigenvalues not converged
     c_bands:  2 eigenvalues not converged
     c_bands:  1 eigenvalues not converged
     c_bands:  1 eigenvalues not converged
     c_bands:  2 eigenvalues not converged
     c_bands:  1 eigenvalues not converged
     c_bands:  1 eigenvalues not converged
     ethr =  7.38E-07,  avg # of iterations = 13.2

     negative rho (up, down):  0.000E+00 8.247E-04

     total cpu time spent up to now is     8445.0 secs

     total energy              =   -2126.09422057 Ry
     estimated scf accuracy    <       0.01322259 Ry

     total magnetization       =    19.00 Bohr mag/cell
     absolute magnetization    =    19.04 Bohr mag/cell

     iteration # 15     ecut=   100.00 Ry     beta= 0.40
     Davidson diagonalization with overlap
     c_bands:  1 eigenvalues not converged
     ethr =  7.38E-07,  avg # of iterations =  1.3

     negative rho (up, down):  0.000E+00 8.213E-04

     total cpu time spent up to now is     8868.0 secs

     total energy              =   -2126.09428417 Ry
     estimated scf accuracy    <       0.00313402 Ry

     total magnetization       =    19.00 Bohr mag/cell
     absolute magnetization    =    19.04 Bohr mag/cell

     iteration # 16     ecut=   100.00 Ry     beta= 0.40
     Davidson diagonalization with overlap
     ethr =  7.38E-07,  avg # of iterations =  1.0

     negative rho (up, down):  0.000E+00 8.103E-04

     total cpu time spent up to now is     9283.0 secs

     total energy              =   -2126.09427630 Ry
     estimated scf accuracy    <       0.00112858 Ry

     total magnetization       =    19.00 Bohr mag/cell
     absolute magnetization    =    19.04 Bohr mag/cell

     iteration # 17     ecut=   100.00 Ry     beta= 0.40
     Davidson diagonalization with overlap
     ethr =  5.97E-07,  avg # of iterations =  1.0

     negative rho (up, down):  0.000E+00 8.077E-04

     total cpu time spent up to now is     9697.0 secs

     total energy              =   -2126.09428977 Ry
     estimated scf accuracy    <       0.00006713 Ry

     total magnetization       =    19.00 Bohr mag/cell
     absolute magnetization    =    19.04 Bohr mag/cell

     iteration # 18     ecut=   100.00 Ry     beta= 0.40
     Davidson diagonalization with overlap
     ethr =  3.55E-08,  avg # of iterations =  1.1

     negative rho (up, down):  0.000E+00 8.059E-04

     total cpu time spent up to now is    10284.4 secs

     total energy              =   -2126.09429354 Ry
     estimated scf accuracy    <       0.00000503 Ry

     total magnetization       =    19.00 Bohr mag/cell
     absolute magnetization    =    19.04 Bohr mag/cell

     iteration # 19     ecut=   100.00 Ry     beta= 0.40
     Davidson diagonalization with overlap
     ethr =  2.66E-09,  avg # of iterations =  4.4

     negative rho (up, down):  0.000E+00 8.045E-04

     total cpu time spent up to now is    11054.8 secs

     total energy              =   -2126.09429639 Ry
     estimated scf accuracy    <       0.00000375 Ry

     total magnetization       =    19.00 Bohr mag/cell
     absolute magnetization    =    19.04 Bohr mag/cell

     iteration # 20     ecut=   100.00 Ry     beta= 0.40
     Davidson diagonalization with overlap
     ethr =  1.99E-09,  avg # of iterations =  1.5

     negative rho (up, down):  0.000E+00 8.045E-04

     total cpu time spent up to now is    12048.2 secs

     total energy              =   -2126.09429678 Ry
     estimated scf accuracy    <       0.00000100 Ry

     total magnetization       =    19.00 Bohr mag/cell
     absolute magnetization    =    19.04 Bohr mag/cell

     iteration # 21     ecut=   100.00 Ry     beta= 0.40
     Davidson diagonalization with overlap
     ethr =  5.30E-10,  avg # of iterations =  1.3

     negative rho (up, down):  0.000E+00 8.043E-04

     total cpu time spent up to now is    12589.8 secs

     total energy              =   -2126.09429691 Ry
     estimated scf accuracy    <       0.00000045 Ry

     total magnetization       =    19.00 Bohr mag/cell
     absolute magnetization    =    19.04 Bohr mag/cell

     iteration # 22     ecut=   100.00 Ry     beta= 0.40
     Davidson diagonalization with overlap
     ethr =  2.39E-10,  avg # of iterations =  2.4

     negative rho (up, down):  0.000E+00 8.046E-04

     total cpu time spent up to now is    13103.3 secs

     total energy              =   -2126.09429702 Ry
     estimated scf accuracy    <       0.00000042 Ry

     total magnetization       =    19.00 Bohr mag/cell
     absolute magnetization    =    19.04 Bohr mag/cell

     iteration # 23     ecut=   100.00 Ry     beta= 0.40
     Davidson diagonalization with overlap
     ethr =  2.21E-10,  avg # of iterations =  1.5

     negative rho (up, down):  0.000E+00 8.048E-04

     total cpu time spent up to now is    13869.0 secs

     total energy              =   -2126.09429706 Ry
     estimated scf accuracy    <       0.00000012 Ry

     total magnetization       =    19.00 Bohr mag/cell
     absolute magnetization    =    19.04 Bohr mag/cell

     iteration # 24     ecut=   100.00 Ry     beta= 0.40
     Davidson diagonalization with overlap
     ethr =  6.48E-11,  avg # of iterations =  2.0

     negative rho (up, down):  0.000E+00 8.048E-04

     total cpu time spent up to now is    14338.5 secs

     total energy              =   -2126.09429707 Ry
     estimated scf accuracy    <       0.00000008 Ry

     total magnetization       =    19.00 Bohr mag/cell
     absolute magnetization    =    19.04 Bohr mag/cell

     iteration # 25     ecut=   100.00 Ry     beta= 0.40
     Davidson diagonalization with overlap
     ethr =  4.34E-11,  avg # of iterations =  2.0

     negative rho (up, down):  0.000E+00 8.048E-04

     total cpu time spent up to now is    14827.7 secs

     total energy              =   -2126.09429709 Ry
     estimated scf accuracy    <       0.00000001 Ry

     total magnetization       =    19.00 Bohr mag/cell
     absolute magnetization    =    19.04 Bohr mag/cell

     iteration # 26     ecut=   100.00 Ry     beta= 0.40
     Davidson diagonalization with overlap
     ethr =  7.61E-12,  avg # of iterations =  4.4

     negative rho (up, down):  0.000E+00 8.048E-04

     total cpu time spent up to now is    15548.7 secs

     total energy              =   -2126.09429709 Ry
     estimated scf accuracy    <       0.00000001 Ry

     total magnetization       =    19.00 Bohr mag/cell
     absolute magnetization    =    19.04 Bohr mag/cell

     iteration # 27     ecut=   100.00 Ry     beta= 0.40
     Davidson diagonalization with overlap
     ethr =  7.36E-12,  avg # of iterations =  2.0

     negative rho (up, down):  0.000E+00 8.048E-04

     total cpu time spent up to now is    16048.9 secs

     total energy              =   -2126.09429710 Ry
     estimated scf accuracy    <       0.00000002 Ry

     total magnetization       =    19.00 Bohr mag/cell
     absolute magnetization    =    19.04 Bohr mag/cell

     iteration # 28     ecut=   100.00 Ry     beta= 0.40
     Davidson diagonalization with overlap
     ethr =  7.36E-12,  avg # of iterations =  2.0

     negative rho (up, down):  0.000E+00 8.048E-04

     total cpu time spent up to now is    16553.6 secs

     total energy              =   -2126.09429710 Ry
     estimated scf accuracy    <       0.00000001 Ry

     total magnetization       =    19.00 Bohr mag/cell
     absolute magnetization    =    19.04 Bohr mag/cell

     iteration # 29     ecut=   100.00 Ry     beta= 0.40
     Davidson diagonalization with overlap
     ethr =  6.75E-12,  avg # of iterations =  1.0

     negative rho (up, down):  0.000E+00 8.048E-04

     total cpu time spent up to now is    16966.4 secs

     total energy              =   -2126.09429710 Ry
     estimated scf accuracy    <          1.9E-09 Ry

     total magnetization       =    19.00 Bohr mag/cell
     absolute magnetization    =    19.04 Bohr mag/cell

     iteration # 30     ecut=   100.00 Ry     beta= 0.40
     Davidson diagonalization with overlap
     ethr =  1.02E-12,  avg # of iterations =  1.8

     negative rho (up, down):  0.000E+00 8.048E-04

     total cpu time spent up to now is    17549.6 secs

     total energy              =   -2126.09429710 Ry
     estimated scf accuracy    <          2.4E-10 Ry

     total magnetization       =    19.00 Bohr mag/cell
     absolute magnetization    =    19.04 Bohr mag/cell

     iteration # 31     ecut=   100.00 Ry     beta= 0.40
     Davidson diagonalization with overlap
     ethr =  1.28E-13,  avg # of iterations =  4.3

     negative rho (up, down):  0.000E+00 8.048E-04

     Magnetic moment per site:
     atom:    1    charge:    7.8758    magn:    0.0006    constr:    0.0000
     atom:    2    charge:   12.7562    magn:    3.6376    constr:    0.0000
     atom:    3    charge:   12.7610    magn:    3.6272    constr:    0.0000
     atom:    4    charge:   12.8041    magn:    3.5095    constr:    0.0000
     atom:    5    charge:   12.7633    magn:    3.6268    constr:    0.0000
     atom:    6    charge:    0.7800    magn:    0.0108    constr:    0.0000
     atom:    7    charge:    0.7829    magn:    0.0086    constr:    0.0000
     atom:    8    charge:    0.7829    magn:    0.0116    constr:    0.0000
     atom:    9    charge:    0.7773    magn:    0.0093    constr:    0.0000
     atom:   10    charge:    4.1032    magn:    0.1350    constr:    0.0000
     atom:   11    charge:    4.1189    magn:    0.0906    constr:    0.0000
     atom:   12    charge:    4.1051    magn:    0.1239    constr:    0.0000
     atom:   13    charge:    4.1019    magn:    0.1100    constr:    0.0000
     atom:   14    charge:    4.1311    magn:    0.1097    constr:    0.0000
     atom:   15    charge:    4.1380    magn:    0.1222    constr:    0.0000
     atom:   16    charge:    4.1307    magn:    0.0758    constr:    0.0000
     atom:   17    charge:    4.1320    magn:    0.1322    constr:    0.0000
     atom:   18    charge:    4.1015    magn:    0.1484    constr:    0.0000
     atom:   19    charge:    4.1049    magn:    0.1310    constr:    0.0000
     atom:   20    charge:    4.1090    magn:    0.1429    constr:    0.0000
     atom:   21    charge:    4.1000    magn:    0.1218    constr:    0.0000
     atom:   22    charge:    4.1090    magn:    0.1429    constr:    0.0000
     atom:   23    charge:    4.1000    magn:    0.1218    constr:    0.0000
     atom:   24    charge:    4.1015    magn:    0.1484    constr:    0.0000
     atom:   25    charge:    4.1049    magn:    0.1310    constr:    0.0000

     total cpu time spent up to now is    18277.6 secs

     End of self-consistent calculation

 ------ SPIN UP ------------


          k = 0.0000 0.0000 0.0000 ( 34089 PWs)   bands (ev):

   -84.3111 -84.2938 -84.2819 -83.8264 -50.4488 -50.3862 -50.3650 -50.2663
   -50.2607 -50.2467 -50.2461 -50.2091 -50.1805 -50.1708 -49.7695 -49.5865
   -44.3092 -16.3786 -16.3058 -16.2526 -15.9720 -15.7545 -15.5544 -15.4458
   -13.5043 -13.3608 -13.1976 -13.1681 -13.0367 -12.9911 -12.9623 -12.9276
   -12.8066 -12.7716 -12.6950 -12.6743  -3.5604  -3.0503  -2.9112  -2.4398
    -1.8309  -1.4320  -1.3464  -1.1513  -1.1024  -0.9297  -0.7717  -0.7153
    -0.6047  -0.4179  -0.2475   0.0115   0.2182   0.2767   0.8373   0.8807
     0.9154   1.0463   1.1656   1.2115   1.3613   1.3738   1.6278   1.6778
     1.8755   2.0524   2.1053   2.2035   2.2391   2.2448   2.2725   2.3671
     2.4589   2.7088   2.8663   2.9310   2.9456   3.0626   3.1195   3.2378
     3.3446   3.4322   3.5525   3.6665   3.7267   3.8823   3.9858   4.0296
     4.0567   4.2392   4.2657   4.2729   4.3673   4.4548   4.5473   4.6532
     4.7101   4.9813   5.0494   5.1821   5.4241   5.5830   5.7546   5.8811
    10.3406  12.4310  12.7054  13.3104  13.5611  13.8358  14.5471  14.6255
    14.6762  14.8450

     occupation numbers 
     1.0000   1.0000   1.0000   1.0000   1.0000   1.0000   1.0000   1.0000
     1.0000   1.0000   1.0000   1.0000   1.0000   1.0000   1.0000   1.0000
     1.0000   1.0000   1.0000   1.0000   1.0000   1.0000   1.0000   1.0000
     1.0000   1.0000   1.0000   1.0000   1.0000   1.0000   1.0000   1.0000
     1.0000   1.0000   1.0000   1.0000   1.0000   1.0000   1.0000   1.0000
     1.0000   1.0000   1.0000   1.0000   1.0000   1.0000   1.0000   1.0000
     1.0000   1.0000   1.0000   1.0000   1.0000   1.0000   1.0000   1.0000
     1.0000   1.0000   1.0000   1.0000   1.0000   1.0000   1.0000   1.0000
     1.0000   1.0000   1.0000   1.0000   1.0000   1.0000   1.0000   1.0000
     1.0000   1.0000   1.0000   1.0000   1.0000   1.0000   1.0000   1.0000
     1.0000   1.0000   1.0000   1.0000   1.0000   1.0000   1.0000   1.0000
     1.0000   1.0000   1.0000   1.0000   1.0000   1.0000   1.0000   1.0000
     1.0000   1.0000   1.0000   1.0000   1.0000   1.0000   1.0000   1.0000
     0.0000   0.0000   0.0000   0.0000   0.0000   0.0000   0.0000   0.0000
     0.0000   0.0000

          k = 0.0000 0.0000 0.2259 ( 34083 PWs)   bands (ev):

   -84.3111 -84.2938 -84.2819 -83.8264 -50.4488 -50.3862 -50.3650 -50.2663
   -50.2607 -50.2467 -50.2461 -50.2091 -50.1805 -50.1708 -49.7695 -49.5865
   -44.3092 -16.3810 -16.3151 -16.2526 -15.9543 -15.7453 -15.5486 -15.4440
   -13.5067 -13.3612 -13.2124 -13.1636 -13.0327 -13.0002 -12.9654 -12.9236
   -12.8101 -12.7833 -12.6988 -12.6838  -3.5329  -3.0401  -2.9074  -2.4558
    -1.7797  -1.4107  -1.3493  -1.1426  -1.0948  -0.9452  -0.7914  -0.6410
    -0.5979  -0.3858  -0.2941   0.0404   0.2342   0.2361   0.8484   0.8741
     0.9265   1.0660   1.1647   1.2342   1.3508   1.3608   1.5951   1.7148
     1.8541   2.0295   2.0685   2.1590   2.2195   2.2227   2.2632   2.3203
     2.5964   2.6885   2.7908   2.8717   2.9870   3.0479   3.1099   3.2160
     3.3216   3.4055   3.5901   3.6847   3.8264   3.8563   3.9058   4.0243
     4.0392   4.2122   4.2346   4.2837   4.3922   4.4502   4.6137   4.6528
     4.7594   4.9704   5.0808   5.1778   5.4200   5.5628   5.7262   5.8571
    10.4945  12.5085  12.7812  13.3207  13.5917  13.8148  14.4885  14.5156
    14.6355  14.8466

     occupation numbers 
     1.0000   1.0000   1.0000   1.0000   1.0000   1.0000   1.0000   1.0000
     1.0000   1.0000   1.0000   1.0000   1.0000   1.0000   1.0000   1.0000
     1.0000   1.0000   1.0000   1.0000   1.0000   1.0000   1.0000   1.0000
     1.0000   1.0000   1.0000   1.0000   1.0000   1.0000   1.0000   1.0000
     1.0000   1.0000   1.0000   1.0000   1.0000   1.0000   1.0000   1.0000
     1.0000   1.0000   1.0000   1.0000   1.0000   1.0000   1.0000   1.0000
     1.0000   1.0000   1.0000   1.0000   1.0000   1.0000   1.0000   1.0000
     1.0000   1.0000   1.0000   1.0000   1.0000   1.0000   1.0000   1.0000
     1.0000   1.0000   1.0000   1.0000   1.0000   1.0000   1.0000   1.0000
     1.0000   1.0000   1.0000   1.0000   1.0000   1.0000   1.0000   1.0000
     1.0000   1.0000   1.0000   1.0000   1.0000   1.0000   1.0000   1.0000
     1.0000   1.0000   1.0000   1.0000   1.0000   1.0000   1.0000   1.0000
     1.0000   1.0000   1.0000   1.0000   1.0000   1.0000   1.0000   1.0000
     0.0000   0.0000   0.0000   0.0000   0.0000   0.0000   0.0000   0.0000
     0.0000   0.0000

          k = 0.0000 0.0000 0.4519 ( 34060 PWs)   bands (ev):

   -84.3111 -84.2938 -84.2819 -83.8264 -50.4488 -50.3862 -50.3650 -50.2663
   -50.2607 -50.2467 -50.2461 -50.2091 -50.1805 -50.1708 -49.7695 -49.5865
   -44.3092 -16.3914 -16.3302 -16.2524 -15.9125 -15.7211 -15.5330 -15.4411
   -13.5137 -13.3627 -13.2427 -13.1613 -13.0219 -13.0194 -12.9753 -12.9127
   -12.8195 -12.8120 -12.7093 -12.7075  -3.4544  -3.0231  -2.8929  -2.5106
    -1.6381  -1.3832  -1.3272  -1.1382  -1.0678  -0.9656  -0.7904  -0.5805
    -0.4920  -0.4075  -0.3024   0.1145   0.1269   0.2933   0.8607   0.8862
     0.9589   1.0804   1.2158   1.2491   1.3476   1.3486   1.5013   1.7682
     1.8324   1.9675   2.0477   2.0559   2.1442   2.1675   2.2347   2.2797
     2.4825   2.6287   2.8306   2.8367   2.9794   2.9930   3.1022   3.2217
     3.2616   3.4168   3.6417   3.6993   3.7227   3.8760   3.8970   3.9464
     4.0846   4.0982   4.2429   4.3749   4.4465   4.4830   4.6515   4.7277
     4.8774   4.9385   5.1260   5.1995   5.4085   5.5154   5.6402   5.7840
    10.9089  12.7146  12.9839  13.3642  13.6503  13.8072  14.2516  14.3095
    14.4527  14.6033

     occupation numbers 
     1.0000   1.0000   1.0000   1.0000   1.0000   1.0000   1.0000   1.0000
     1.0000   1.0000   1.0000   1.0000   1.0000   1.0000   1.0000   1.0000
     1.0000   1.0000   1.0000   1.0000   1.0000   1.0000   1.0000   1.0000
     1.0000   1.0000   1.0000   1.0000   1.0000   1.0000   1.0000   1.0000
     1.0000   1.0000   1.0000   1.0000   1.0000   1.0000   1.0000   1.0000
     1.0000   1.0000   1.0000   1.0000   1.0000   1.0000   1.0000   1.0000
     1.0000   1.0000   1.0000   1.0000   1.0000   1.0000   1.0000   1.0000
     1.0000   1.0000   1.0000   1.0000   1.0000   1.0000   1.0000   1.0000
     1.0000   1.0000   1.0000   1.0000   1.0000   1.0000   1.0000   1.0000
     1.0000   1.0000   1.0000   1.0000   1.0000   1.0000   1.0000   1.0000
     1.0000   1.0000   1.0000   1.0000   1.0000   1.0000   1.0000   1.0000
     1.0000   1.0000   1.0000   1.0000   1.0000   1.0000   1.0000   1.0000
     1.0000   1.0000   1.0000   1.0000   1.0000   1.0000   1.0000   1.0000
     0.0000   0.0000   0.0000   0.0000   0.0000   0.0000   0.0000   0.0000
     0.0000   0.0000

          k = 0.0000 0.0000 0.6778 ( 34088 PWs)   bands (ev):

   -84.3111 -84.2938 -84.2819 -83.8264 -50.4488 -50.3862 -50.3650 -50.2663
   -50.2607 -50.2467 -50.2461 -50.2091 -50.1805 -50.1708 -49.7695 -49.5865
   -44.3092 -16.4097 -16.3366 -16.2523 -15.8682 -15.6919 -15.5119 -15.4427
   -13.5236 -13.3654 -13.2745 -13.1642 -13.0366 -13.0081 -12.9896 -12.8993
   -12.8419 -12.8311 -12.7337 -12.7229  -3.3390  -3.0284  -2.8650  -2.5987
    -1.4795  -1.3702  -1.2630  -1.1446  -1.0124  -0.9697  -0.7776  -0.6304
    -0.4574  -0.3285  -0.1946  -0.0531   0.2724   0.4106   0.8424   0.9527
     1.0185   1.0621   1.2256   1.2760   1.3001   1.3689   1.4252   1.7317
     1.8454   1.8792   1.9340   2.0176   2.1128   2.1252   2.1696   2.2316
     2.2761   2.4739   2.7663   2.8448   2.8730   3.0903   3.1335   3.2382
     3.3383   3.4329   3.4780   3.6095   3.7445   3.7790   3.9005   3.9314
     4.0588   4.0958   4.3227   4.4472   4.5028   4.6106   4.7232   4.8025
     4.8859   5.0377   5.1625   5.2418   5.3962   5.4717   5.4953   5.6620
    11.4838  12.9911  13.1551  13.4267  13.6044  13.9345  14.0091  14.1598
    14.2360  14.2881

     occupation numbers 
     1.0000   1.0000   1.0000   1.0000   1.0000   1.0000   1.0000   1.0000
     1.0000   1.0000   1.0000   1.0000   1.0000   1.0000   1.0000   1.0000
     1.0000   1.0000   1.0000   1.0000   1.0000   1.0000   1.0000   1.0000
     1.0000   1.0000   1.0000   1.0000   1.0000   1.0000   1.0000   1.0000
     1.0000   1.0000   1.0000   1.0000   1.0000   1.0000   1.0000   1.0000
     1.0000   1.0000   1.0000   1.0000   1.0000   1.0000   1.0000   1.0000
     1.0000   1.0000   1.0000   1.0000   1.0000   1.0000   1.0000   1.0000
     1.0000   1.0000   1.0000   1.0000   1.0000   1.0000   1.0000   1.0000
     1.0000   1.0000   1.0000   1.0000   1.0000   1.0000   1.0000   1.0000
     1.0000   1.0000   1.0000   1.0000   1.0000   1.0000   1.0000   1.0000
     1.0000   1.0000   1.0000   1.0000   1.0000   1.0000   1.0000   1.0000
     1.0000   1.0000   1.0000   1.0000   1.0000   1.0000   1.0000   1.0000
     1.0000   1.0000   1.0000   1.0000   1.0000   1.0000   1.0000   1.0000
     0.0000   0.0000   0.0000   0.0000   0.0000   0.0000   0.0000   0.0000
     0.0000   0.0000

          k = 0.0000 0.0000 0.9038 ( 34082 PWs)   bands (ev):

   -84.3111 -84.2938 -84.2819 -83.8264 -50.4488 -50.3862 -50.3650 -50.2663
   -50.2607 -50.2467 -50.2461 -50.2091 -50.1805 -50.1708 -49.7695 -49.5865
   -44.3092 -16.4231 -16.3375 -16.2522 -15.8401 -15.6718 -15.4921 -15.4509
   -13.5312 -13.3676 -13.2950 -13.1681 -13.0457 -13.0009 -12.9977 -12.8903
   -12.8591 -12.8388 -12.7504 -12.7333  -3.2174  -3.0753  -2.8300  -2.6819
    -1.4259  -1.3326  -1.2064  -1.1328  -0.9526  -0.9260  -0.7875  -0.7680
    -0.3698  -0.2255  -0.2237  -0.1187   0.4487   0.6171   0.8127   0.9061
     1.0364   1.1016   1.1929   1.2165   1.2440   1.3396   1.4699   1.6260
     1.8000   1.8784   1.8903   1.9409   1.9530   2.1145   2.1472   2.2525
     2.3312   2.4476   2.5946   2.6753   2.9170   3.0581   3.2324   3.3065
     3.3782   3.4404   3.4604   3.5201   3.6601   3.6948   3.9010   3.9457
     4.0494   4.0972   4.4147   4.4867   4.5378   4.6172   4.8266   4.8351
     4.9865   5.1894   5.2031   5.2619   5.3050   5.3917   5.4513   5.5127
    12.1237  12.7490  13.2736  13.5696  13.7019  13.8491  14.0154  14.0993
    14.1232  14.2792

     occupation numbers 
     1.0000   1.0000   1.0000   1.0000   1.0000   1.0000   1.0000   1.0000
     1.0000   1.0000   1.0000   1.0000   1.0000   1.0000   1.0000   1.0000
     1.0000   1.0000   1.0000   1.0000   1.0000   1.0000   1.0000   1.0000
     1.0000   1.0000   1.0000   1.0000   1.0000   1.0000   1.0000   1.0000
     1.0000   1.0000   1.0000   1.0000   1.0000   1.0000   1.0000   1.0000
     1.0000   1.0000   1.0000   1.0000   1.0000   1.0000   1.0000   1.0000
     1.0000   1.0000   1.0000   1.0000   1.0000   1.0000   1.0000   1.0000
     1.0000   1.0000   1.0000   1.0000   1.0000   1.0000   1.0000   1.0000
     1.0000   1.0000   1.0000   1.0000   1.0000   1.0000   1.0000   1.0000
     1.0000   1.0000   1.0000   1.0000   1.0000   1.0000   1.0000   1.0000
     1.0000   1.0000   1.0000   1.0000   1.0000   1.0000   1.0000   1.0000
     1.0000   1.0000   1.0000   1.0000   1.0000   1.0000   1.0000   1.0000
     1.0000   1.0000   1.0000   1.0000   1.0000   1.0000   1.0000   1.0000
     0.0000   0.0000   0.0000   0.0000   0.0000   0.0000   0.0000   0.0000
     0.0000   0.0000

          k = 0.0000 0.2391 0.0000 ( 34090 PWs)   bands (ev):

   -84.3111 -84.2938 -84.2819 -83.8264 -50.4488 -50.3862 -50.3650 -50.2663
   -50.2607 -50.2467 -50.2461 -50.2091 -50.1805 -50.1708 -49.7695 -49.5865
   -44.3092 -16.3780 -16.3055 -16.2556 -15.9535 -15.7497 -15.5513 -15.4649
   -13.5070 -13.3608 -13.2192 -13.1703 -13.0598 -12.9895 -12.9627 -12.9064
   -12.8082 -12.7569 -12.7059 -12.6632  -3.5346  -3.0722  -2.8819  -2.4456
    -1.8037  -1.4407  -1.3488  -1.1620  -1.0547  -0.9278  -0.7658  -0.7142
    -0.5372  -0.4231  -0.2110   0.0389   0.1631   0.3145   0.8395   0.8846
     0.9510   0.9799   1.0666   1.1728   1.2400   1.4831   1.6490   1.7356
     1.9210   2.0510   2.0841   2.1544   2.1736   2.2182   2.2598   2.2949
     2.5057   2.7081   2.8669   2.9505   2.9856   3.0803   3.1528   3.1717
     3.3830   3.4301   3.4827   3.6122   3.6883   3.8674   3.9820   3.9922
     4.0602   4.1463   4.2255   4.3675   4.4137   4.4700   4.5794   4.6604
     4.7216   4.9420   5.1153   5.1482   5.3973   5.5016   5.8398   5.9015
    10.4985  12.5168  12.7883  13.2492  13.6107  13.9236  14.4736  14.5429
    14.7393  14.7891

     occupation numbers 
     1.0000   1.0000   1.0000   1.0000   1.0000   1.0000   1.0000   1.0000
     1.0000   1.0000   1.0000   1.0000   1.0000   1.0000   1.0000   1.0000
     1.0000   1.0000   1.0000   1.0000   1.0000   1.0000   1.0000   1.0000
     1.0000   1.0000   1.0000   1.0000   1.0000   1.0000   1.0000   1.0000
     1.0000   1.0000   1.0000   1.0000   1.0000   1.0000   1.0000   1.0000
     1.0000   1.0000   1.0000   1.0000   1.0000   1.0000   1.0000   1.0000
     1.0000   1.0000   1.0000   1.0000   1.0000   1.0000   1.0000   1.0000
     1.0000   1.0000   1.0000   1.0000   1.0000   1.0000   1.0000   1.0000
     1.0000   1.0000   1.0000   1.0000   1.0000   1.0000   1.0000   1.0000
     1.0000   1.0000   1.0000   1.0000   1.0000   1.0000   1.0000   1.0000
     1.0000   1.0000   1.0000   1.0000   1.0000   1.0000   1.0000   1.0000
     1.0000   1.0000   1.0000   1.0000   1.0000   1.0000   1.0000   1.0000
     1.0000   1.0000   1.0000   1.0000   1.0000   1.0000   1.0000   1.0000
     0.0000   0.0000   0.0000   0.0000   0.0000   0.0000   0.0000   0.0000
     0.0000   0.0000

          k = 0.0000 0.2391 0.2259 ( 34083 PWs)   bands (ev):

   -84.3111 -84.2938 -84.2819 -83.8264 -50.4488 -50.3862 -50.3650 -50.2663
   -50.2607 -50.2467 -50.2461 -50.2091 -50.1805 -50.1708 -49.7695 -49.5865
   -44.3092 -16.3802 -16.3145 -16.2553 -15.9370 -15.7402 -15.5458 -15.4620
   -13.5092 -13.3613 -13.2292 -13.1677 -13.0650 -12.9909 -12.9674 -12.9081
   -12.8125 -12.7643 -12.7102 -12.6700  -3.5074  -3.0603  -2.8793  -2.4604
    -1.7553  -1.4189  -1.3477  -1.1524  -1.0468  -0.9424  -0.7777  -0.6512
    -0.5266  -0.3946  -0.2575   0.0454   0.1564   0.3137   0.8278   0.8865
     0.9550   0.9868   1.1042   1.1856   1.2368   1.4705   1.6717   1.7140
     1.8678   2.0315   2.0504   2.1258   2.1695   2.2043   2.2494   2.2865
     2.6143   2.6923   2.8026   2.9173   2.9891   3.0651   3.1022   3.1763
     3.3351   3.4482   3.5043   3.6676   3.7055   3.8437   3.9190   3.9935
     4.0226   4.1555   4.2443   4.3340   4.4319   4.4719   4.6228   4.6679
     4.7629   4.9367   5.1246   5.1616   5.3742   5.4979   5.8203   5.8841
    10.6467  12.5938  12.8625  13.2886  13.6203  13.8967  14.3696  14.5506
    14.6324  14.7213

     occupation numbers 
     1.0000   1.0000   1.0000   1.0000   1.0000   1.0000   1.0000   1.0000
     1.0000   1.0000   1.0000   1.0000   1.0000   1.0000   1.0000   1.0000
     1.0000   1.0000   1.0000   1.0000   1.0000   1.0000   1.0000   1.0000
     1.0000   1.0000   1.0000   1.0000   1.0000   1.0000   1.0000   1.0000
     1.0000   1.0000   1.0000   1.0000   1.0000   1.0000   1.0000   1.0000
     1.0000   1.0000   1.0000   1.0000   1.0000   1.0000   1.0000   1.0000
     1.0000   1.0000   1.0000   1.0000   1.0000   1.0000   1.0000   1.0000
     1.0000   1.0000   1.0000   1.0000   1.0000   1.0000   1.0000   1.0000
     1.0000   1.0000   1.0000   1.0000   1.0000   1.0000   1.0000   1.0000
     1.0000   1.0000   1.0000   1.0000   1.0000   1.0000   1.0000   1.0000
     1.0000   1.0000   1.0000   1.0000   1.0000   1.0000   1.0000   1.0000
     1.0000   1.0000   1.0000   1.0000   1.0000   1.0000   1.0000   1.0000
     1.0000   1.0000   1.0000   1.0000   1.0000   1.0000   1.0000   1.0000
     0.0000   0.0000   0.0000   0.0000   0.0000   0.0000   0.0000   0.0000
     0.0000   0.0000

          k = 0.0000 0.2391 0.4519 ( 34077 PWs)   bands (ev):

   -84.3111 -84.2938 -84.2819 -83.8264 -50.4488 -50.3862 -50.3650 -50.2663
   -50.2607 -50.2467 -50.2461 -50.2091 -50.1805 -50.1708 -49.7695 -49.5865
   -44.3092 -16.3902 -16.3295 -16.2548 -15.8980 -15.7151 -15.5313 -15.4561
   -13.5159 -13.3631 -13.2540 -13.1642 -13.0772 -12.9937 -12.9814 -12.9111
   -12.8234 -12.7807 -12.7216 -12.6865  -3.4305  -3.0374  -2.8691  -2.5128
    -1.6202  -1.3814  -1.3244  -1.1427  -1.0212  -0.9584  -0.7747  -0.5500
    -0.4799  -0.3729  -0.3068   0.0167   0.1785   0.3248   0.7999   0.9113
     0.9425   1.0077   1.1977   1.2087   1.2758   1.4309   1.6212   1.7419
     1.7973   1.9638   1.9990   2.0905   2.1263   2.1711   2.2185   2.2646
     2.5133   2.6314   2.8356   2.8804   2.9432   3.0063   3.0800   3.2010
     3.2484   3.4659   3.6034   3.6565   3.7106   3.7595   3.8843   3.9503
     3.9997   4.1511   4.2715   4.3475   4.4388   4.5329   4.6558   4.7364
     4.8588   4.9190   5.0964   5.2368   5.3237   5.4896   5.7629   5.8327
    11.0478  12.7981  13.0594  13.4032  13.6440  13.8717  14.1827  14.3473
    14.4545  14.6001

     occupation numbers 
     1.0000   1.0000   1.0000   1.0000   1.0000   1.0000   1.0000   1.0000
     1.0000   1.0000   1.0000   1.0000   1.0000   1.0000   1.0000   1.0000
     1.0000   1.0000   1.0000   1.0000   1.0000   1.0000   1.0000   1.0000
     1.0000   1.0000   1.0000   1.0000   1.0000   1.0000   1.0000   1.0000
     1.0000   1.0000   1.0000   1.0000   1.0000   1.0000   1.0000   1.0000
     1.0000   1.0000   1.0000   1.0000   1.0000   1.0000   1.0000   1.0000
     1.0000   1.0000   1.0000   1.0000   1.0000   1.0000   1.0000   1.0000
     1.0000   1.0000   1.0000   1.0000   1.0000   1.0000   1.0000   1.0000
     1.0000   1.0000   1.0000   1.0000   1.0000   1.0000   1.0000   1.0000
     1.0000   1.0000   1.0000   1.0000   1.0000   1.0000   1.0000   1.0000
     1.0000   1.0000   1.0000   1.0000   1.0000   1.0000   1.0000   1.0000
     1.0000   1.0000   1.0000   1.0000   1.0000   1.0000   1.0000   1.0000
     1.0000   1.0000   1.0000   1.0000   1.0000   1.0000   1.0000   1.0000
     0.0000   0.0000   0.0000   0.0000   0.0000   0.0000   0.0000   0.0000
     0.0000   0.0000

          k = 0.0000 0.2391 0.6778 ( 34083 PWs)   bands (ev):

   -84.3111 -84.2938 -84.2819 -83.8264 -50.4488 -50.3862 -50.3650 -50.2663
   -50.2607 -50.2467 -50.2461 -50.2091 -50.1805 -50.1708 -49.7695 -49.5865
   -44.3092 -16.4079 -16.3360 -16.2544 -15.8568 -15.6844 -15.5125 -15.4532
   -13.5256 -13.3661 -13.2828 -13.1643 -13.0872 -13.0073 -12.9917 -12.9117
   -12.8352 -12.7962 -12.7333 -12.7055  -3.3181  -3.0319  -2.8487  -2.5985
    -1.4642  -1.3610  -1.2566  -1.1449  -0.9768  -0.9490  -0.7617  -0.5935
    -0.4372  -0.3358  -0.1945  -0.0859   0.2737   0.3887   0.7522   0.8895
     0.9721   1.0800   1.2141   1.2768   1.3560   1.4221   1.5262   1.7123
     1.7711   1.8722   1.9477   2.0392   2.0859   2.1411   2.1788   2.2344
     2.2606   2.4725   2.7400   2.8550   2.9008   3.0839   3.1094   3.2343
     3.2490   3.4615   3.5274   3.6404   3.6778   3.7502   3.7967   3.9669
     4.0011   4.1081   4.3477   4.4454   4.4934   4.5846   4.6863   4.8057
     4.8760   4.9835   5.0865   5.2285   5.3519   5.4827   5.6750   5.7542
    11.6084  13.0718  13.2334  13.5300  13.6297  13.9394  14.0574  14.1027
    14.2443  14.2817

     occupation numbers 
     1.0000   1.0000   1.0000   1.0000   1.0000   1.0000   1.0000   1.0000
     1.0000   1.0000   1.0000   1.0000   1.0000   1.0000   1.0000   1.0000
     1.0000   1.0000   1.0000   1.0000   1.0000   1.0000   1.0000   1.0000
     1.0000   1.0000   1.0000   1.0000   1.0000   1.0000   1.0000   1.0000
     1.0000   1.0000   1.0000   1.0000   1.0000   1.0000   1.0000   1.0000
     1.0000   1.0000   1.0000   1.0000   1.0000   1.0000   1.0000   1.0000
     1.0000   1.0000   1.0000   1.0000   1.0000   1.0000   1.0000   1.0000
     1.0000   1.0000   1.0000   1.0000   1.0000   1.0000   1.0000   1.0000
     1.0000   1.0000   1.0000   1.0000   1.0000   1.0000   1.0000   1.0000
     1.0000   1.0000   1.0000   1.0000   1.0000   1.0000   1.0000   1.0000
     1.0000   1.0000   1.0000   1.0000   1.0000   1.0000   1.0000   1.0000
     1.0000   1.0000   1.0000   1.0000   1.0000   1.0000   1.0000   1.0000
     1.0000   1.0000   1.0000   1.0000   1.0000   1.0000   1.0000   1.0000
     0.0000   0.0000   0.0000   0.0000   0.0000   0.0000   0.0000   0.0000
     0.0000   0.0000

          k = 0.0000 0.2391 0.9038 ( 34099 PWs)   bands (ev):

   -84.3111 -84.2938 -84.2819 -83.8264 -50.4488 -50.3862 -50.3650 -50.2663
   -50.2607 -50.2467 -50.2461 -50.2091 -50.1805 -50.1708 -49.7695 -49.5865
   -44.3092 -16.4209 -16.3371 -16.2541 -15.8309 -15.6630 -15.4966 -15.4561
   -13.5332 -13.3686 -13.3023 -13.1664 -13.0906 -13.0265 -12.9913 -12.9105
   -12.8421 -12.8056 -12.7369 -12.7209  -3.2026  -3.0653  -2.8238  -2.6771
    -1.4049  -1.3219  -1.1990  -1.1352  -0.9433  -0.8815  -0.7712  -0.7241
    -0.3708  -0.2711  -0.2003  -0.0982   0.3965   0.5448   0.6835   0.7621
     1.0573   1.1871   1.2259   1.2983   1.3647   1.3893   1.5019   1.6145
     1.7372   1.8402   1.9167   1.9454   2.0038   2.0970   2.1148   2.2044
     2.3163   2.4397   2.5677   2.7037   2.9360   3.0566   3.2053   3.2402
     3.3481   3.4527   3.4762   3.5441   3.6682   3.7020   3.7971   3.9772
     4.0123   4.0837   4.4313   4.4719   4.5437   4.6237   4.7710   4.8292
     4.8495   5.0149   5.1293   5.2023   5.4070   5.4804   5.5884   5.6802
    12.2357  12.8499  13.3621  13.6546  13.7632  13.8931  14.0182  14.0703
    14.1101  14.2854

     occupation numbers 
     1.0000   1.0000   1.0000   1.0000   1.0000   1.0000   1.0000   1.0000
     1.0000   1.0000   1.0000   1.0000   1.0000   1.0000   1.0000   1.0000
     1.0000   1.0000   1.0000   1.0000   1.0000   1.0000   1.0000   1.0000
     1.0000   1.0000   1.0000   1.0000   1.0000   1.0000   1.0000   1.0000
     1.0000   1.0000   1.0000   1.0000   1.0000   1.0000   1.0000   1.0000
     1.0000   1.0000   1.0000   1.0000   1.0000   1.0000   1.0000   1.0000
     1.0000   1.0000   1.0000   1.0000   1.0000   1.0000   1.0000   1.0000
     1.0000   1.0000   1.0000   1.0000   1.0000   1.0000   1.0000   1.0000
     1.0000   1.0000   1.0000   1.0000   1.0000   1.0000   1.0000   1.0000
     1.0000   1.0000   1.0000   1.0000   1.0000   1.0000   1.0000   1.0000
     1.0000   1.0000   1.0000   1.0000   1.0000   1.0000   1.0000   1.0000
     1.0000   1.0000   1.0000   1.0000   1.0000   1.0000   1.0000   1.0000
     1.0000   1.0000   1.0000   1.0000   1.0000   1.0000   1.0000   1.0000
     0.0000   0.0000   0.0000   0.0000   0.0000   0.0000   0.0000   0.0000
     0.0000   0.0000

          k = 0.0000 0.4781 0.0000 ( 34064 PWs)   bands (ev):

   -84.3111 -84.2938 -84.2819 -83.8264 -50.4488 -50.3862 -50.3650 -50.2663
   -50.2607 -50.2467 -50.2461 -50.2091 -50.1805 -50.1708 -49.7695 -49.5865
   -44.3092 -16.3764 -16.3048 -16.2620 -15.9068 -15.7365 -15.5527 -15.5074
   -13.5117 -13.3581 -13.2771 -13.1750 -13.0740 -12.9868 -12.9608 -12.9021
   -12.8012 -12.7380 -12.7024 -12.6531  -3.4639  -3.1341  -2.8032  -2.4755
    -1.7312  -1.4643  -1.3508  -1.1808  -0.9846  -0.8983  -0.7399  -0.6557
    -0.4723  -0.3620  -0.1643   0.0481   0.1298   0.3975   0.7404   0.8125
     0.9675   0.9806   1.0217   1.0786   1.1622   1.5342   1.6212   1.8292
     1.8536   1.8889   1.9691   2.0524   2.1859   2.2222   2.3461   2.3506
     2.6045   2.6757   2.8729   2.9243   2.9743   3.0361   3.1083   3.1775
     3.3858   3.3958   3.4540   3.5592   3.6981   3.8044   3.8828   3.9356
     3.9773   4.0837   4.3645   4.4137   4.4699   4.4993   4.5987   4.7132
     4.7412   4.8855   4.9825   5.1527   5.3020   5.6318   5.8902   5.9256
    10.9271  12.7229  12.8793  13.0107  13.8072  14.1440  14.2952  14.3632
    14.6979  14.8894

     occupation numbers 
     1.0000   1.0000   1.0000   1.0000   1.0000   1.0000   1.0000   1.0000
     1.0000   1.0000   1.0000   1.0000   1.0000   1.0000   1.0000   1.0000
     1.0000   1.0000   1.0000   1.0000   1.0000   1.0000   1.0000   1.0000
     1.0000   1.0000   1.0000   1.0000   1.0000   1.0000   1.0000   1.0000
     1.0000   1.0000   1.0000   1.0000   1.0000   1.0000   1.0000   1.0000
     1.0000   1.0000   1.0000   1.0000   1.0000   1.0000   1.0000   1.0000
     1.0000   1.0000   1.0000   1.0000   1.0000   1.0000   1.0000   1.0000
     1.0000   1.0000   1.0000   1.0000   1.0000   1.0000   1.0000   1.0000
     1.0000   1.0000   1.0000   1.0000   1.0000   1.0000   1.0000   1.0000
     1.0000   1.0000   1.0000   1.0000   1.0000   1.0000   1.0000   1.0000
     1.0000   1.0000   1.0000   1.0000   1.0000   1.0000   1.0000   1.0000
     1.0000   1.0000   1.0000   1.0000   1.0000   1.0000   1.0000   1.0000
[...]
     atom   23 type  3   force =     0.02138647    0.05067409    0.01997373
     atom   24 type  3   force =     0.02327701   -0.05133958   -0.02035955
     atom   25 type  3   force =    -0.02374834    0.05615722   -0.02217424
     The non-local contrib.  to forces
     atom    1 type  2   force =     0.13251291    0.00000111   -0.00242746
     atom    2 type  1   force =     0.03676563   -0.00000483    0.15245914
     atom    3 type  1   force =     0.05928625    0.00001656    0.12586196
     atom    4 type  1   force =    -0.17956818    0.00000702   -0.09233228
     atom    5 type  1   force =    -0.04063514   -0.00001441   -0.13467162
     atom    6 type  4   force =     0.00052719    0.00000197    0.02114923
     atom    7 type  4   force =     0.02327903   -0.00001202    0.05159146
     atom    8 type  4   force =    -0.02353379   -0.00000385   -0.02318710
     atom    9 type  4   force =     0.03150356    0.00001111   -0.01202759
     atom   10 type  3   force =     0.28948420   -0.00000644   -1.46060678
     atom   11 type  3   force =    -0.09814887    0.00000171   -1.38043421
     atom   12 type  3   force =    -0.37602179    0.00000474    1.46328474
     atom   13 type  3   force =     0.20939298    0.00000025    1.45907528
     atom   14 type  3   force =     1.20574109    0.00000078   -0.61104552
     atom   15 type  3   force =    -1.18472804    0.00000482   -0.79393878
     atom   16 type  3   force =    -1.19195508    0.00001628    0.32348187
     atom   17 type  3   force =     1.15854358   -0.00000368    0.62794364
     atom   18 type  3   force =    -0.53059689   -1.05417450    0.80994562
     atom   19 type  3   force =     0.54032624    1.11948856    0.83770067
     atom   20 type  3   force =     0.55734736   -1.06468504   -0.71811271
     atom   21 type  3   force =    -0.54937874    1.03331547   -0.72271803
     atom   22 type  3   force =     0.55732601    1.06465235   -0.71811696
     atom   23 type  3   force =    -0.54936233   -1.03329154   -0.72270874
     atom   24 type  3   force =    -0.53061612    1.05420640    0.80994587
     atom   25 type  3   force =     0.54034478   -1.11951503    0.83770564
     The ionic contribution  to forces
     atom    1 type  2   force =    -3.81733282    0.00034089    2.88561757
     atom    2 type  1   force =    -1.14616930   -0.00083194   -0.34691376
     atom    3 type  1   force =    -7.34383184    0.00101069   -0.51120349
     atom    4 type  1   force =     4.86210880    0.00079572   -0.53041875
     atom    5 type  1   force =     7.59122254   -0.00113218    0.50974228
     atom    6 type  4   force =    -3.06996199   -0.00028216    0.75325097
     atom    7 type  4   force =     0.33839848    0.00018021    0.84871438
     atom    8 type  4   force =     4.96688334    0.00026231   -1.04442362
     atom    9 type  4   force =    -2.32480038   -0.00017593   -1.19179131
     atom   10 type  3   force =   -10.47057880   -0.00029375    2.54130836
     atom   11 type  3   force =     3.89220794    0.00026960    0.99222218
     atom   12 type  3   force =    12.58772218    0.00027576   -2.72339219
     atom   13 type  3   force =    -8.61333166   -0.00031958   -1.91837456
     atom   14 type  3   force =     0.71009772   -0.00023147    5.84891833
     atom   15 type  3   force =    -1.89792620    0.00027382    7.51027526
     atom   16 type  3   force =    -2.03412556    0.00014818   -3.02637492
     atom   17 type  3   force =     3.68419715   -0.00028297   -6.61845335
     atom   18 type  3   force =    -4.01953627    2.67177077   -3.42225002
     atom   19 type  3   force =     0.84392929   -4.05648043   -2.94498154
     atom   20 type  3   force =     5.41236599    4.31230677    2.82494405
     atom   21 type  3   force =    -1.19413160   -1.22946981    1.55283385
     atom   22 type  3   force =     5.41262932   -4.31179712    2.82510371
     atom   23 type  3   force =    -1.19436525    1.22908262    1.55272600
     atom   24 type  3   force =    -4.01932928   -2.67229410   -3.42203291
     atom   25 type  3   force =     0.84365822    4.05687409   -2.94504652
     The local contribution  to forces
     atom    1 type  2   force =     3.69255004   -0.00034094   -2.87699550
     atom    2 type  1   force =     1.09738391    0.00083067    0.19284168
     atom    3 type  1   force =     7.29989704   -0.00101974    0.38197070
     atom    4 type  1   force =    -4.68659495   -0.00079734    0.62709927
     atom    5 type  1   force =    -7.56466606    0.00113768   -0.37377289
     atom    6 type  4   force =     3.09839413    0.00027408   -0.72344044
     atom    7 type  4   force =    -0.37649126   -0.00017275   -0.84619291
     atom    8 type  4   force =    -4.97600756   -0.00025463    1.01048042
     atom    9 type  4   force =     2.32947593    0.00016795    1.15630158
     atom   10 type  3   force =    10.16679354    0.00029874   -1.10123603
     atom   11 type  3   force =    -3.78825044   -0.00027099    0.36948654
     atom   12 type  3   force =   -12.19810238   -0.00027971    1.28255195
     atom   13 type  3   force =     8.39030634    0.00031921    0.47778009
     atom   14 type  3   force =    -1.97996657    0.00023176   -5.22254119
     atom   15 type  3   force =     3.14574944   -0.00027801   -6.69761732
     atom   16 type  3   force =     3.28662557   -0.00016414    2.69053706
     atom   17 type  3   force =    -4.90026111    0.00028614    5.97474879
     atom   18 type  3   force =     4.56918072   -1.57460410    2.59889084
     atom   19 type  3   force =    -1.40372888    2.88971344    2.09229586
     atom   20 type  3   force =    -5.98856048   -3.20168130   -2.09791649
     atom   21 type  3   force =     1.76051512    0.15372607   -0.81637076
     atom   22 type  3   force =    -5.98880122    3.20120636   -2.09807147
     atom   23 type  3   force =     1.76072731   -0.15337078   -0.81627696
     atom   24 type  3   force =     4.56899173    1.57509573    2.59867736
     atom   25 type  3   force =    -1.40348139   -2.89007125    2.09235087
     The core correction contribution to forces
     atom    1 type  2   force =     0.00000000    0.00000000    0.00000000
     atom    2 type  1   force =    -0.00046874    0.00000020   -0.00024546
     atom    3 type  1   force =    -0.00012684   -0.00000034    0.00054644
     atom    4 type  1   force =     0.00377404   -0.00000015   -0.00113217
     atom    5 type  1   force =     0.00037131    0.00000035    0.00018926
     atom    6 type  4   force =    -0.00034370    0.00000002   -0.00322234
     atom    7 type  4   force =    -0.00097172    0.00000091   -0.00545547
     atom    8 type  4   force =     0.00142183    0.00000018    0.00364980
     atom    9 type  4   force =    -0.00277072   -0.00000091    0.00267980
     atom   10 type  3   force =    -0.00296556    0.00000008    0.01274995
     atom   11 type  3   force =     0.00144727   -0.00000002    0.01193296
     atom   12 type  3   force =     0.00376032   -0.00000005   -0.01274421
     atom   13 type  3   force =    -0.00229661   -0.00000000   -0.01267807
     atom   14 type  3   force =    -0.00905474   -0.00000003    0.00549536
     atom   15 type  3   force =     0.00890776   -0.00000005    0.00699322
     atom   16 type  3   force =     0.00890416   -0.00000015   -0.00297133
     atom   17 type  3   force =    -0.00880587    0.00000004   -0.00559998
     atom   18 type  3   force =     0.00422929    0.00834215   -0.00695092
     atom   19 type  3   force =    -0.00426843   -0.00887336   -0.00717996
     atom   20 type  3   force =    -0.00449226    0.00842872    0.00612142
     atom   21 type  3   force =     0.00438925   -0.00825386    0.00623542
     atom   22 type  3   force =    -0.00449208   -0.00842845    0.00612144
     atom   23 type  3   force =     0.00438915    0.00825378    0.00623539
     atom   24 type  3   force =     0.00422949   -0.00834245   -0.00695098
     atom   25 type  3   force =    -0.00426854    0.00887345   -0.00717995
     The Hubbard contrib.    to forces
     atom    1 type  2   force =     0.00000000    0.00000000    0.00000000
     atom    2 type  1   force =     0.00000000    0.00000000    0.00000000
     atom    3 type  1   force =     0.00000000    0.00000000    0.00000000
     atom    4 type  1   force =     0.00000000    0.00000000    0.00000000
     atom    5 type  1   force =     0.00000000    0.00000000    0.00000000
     atom    6 type  4   force =     0.00000000    0.00000000    0.00000000
     atom    7 type  4   force =     0.00000000    0.00000000    0.00000000
     atom    8 type  4   force =     0.00000000    0.00000000    0.00000000
     atom    9 type  4   force =     0.00000000    0.00000000    0.00000000
     atom   10 type  3   force =     0.00000000    0.00000000    0.00000000
     atom   11 type  3   force =     0.00000000    0.00000000    0.00000000
     atom   12 type  3   force =     0.00000000    0.00000000    0.00000000
     atom   13 type  3   force =     0.00000000    0.00000000    0.00000000
     atom   14 type  3   force =     0.00000000    0.00000000    0.00000000
     atom   15 type  3   force =     0.00000000    0.00000000    0.00000000
     atom   16 type  3   force =     0.00000000    0.00000000    0.00000000
     atom   17 type  3   force =     0.00000000    0.00000000    0.00000000
     atom   18 type  3   force =     0.00000000    0.00000000    0.00000000
     atom   19 type  3   force =     0.00000000    0.00000000    0.00000000
     atom   20 type  3   force =     0.00000000    0.00000000    0.00000000
     atom   21 type  3   force =     0.00000000    0.00000000    0.00000000
     atom   22 type  3   force =     0.00000000    0.00000000    0.00000000
     atom   23 type  3   force =     0.00000000    0.00000000    0.00000000
     atom   24 type  3   force =     0.00000000    0.00000000    0.00000000
     atom   25 type  3   force =     0.00000000    0.00000000    0.00000000
     The SCF correction term to forces
     atom    1 type  2   force =    -0.00000367    0.00000000    0.00000031
     atom    2 type  1   force =     0.00000300   -0.00000003    0.00000013
     atom    3 type  1   force =     0.00000355    0.00000001   -0.00000018
     atom    4 type  1   force =    -0.00000422    0.00000001    0.00000006
     atom    5 type  1   force =    -0.00000426    0.00000001   -0.00000011
     atom    6 type  4   force =     0.00000158   -0.00000000    0.00000023
     atom    7 type  4   force =    -0.00000120    0.00000000   -0.00000048
     atom    8 type  4   force =     0.00000107    0.00000000   -0.00000000
     atom    9 type  4   force =    -0.00000132   -0.00000000   -0.00000007
     atom   10 type  3   force =     0.00000043   -0.00000001   -0.00000182
     atom   11 type  3   force =    -0.00000390    0.00000000    0.00000256
     atom   12 type  3   force =     0.00000097    0.00000000   -0.00000005
     atom   13 type  3   force =    -0.00000217    0.00000000    0.00000067
     atom   14 type  3   force =     0.00000165   -0.00000000    0.00000098
     atom   15 type  3   force =     0.00000659    0.00000000   -0.00000155
     atom   16 type  3   force =    -0.00000217   -0.00000001   -0.00000018
     atom   17 type  3   force =     0.00000170    0.00000000   -0.00000025
     atom   18 type  3   force =     0.00000141    0.00000517    0.00000262
     atom   19 type  3   force =    -0.00000118    0.00000404   -0.00000278
     atom   20 type  3   force =    -0.00000022   -0.00000054    0.00000035
     atom   21 type  3   force =    -0.00000217   -0.00000003   -0.00000046
     atom   22 type  3   force =    -0.00000023    0.00000055    0.00000035
     atom   23 type  3   force =    -0.00000218    0.00000002   -0.00000046
     atom   24 type  3   force =     0.00000141   -0.00000516    0.00000262
     atom   25 type  3   force =    -0.00000118   -0.00000403   -0.00000278

     Total force =     0.256842     Total SCF correction =     0.000017


     Computing stress (Cartesian axis) and pressure


     negative rho (up, down):  0.000E+00 8.048E-04
          total   stress  (Ry/bohr**3)                   (kbar)     P=       93.02
   0.00086200   0.00000001  -0.00002242          126.80        0.00       -3.30
   0.00000001   0.00067088  -0.00000000            0.00       98.69       -0.00
  -0.00002242  -0.00000000   0.00036405           -3.30       -0.00       53.55

     kinetic stress (kbar)  28531.10      0.00    -11.52
                                0.00  28759.55      0.00
                              -11.52      0.00  28475.44

     local   stress (kbar)  -3888.90     -0.10   1289.92
                               -0.10 -14283.05     -0.01
                             1289.92     -0.01  -8486.36

     nonloc. stress (kbar)  -7293.95     -0.00      2.55
                               -0.00  -7227.92     -0.00
                                2.55     -0.00  -7253.62

     hartree stress (kbar)  13009.17      0.05   -527.95
                                0.05  18790.47      0.00
                             -527.95      0.00  15776.89

     exc-cor stress (kbar)  -3015.84     -0.00     -0.83
                               -0.00  -3024.07     -0.00
                               -0.83     -0.00  -3021.10

     corecor stress (kbar)  -3337.53      0.00      0.91
                                0.00  -3335.70      0.00
                                0.91      0.00  -3336.08

     ewald   stress (kbar) -23877.24      0.05   -756.40
                                0.05 -19580.58      0.00
                             -756.40      0.00 -22101.62

     hubbard stress (kbar)      0.00      0.00      0.00
                                0.00      0.00      0.00
                                0.00      0.00      0.00

     DFT-D   stress (kbar)      0.00      0.00      0.00
                                0.00      0.00      0.00
                                0.00      0.00      0.00

     XDM     stress (kbar)      0.00      0.00      0.00
                                0.00      0.00      0.00
                                0.00      0.00      0.00

     dft-nl  stress (kbar)      0.00      0.00      0.00
                                0.00      0.00      0.00
                                0.00      0.00      0.00

     TS-vdW  stress (kbar)      0.00      0.00      0.00
                                0.00      0.00      0.00
                                0.00      0.00      0.00



     init_run     :    199.30s CPU    203.99s WALL (       1 calls)
     electrons    :  17742.12s CPU  18072.58s WALL (       1 calls)
     forces       :    125.11s CPU    127.62s WALL (       1 calls)
     stress       :   1033.77s CPU   1041.18s WALL (       1 calls)

     Called by init_run:
     wfcinit      :    188.65s CPU    192.50s WALL (       1 calls)
     wfcinit:atom :      3.62s CPU      3.71s WALL (     316 calls)
     wfcinit:wfcr :    174.63s CPU    178.17s WALL (     316 calls)
     potinit      :      3.91s CPU      4.08s WALL (       1 calls)
     hinit0       :      3.59s CPU      3.66s WALL (       1 calls)

     Called by electrons:
     c_bands      :  15447.04s CPU  15672.46s WALL (      31 calls)
     sum_band     :   2190.37s CPU   2273.96s WALL (      31 calls)
     v_of_rho     :     29.88s CPU     31.38s WALL (      32 calls)
     v_h          :      1.58s CPU      1.67s WALL (      32 calls)
     v_xc         :     29.94s CPU     31.42s WALL (      34 calls)
     newd         :     49.64s CPU     68.97s WALL (      32 calls)
     PAW_pot      :     15.31s CPU     15.40s WALL (      32 calls)
     mix_rho      :      9.72s CPU     10.45s WALL (      31 calls)

     Called by c_bands:
     init_us_2    :    274.82s CPU    281.66s WALL (   20540 calls)
     cegterg      :  15008.78s CPU  15224.28s WALL (    9796 calls)

     Called by sum_band:
     sum_band:wei :      0.54s CPU      0.57s WALL (      31 calls)
     sum_band:loo :   2053.51s CPU   2110.15s WALL (      31 calls)
     sum_band:buf :     65.58s CPU     67.09s WALL (    9796 calls)
     sum_band:ini :    131.36s CPU    134.38s WALL (    9796 calls)
     sum_band:cal :    717.51s CPU    729.52s WALL (    9796 calls)
     sum_band:bec :      7.21s CPU      7.35s WALL (    9796 calls)
     addusdens    :    130.69s CPU    157.34s WALL (      31 calls)
     addusd:skk   :      1.03s CPU      1.09s WALL (      93 calls)
     addusd:dgemm :     60.67s CPU     82.19s WALL (     186 calls)
     addusd:qvan2 :     66.88s CPU     67.73s WALL (     186 calls)

     Called by *egterg:
     cdiaghg      :    961.85s CPU    988.76s WALL (   38524 calls)
     cegterg:over :   1409.86s CPU   1438.46s WALL (   28728 calls)
     cegterg:upda :    803.15s CPU    808.45s WALL (   28728 calls)
     cegterg:last :   1684.60s CPU   1696.05s WALL (   17268 calls)
     h_psi        :   7618.62s CPU   7738.14s WALL (   38840 calls)
     s_psi        :   1768.47s CPU   1779.69s WALL (   38840 calls)
     g_psi        :     16.64s CPU     16.88s WALL (   28728 calls)

     Called by h_psi:
     h_psi:calbec :   1880.35s CPU   1906.15s WALL (   38840 calls)
     vloc_psi     :   3725.59s CPU   3802.30s WALL (   38840 calls)
     add_vuspsi   :   1863.13s CPU   1875.23s WALL (   38840 calls)

     General routines
     calbec       :   2722.63s CPU   2762.21s WALL (   50216 calls)
     fft          :     29.70s CPU     31.98s WALL (     838 calls)
     ffts         :      0.58s CPU      0.74s WALL (     126 calls)
     fftw         :   4603.01s CPU   4715.90s WALL ( 6161590 calls)
     interpolate  :      2.11s CPU      2.41s WALL (      64 calls)

     Parallel routines
     fft_scatt_xy :    284.46s CPU    287.66s WALL ( 6162554 calls)
     fft_scatt_yz :   2457.96s CPU   2549.34s WALL ( 6162554 calls)

     PAW routines
     PAW_pot      :     15.31s CPU     15.40s WALL (      32 calls)

     PWSCF        :      5h18m CPU      5h24m WALL


   This run was terminated on:   4:37:51  18Dec2022            

=------------------------------------------------------------------------------=
   JOB DONE.
=------------------------------------------------------------------------------=
Note: The following floating-point exceptions are signalling: IEEE_UNDERFLOW_FLAG IEEE_DENORMAL
Note: The following floating-point exceptions are signalling: IEEE_DENORMAL
Note: The following floating-point exceptions are signalling: IEEE_DENORMAL
Note: The following floating-point exceptions are signalling: IEEE_DENORMAL
Note: The following floating-point exceptions are signalling: IEEE_DENORMAL
Note: The following floating-point exceptions are signalling: IEEE_INVALID_FLAG IEEE_DENORMAL
Note: The following floating-point exceptions are signalling: IEEE_INVALID_FLAG IEEE_DENORMAL
Note: The following floating-point exceptions are signalling: IEEE_DENORMAL
Note: The following floating-point exceptions are signalling: IEEE_DENORMAL
Note: The following floating-point exceptions are signalling: IEEE_DENORMAL
Note: The following floating-point exceptions are signalling: IEEE_DENORMAL
Note: The following floating-point exceptions are signalling: IEEE_DENORMAL
Note: The following floating-point exceptions are signalling: IEEE_DENORMAL
Note: The following floating-point exceptions are signalling: IEEE_INVALID_FLAG IEEE_DENORMAL
Note: The following floating-point exceptions are signalling: IEEE_DENORMAL
Note: The following floating-point exceptions are signalling: IEEE_INVALID_FLAG IEEE_DENORMAL
Note: The following floating-point exceptions are signalling: IEEE_DENORMAL
Note: The following floating-point exceptions are signalling: IEEE_DENORMAL
Note: The following floating-point exceptions are signalling: IEEE_DENORMAL
Note: The following floating-point exceptions are signalling: IEEE_DENORMAL
Note: The following floating-point exceptions are signalling: IEEE_DENORMAL
Note: The following floating-point exceptions are signalling: IEEE_DENORMAL
Note: The following floating-point exceptions are signalling: IEEE_DENORMAL
