
     Program PWSCF v.6.7MaX starts on 18Dec2022 at  0: 8:56 

     This program is part of the open-source Quantum ESPRESSO suite
     for quantum simulation of materials; please cite
         "P. Giannozzi et al., J. Phys.:Condens. Matter 21 395502 (2009);
         "P. Giannozzi et al., J. Phys.:Condens. Matter 29 465901 (2017);
          URL http://www.quantum-espresso.org", 
     in publications or presentations arising from this work. More details at
     http://www.quantum-espresso.org/quote

     Parallel version (MPI), running on    24 processors

     MPI processes distributed on     1 nodes
     R & G space division:  proc/nbgrp/npool/nimage =      24
     Reading input from scale_2dab-03.in

     Current dimensions of program PWSCF are:
     Max number of different atomic species (ntypx) = 10
     Max number of k-points (npk) =  40000
     Max angular momentum in pseudopotentials (lmaxx) =  3
     Message from routine read_pp_mesh:
     mesh size missing, using the one in header
     file Fe.pbe-spn-kjpaw_psl.0.2.1.UPF: wavefunction(s)  3D renormalized
     file O.pbe-n-kjpaw_psl.0.1.UPF: wavefunction(s)  2P renormalized

     Subspace diagonalization in iterative solution of the eigenvalue problem:
     a serial algorithm will be used


     Parallelization info
     --------------------
     sticks:   dense  smooth     PW     G-vecs:    dense   smooth      PW
     Min         855     316     85                55763    12569    1765
     Max         856     318     86                55765    12571    1768
     Sum       20521    7599   2049              1338317   301689   42399



     bravais-lattice index     =            0
     lattice parameter (alat)  =      19.9928  a.u.
     unit-cell volume          =    2232.9698 (a.u.)^3
     number of atoms/cell      =           25
     number of atomic types    =            4
     number of electrons       =       189.00
     number of Kohn-Sham states=          114
     kinetic-energy cutoff     =     100.0000  Ry
     charge density cutoff     =    1080.0000  Ry
     scf convergence threshold =      2.0E-10
     mixing beta               =       0.4000
     number of iterations used =            8  plain     mixing
     Exchange-correlation= PBE
                           (   1   4   3   4   0   0   0)

     celldm(1)=  19.992808  celldm(2)=   0.000000  celldm(3)=   0.000000
     celldm(4)=   0.000000  celldm(5)=   0.000000  celldm(6)=   0.000000

     crystal axes: (cart. coord. in units of alat)
               a(1) = (   1.000000   0.000000   0.000000 )  
               a(2) = (   0.000000   0.597590   0.000000 )  
               a(3) = (   0.000000   0.000000   0.467582 )  

     reciprocal axes: (cart. coord. in units 2 pi/alat)
               b(1) = (  1.000000  0.000000  0.000000 )  
               b(2) = (  0.000000  1.673388  0.000000 )  
               b(3) = (  0.000000  0.000000  2.138660 )  


     PseudoPot. # 1 for Fe read from file:
     /opt/QEpot/SSSP_precision_pseudos/Fe.pbe-spn-kjpaw_psl.0.2.1.UPF
     MD5 check sum: e86618425769142926afa95317d90200
     Pseudo is Projector augmented-wave + core cor, Zval = 16.0
     Generated using "atomic" code by A. Dal Corso  v.5.0.99 svn rev. 10869
     Shape of augmentation charge: PSQ
     Using radial grid of 1191 points,  6 beta functions with: 
                l(1) =   0
                l(2) =   0
                l(3) =   1
                l(4) =   1
                l(5) =   2
                l(6) =   2
     Q(r) pseudized with 0 coefficients 


     PseudoPot. # 2 for Na read from file:
     /opt/QEpot/SSSP_precision_pseudos/Na_ONCV_PBE-1.0.oncvpsp.upf
     MD5 check sum: 24a298df0a6742ae313db96548fdb2a4
     Pseudo is Norm-conserving, Zval =  9.0
     Generated using ONCVPSP code by D. R. Hamann
     Using radial grid of 1992 points,  4 beta functions with: 
                l(1) =   0
                l(2) =   0
                l(3) =   1
                l(4) =   1

     PseudoPot. # 3 for O  read from file:
     /opt/QEpot/SSSP_precision_pseudos/O.pbe-n-kjpaw_psl.0.1.UPF
     MD5 check sum: 0234752ac141de4415c5fc33072bef88
     Pseudo is Projector augmented-wave + core cor, Zval =  6.0
     Generated using "atomic" code by A. Dal Corso  v.5.0.99 svn rev. 10869
     Shape of augmentation charge: BESSEL
     Using radial grid of 1095 points,  4 beta functions with: 
                l(1) =   0
                l(2) =   0
                l(3) =   1
                l(4) =   1
     Q(r) pseudized with 0 coefficients 


     PseudoPot. # 4 for P  read from file:
     /opt/QEpot/SSSP_precision_pseudos/P.pbe-n-rrkjus_psl.1.0.0.UPF
     MD5 check sum: 8b930f418f0a4573dca56cd030ffe088
     Pseudo is Ultrasoft + core correction, Zval =  5.0
     Generated using "atomic" code by A. Dal Corso  v.5.1
     Using radial grid of 1147 points,  6 beta functions with: 
                l(1) =   0
                l(2) =   0
                l(3) =   1
                l(4) =   1
                l(5) =   2
                l(6) =   2
     Q(r) pseudized with 0 coefficients 


     atomic species   valence    mass     pseudopotential
        Fe            16.00    55.84500     Fe( 1.00)
        Na             9.00    22.98977     Na( 1.00)
        O              6.00    15.99940     O ( 1.00)
        P              5.00    30.97376     P ( 1.00)

     Starting magnetic structure 
     atomic species   magnetization
        Fe           0.312
        Na           0.000
        O            0.000
        P            0.000

     No symmetry found


                                    s                        frac. trans.

      isym =  1     identity                                     

 cryst.   s( 1) = (     1          0          0      )
                  (     0          1          0      )
                  (     0          0          1      )

 cart.    s( 1) = (  1.0000000  0.0000000  0.0000000 )
                  (  0.0000000  1.0000000  0.0000000 )
                  (  0.0000000  0.0000000  1.0000000 )


   Cartesian axes

     site n.     atom                  positions (alat units)
         1           Na  tau(   1) = (   0.5574590   0.1493981   0.2082509  )
         2           Fe  tau(   2) = (   0.2771150   0.4481954   0.4635570  )
         3           Fe  tau(   3) = (   0.2107060   0.1493969   0.2293296  )
         4           Fe  tau(   4) = (   0.7302140   0.1493975   0.0000500  )
         5           Fe  tau(   5) = (   0.7810190   0.4481960   0.2405847  )
         6           P   tau(   6) = (   0.1051510   0.4481942   0.2075542  )
         7           P   tau(   7) = (   0.3871250   0.1493987   0.4402523  )
         8           P   tau(   8) = (   0.8922730   0.1493987   0.2602681  )
         9           P   tau(   9) = (   0.6039150   0.4481942   0.0309142  )
        10           O   tau(  10) = (   0.1313210   0.4481948   0.3510838  )
        11           O   tau(  11) = (   0.3628270   0.1493981   0.1166992  )
        12           O   tau(  12) = (   0.8714480   0.1493981   0.1161610  )
        13           O   tau(  13) = (   0.6323650   0.4481948   0.3554375  )
        14           O   tau(  14) = (   0.4574600   0.4481948   0.0558953  )
        15           O   tau(  15) = (   0.0361810   0.1493981   0.2933692  )
        16           O   tau(  16) = (   0.5358400   0.1493975   0.4189422  )
        17           O   tau(  17) = (   0.9582930   0.4481948   0.1829309  )
        18           O   tau(  18) = (   0.1741600   0.5648814   0.1400779  )
        19           O   tau(  19) = (   0.3208130   0.0329153   0.3718248  )
        20           O   tau(  20) = (   0.8175190   0.2646445   0.3252251  )
        21           O   tau(  21) = (   0.6721860   0.3307857   0.0996390  )
        22           O   tau(  22) = (   0.8175190   0.0341529   0.3252256  )
        23           O   tau(  23) = (   0.6721870   0.5656027   0.0996400  )
        24           O   tau(  24) = (   0.1741600   0.3315070   0.1400779  )
        25           O   tau(  25) = (   0.3208140   0.2658821   0.3718258  )

   Crystallographic axes

     site n.     atom                  positions (cryst. coord.)
         1           Na  tau(   1) = (  0.5574590  0.2500010  0.4453780  )
         2           Fe  tau(   2) = (  0.2771150  0.7500050  0.9913910  )
         3           Fe  tau(   3) = (  0.2107060  0.2499990  0.4904580  )
         4           Fe  tau(   4) = (  0.7302140  0.2500000  0.0001070  )
         5           Fe  tau(   5) = (  0.7810190  0.7500060  0.5145290  )
         6           P   tau(   6) = (  0.1051510  0.7500030  0.4438880  )
         7           P   tau(   7) = (  0.3871250  0.2500020  0.9415500  )
         8           P   tau(   8) = (  0.8922730  0.2500020  0.5566250  )
         9           P   tau(   9) = (  0.6039150  0.7500030  0.0661150  )
        10           O   tau(  10) = (  0.1313210  0.7500040  0.7508490  )
        11           O   tau(  11) = (  0.3628270  0.2500010  0.2495800  )
        12           O   tau(  12) = (  0.8714480  0.2500010  0.2484290  )
        13           O   tau(  13) = (  0.6323650  0.7500040  0.7601600  )
        14           O   tau(  14) = (  0.4574600  0.7500040  0.1195410  )
        15           O   tau(  15) = (  0.0361810  0.2500010  0.6274170  )
        16           O   tau(  16) = (  0.5358400  0.2500000  0.8959750  )
        17           O   tau(  17) = (  0.9582930  0.7500040  0.3912270  )
        18           O   tau(  18) = (  0.1741600  0.9452660  0.2995790  )
        19           O   tau(  19) = (  0.3208130  0.0550800  0.7952070  )
        20           O   tau(  20) = (  0.8175190  0.4428530  0.6955460  )
        21           O   tau(  21) = (  0.6721860  0.5535330  0.2130940  )
        22           O   tau(  22) = (  0.8175190  0.0571510  0.6955470  )
        23           O   tau(  23) = (  0.6721870  0.9464730  0.2130960  )
        24           O   tau(  24) = (  0.1741600  0.5547400  0.2995790  )
        25           O   tau(  25) = (  0.3208140  0.4449240  0.7952090  )

     number of k points=   158  Marzari-Vanderbilt smearing, width (Ry)=  0.0073
                       cart. coord. in units 2pi/alat
        k(    1) = (   0.0000000   0.0000000   0.0000000), wk =   0.0031746
        k(    2) = (   0.0000000   0.0000000   0.2376289), wk =   0.0063492
        k(    3) = (   0.0000000   0.0000000   0.4752578), wk =   0.0063492
        k(    4) = (   0.0000000   0.0000000   0.7128867), wk =   0.0063492
        k(    5) = (   0.0000000   0.0000000   0.9505157), wk =   0.0063492
        k(    6) = (   0.0000000   0.2390555   0.0000000), wk =   0.0063492
        k(    7) = (   0.0000000   0.2390555   0.2376289), wk =   0.0063492
        k(    8) = (   0.0000000   0.2390555   0.4752578), wk =   0.0063492
        k(    9) = (   0.0000000   0.2390555   0.7128867), wk =   0.0063492
        k(   10) = (   0.0000000   0.2390555   0.9505157), wk =   0.0063492
        k(   11) = (   0.0000000   0.4781110   0.0000000), wk =   0.0063492
        k(   12) = (   0.0000000   0.4781110   0.2376289), wk =   0.0063492
        k(   13) = (   0.0000000   0.4781110   0.4752578), wk =   0.0063492
        k(   14) = (   0.0000000   0.4781110   0.7128867), wk =   0.0063492
        k(   15) = (   0.0000000   0.4781110   0.9505157), wk =   0.0063492
        k(   16) = (   0.0000000   0.7171664   0.0000000), wk =   0.0063492
        k(   17) = (   0.0000000   0.7171664   0.2376289), wk =   0.0063492
        k(   18) = (   0.0000000   0.7171664   0.4752578), wk =   0.0063492
        k(   19) = (   0.0000000   0.7171664   0.7128867), wk =   0.0063492
        k(   20) = (   0.0000000   0.7171664   0.9505157), wk =   0.0063492
        k(   21) = (   0.2000000   0.0000000   0.0000000), wk =   0.0063492
        k(   22) = (   0.2000000   0.0000000   0.2376289), wk =   0.0063492
        k(   23) = (   0.2000000   0.0000000   0.4752578), wk =   0.0063492
        k(   24) = (   0.2000000   0.0000000   0.7128867), wk =   0.0063492
        k(   25) = (   0.2000000   0.0000000   0.9505157), wk =   0.0063492
        k(   26) = (   0.2000000   0.2390555   0.0000000), wk =   0.0063492
        k(   27) = (   0.2000000   0.2390555   0.2376289), wk =   0.0063492
        k(   28) = (   0.2000000   0.2390555   0.4752578), wk =   0.0063492
        k(   29) = (   0.2000000   0.2390555   0.7128867), wk =   0.0063492
        k(   30) = (   0.2000000   0.2390555   0.9505157), wk =   0.0063492
        k(   31) = (   0.2000000   0.4781110   0.0000000), wk =   0.0063492
        k(   32) = (   0.2000000   0.4781110   0.2376289), wk =   0.0063492
        k(   33) = (   0.2000000   0.4781110   0.4752578), wk =   0.0063492
        k(   34) = (   0.2000000   0.4781110   0.7128867), wk =   0.0063492
        k(   35) = (   0.2000000   0.4781110   0.9505157), wk =   0.0063492
        k(   36) = (   0.2000000   0.7171664   0.0000000), wk =   0.0063492
        k(   37) = (   0.2000000   0.7171664   0.2376289), wk =   0.0063492
        k(   38) = (   0.2000000   0.7171664   0.4752578), wk =   0.0063492
        k(   39) = (   0.2000000   0.7171664   0.7128867), wk =   0.0063492
        k(   40) = (   0.2000000   0.7171664   0.9505157), wk =   0.0063492
        k(   41) = (   0.4000000   0.0000000   0.0000000), wk =   0.0063492
        k(   42) = (   0.4000000   0.0000000   0.2376289), wk =   0.0063492
        k(   43) = (   0.4000000   0.0000000   0.4752578), wk =   0.0063492
        k(   44) = (   0.4000000   0.0000000   0.7128867), wk =   0.0063492
        k(   45) = (   0.4000000   0.0000000   0.9505157), wk =   0.0063492
        k(   46) = (   0.4000000   0.2390555   0.0000000), wk =   0.0063492
        k(   47) = (   0.4000000   0.2390555   0.2376289), wk =   0.0063492
        k(   48) = (   0.4000000   0.2390555   0.4752578), wk =   0.0063492
        k(   49) = (   0.4000000   0.2390555   0.7128867), wk =   0.0063492
        k(   50) = (   0.4000000   0.2390555   0.9505157), wk =   0.0063492
        k(   51) = (   0.4000000   0.4781110   0.0000000), wk =   0.0063492
        k(   52) = (   0.4000000   0.4781110   0.2376289), wk =   0.0063492
        k(   53) = (   0.4000000   0.4781110   0.4752578), wk =   0.0063492
        k(   54) = (   0.4000000   0.4781110   0.7128867), wk =   0.0063492
        k(   55) = (   0.4000000   0.4781110   0.9505157), wk =   0.0063492
        k(   56) = (   0.4000000   0.7171664   0.0000000), wk =   0.0063492
        k(   57) = (   0.4000000   0.7171664   0.2376289), wk =   0.0063492
        k(   58) = (   0.4000000   0.7171664   0.4752578), wk =   0.0063492
        k(   59) = (   0.4000000   0.7171664   0.7128867), wk =   0.0063492
        k(   60) = (   0.4000000   0.7171664   0.9505157), wk =   0.0063492
        k(   61) = (   0.0000000  -0.2390555   0.2376289), wk =   0.0063492
        k(   62) = (   0.0000000  -0.2390555   0.4752578), wk =   0.0063492
        k(   63) = (   0.0000000  -0.2390555   0.7128867), wk =   0.0063492
        k(   64) = (   0.0000000  -0.2390555   0.9505157), wk =   0.0063492
        k(   65) = (   0.0000000  -0.4781110   0.2376289), wk =   0.0063492
        k(   66) = (   0.0000000  -0.4781110   0.4752578), wk =   0.0063492
        k(   67) = (   0.0000000  -0.4781110   0.7128867), wk =   0.0063492
        k(   68) = (   0.0000000  -0.4781110   0.9505157), wk =   0.0063492
        k(   69) = (   0.0000000  -0.7171664   0.2376289), wk =   0.0063492
        k(   70) = (   0.0000000  -0.7171664   0.4752578), wk =   0.0063492
        k(   71) = (   0.0000000  -0.7171664   0.7128867), wk =   0.0063492
        k(   72) = (   0.0000000  -0.7171664   0.9505157), wk =   0.0063492
        k(   73) = (  -0.2000000   0.0000000   0.2376289), wk =   0.0063492
        k(   74) = (  -0.2000000   0.0000000   0.4752578), wk =   0.0063492
        k(   75) = (  -0.2000000   0.0000000   0.7128867), wk =   0.0063492
        k(   76) = (  -0.2000000   0.0000000   0.9505157), wk =   0.0063492
        k(   77) = (  -0.2000000   0.2390555   0.0000000), wk =   0.0063492
        k(   78) = (  -0.2000000  -0.2390555   0.2376289), wk =   0.0063492
        k(   79) = (  -0.2000000   0.2390555  -0.2376289), wk =   0.0063492
        k(   80) = (   0.2000000  -0.2390555  -0.2376289), wk =   0.0063492
        k(   81) = (  -0.2000000  -0.2390555   0.4752578), wk =   0.0063492
        k(   82) = (  -0.2000000   0.2390555  -0.4752578), wk =   0.0063492
        k(   83) = (   0.2000000  -0.2390555  -0.4752578), wk =   0.0063492
        k(   84) = (  -0.2000000  -0.2390555   0.7128867), wk =   0.0063492
        k(   85) = (  -0.2000000   0.2390555  -0.7128867), wk =   0.0063492
        k(   86) = (   0.2000000  -0.2390555  -0.7128867), wk =   0.0063492
        k(   87) = (  -0.2000000  -0.2390555   0.9505157), wk =   0.0063492
        k(   88) = (  -0.2000000   0.2390555  -0.9505157), wk =   0.0063492
        k(   89) = (   0.2000000  -0.2390555  -0.9505157), wk =   0.0063492
        k(   90) = (  -0.2000000   0.4781110   0.0000000), wk =   0.0063492
        k(   91) = (  -0.2000000  -0.4781110   0.2376289), wk =   0.0063492
        k(   92) = (  -0.2000000   0.4781110  -0.2376289), wk =   0.0063492
        k(   93) = (   0.2000000  -0.4781110  -0.2376289), wk =   0.0063492
        k(   94) = (  -0.2000000  -0.4781110   0.4752578), wk =   0.0063492
        k(   95) = (  -0.2000000   0.4781110  -0.4752578), wk =   0.0063492
        k(   96) = (   0.2000000  -0.4781110  -0.4752578), wk =   0.0063492
        k(   97) = (  -0.2000000  -0.4781110   0.7128867), wk =   0.0063492
        k(   98) = (  -0.2000000   0.4781110  -0.7128867), wk =   0.0063492
        k(   99) = (   0.2000000  -0.4781110  -0.7128867), wk =   0.0063492
        k(  100) = (  -0.2000000  -0.4781110   0.9505157), wk =   0.0063492
        k(  101) = (  -0.2000000   0.4781110  -0.9505157), wk =   0.0063492
        k(  102) = (   0.2000000  -0.4781110  -0.9505157), wk =   0.0063492
        k(  103) = (  -0.2000000   0.7171664   0.0000000), wk =   0.0063492
        k(  104) = (  -0.2000000  -0.7171664   0.2376289), wk =   0.0063492
        k(  105) = (  -0.2000000   0.7171664  -0.2376289), wk =   0.0063492
        k(  106) = (   0.2000000  -0.7171664  -0.2376289), wk =   0.0063492
        k(  107) = (  -0.2000000  -0.7171664   0.4752578), wk =   0.0063492
        k(  108) = (  -0.2000000   0.7171664  -0.4752578), wk =   0.0063492
        k(  109) = (   0.2000000  -0.7171664  -0.4752578), wk =   0.0063492
        k(  110) = (  -0.2000000  -0.7171664   0.7128867), wk =   0.0063492
        k(  111) = (  -0.2000000   0.7171664  -0.7128867), wk =   0.0063492
        k(  112) = (   0.2000000  -0.7171664  -0.7128867), wk =   0.0063492
        k(  113) = (  -0.2000000  -0.7171664   0.9505157), wk =   0.0063492
        k(  114) = (  -0.2000000   0.7171664  -0.9505157), wk =   0.0063492
        k(  115) = (   0.2000000  -0.7171664  -0.9505157), wk =   0.0063492
        k(  116) = (  -0.4000000   0.0000000   0.2376289), wk =   0.0063492
        k(  117) = (  -0.4000000   0.0000000   0.4752578), wk =   0.0063492
        k(  118) = (  -0.4000000   0.0000000   0.7128867), wk =   0.0063492
        k(  119) = (  -0.4000000   0.0000000   0.9505157), wk =   0.0063492
        k(  120) = (  -0.4000000   0.2390555   0.0000000), wk =   0.0063492
        k(  121) = (  -0.4000000  -0.2390555   0.2376289), wk =   0.0063492
        k(  122) = (  -0.4000000   0.2390555  -0.2376289), wk =   0.0063492
        k(  123) = (   0.4000000  -0.2390555  -0.2376289), wk =   0.0063492
        k(  124) = (  -0.4000000  -0.2390555   0.4752578), wk =   0.0063492
        k(  125) = (  -0.4000000   0.2390555  -0.4752578), wk =   0.0063492
        k(  126) = (   0.4000000  -0.2390555  -0.4752578), wk =   0.0063492
        k(  127) = (  -0.4000000  -0.2390555   0.7128867), wk =   0.0063492
        k(  128) = (  -0.4000000   0.2390555  -0.7128867), wk =   0.0063492
        k(  129) = (   0.4000000  -0.2390555  -0.7128867), wk =   0.0063492
        k(  130) = (  -0.4000000  -0.2390555   0.9505157), wk =   0.0063492
        k(  131) = (  -0.4000000   0.2390555  -0.9505157), wk =   0.0063492
        k(  132) = (   0.4000000  -0.2390555  -0.9505157), wk =   0.0063492
        k(  133) = (  -0.4000000   0.4781110   0.0000000), wk =   0.0063492
        k(  134) = (  -0.4000000  -0.4781110   0.2376289), wk =   0.0063492
        k(  135) = (  -0.4000000   0.4781110  -0.2376289), wk =   0.0063492
        k(  136) = (   0.4000000  -0.4781110  -0.2376289), wk =   0.0063492
        k(  137) = (  -0.4000000  -0.4781110   0.4752578), wk =   0.0063492
        k(  138) = (  -0.4000000   0.4781110  -0.4752578), wk =   0.0063492
        k(  139) = (   0.4000000  -0.4781110  -0.4752578), wk =   0.0063492
        k(  140) = (  -0.4000000  -0.4781110   0.7128867), wk =   0.0063492
        k(  141) = (  -0.4000000   0.4781110  -0.7128867), wk =   0.0063492
        k(  142) = (   0.4000000  -0.4781110  -0.7128867), wk =   0.0063492
        k(  143) = (  -0.4000000  -0.4781110   0.9505157), wk =   0.0063492
        k(  144) = (  -0.4000000   0.4781110  -0.9505157), wk =   0.0063492
        k(  145) = (   0.4000000  -0.4781110  -0.9505157), wk =   0.0063492
        k(  146) = (  -0.4000000   0.7171664   0.0000000), wk =   0.0063492
        k(  147) = (  -0.4000000  -0.7171664   0.2376289), wk =   0.0063492
        k(  148) = (  -0.4000000   0.7171664  -0.2376289), wk =   0.0063492
        k(  149) = (   0.4000000  -0.7171664  -0.2376289), wk =   0.0063492
        k(  150) = (  -0.4000000  -0.7171664   0.4752578), wk =   0.0063492
        k(  151) = (  -0.4000000   0.7171664  -0.4752578), wk =   0.0063492
        k(  152) = (   0.4000000  -0.7171664  -0.4752578), wk =   0.0063492
        k(  153) = (  -0.4000000  -0.7171664   0.7128867), wk =   0.0063492
        k(  154) = (  -0.4000000   0.7171664  -0.7128867), wk =   0.0063492
        k(  155) = (   0.4000000  -0.7171664  -0.7128867), wk =   0.0063492
        k(  156) = (  -0.4000000  -0.7171664   0.9505157), wk =   0.0063492
        k(  157) = (  -0.4000000   0.7171664  -0.9505157), wk =   0.0063492
        k(  158) = (   0.4000000  -0.7171664  -0.9505157), wk =   0.0063492

                       cryst. coord.
        k(    1) = (   0.0000000   0.0000000   0.0000000), wk =   0.0031746
        k(    2) = (   0.0000000   0.0000000   0.1111111), wk =   0.0063492
        k(    3) = (   0.0000000   0.0000000   0.2222222), wk =   0.0063492
        k(    4) = (   0.0000000   0.0000000   0.3333333), wk =   0.0063492
        k(    5) = (   0.0000000   0.0000000   0.4444444), wk =   0.0063492
        k(    6) = (   0.0000000   0.1428571   0.0000000), wk =   0.0063492
        k(    7) = (   0.0000000   0.1428571   0.1111111), wk =   0.0063492
        k(    8) = (   0.0000000   0.1428571   0.2222222), wk =   0.0063492
        k(    9) = (   0.0000000   0.1428571   0.3333333), wk =   0.0063492
        k(   10) = (   0.0000000   0.1428571   0.4444444), wk =   0.0063492
        k(   11) = (   0.0000000   0.2857143   0.0000000), wk =   0.0063492
        k(   12) = (   0.0000000   0.2857143   0.1111111), wk =   0.0063492
        k(   13) = (   0.0000000   0.2857143   0.2222222), wk =   0.0063492
        k(   14) = (   0.0000000   0.2857143   0.3333333), wk =   0.0063492
        k(   15) = (   0.0000000   0.2857143   0.4444444), wk =   0.0063492
        k(   16) = (   0.0000000   0.4285714   0.0000000), wk =   0.0063492
        k(   17) = (   0.0000000   0.4285714   0.1111111), wk =   0.0063492
        k(   18) = (   0.0000000   0.4285714   0.2222222), wk =   0.0063492
        k(   19) = (   0.0000000   0.4285714   0.3333333), wk =   0.0063492
        k(   20) = (   0.0000000   0.4285714   0.4444444), wk =   0.0063492
        k(   21) = (   0.2000000   0.0000000   0.0000000), wk =   0.0063492
        k(   22) = (   0.2000000   0.0000000   0.1111111), wk =   0.0063492
        k(   23) = (   0.2000000   0.0000000   0.2222222), wk =   0.0063492
        k(   24) = (   0.2000000   0.0000000   0.3333333), wk =   0.0063492
        k(   25) = (   0.2000000   0.0000000   0.4444444), wk =   0.0063492
        k(   26) = (   0.2000000   0.1428571   0.0000000), wk =   0.0063492
        k(   27) = (   0.2000000   0.1428571   0.1111111), wk =   0.0063492
        k(   28) = (   0.2000000   0.1428571   0.2222222), wk =   0.0063492
        k(   29) = (   0.2000000   0.1428571   0.3333333), wk =   0.0063492
        k(   30) = (   0.2000000   0.1428571   0.4444444), wk =   0.0063492
        k(   31) = (   0.2000000   0.2857143   0.0000000), wk =   0.0063492
        k(   32) = (   0.2000000   0.2857143   0.1111111), wk =   0.0063492
        k(   33) = (   0.2000000   0.2857143   0.2222222), wk =   0.0063492
        k(   34) = (   0.2000000   0.2857143   0.3333333), wk =   0.0063492
        k(   35) = (   0.2000000   0.2857143   0.4444444), wk =   0.0063492
        k(   36) = (   0.2000000   0.4285714   0.0000000), wk =   0.0063492
        k(   37) = (   0.2000000   0.4285714   0.1111111), wk =   0.0063492
        k(   38) = (   0.2000000   0.4285714   0.2222222), wk =   0.0063492
        k(   39) = (   0.2000000   0.4285714   0.3333333), wk =   0.0063492
        k(   40) = (   0.2000000   0.4285714   0.4444444), wk =   0.0063492
        k(   41) = (   0.4000000   0.0000000   0.0000000), wk =   0.0063492
        k(   42) = (   0.4000000   0.0000000   0.1111111), wk =   0.0063492
        k(   43) = (   0.4000000   0.0000000   0.2222222), wk =   0.0063492
        k(   44) = (   0.4000000   0.0000000   0.3333333), wk =   0.0063492
        k(   45) = (   0.4000000   0.0000000   0.4444444), wk =   0.0063492
        k(   46) = (   0.4000000   0.1428571   0.0000000), wk =   0.0063492
        k(   47) = (   0.4000000   0.1428571   0.1111111), wk =   0.0063492
        k(   48) = (   0.4000000   0.1428571   0.2222222), wk =   0.0063492
        k(   49) = (   0.4000000   0.1428571   0.3333333), wk =   0.0063492
        k(   50) = (   0.4000000   0.1428571   0.4444444), wk =   0.0063492
        k(   51) = (   0.4000000   0.2857143   0.0000000), wk =   0.0063492
        k(   52) = (   0.4000000   0.2857143   0.1111111), wk =   0.0063492
        k(   53) = (   0.4000000   0.2857143   0.2222222), wk =   0.0063492
        k(   54) = (   0.4000000   0.2857143   0.3333333), wk =   0.0063492
        k(   55) = (   0.4000000   0.2857143   0.4444444), wk =   0.0063492
        k(   56) = (   0.4000000   0.4285714   0.0000000), wk =   0.0063492
        k(   57) = (   0.4000000   0.4285714   0.1111111), wk =   0.0063492
        k(   58) = (   0.4000000   0.4285714   0.2222222), wk =   0.0063492
        k(   59) = (   0.4000000   0.4285714   0.3333333), wk =   0.0063492
        k(   60) = (   0.4000000   0.4285714   0.4444444), wk =   0.0063492
        k(   61) = (   0.0000000  -0.1428571   0.1111111), wk =   0.0063492
        k(   62) = (   0.0000000  -0.1428571   0.2222222), wk =   0.0063492
        k(   63) = (   0.0000000  -0.1428571   0.3333333), wk =   0.0063492
        k(   64) = (   0.0000000  -0.1428571   0.4444444), wk =   0.0063492
        k(   65) = (   0.0000000  -0.2857143   0.1111111), wk =   0.0063492
        k(   66) = (   0.0000000  -0.2857143   0.2222222), wk =   0.0063492
        k(   67) = (   0.0000000  -0.2857143   0.3333333), wk =   0.0063492
        k(   68) = (   0.0000000  -0.2857143   0.4444444), wk =   0.0063492
        k(   69) = (   0.0000000  -0.4285714   0.1111111), wk =   0.0063492
        k(   70) = (   0.0000000  -0.4285714   0.2222222), wk =   0.0063492
        k(   71) = (   0.0000000  -0.4285714   0.3333333), wk =   0.0063492
        k(   72) = (   0.0000000  -0.4285714   0.4444444), wk =   0.0063492
        k(   73) = (  -0.2000000   0.0000000   0.1111111), wk =   0.0063492
        k(   74) = (  -0.2000000   0.0000000   0.2222222), wk =   0.0063492
        k(   75) = (  -0.2000000   0.0000000   0.3333333), wk =   0.0063492
        k(   76) = (  -0.2000000   0.0000000   0.4444444), wk =   0.0063492
        k(   77) = (  -0.2000000   0.1428571   0.0000000), wk =   0.0063492
        k(   78) = (  -0.2000000  -0.1428571   0.1111111), wk =   0.0063492
        k(   79) = (  -0.2000000   0.1428571  -0.1111111), wk =   0.0063492
        k(   80) = (   0.2000000  -0.1428571  -0.1111111), wk =   0.0063492
        k(   81) = (  -0.2000000  -0.1428571   0.2222222), wk =   0.0063492
        k(   82) = (  -0.2000000   0.1428571  -0.2222222), wk =   0.0063492
        k(   83) = (   0.2000000  -0.1428571  -0.2222222), wk =   0.0063492
        k(   84) = (  -0.2000000  -0.1428571   0.3333333), wk =   0.0063492
        k(   85) = (  -0.2000000   0.1428571  -0.3333333), wk =   0.0063492
        k(   86) = (   0.2000000  -0.1428571  -0.3333333), wk =   0.0063492
        k(   87) = (  -0.2000000  -0.1428571   0.4444444), wk =   0.0063492
        k(   88) = (  -0.2000000   0.1428571  -0.4444444), wk =   0.0063492
        k(   89) = (   0.2000000  -0.1428571  -0.4444444), wk =   0.0063492
        k(   90) = (  -0.2000000   0.2857143   0.0000000), wk =   0.0063492
        k(   91) = (  -0.2000000  -0.2857143   0.1111111), wk =   0.0063492
        k(   92) = (  -0.2000000   0.2857143  -0.1111111), wk =   0.0063492
        k(   93) = (   0.2000000  -0.2857143  -0.1111111), wk =   0.0063492
        k(   94) = (  -0.2000000  -0.2857143   0.2222222), wk =   0.0063492
        k(   95) = (  -0.2000000   0.2857143  -0.2222222), wk =   0.0063492
        k(   96) = (   0.2000000  -0.2857143  -0.2222222), wk =   0.0063492
        k(   97) = (  -0.2000000  -0.2857143   0.3333333), wk =   0.0063492
        k(   98) = (  -0.2000000   0.2857143  -0.3333333), wk =   0.0063492
        k(   99) = (   0.2000000  -0.2857143  -0.3333333), wk =   0.0063492
        k(  100) = (  -0.2000000  -0.2857143   0.4444444), wk =   0.0063492
        k(  101) = (  -0.2000000   0.2857143  -0.4444444), wk =   0.0063492
        k(  102) = (   0.2000000  -0.2857143  -0.4444444), wk =   0.0063492
        k(  103) = (  -0.2000000   0.4285714   0.0000000), wk =   0.0063492
        k(  104) = (  -0.2000000  -0.4285714   0.1111111), wk =   0.0063492
        k(  105) = (  -0.2000000   0.4285714  -0.1111111), wk =   0.0063492
        k(  106) = (   0.2000000  -0.4285714  -0.1111111), wk =   0.0063492
        k(  107) = (  -0.2000000  -0.4285714   0.2222222), wk =   0.0063492
        k(  108) = (  -0.2000000   0.4285714  -0.2222222), wk =   0.0063492
        k(  109) = (   0.2000000  -0.4285714  -0.2222222), wk =   0.0063492
        k(  110) = (  -0.2000000  -0.4285714   0.3333333), wk =   0.0063492
        k(  111) = (  -0.2000000   0.4285714  -0.3333333), wk =   0.0063492
        k(  112) = (   0.2000000  -0.4285714  -0.3333333), wk =   0.0063492
        k(  113) = (  -0.2000000  -0.4285714   0.4444444), wk =   0.0063492
        k(  114) = (  -0.2000000   0.4285714  -0.4444444), wk =   0.0063492
        k(  115) = (   0.2000000  -0.4285714  -0.4444444), wk =   0.0063492
        k(  116) = (  -0.4000000   0.0000000   0.1111111), wk =   0.0063492
        k(  117) = (  -0.4000000   0.0000000   0.2222222), wk =   0.0063492
        k(  118) = (  -0.4000000   0.0000000   0.3333333), wk =   0.0063492
        k(  119) = (  -0.4000000   0.0000000   0.4444444), wk =   0.0063492
        k(  120) = (  -0.4000000   0.1428571   0.0000000), wk =   0.0063492
        k(  121) = (  -0.4000000  -0.1428571   0.1111111), wk =   0.0063492
        k(  122) = (  -0.4000000   0.1428571  -0.1111111), wk =   0.0063492
        k(  123) = (   0.4000000  -0.1428571  -0.1111111), wk =   0.0063492
        k(  124) = (  -0.4000000  -0.1428571   0.2222222), wk =   0.0063492
        k(  125) = (  -0.4000000   0.1428571  -0.2222222), wk =   0.0063492
        k(  126) = (   0.4000000  -0.1428571  -0.2222222), wk =   0.0063492
        k(  127) = (  -0.4000000  -0.1428571   0.3333333), wk =   0.0063492
        k(  128) = (  -0.4000000   0.1428571  -0.3333333), wk =   0.0063492
        k(  129) = (   0.4000000  -0.1428571  -0.3333333), wk =   0.0063492
        k(  130) = (  -0.4000000  -0.1428571   0.4444444), wk =   0.0063492
        k(  131) = (  -0.4000000   0.1428571  -0.4444444), wk =   0.0063492
        k(  132) = (   0.4000000  -0.1428571  -0.4444444), wk =   0.0063492
        k(  133) = (  -0.4000000   0.2857143   0.0000000), wk =   0.0063492
        k(  134) = (  -0.4000000  -0.2857143   0.1111111), wk =   0.0063492
        k(  135) = (  -0.4000000   0.2857143  -0.1111111), wk =   0.0063492
        k(  136) = (   0.4000000  -0.2857143  -0.1111111), wk =   0.0063492
        k(  137) = (  -0.4000000  -0.2857143   0.2222222), wk =   0.0063492
        k(  138) = (  -0.4000000   0.2857143  -0.2222222), wk =   0.0063492
        k(  139) = (   0.4000000  -0.2857143  -0.2222222), wk =   0.0063492
        k(  140) = (  -0.4000000  -0.2857143   0.3333333), wk =   0.0063492
        k(  141) = (  -0.4000000   0.2857143  -0.3333333), wk =   0.0063492
        k(  142) = (   0.4000000  -0.2857143  -0.3333333), wk =   0.0063492
        k(  143) = (  -0.4000000  -0.2857143   0.4444444), wk =   0.0063492
        k(  144) = (  -0.4000000   0.2857143  -0.4444444), wk =   0.0063492
        k(  145) = (   0.4000000  -0.2857143  -0.4444444), wk =   0.0063492
        k(  146) = (  -0.4000000   0.4285714   0.0000000), wk =   0.0063492
        k(  147) = (  -0.4000000  -0.4285714   0.1111111), wk =   0.0063492
        k(  148) = (  -0.4000000   0.4285714  -0.1111111), wk =   0.0063492
        k(  149) = (   0.4000000  -0.4285714  -0.1111111), wk =   0.0063492
        k(  150) = (  -0.4000000  -0.4285714   0.2222222), wk =   0.0063492
        k(  151) = (  -0.4000000   0.4285714  -0.2222222), wk =   0.0063492
        k(  152) = (   0.4000000  -0.4285714  -0.2222222), wk =   0.0063492
        k(  153) = (  -0.4000000  -0.4285714   0.3333333), wk =   0.0063492
        k(  154) = (  -0.4000000   0.4285714  -0.3333333), wk =   0.0063492
        k(  155) = (   0.4000000  -0.4285714  -0.3333333), wk =   0.0063492
        k(  156) = (  -0.4000000  -0.4285714   0.4444444), wk =   0.0063492
        k(  157) = (  -0.4000000   0.4285714  -0.4444444), wk =   0.0063492
        k(  158) = (   0.4000000  -0.4285714  -0.4444444), wk =   0.0063492

     Dense  grid:  1338317 G-vectors     FFT dimensions: ( 216, 125, 100)

     Smooth grid:   301689 G-vectors     FFT dimensions: ( 128,  80,  60)

     Dynamical RAM for                 wfc:       2.73 MB

     Dynamical RAM for     wfc (w. buffer):     866.28 MB

     Dynamical RAM for           str. fact:       3.40 MB

     Dynamical RAM for           local pot:       0.00 MB

     Dynamical RAM for          nlocal pot:       6.71 MB

     Dynamical RAM for                qrad:      10.54 MB

     Dynamical RAM for          rho,v,vnew:      11.29 MB

     Dynamical RAM for               rhoin:       3.76 MB

     Dynamical RAM for            rho*nmix:      27.23 MB

     Dynamical RAM for           G-vectors:       3.29 MB

     Dynamical RAM for          h,s,v(r/c):       2.38 MB

     Dynamical RAM for          <psi|beta>:       0.49 MB

     Dynamical RAM for                 psi:       5.47 MB

     Dynamical RAM for                hpsi:       5.47 MB

     Dynamical RAM for                spsi:       5.47 MB

     Dynamical RAM for      wfcinit/wfcrot:       7.00 MB

     Dynamical RAM for           addusdens:     172.73 MB

     Dynamical RAM for          addusforce:     198.39 MB

     Dynamical RAM for         addusstress:     172.31 MB

     Estimated static dynamical RAM per process >     942.94 MB

     Estimated max dynamical RAM per process >       1.11 GB

     Estimated total dynamical RAM >      26.75 GB

     Check: negative core charge=   -0.000003
     Generating pointlists ...
     new r_m :   0.0754 (alat units)  1.5079 (a.u.) for type    1
     new r_m :   0.0874 (alat units)  1.7467 (a.u.) for type    2
     new r_m :   0.0601 (alat units)  1.2008 (a.u.) for type    3
     new r_m :   0.0601 (alat units)  1.2008 (a.u.) for type    4

     Initial potential from superposition of free atoms

     starting charge  188.99132, renormalised to  189.00000
     Starting wfcs are  137 randomized atomic wfcs
     Checking if some PAW data can be deallocated... 
       PAW data deallocated on   20 nodes for type:  1
       PAW data deallocated on    8 nodes for type:  3

     total cpu time spent up to now is      209.1 secs

     Self-consistent Calculation

     iteration #  1     ecut=   100.00 Ry     beta= 0.40
     Davidson diagonalization with overlap
     ethr =  1.00E-02,  avg # of iterations =  3.0

     negative rho (up, down):  0.000E+00 1.010E-04

     total cpu time spent up to now is     1701.4 secs

     total energy              =   -2123.77494755 Ry
     estimated scf accuracy    <       7.14439836 Ry

     total magnetization       =    19.00 Bohr mag/cell
     absolute magnetization    =    19.00 Bohr mag/cell

     iteration #  2     ecut=   100.00 Ry     beta= 0.40
     Davidson diagonalization with overlap
     ethr =  3.78E-03,  avg # of iterations =  2.0

     negative rho (up, down):  0.000E+00 4.051E-05

     total cpu time spent up to now is     2296.7 secs

     total energy              =   -2120.25265752 Ry
     estimated scf accuracy    <      52.20077489 Ry

     total magnetization       =     6.24 Bohr mag/cell
     absolute magnetization    =     7.78 Bohr mag/cell

     iteration #  3     ecut=   100.00 Ry     beta= 0.40
     Davidson diagonalization with overlap
     ethr =  3.78E-03,  avg # of iterations =  2.9

     negative rho (up, down):  0.000E+00 2.946E-05

     total cpu time spent up to now is     2829.3 secs

     total energy              =   -2123.28531332 Ry
     estimated scf accuracy    <      57.02438073 Ry

     total magnetization       =     4.28 Bohr mag/cell
     absolute magnetization    =     8.22 Bohr mag/cell

     iteration #  4     ecut=   100.00 Ry     beta= 0.40
     Davidson diagonalization with overlap
     ethr =  3.78E-03,  avg # of iterations =  1.5

     negative rho (up, down):  0.000E+00 2.265E-05

     total cpu time spent up to now is     3287.7 secs

     total energy              =   -2124.51721618 Ry
     estimated scf accuracy    <      30.78084134 Ry

     total magnetization       =     9.00 Bohr mag/cell
     absolute magnetization    =     9.35 Bohr mag/cell

     iteration #  5     ecut=   100.00 Ry     beta= 0.40
     Davidson diagonalization with overlap
     ethr =  3.78E-03,  avg # of iterations =  2.0

     negative rho (up, down):  0.000E+00 1.110E-04

     total cpu time spent up to now is     3788.1 secs

     total energy              =   -2125.98772136 Ry
     estimated scf accuracy    <       1.88410057 Ry

     total magnetization       =    19.04 Bohr mag/cell
     absolute magnetization    =    19.04 Bohr mag/cell

     iteration #  6     ecut=   100.00 Ry     beta= 0.40
     Davidson diagonalization with overlap
     ethr =  9.97E-04,  avg # of iterations =  2.0

     negative rho (up, down):  0.000E+00 2.478E-04

     total cpu time spent up to now is     4299.9 secs

     total energy              =   -2126.04762304 Ry
     estimated scf accuracy    <       0.53665882 Ry

     total magnetization       =    19.00 Bohr mag/cell
     absolute magnetization    =    19.00 Bohr mag/cell

     iteration #  7     ecut=   100.00 Ry     beta= 0.40
     Davidson diagonalization with overlap
     ethr =  2.84E-04,  avg # of iterations =  2.6

     negative rho (up, down):  0.000E+00 3.211E-04

     total cpu time spent up to now is     4805.8 secs

     total energy              =   -2126.04701702 Ry
     estimated scf accuracy    <       0.43305485 Ry

     total magnetization       =    19.00 Bohr mag/cell
     absolute magnetization    =    19.00 Bohr mag/cell

     iteration #  8     ecut=   100.00 Ry     beta= 0.40
     Davidson diagonalization with overlap
     ethr =  2.29E-04,  avg # of iterations =  1.4

     negative rho (up, down):  0.000E+00 4.565E-04

     total cpu time spent up to now is     5248.0 secs

     total energy              =   -2126.07558596 Ry
     estimated scf accuracy    <       0.31602350 Ry

     total magnetization       =    19.00 Bohr mag/cell
     absolute magnetization    =    19.01 Bohr mag/cell

     iteration #  9     ecut=   100.00 Ry     beta= 0.40
     Davidson diagonalization with overlap
     ethr =  1.67E-04,  avg # of iterations =  3.8

     negative rho (up, down):  0.000E+00 7.109E-04

     total cpu time spent up to now is     5759.6 secs

     total energy              =   -2126.07604072 Ry
     estimated scf accuracy    <       0.16979198 Ry

     total magnetization       =    19.00 Bohr mag/cell
     absolute magnetization    =    19.01 Bohr mag/cell

     iteration # 10     ecut=   100.00 Ry     beta= 0.40
     Davidson diagonalization with overlap
     c_bands:  2 eigenvalues not converged
     c_bands:  1 eigenvalues not converged
     c_bands:  1 eigenvalues not converged
     c_bands:  3 eigenvalues not converged
     c_bands:  1 eigenvalues not converged
     c_bands:  1 eigenvalues not converged
     c_bands:  1 eigenvalues not converged
     c_bands:  1 eigenvalues not converged
     c_bands:  2 eigenvalues not converged
     c_bands:  1 eigenvalues not converged
     c_bands:  1 eigenvalues not converged
     c_bands:  1 eigenvalues not converged
     c_bands:  3 eigenvalues not converged
     ethr =  8.98E-05,  avg # of iterations =  9.8

     negative rho (up, down):  0.000E+00 9.284E-04

     total cpu time spent up to now is     6454.2 secs

     total energy              =   -2126.08624863 Ry
     estimated scf accuracy    <       0.04447136 Ry

     total magnetization       =    19.00 Bohr mag/cell
     absolute magnetization    =    19.02 Bohr mag/cell

     iteration # 11     ecut=   100.00 Ry     beta= 0.40
     Davidson diagonalization with overlap
     c_bands:  1 eigenvalues not converged
     c_bands:  1 eigenvalues not converged
     c_bands:  1 eigenvalues not converged
     c_bands:  1 eigenvalues not converged
     c_bands:  1 eigenvalues not converged
     c_bands:  1 eigenvalues not converged
     c_bands:  1 eigenvalues not converged
     c_bands:  1 eigenvalues not converged
     c_bands:  1 eigenvalues not converged
     c_bands:  1 eigenvalues not converged
     c_bands:  1 eigenvalues not converged
     c_bands:  1 eigenvalues not converged
     c_bands:  1 eigenvalues not converged
     c_bands:  1 eigenvalues not converged
     ethr =  2.35E-05,  avg # of iterations = 11.5

     negative rho (up, down):  0.000E+00 1.016E-03

     total cpu time spent up to now is     7286.0 secs

     total energy              =   -2126.09922818 Ry
     estimated scf accuracy    <       0.28046133 Ry

     total magnetization       =    19.00 Bohr mag/cell
     absolute magnetization    =    19.03 Bohr mag/cell

     iteration # 12     ecut=   100.00 Ry     beta= 0.40
     Davidson diagonalization with overlap
     ethr =  2.35E-05,  avg # of iterations =  1.2

     negative rho (up, down):  0.000E+00 1.048E-03

     total cpu time spent up to now is     7717.1 secs

     total energy              =   -2126.09479616 Ry
     estimated scf accuracy    <       0.37994231 Ry

     total magnetization       =    19.00 Bohr mag/cell
     absolute magnetization    =    19.04 Bohr mag/cell

     iteration # 13     ecut=   100.00 Ry     beta= 0.40
     Davidson diagonalization with overlap
     ethr =  2.35E-05,  avg # of iterations =  1.0

     negative rho (up, down):  0.000E+00 1.002E-03

     total cpu time spent up to now is     8137.7 secs

     total energy              =   -2126.08895006 Ry
     estimated scf accuracy    <       0.24684505 Ry

     total magnetization       =    19.00 Bohr mag/cell
     absolute magnetization    =    19.04 Bohr mag/cell

     iteration # 14     ecut=   100.00 Ry     beta= 0.40
     Davidson diagonalization with overlap
     ethr =  2.35E-05,  avg # of iterations =  1.0

     negative rho (up, down):  0.000E+00 1.006E-03

     total cpu time spent up to now is     8559.4 secs

     total energy              =   -2126.08416312 Ry
     estimated scf accuracy    <       0.12997236 Ry

     total magnetization       =    19.00 Bohr mag/cell
     absolute magnetization    =    19.04 Bohr mag/cell

     iteration # 15     ecut=   100.00 Ry     beta= 0.40
     Davidson diagonalization with overlap
     ethr =  2.35E-05,  avg # of iterations =  1.0

     negative rho (up, down):  0.000E+00 1.018E-03

     total cpu time spent up to now is     8982.0 secs

     total energy              =   -2126.08936545 Ry
     estimated scf accuracy    <       0.20778904 Ry

     total magnetization       =    19.00 Bohr mag/cell
     absolute magnetization    =    19.05 Bohr mag/cell

     iteration # 16     ecut=   100.00 Ry     beta= 0.40
     Davidson diagonalization with overlap
     ethr =  2.35E-05,  avg # of iterations =  1.0

     negative rho (up, down):  0.000E+00 9.988E-04

     total cpu time spent up to now is     9401.5 secs

     total energy              =   -2126.09152011 Ry
     estimated scf accuracy    <       0.01926754 Ry

     total magnetization       =    19.00 Bohr mag/cell
     absolute magnetization    =    19.05 Bohr mag/cell

     iteration # 17     ecut=   100.00 Ry     beta= 0.40
     Davidson diagonalization with overlap
     c_bands:  1 eigenvalues not converged
     c_bands:  1 eigenvalues not converged
     c_bands:  1 eigenvalues not converged
     c_bands:  1 eigenvalues not converged
     ethr =  1.02E-05,  avg # of iterations =  1.5

     negative rho (up, down):  0.000E+00 9.899E-04

     total cpu time spent up to now is     9832.1 secs

     total energy              =   -2126.09155431 Ry
     estimated scf accuracy    <       0.02131830 Ry

     total magnetization       =    19.00 Bohr mag/cell
     absolute magnetization    =    19.05 Bohr mag/cell

     iteration # 18     ecut=   100.00 Ry     beta= 0.40
     Davidson diagonalization with overlap
     ethr =  1.02E-05,  avg # of iterations =  1.2

     negative rho (up, down):  0.000E+00 9.797E-04

     total cpu time spent up to now is    10255.6 secs

     total energy              =   -2126.09180223 Ry
     estimated scf accuracy    <       0.00234180 Ry

     total magnetization       =    19.00 Bohr mag/cell
     absolute magnetization    =    19.05 Bohr mag/cell

     iteration # 19     ecut=   100.00 Ry     beta= 0.40
     Davidson diagonalization with overlap
     c_bands:  1 eigenvalues not converged
     c_bands:  1 eigenvalues not converged
     c_bands:  1 eigenvalues not converged
     c_bands:  1 eigenvalues not converged
     c_bands:  1 eigenvalues not converged
     c_bands:  1 eigenvalues not converged
     c_bands:  1 eigenvalues not converged
     c_bands:  1 eigenvalues not converged
     c_bands:  1 eigenvalues not converged
     c_bands:  1 eigenvalues not converged
     c_bands:  1 eigenvalues not converged
     c_bands:  1 eigenvalues not converged
     c_bands:  1 eigenvalues not converged
     c_bands:  1 eigenvalues not converged
     c_bands:  1 eigenvalues not converged
     c_bands:  1 eigenvalues not converged
     c_bands:  1 eigenvalues not converged
     c_bands:  1 eigenvalues not converged
     c_bands:  1 eigenvalues not converged
     c_bands:  1 eigenvalues not converged
     c_bands:  1 eigenvalues not converged
     c_bands:  1 eigenvalues not converged
     c_bands:  1 eigenvalues not converged
     ethr =  1.24E-06,  avg # of iterations =  9.0

     negative rho (up, down):  0.000E+00 9.767E-04

     total cpu time spent up to now is    10900.4 secs

     total energy              =   -2126.09187838 Ry
     estimated scf accuracy    <       0.00038508 Ry

     total magnetization       =    19.00 Bohr mag/cell
     absolute magnetization    =    19.05 Bohr mag/cell

     iteration # 20     ecut=   100.00 Ry     beta= 0.40
     Davidson diagonalization with overlap
     c_bands:  1 eigenvalues not converged
     c_bands:  1 eigenvalues not converged
     ethr =  2.04E-07,  avg # of iterations =  4.4

     negative rho (up, down):  0.000E+00 9.720E-04

     total cpu time spent up to now is    11529.7 secs

     total energy              =   -2126.09195845 Ry
     estimated scf accuracy    <       0.00003254 Ry

     total magnetization       =    19.00 Bohr mag/cell
     absolute magnetization    =    19.05 Bohr mag/cell

     iteration # 21     ecut=   100.00 Ry     beta= 0.40
     Davidson diagonalization with overlap
     ethr =  1.72E-08,  avg # of iterations =  4.0

     negative rho (up, down):  0.000E+00 9.678E-04

     total cpu time spent up to now is    12330.9 secs

     total energy              =   -2126.09197062 Ry
     estimated scf accuracy    <       0.00029790 Ry

     total magnetization       =    19.00 Bohr mag/cell
     absolute magnetization    =    19.05 Bohr mag/cell

     iteration # 22     ecut=   100.00 Ry     beta= 0.40
     Davidson diagonalization with overlap
     ethr =  1.72E-08,  avg # of iterations =  2.0

     negative rho (up, down):  0.000E+00 9.672E-04

     total cpu time spent up to now is    12841.7 secs

     total energy              =   -2126.09197926 Ry
     estimated scf accuracy    <       0.00004762 Ry

     total magnetization       =    19.00 Bohr mag/cell
     absolute magnetization    =    19.05 Bohr mag/cell

     iteration # 23     ecut=   100.00 Ry     beta= 0.40
     Davidson diagonalization with overlap
     ethr =  1.72E-08,  avg # of iterations =  1.0

     negative rho (up, down):  0.000E+00 9.671E-04

     total cpu time spent up to now is    13261.6 secs

     total energy              =   -2126.09198093 Ry
     estimated scf accuracy    <       0.00000573 Ry

     total magnetization       =    19.00 Bohr mag/cell
     absolute magnetization    =    19.05 Bohr mag/cell

     iteration # 24     ecut=   100.00 Ry     beta= 0.40
     Davidson diagonalization with overlap
     ethr =  3.03E-09,  avg # of iterations =  1.1

     negative rho (up, down):  0.000E+00 9.672E-04

     total cpu time spent up to now is    13686.9 secs

     total energy              =   -2126.09198136 Ry
     estimated scf accuracy    <       0.00000704 Ry

     total magnetization       =    19.00 Bohr mag/cell
     absolute magnetization    =    19.05 Bohr mag/cell

     iteration # 25     ecut=   100.00 Ry     beta= 0.40
     Davidson diagonalization with overlap
     ethr =  3.03E-09,  avg # of iterations =  1.0

     negative rho (up, down):  0.000E+00 9.676E-04

     total cpu time spent up to now is    14107.3 secs

     total energy              =   -2126.09198162 Ry
     estimated scf accuracy    <       0.00000243 Ry

     total magnetization       =    19.00 Bohr mag/cell
     absolute magnetization    =    19.05 Bohr mag/cell

     iteration # 26     ecut=   100.00 Ry     beta= 0.40
     Davidson diagonalization with overlap
     ethr =  1.29E-09,  avg # of iterations =  2.0

     negative rho (up, down):  0.000E+00 9.682E-04

     total cpu time spent up to now is    14624.6 secs

     total energy              =   -2126.09198210 Ry
     estimated scf accuracy    <       0.00000038 Ry

     total magnetization       =    19.00 Bohr mag/cell
     absolute magnetization    =    19.05 Bohr mag/cell

     iteration # 27     ecut=   100.00 Ry     beta= 0.40
     Davidson diagonalization with overlap
     ethr =  2.01E-10,  avg # of iterations =  4.0

     negative rho (up, down):  0.000E+00 9.684E-04

     total cpu time spent up to now is    15219.9 secs

     total energy              =   -2126.09198221 Ry
     estimated scf accuracy    <       0.00000011 Ry

     total magnetization       =    19.00 Bohr mag/cell
     absolute magnetization    =    19.05 Bohr mag/cell

     iteration # 28     ecut=   100.00 Ry     beta= 0.40
     Davidson diagonalization with overlap
     ethr =  5.75E-11,  avg # of iterations =  3.5

     negative rho (up, down):  0.000E+00 9.685E-04

     total cpu time spent up to now is    15797.2 secs

     total energy              =   -2126.09198226 Ry
     estimated scf accuracy    <       0.00000005 Ry

     total magnetization       =    19.00 Bohr mag/cell
     absolute magnetization    =    19.05 Bohr mag/cell

     iteration # 29     ecut=   100.00 Ry     beta= 0.40
     Davidson diagonalization with overlap
     ethr =  2.41E-11,  avg # of iterations =  2.7

     negative rho (up, down):  0.000E+00 9.685E-04

     total cpu time spent up to now is    16321.3 secs

     total energy              =   -2126.09198227 Ry
     estimated scf accuracy    <       0.00000003 Ry

     total magnetization       =    19.00 Bohr mag/cell
     absolute magnetization    =    19.05 Bohr mag/cell

     iteration # 30     ecut=   100.00 Ry     beta= 0.40
     Davidson diagonalization with overlap
     ethr =  1.74E-11,  avg # of iterations =  2.1

     negative rho (up, down):  0.000E+00 9.684E-04

     total cpu time spent up to now is    16852.4 secs

     total energy              =   -2126.09198229 Ry
     estimated scf accuracy    <       0.00000006 Ry

     total magnetization       =    19.00 Bohr mag/cell
     absolute magnetization    =    19.05 Bohr mag/cell

     iteration # 31     ecut=   100.00 Ry     beta= 0.40
     Davidson diagonalization with overlap
     ethr =  1.74E-11,  avg # of iterations =  2.0

     negative rho (up, down):  0.000E+00 9.684E-04

     total cpu time spent up to now is    17366.8 secs

     total energy              =   -2126.09198230 Ry
     estimated scf accuracy    <          4.5E-09 Ry

     total magnetization       =    19.00 Bohr mag/cell
     absolute magnetization    =    19.05 Bohr mag/cell

     iteration # 32     ecut=   100.00 Ry     beta= 0.40
     Davidson diagonalization with overlap
     ethr =  2.39E-12,  avg # of iterations =  4.3

     negative rho (up, down):  0.000E+00 9.683E-04

     total cpu time spent up to now is    18033.4 secs

     total energy              =   -2126.09198231 Ry
     estimated scf accuracy    <          4.8E-09 Ry

     total magnetization       =    19.00 Bohr mag/cell
     absolute magnetization    =    19.05 Bohr mag/cell

     iteration # 33     ecut=   100.00 Ry     beta= 0.40
     Davidson diagonalization with overlap
     ethr =  2.39E-12,  avg # of iterations =  2.0

     negative rho (up, down):  0.000E+00 9.683E-04

     total cpu time spent up to now is    18545.6 secs

     total energy              =   -2126.09198231 Ry
     estimated scf accuracy    <          2.4E-09 Ry

     total magnetization       =    19.00 Bohr mag/cell
     absolute magnetization    =    19.05 Bohr mag/cell

     iteration # 34     ecut=   100.00 Ry     beta= 0.40
     Davidson diagonalization with overlap
     ethr =  1.29E-12,  avg # of iterations =  2.0

     negative rho (up, down):  0.000E+00 9.684E-04

     total cpu time spent up to now is    19058.3 secs

     total energy              =   -2126.09198231 Ry
     estimated scf accuracy    <          4.5E-09 Ry

     total magnetization       =    19.00 Bohr mag/cell
     absolute magnetization    =    19.05 Bohr mag/cell

     iteration # 35     ecut=   100.00 Ry     beta= 0.40
     Davidson diagonalization with overlap
     ethr =  1.29E-12,  avg # of iterations =  1.0

     negative rho (up, down):  0.000E+00 9.684E-04

     total cpu time spent up to now is    19478.4 secs

     total energy              =   -2126.09198231 Ry
     estimated scf accuracy    <          2.1E-09 Ry

     total magnetization       =    19.00 Bohr mag/cell
     absolute magnetization    =    19.05 Bohr mag/cell

     iteration # 36     ecut=   100.00 Ry     beta= 0.40
     Davidson diagonalization with overlap
     ethr =  1.11E-12,  avg # of iterations =  2.0

     negative rho (up, down):  0.000E+00 9.684E-04

     Magnetic moment per site:
     atom:    1    charge:    7.8983    magn:    0.0004    constr:    0.0000
     atom:    2    charge:   12.8775    magn:    3.6832    constr:    0.0000
     atom:    3    charge:   12.8844    magn:    3.6662    constr:    0.0000
     atom:    4    charge:   12.9296    magn:    3.5544    constr:    0.0000
     atom:    5    charge:   12.8852    magn:    3.6678    constr:    0.0000
     atom:    6    charge:    0.8358    magn:    0.0098    constr:    0.0000
     atom:    7    charge:    0.8397    magn:    0.0079    constr:    0.0000
     atom:    8    charge:    0.8388    magn:    0.0108    constr:    0.0000
     atom:    9    charge:    0.8338    magn:    0.0085    constr:    0.0000
     atom:   10    charge:    4.2660    magn:    0.1361    constr:    0.0000
     atom:   11    charge:    4.2812    magn:    0.0874    constr:    0.0000
     atom:   12    charge:    4.2699    magn:    0.1232    constr:    0.0000
     atom:   13    charge:    4.2655    magn:    0.1099    constr:    0.0000
     atom:   14    charge:    4.2413    magn:    0.1185    constr:    0.0000
     atom:   15    charge:    4.2483    magn:    0.1300    constr:    0.0000
     atom:   16    charge:    4.2478    magn:    0.0747    constr:    0.0000
     atom:   17    charge:    4.2413    magn:    0.1424    constr:    0.0000
     atom:   18    charge:    4.2242    magn:    0.1530    constr:    0.0000
     atom:   19    charge:    4.2285    magn:    0.1334    constr:    0.0000
     atom:   20    charge:    4.2315    magn:    0.1454    constr:    0.0000
     atom:   21    charge:    4.2245    magn:    0.1249    constr:    0.0000
     atom:   22    charge:    4.2313    magn:    0.1454    constr:    0.0000
     atom:   23    charge:    4.2246    magn:    0.1250    constr:    0.0000
     atom:   24    charge:    4.2244    magn:    0.1530    constr:    0.0000
     atom:   25    charge:    4.2285    magn:    0.1334    constr:    0.0000

     total cpu time spent up to now is    19969.5 secs

     End of self-consistent calculation

 ------ SPIN UP ------------


          k = 0.0000 0.0000 0.0000 ( 37649 PWs)   bands (ev):

   -85.7451 -85.6966 -85.6864 -85.2703 -51.8317 -51.8085 -51.7818 -51.6919
   -51.6812 -51.6500 -51.6138 -51.6085 -51.6076 -51.5849 -51.2120 -51.0032
   -45.5070 -17.5239 -17.4668 -17.4362 -16.3564 -16.2153 -16.0057 -15.9334
   -14.0607 -14.0097 -13.9192 -13.7915 -13.7632 -13.7397 -13.7150 -13.6552
   -13.6403 -13.5922 -13.5198 -13.4256  -4.4490  -3.9563  -3.9111  -3.5105
    -2.5066  -2.1786  -2.1295  -1.9338  -1.7117  -1.6568  -1.5201  -1.4652
    -1.3649  -1.1981  -0.9511  -0.7384  -0.6043  -0.5747  -0.1062  -0.0599
     0.0015   0.0607   0.2400   0.4203   0.4671   0.5547   0.6096   0.6366
     0.7197   0.9000   0.9314   1.1640   1.2694   1.3242   1.4105   1.4535
     1.5305   1.6444   1.7597   1.8433   1.9353   1.9624   1.9787   2.0811
     2.2505   2.2734   2.3062   2.4291   2.5237   2.5896   2.6691   2.8225
     2.8898   2.9914   2.9958   3.0117   3.1084   3.2905   3.3518   3.4512
     3.5890   3.6052   3.7061   3.7770   3.8970   3.9748   4.2921   4.4112
     8.3945  10.4058  10.9122  11.3211  11.5277  12.3602  12.4205  12.6324
    12.8720  13.0992

     occupation numbers 
     1.0000   1.0000   1.0000   1.0000   1.0000   1.0000   1.0000   1.0000
     1.0000   1.0000   1.0000   1.0000   1.0000   1.0000   1.0000   1.0000
     1.0000   1.0000   1.0000   1.0000   1.0000   1.0000   1.0000   1.0000
     1.0000   1.0000   1.0000   1.0000   1.0000   1.0000   1.0000   1.0000
     1.0000   1.0000   1.0000   1.0000   1.0000   1.0000   1.0000   1.0000
     1.0000   1.0000   1.0000   1.0000   1.0000   1.0000   1.0000   1.0000
     1.0000   1.0000   1.0000   1.0000   1.0000   1.0000   1.0000   1.0000
     1.0000   1.0000   1.0000   1.0000   1.0000   1.0000   1.0000   1.0000
     1.0000   1.0000   1.0000   1.0000   1.0000   1.0000   1.0000   1.0000
     1.0000   1.0000   1.0000   1.0000   1.0000   1.0000   1.0000   1.0000
     1.0000   1.0000   1.0000   1.0000   1.0000   1.0000   1.0000   1.0000
     1.0000   1.0000   1.0000   1.0000   1.0000   1.0000   1.0000   1.0000
     1.0000   1.0000   1.0000   1.0000   1.0000   1.0000   1.0000   1.0000
     0.0000   0.0000   0.0000   0.0000   0.0000   0.0000   0.0000   0.0000
     0.0000   0.0000

          k = 0.0000 0.0000 0.2376 ( 37659 PWs)   bands (ev):

   -85.7451 -85.6966 -85.6864 -85.2703 -51.8317 -51.8085 -51.7818 -51.6919
   -51.6812 -51.6500 -51.6138 -51.6085 -51.6076 -51.5849 -51.2120 -51.0032
   -45.5069 -17.5239 -17.4713 -17.4362 -16.3425 -16.2059 -15.9993 -15.9288
   -14.0733 -14.0232 -13.9239 -13.7974 -13.7760 -13.7356 -13.7214 -13.6503
   -13.6360 -13.5935 -13.5234 -13.4294  -4.4275  -3.9555  -3.9060  -3.5190
    -2.4650  -2.1555  -2.1222  -1.9200  -1.7074  -1.6670  -1.5436  -1.3966
    -1.3606  -1.1652  -0.9951  -0.7117  -0.6197  -0.5834  -0.0944  -0.0417
     0.0024   0.1025   0.2438   0.4118   0.4568   0.5342   0.5861   0.6631
     0.7130   0.8979   0.9228   1.1481   1.2447   1.2680   1.3466   1.4126
     1.6177   1.6380   1.6928   1.8157   1.8983   1.9130   2.0164   2.1899
     2.1950   2.3024   2.3091   2.4224   2.5653   2.5970   2.6400   2.7708
     2.8966   2.9387   3.0105   3.0219   3.0780   3.3466   3.3576   3.4535
     3.5869   3.6254   3.7343   3.7729   3.8891   3.9777   4.2686   4.3916
     8.5397  10.4765  10.9469  11.3224  11.5954  12.2045  12.4625  12.6325
    12.7833  12.9849

     occupation numbers 
     1.0000   1.0000   1.0000   1.0000   1.0000   1.0000   1.0000   1.0000
     1.0000   1.0000   1.0000   1.0000   1.0000   1.0000   1.0000   1.0000
     1.0000   1.0000   1.0000   1.0000   1.0000   1.0000   1.0000   1.0000
     1.0000   1.0000   1.0000   1.0000   1.0000   1.0000   1.0000   1.0000
     1.0000   1.0000   1.0000   1.0000   1.0000   1.0000   1.0000   1.0000
     1.0000   1.0000   1.0000   1.0000   1.0000   1.0000   1.0000   1.0000
     1.0000   1.0000   1.0000   1.0000   1.0000   1.0000   1.0000   1.0000
     1.0000   1.0000   1.0000   1.0000   1.0000   1.0000   1.0000   1.0000
     1.0000   1.0000   1.0000   1.0000   1.0000   1.0000   1.0000   1.0000
     1.0000   1.0000   1.0000   1.0000   1.0000   1.0000   1.0000   1.0000
     1.0000   1.0000   1.0000   1.0000   1.0000   1.0000   1.0000   1.0000
     1.0000   1.0000   1.0000   1.0000   1.0000   1.0000   1.0000   1.0000
     1.0000   1.0000   1.0000   1.0000   1.0000   1.0000   1.0000   1.0000
     0.0000   0.0000   0.0000   0.0000   0.0000   0.0000   0.0000   0.0000
     0.0000   0.0000

          k = 0.0000 0.0000 0.4753 ( 37654 PWs)   bands (ev):

   -85.7451 -85.6966 -85.6864 -85.2703 -51.8317 -51.8085 -51.7818 -51.6919
   -51.6812 -51.6500 -51.6138 -51.6085 -51.6076 -51.5849 -51.2120 -51.0032
   -45.5069 -17.5243 -17.4818 -17.4361 -16.3062 -16.1818 -15.9823 -15.9182
   -14.1057 -14.0589 -13.9383 -13.8189 -13.8042 -13.7286 -13.7246 -13.6407
   -13.6245 -13.5969 -13.5331 -13.4399  -4.3657  -3.9592  -3.8912  -3.5527
    -2.3508  -2.1249  -2.0717  -1.9035  -1.6893  -1.6831  -1.5445  -1.3454
    -1.2623  -1.1074  -1.0787  -0.7393  -0.6309  -0.5178  -0.0517  -0.0005
     0.0232   0.1944   0.2573   0.4017   0.4199   0.5067   0.5165   0.6948
     0.7094   0.8911   0.9165   1.0914   1.1160   1.1882   1.2936   1.3697
     1.4395   1.5447   1.7628   1.7741   1.8514   1.8761   2.0899   2.1163
     2.2729   2.2878   2.3748   2.4150   2.4555   2.5813   2.6830   2.7215
     2.8053   2.9279   3.0590   3.0796   3.1129   3.3742   3.4042   3.4599
     3.6257   3.6801   3.7592   3.7772   3.8715   3.9923   4.1969   4.3311
     8.9269  10.6632  11.0136  11.3662  11.7487  12.0420  12.2901  12.6000
    12.6127  12.7151

     occupation numbers 
     1.0000   1.0000   1.0000   1.0000   1.0000   1.0000   1.0000   1.0000
     1.0000   1.0000   1.0000   1.0000   1.0000   1.0000   1.0000   1.0000
     1.0000   1.0000   1.0000   1.0000   1.0000   1.0000   1.0000   1.0000
     1.0000   1.0000   1.0000   1.0000   1.0000   1.0000   1.0000   1.0000
     1.0000   1.0000   1.0000   1.0000   1.0000   1.0000   1.0000   1.0000
     1.0000   1.0000   1.0000   1.0000   1.0000   1.0000   1.0000   1.0000
     1.0000   1.0000   1.0000   1.0000   1.0000   1.0000   1.0000   1.0000
     1.0000   1.0000   1.0000   1.0000   1.0000   1.0000   1.0000   1.0000
     1.0000   1.0000   1.0000   1.0000   1.0000   1.0000   1.0000   1.0000
     1.0000   1.0000   1.0000   1.0000   1.0000   1.0000   1.0000   1.0000
     1.0000   1.0000   1.0000   1.0000   1.0000   1.0000   1.0000   1.0000
     1.0000   1.0000   1.0000   1.0000   1.0000   1.0000   1.0000   1.0000
     1.0000   1.0000   1.0000   1.0000   1.0000   1.0000   1.0000   1.0000
     0.0000   0.0000   0.0000   0.0000   0.0000   0.0000   0.0000   0.0000
     0.0000   0.0000

          k = 0.0000 0.0000 0.7129 ( 37702 PWs)   bands (ev):

   -85.7451 -85.6966 -85.6864 -85.2703 -51.8317 -51.8085 -51.7818 -51.6919
   -51.6812 -51.6500 -51.6138 -51.6085 -51.6076 -51.5849 -51.2120 -51.0032
   -45.5069 -17.5260 -17.4922 -17.4360 -16.2616 -16.1546 -15.9604 -15.9095
   -14.1430 -14.1009 -13.9605 -13.8580 -13.8234 -13.7272 -13.7103 -13.6323
   -13.6097 -13.6007 -13.5455 -13.4539  -4.2729  -3.9817  -3.8669  -3.6160
    -2.2171  -2.0946  -1.9957  -1.9025  -1.6895  -1.6467  -1.5264  -1.3401
    -1.2155  -1.1123  -0.9658  -0.8970  -0.4913  -0.3919   0.0206   0.0571
     0.0589   0.2081   0.3310   0.3485   0.4107   0.4154   0.5051   0.6935
     0.7304   0.8301   0.9600   0.9651   0.9821   1.0984   1.1565   1.2305
     1.3978   1.4123   1.6873   1.7474   1.8203   1.9838   2.0320   2.2088
     2.2148   2.2942   2.3030   2.3247   2.4767   2.5035   2.5743   2.7316
     2.7847   2.9356   3.1277   3.2100   3.3198   3.4031   3.4159   3.4702
     3.6744   3.7244   3.7695   3.7982   3.8832   4.0114   4.0736   4.2281
     9.4541  10.8368  11.0508  11.4723  11.7983  11.9722  12.1599  12.4222
    12.4890  12.5525

     occupation numbers 
     1.0000   1.0000   1.0000   1.0000   1.0000   1.0000   1.0000   1.0000
     1.0000   1.0000   1.0000   1.0000   1.0000   1.0000   1.0000   1.0000
     1.0000   1.0000   1.0000   1.0000   1.0000   1.0000   1.0000   1.0000
     1.0000   1.0000   1.0000   1.0000   1.0000   1.0000   1.0000   1.0000
     1.0000   1.0000   1.0000   1.0000   1.0000   1.0000   1.0000   1.0000
     1.0000   1.0000   1.0000   1.0000   1.0000   1.0000   1.0000   1.0000
     1.0000   1.0000   1.0000   1.0000   1.0000   1.0000   1.0000   1.0000
     1.0000   1.0000   1.0000   1.0000   1.0000   1.0000   1.0000   1.0000
     1.0000   1.0000   1.0000   1.0000   1.0000   1.0000   1.0000   1.0000
     1.0000   1.0000   1.0000   1.0000   1.0000   1.0000   1.0000   1.0000
     1.0000   1.0000   1.0000   1.0000   1.0000   1.0000   1.0000   1.0000
     1.0000   1.0000   1.0000   1.0000   1.0000   1.0000   1.0000   1.0000
     1.0000   1.0000   1.0000   1.0000   1.0000   1.0000   1.0000   1.0000
     0.0000   0.0000   0.0000   0.0000   0.0000   0.0000   0.0000   0.0000
     0.0000   0.0000

          k = 0.0000 0.0000 0.9505 ( 37742 PWs)   bands (ev):

   -85.7451 -85.6966 -85.6864 -85.2703 -51.8317 -51.8085 -51.7818 -51.6919
   -51.6812 -51.6500 -51.6138 -51.6085 -51.6076 -51.5849 -51.2120 -51.0032
   -45.5069 -17.5284 -17.4975 -17.4360 -16.2296 -16.1380 -15.9418 -15.9083
   -14.1678 -14.1287 -13.9782 -13.8875 -13.8313 -13.7235 -13.6997 -13.6275
   -13.6033 -13.5988 -13.5544 -13.4648  -4.1747  -4.0325  -3.8350  -3.6814
    -2.1415  -2.0725  -1.9437  -1.8884  -1.6814  -1.5746  -1.5259  -1.4362
    -1.1741  -1.0524  -1.0117  -0.8863  -0.3127  -0.1902   0.0403   0.0886
     0.1060   0.1356   0.2550   0.3022   0.3637   0.4671   0.5703   0.6422
     0.7756   0.7777   0.7832   0.8767   0.9243   1.0315   1.0532   1.1917
     1.4098   1.4453   1.5864   1.6986   1.8110   1.9416   2.1033   2.1546
     2.2071   2.2534   2.2776   2.3465   2.4032   2.4467   2.5538   2.7054
     2.8143   2.9315   3.1705   3.3450   3.3927   3.4147   3.4830   3.6046
     3.6819   3.6909   3.8072   3.8514   3.9192   3.9206   4.0190   4.1009
    10.0132  10.5782  11.2670  11.5800  11.6940  11.8709  12.1622  12.3710
    12.4615  12.5836

     occupation numbers 
     1.0000   1.0000   1.0000   1.0000   1.0000   1.0000   1.0000   1.0000
     1.0000   1.0000   1.0000   1.0000   1.0000   1.0000   1.0000   1.0000
     1.0000   1.0000   1.0000   1.0000   1.0000   1.0000   1.0000   1.0000
     1.0000   1.0000   1.0000   1.0000   1.0000   1.0000   1.0000   1.0000
     1.0000   1.0000   1.0000   1.0000   1.0000   1.0000   1.0000   1.0000
     1.0000   1.0000   1.0000   1.0000   1.0000   1.0000   1.0000   1.0000
     1.0000   1.0000   1.0000   1.0000   1.0000   1.0000   1.0000   1.0000
     1.0000   1.0000   1.0000   1.0000   1.0000   1.0000   1.0000   1.0000
     1.0000   1.0000   1.0000   1.0000   1.0000   1.0000   1.0000   1.0000
     1.0000   1.0000   1.0000   1.0000   1.0000   1.0000   1.0000   1.0000
     1.0000   1.0000   1.0000   1.0000   1.0000   1.0000   1.0000   1.0000
     1.0000   1.0000   1.0000   1.0000   1.0000   1.0000   1.0000   1.0000
     1.0000   1.0000   1.0000   1.0000   1.0000   1.0000   1.0000   1.0000
     0.0000   0.0000   0.0000   0.0000   0.0000   0.0000   0.0000   0.0000
     0.0000   0.0000

          k = 0.0000 0.2391 0.0000 ( 37676 PWs)   bands (ev):

   -85.7451 -85.6966 -85.6864 -85.2703 -51.8317 -51.8085 -51.7818 -51.6919
   -51.6812 -51.6500 -51.6138 -51.6085 -51.6076 -51.5849 -51.2120 -51.0032
   -45.5070 -17.5238 -17.4668 -17.4367 -16.3435 -16.2125 -16.0050 -15.9465
   -14.0588 -14.0066 -13.9235 -13.7936 -13.7773 -13.7621 -13.7177 -13.6786
   -13.5951 -13.5806 -13.5177 -13.4288  -4.4236  -3.9750  -3.8901  -3.5187
    -2.4827  -2.1834  -2.1226  -1.9357  -1.7027  -1.6413  -1.5086  -1.4580
    -1.3166  -1.2014  -0.9379  -0.7176  -0.6460  -0.5430  -0.0727  -0.0347
     0.0162   0.0505   0.1487   0.2866   0.3932   0.5774   0.6608   0.6926
     0.8234   0.9045   0.9258   1.1217   1.1910   1.2197   1.3166   1.3912
     1.5354   1.7451   1.8078   1.8486   1.9128   1.9677   2.0157   2.0378
     2.2518   2.2754   2.3022   2.3808   2.4519   2.6573   2.7666   2.8001
     2.8603   2.9164   2.9456   3.0986   3.1723   3.2960   3.3553   3.4557
     3.5372   3.6150   3.7118   3.7814   3.8549   3.9945   4.3106   4.3939
     8.5499  10.4978  10.9897  11.2379  11.5986  12.3171  12.4801  12.6967
    12.7811  13.0542

     occupation numbers 
     1.0000   1.0000   1.0000   1.0000   1.0000   1.0000   1.0000   1.0000
     1.0000   1.0000   1.0000   1.0000   1.0000   1.0000   1.0000   1.0000
     1.0000   1.0000   1.0000   1.0000   1.0000   1.0000   1.0000   1.0000
     1.0000   1.0000   1.0000   1.0000   1.0000   1.0000   1.0000   1.0000
     1.0000   1.0000   1.0000   1.0000   1.0000   1.0000   1.0000   1.0000
     1.0000   1.0000   1.0000   1.0000   1.0000   1.0000   1.0000   1.0000
     1.0000   1.0000   1.0000   1.0000   1.0000   1.0000   1.0000   1.0000
     1.0000   1.0000   1.0000   1.0000   1.0000   1.0000   1.0000   1.0000
     1.0000   1.0000   1.0000   1.0000   1.0000   1.0000   1.0000   1.0000
     1.0000   1.0000   1.0000   1.0000   1.0000   1.0000   1.0000   1.0000
     1.0000   1.0000   1.0000   1.0000   1.0000   1.0000   1.0000   1.0000
     1.0000   1.0000   1.0000   1.0000   1.0000   1.0000   1.0000   1.0000
     1.0000   1.0000   1.0000   1.0000   1.0000   1.0000   1.0000   1.0000
     0.0000   0.0000   0.0000   0.0000   0.0000   0.0000   0.0000   0.0000
     0.0000   0.0000

          k = 0.0000 0.2391 0.2376 ( 37671 PWs)   bands (ev):

   -85.7451 -85.6966 -85.6864 -85.2703 -51.8317 -51.8085 -51.7818 -51.6919
   -51.6812 -51.6500 -51.6138 -51.6085 -51.6076 -51.5849 -51.2120 -51.0032
   -45.5069 -17.5237 -17.4712 -17.4367 -16.3302 -16.2031 -15.9986 -15.9412
   -14.0721 -14.0205 -13.9275 -13.8048 -13.7865 -13.7564 -13.7241 -13.6725
   -13.5956 -13.5794 -13.5205 -13.4320  -4.4027  -3.9712  -3.8870  -3.5267
    -2.4425  -2.1591  -2.1141  -1.9222  -1.6992  -1.6514  -1.5211  -1.4017
    -1.3082  -1.1712  -0.9810  -0.7213  -0.6471  -0.5388  -0.0609  -0.0334
     0.0171   0.0934   0.1493   0.2880   0.3895   0.5887   0.6369   0.6857
     0.8010   0.8927   0.9321   1.1005   1.1558   1.1858   1.2949   1.3718
     1.6162   1.7002   1.7891   1.8349   1.8844   1.9108   2.0003   2.1239
     2.2052   2.2741   2.3312   2.3967   2.4657   2.6163   2.7217   2.7975
     2.8509   2.9102   2.9625   3.0714   3.1523   3.3356   3.3724   3.4636
     3.5443   3.6326   3.7377   3.7759   3.8485   3.9972   4.2955   4.3794
     8.6890  10.5679  11.0265  11.2626  11.6458  12.2139  12.4918  12.6318
    12.7659  12.9932

     occupation numbers 
     1.0000   1.0000   1.0000   1.0000   1.0000   1.0000   1.0000   1.0000
     1.0000   1.0000   1.0000   1.0000   1.0000   1.0000   1.0000   1.0000
     1.0000   1.0000   1.0000   1.0000   1.0000   1.0000   1.0000   1.0000
     1.0000   1.0000   1.0000   1.0000   1.0000   1.0000   1.0000   1.0000
     1.0000   1.0000   1.0000   1.0000   1.0000   1.0000   1.0000   1.0000
     1.0000   1.0000   1.0000   1.0000   1.0000   1.0000   1.0000   1.0000
     1.0000   1.0000   1.0000   1.0000   1.0000   1.0000   1.0000   1.0000
     1.0000   1.0000   1.0000   1.0000   1.0000   1.0000   1.0000   1.0000
     1.0000   1.0000   1.0000   1.0000   1.0000   1.0000   1.0000   1.0000
     1.0000   1.0000   1.0000   1.0000   1.0000   1.0000   1.0000   1.0000
     1.0000   1.0000   1.0000   1.0000   1.0000   1.0000   1.0000   1.0000
     1.0000   1.0000   1.0000   1.0000   1.0000   1.0000   1.0000   1.0000
     1.0000   1.0000   1.0000   1.0000   1.0000   1.0000   1.0000   1.0000
     0.0000   0.0000   0.0000   0.0000   0.0000   0.0000   0.0000   0.0000
     0.0000   0.0000

          k = 0.0000 0.2391 0.4753 ( 37686 PWs)   bands (ev):

   -85.7451 -85.6966 -85.6864 -85.2703 -51.8317 -51.8085 -51.7818 -51.6919
   -51.6812 -51.6500 -51.6138 -51.6085 -51.6076 -51.5849 -51.2120 -51.0032
   -45.5069 -17.5241 -17.4818 -17.4366 -16.2954 -16.1786 -15.9817 -15.9285
   -14.1055 -14.0576 -13.9413 -13.8285 -13.8129 -13.7525 -13.7228 -13.6605
   -13.5976 -13.5758 -13.5282 -13.4407  -4.3426  -3.9685  -3.8756  -3.5587
    -2.3319  -2.1173  -2.0700  -1.9034  -1.6929  -1.6540  -1.5181  -1.3160
    -1.2577  -1.0953  -1.0783  -0.7902  -0.6010  -0.5061  -0.0336  -0.0156
     0.0472   0.1062   0.2150   0.3058   0.3945   0.5578   0.6049   0.6816
     0.7560   0.8919   0.9232   1.0250   1.0722   1.1566   1.2428   1.3703
     1.4807   1.6485   1.7142   1.8152   1.8539   1.8743   2.0428   2.1188
     2.2075   2.3074   2.3503   2.3912   2.4598   2.5358   2.6376   2.7446
     2.8184   2.8919   3.0331   3.1166   3.1546   3.3782   3.4011   3.4770
     3.5914   3.6757   3.7348   3.7919   3.8608   4.0051   4.2499   4.3342
     9.0626  10.7548  11.1024  11.3347  11.7799  12.0811  12.3246  12.5351
    12.6738  12.7753

     occupation numbers 
     1.0000   1.0000   1.0000   1.0000   1.0000   1.0000   1.0000   1.0000
     1.0000   1.0000   1.0000   1.0000   1.0000   1.0000   1.0000   1.0000
     1.0000   1.0000   1.0000   1.0000   1.0000   1.0000   1.0000   1.0000
     1.0000   1.0000   1.0000   1.0000   1.0000   1.0000   1.0000   1.0000
     1.0000   1.0000   1.0000   1.0000   1.0000   1.0000   1.0000   1.0000
     1.0000   1.0000   1.0000   1.0000   1.0000   1.0000   1.0000   1.0000
     1.0000   1.0000   1.0000   1.0000   1.0000   1.0000   1.0000   1.0000
     1.0000   1.0000   1.0000   1.0000   1.0000   1.0000   1.0000   1.0000
     1.0000   1.0000   1.0000   1.0000   1.0000   1.0000   1.0000   1.0000
     1.0000   1.0000   1.0000   1.0000   1.0000   1.0000   1.0000   1.0000
     1.0000   1.0000   1.0000   1.0000   1.0000   1.0000   1.0000   1.0000
     1.0000   1.0000   1.0000   1.0000   1.0000   1.0000   1.0000   1.0000
     1.0000   1.0000   1.0000   1.0000   1.0000   1.0000   1.0000   1.0000
     0.0000   0.0000   0.0000   0.0000   0.0000   0.0000   0.0000   0.0000
     0.0000   0.0000

          k = 0.0000 0.2391 0.7129 ( 37698 PWs)   bands (ev):

   -85.7451 -85.6966 -85.6864 -85.2703 -51.8317 -51.8085 -51.7818 -51.6919
   -51.6812 -51.6500 -51.6138 -51.6085 -51.6076 -51.5849 -51.2120 -51.0032
   -45.5069 -17.5257 -17.4921 -17.4364 -16.2534 -16.1504 -15.9606 -15.9162
   -14.1439 -14.1012 -13.9644 -13.8624 -13.8369 -13.7455 -13.7122 -13.6486
   -13.5999 -13.5715 -13.5373 -13.4522  -4.2536  -3.9832  -3.8548  -3.6180
    -2.1998  -2.0858  -1.9930  -1.8987  -1.6881  -1.6205  -1.5007  -1.3137
    -1.2007  -1.1179  -0.9676  -0.9118  -0.4994  -0.4185  -0.0400   0.0367
     0.0597   0.1207   0.2843   0.4014   0.4262   0.4894   0.5478   0.6888
     0.7293   0.8603   0.8978   0.9483   1.0140   1.1017   1.1522   1.2122
     1.3820   1.4823   1.6286   1.7936   1.8337   1.9620   1.9926   2.1555
     2.1874   2.3056   2.3235   2.3756   2.4145   2.4814   2.5452   2.7034
     2.7969   2.8789   3.1301   3.2095   3.2820   3.4030   3.4197   3.4914
     3.6126   3.7028   3.7589   3.8096   3.9103   4.0132   4.1762   4.2588
     9.5764  10.9474  11.1241  11.4748  11.8510  12.0460  12.1694  12.4008
    12.5027  12.5743

     occupation numbers 
     1.0000   1.0000   1.0000   1.0000   1.0000   1.0000   1.0000   1.0000
     1.0000   1.0000   1.0000   1.0000   1.0000   1.0000   1.0000   1.0000
     1.0000   1.0000   1.0000   1.0000   1.0000   1.0000   1.0000   1.0000
     1.0000   1.0000   1.0000   1.0000   1.0000   1.0000   1.0000   1.0000
     1.0000   1.0000   1.0000   1.0000   1.0000   1.0000   1.0000   1.0000
     1.0000   1.0000   1.0000   1.0000   1.0000   1.0000   1.0000   1.0000
     1.0000   1.0000   1.0000   1.0000   1.0000   1.0000   1.0000   1.0000
     1.0000   1.0000   1.0000   1.0000   1.0000   1.0000   1.0000   1.0000
     1.0000   1.0000   1.0000   1.0000   1.0000   1.0000   1.0000   1.0000
     1.0000   1.0000   1.0000   1.0000   1.0000   1.0000   1.0000   1.0000
     1.0000   1.0000   1.0000   1.0000   1.0000   1.0000   1.0000   1.0000
     1.0000   1.0000   1.0000   1.0000   1.0000   1.0000   1.0000   1.0000
     1.0000   1.0000   1.0000   1.0000   1.0000   1.0000   1.0000   1.0000
     0.0000   0.0000   0.0000   0.0000   0.0000   0.0000   0.0000   0.0000
     0.0000   0.0000

          k = 0.0000 0.2391 0.9505 ( 37713 PWs)   bands (ev):

   -85.7451 -85.6966 -85.6864 -85.2703 -51.8317 -51.8085 -51.7818 -51.6919
   -51.6812 -51.6500 -51.6138 -51.6085 -51.6076 -51.5849 -51.2120 -51.0032
   -45.5069 -17.5280 -17.4974 -17.4363 -16.2238 -16.1322 -15.9444 -15.9110
   -14.1694 -14.1299 -13.9832 -13.8921 -13.8437 -13.7394 -13.7036 -13.6416
   -13.6006 -13.5700 -13.5422 -13.4611  -4.1622  -4.0233  -3.8298  -3.6769
    -2.1224  -2.0643  -1.9388  -1.8873  -1.6755  -1.5614  -1.4949  -1.4059
    -1.1682  -1.0654  -1.0081  -0.8773  -0.3734  -0.2605  -0.0983  -0.0718
     0.1441   0.2385   0.3059   0.3881   0.4247   0.5108   0.5915   0.6302
     0.7382   0.7582   0.8402   0.9166   0.9430   0.9757   1.0702   1.1371
     1.3964   1.4583   1.5600   1.7056   1.8265   1.9365   2.0334   2.1172
     2.2156   2.2434   2.2878   2.3690   2.4036   2.4475   2.5289   2.6791
     2.7961   2.8718   3.1629   3.3380   3.3836   3.4103   3.4429   3.5088
     3.6006   3.7001   3.7900   3.8699   3.9549   4.0064   4.0992   4.1803
    10.1281  10.6844  11.3473  11.6372  11.7564  11.9140  12.1971  12.3763
    12.4267  12.5448

     occupation numbers 
     1.0000   1.0000   1.0000   1.0000   1.0000   1.0000   1.0000   1.0000
     1.0000   1.0000   1.0000   1.0000   1.0000   1.0000   1.0000   1.0000
     1.0000   1.0000   1.0000   1.0000   1.0000   1.0000   1.0000   1.0000
     1.0000   1.0000   1.0000   1.0000   1.0000   1.0000   1.0000   1.0000
     1.0000   1.0000   1.0000   1.0000   1.0000   1.0000   1.0000   1.0000
     1.0000   1.0000   1.0000   1.0000   1.0000   1.0000   1.0000   1.0000
     1.0000   1.0000   1.0000   1.0000   1.0000   1.0000   1.0000   1.0000
     1.0000   1.0000   1.0000   1.0000   1.0000   1.0000   1.0000   1.0000
     1.0000   1.0000   1.0000   1.0000   1.0000   1.0000   1.0000   1.0000
     1.0000   1.0000   1.0000   1.0000   1.0000   1.0000   1.0000   1.0000
     1.0000   1.0000   1.0000   1.0000   1.0000   1.0000   1.0000   1.0000
[...]
     atom   24 type  3   force =    -0.00872590    0.02392004    0.00756956
     atom   25 type  3   force =     0.00905162   -0.02272822    0.00844134
     The non-local contrib.  to forces
     atom    1 type  2   force =     0.12901172    0.00000141   -0.04105995
     atom    2 type  1   force =     0.07365304   -0.00000801    0.11085895
     atom    3 type  1   force =     0.02292613    0.00002029    0.08374812
     atom    4 type  1   force =    -0.23762359    0.00000987   -0.04587272
     atom    5 type  1   force =     0.00006480   -0.00001831   -0.09640130
     atom    6 type  4   force =    -0.03833118    0.00000258   -0.06309258
     atom    7 type  4   force =     0.05729764   -0.00001017   -0.03420183
     atom    8 type  4   force =     0.01164688   -0.00000379    0.06608118
     atom    9 type  4   force =    -0.01335419    0.00000907    0.07066932
     atom   10 type  3   force =     0.30949803   -0.00000651   -1.50216510
     atom   11 type  3   force =    -0.10241586    0.00000177   -1.42759693
     atom   12 type  3   force =    -0.39770456    0.00000466    1.50155988
     atom   13 type  3   force =     0.22758755    0.00000014    1.50435407
     atom   14 type  3   force =     1.24480986    0.00000051   -0.58925006
     atom   15 type  3   force =    -1.22633815    0.00000446   -0.76732488
     atom   16 type  3   force =    -1.22531908    0.00001705    0.28968266
     atom   17 type  3   force =     1.19521518   -0.00000357    0.60587334
     atom   18 type  3   force =    -0.53076510   -1.12292261    0.74925384
     atom   19 type  3   force =     0.53988595    1.18427592    0.78481609
     atom   20 type  3   force =     0.55873487   -1.13048254   -0.64814002
     atom   21 type  3   force =    -0.55482854    1.09179728   -0.66939820
     atom   22 type  3   force =     0.55871157    1.13044545   -0.64814474
     atom   23 type  3   force =    -0.55480800   -1.09176850   -0.66938884
     atom   24 type  3   force =    -0.53078627    1.12295787    0.74925276
     atom   25 type  3   force =     0.53990827   -1.18430728    0.78482096
     The ionic contribution  to forces
     atom    1 type  2   force =    -3.76748449    0.00032738    2.29063072
     atom    2 type  1   force =     0.65290049   -0.00082219   -0.43783449
     atom    3 type  1   force =    -8.60054325    0.00098597   -0.61392643
     atom    4 type  1   force =     3.28823782    0.00078627   -0.27349593
     atom    5 type  1   force =     8.91514968   -0.00110087    0.55337474
     atom    6 type  4   force =    -3.65503287   -0.00026742    0.04488865
     atom    7 type  4   force =     0.85921613    0.00017657    0.12927903
     atom    8 type  4   force =     5.38351885    0.00025091   -0.29453949
     atom    9 type  4   force =    -2.94282928   -0.00017401   -0.40939299
     atom   10 type  3   force =   -10.03741062   -0.00027662    2.77084726
     atom   11 type  3   force =     3.78627224    0.00025454    1.51728093
     atom   12 type  3   force =    12.11415619    0.00026008   -2.87977271
     atom   13 type  3   force =    -8.24026138   -0.00030206   -2.29806586
     atom   14 type  3   force =     0.68118560   -0.00022268    5.08380399
     atom   15 type  3   force =    -1.82272763    0.00025909    6.48783065
     atom   16 type  3   force =    -2.02612690    0.00014104   -2.33131206
     atom   17 type  3   force =     3.48965240   -0.00026772   -5.70059728
     atom   18 type  3   force =    -4.16514292    2.73480376   -2.80938406
     atom   19 type  3   force =     1.07416696   -4.04148515   -2.45709643
     atom   20 type  3   force =     5.52916688    4.35922196    2.18563891
     atom   21 type  3   force =    -1.47711084   -1.27228914    1.26126711
     atom   22 type  3   force =     5.52942269   -4.35873923    2.18577197
     atom   23 type  3   force =    -1.47733957    1.27192172    1.26116290
     atom   24 type  3   force =    -4.16493865   -2.73530150   -2.80919546
     atom   25 type  3   force =     1.07390245    4.04185931   -2.45716368
     The local contribution  to forces
     atom    1 type  2   force =     3.63833132   -0.00032809   -2.25280072
     atom    2 type  1   force =    -0.72577848    0.00082654    0.32685963
     atom    3 type  1   force =     8.57256656   -0.00100251    0.53170350
     atom    4 type  1   force =    -3.04802952   -0.00079245    0.32110502
     atom    5 type  1   force =    -8.90999046    0.00111428   -0.45785280
     atom    6 type  4   force =     3.68022574    0.00026001   -0.00648931
     atom    7 type  4   force =    -0.90352733   -0.00016814   -0.11732910
     atom    8 type  4   force =    -5.38829323   -0.00024352    0.25303466
     atom    9 type  4   force =     2.94473565    0.00016528    0.36364175
     atom   10 type  3   force =     9.73923279    0.00028206   -1.27843272
     atom   11 type  3   force =    -3.68922094   -0.00025643   -0.09755825
     atom   12 type  3   force =   -11.72786515   -0.00026436    1.38789506
     atom   13 type  3   force =     8.02160297    0.00030212    0.80519197
     atom   14 type  3   force =    -1.88845598    0.00022275   -4.50673460
     atom   15 type  3   force =     3.01466726   -0.00026285   -5.73961480
     atom   16 type  3   force =     3.20822591   -0.00015701    2.04873304
     atom   17 type  3   force =    -4.64892914    0.00027067    5.10804903
     atom   18 type  3   force =     4.68242785   -1.64589260    2.07468870
     atom   19 type  3   force =    -1.60020972    2.89057953    1.68805058
     atom   20 type  3   force =    -6.07237644   -3.26074405   -1.55137299
     atom   21 type  3   force =     2.01646374    0.21289448   -0.60341975
     atom   22 type  3   force =    -6.07260954    3.26029634   -1.55150141
     atom   23 type  3   force =     2.01666986   -0.21255848   -0.60332768
     atom   24 type  3   force =     4.68224253    1.64635821    2.07450373
     atom   25 type  3   force =    -1.59996952   -2.89091874    1.68810964
     The core correction contribution to forces
     atom    1 type  2   force =     0.00000000    0.00000000    0.00000000
     atom    2 type  1   force =    -0.00095661   -0.00000225   -0.00054358
     atom    3 type  1   force =     0.00015015    0.00000171    0.00014633
     atom    4 type  1   force =     0.00432717   -0.00000319   -0.00108175
     atom    5 type  1   force =    -0.00028513   -0.00000313    0.00056121
     atom    6 type  4   force =     0.00313211   -0.00000004    0.00530463
     atom    7 type  4   force =    -0.00430991    0.00000079    0.00319126
     atom    8 type  4   force =    -0.00141574    0.00000018   -0.00539114
     atom    9 type  4   force =     0.00114872   -0.00000076   -0.00576025
     atom   10 type  3   force =    -0.00349056    0.00000007    0.01313817
     atom   11 type  3   force =     0.00164883    0.00000005    0.01234142
     atom   12 type  3   force =     0.00428908   -0.00000005   -0.01307113
     atom   13 type  3   force =    -0.00277575    0.00000007   -0.01313235
     atom   14 type  3   force =    -0.01100382   -0.00000002    0.00583787
     atom   15 type  3   force =     0.01082398   -0.00000007    0.00746011
     atom   16 type  3   force =     0.01079568   -0.00000014   -0.00298116
     atom   17 type  3   force =    -0.01065292    0.00000005   -0.00596293
     atom   18 type  3   force =     0.00475806    0.01009988   -0.00698640
     atom   19 type  3   force =    -0.00478971   -0.01063221   -0.00732659
     atom   20 type  3   force =    -0.00508106    0.01015353    0.00600168
     atom   21 type  3   force =     0.00498956   -0.00987661    0.00627075
     atom   22 type  3   force =    -0.00508084   -0.01015312    0.00600169
     atom   23 type  3   force =     0.00498940    0.00987640    0.00627071
     atom   24 type  3   force =     0.00475828   -0.01010018   -0.00698641
     atom   25 type  3   force =    -0.00478988    0.01063234   -0.00732656
     The Hubbard contrib.    to forces
     atom    1 type  2   force =     0.00000000    0.00000000    0.00000000
     atom    2 type  1   force =     0.00000000    0.00000000    0.00000000
     atom    3 type  1   force =     0.00000000    0.00000000    0.00000000
     atom    4 type  1   force =     0.00000000    0.00000000    0.00000000
     atom    5 type  1   force =     0.00000000    0.00000000    0.00000000
     atom    6 type  4   force =     0.00000000    0.00000000    0.00000000
     atom    7 type  4   force =     0.00000000    0.00000000    0.00000000
     atom    8 type  4   force =     0.00000000    0.00000000    0.00000000
     atom    9 type  4   force =     0.00000000    0.00000000    0.00000000
     atom   10 type  3   force =     0.00000000    0.00000000    0.00000000
     atom   11 type  3   force =     0.00000000    0.00000000    0.00000000
     atom   12 type  3   force =     0.00000000    0.00000000    0.00000000
     atom   13 type  3   force =     0.00000000    0.00000000    0.00000000
     atom   14 type  3   force =     0.00000000    0.00000000    0.00000000
     atom   15 type  3   force =     0.00000000    0.00000000    0.00000000
     atom   16 type  3   force =     0.00000000    0.00000000    0.00000000
     atom   17 type  3   force =     0.00000000    0.00000000    0.00000000
     atom   18 type  3   force =     0.00000000    0.00000000    0.00000000
     atom   19 type  3   force =     0.00000000    0.00000000    0.00000000
     atom   20 type  3   force =     0.00000000    0.00000000    0.00000000
     atom   21 type  3   force =     0.00000000    0.00000000    0.00000000
     atom   22 type  3   force =     0.00000000    0.00000000    0.00000000
     atom   23 type  3   force =     0.00000000    0.00000000    0.00000000
     atom   24 type  3   force =     0.00000000    0.00000000    0.00000000
     atom   25 type  3   force =     0.00000000    0.00000000    0.00000000
     The SCF correction term to forces
     atom    1 type  2   force =     0.00000603    0.00000001   -0.00000143
     atom    2 type  1   force =    -0.00000666    0.00000001   -0.00000091
     atom    3 type  1   force =    -0.00000545   -0.00000001   -0.00000036
     atom    4 type  1   force =     0.00000792    0.00000002    0.00000134
     atom    5 type  1   force =     0.00000505   -0.00000000    0.00000009
     atom    6 type  4   force =    -0.00000161    0.00000000   -0.00000010
     atom    7 type  4   force =     0.00000111   -0.00000001    0.00000119
     atom    8 type  4   force =    -0.00000173   -0.00000001    0.00000039
     atom    9 type  4   force =     0.00000269   -0.00000001   -0.00000044
     atom   10 type  3   force =    -0.00000037   -0.00000000    0.00000318
     atom   11 type  3   force =     0.00000438    0.00000000   -0.00000209
     atom   12 type  3   force =    -0.00000359    0.00000001   -0.00000253
     atom   13 type  3   force =     0.00000216   -0.00000002    0.00000039
     atom   14 type  3   force =    -0.00000331   -0.00000001   -0.00000127
     atom   15 type  3   force =    -0.00000748   -0.00000000    0.00000201
     atom   16 type  3   force =     0.00000607   -0.00000000    0.00000117
     atom   17 type  3   force =    -0.00000012    0.00000001   -0.00000055
     atom   18 type  3   force =    -0.00000166   -0.00000537   -0.00000337
     atom   19 type  3   force =     0.00000043   -0.00000589    0.00000265
     atom   20 type  3   force =     0.00000014   -0.00000303    0.00000112
     atom   21 type  3   force =     0.00000385   -0.00000395   -0.00000037
     atom   22 type  3   force =     0.00000014    0.00000304    0.00000113
     atom   23 type  3   force =     0.00000385    0.00000393   -0.00000037
     atom   24 type  3   force =    -0.00000166    0.00000538   -0.00000337
     atom   25 type  3   force =     0.00000044    0.00000589    0.00000265

     Total force =     0.103157     Total SCF correction =     0.000025


     Computing stress (Cartesian axis) and pressure


     negative rho (up, down):  0.000E+00 9.684E-04
          total   stress  (Ry/bohr**3)                   (kbar)     P=      -70.82
  -0.00074663   0.00000001  -0.00001916         -109.83        0.00       -2.82
   0.00000001  -0.00056316  -0.00000000            0.00      -82.84       -0.00
  -0.00001916  -0.00000000  -0.00013450           -2.82       -0.00      -19.78

     kinetic stress (kbar)  25396.64      0.00    -10.61
                                0.00  25636.19      0.00
                              -10.61      0.00  25491.63

     local   stress (kbar)  -4293.72     -0.09   1155.35
                               -0.09 -13421.12     -0.00
                             1155.35     -0.00  -9303.82

     nonloc. stress (kbar)  -6463.80     -0.00     -0.94
                               -0.00  -6409.99     -0.00
                               -0.94     -0.00  -6417.12

     hartree stress (kbar)  12029.35      0.04   -475.53
                                0.04  17147.44      0.00
                             -475.53      0.00  14848.88

     exc-cor stress (kbar)  -2697.21     -0.00     -0.82
                               -0.00  -2704.65     -0.00
                               -0.82     -0.00  -2701.56

     corecor stress (kbar)  -3012.34      0.00      1.03
                                0.00  -3012.07      0.00
                                1.03      0.00  -3014.00

     ewald   stress (kbar) -21068.76      0.05   -671.30
                                0.05 -17318.64      0.00
                             -671.30      0.00 -18923.79

     hubbard stress (kbar)      0.00      0.00      0.00
                                0.00      0.00      0.00
                                0.00      0.00      0.00

     DFT-D   stress (kbar)      0.00      0.00      0.00
                                0.00      0.00      0.00
                                0.00      0.00      0.00

     XDM     stress (kbar)      0.00      0.00      0.00
                                0.00      0.00      0.00
                                0.00      0.00      0.00

     dft-nl  stress (kbar)      0.00      0.00      0.00
                                0.00      0.00      0.00
                                0.00      0.00      0.00

     TS-vdW  stress (kbar)      0.00      0.00      0.00
                                0.00      0.00      0.00
                                0.00      0.00      0.00



     init_run     :    203.72s CPU    207.83s WALL (       1 calls)
     electrons    :  19506.25s CPU  19760.41s WALL (       1 calls)
     forces       :    190.08s CPU    203.10s WALL (       1 calls)
     stress       :    818.98s CPU    825.36s WALL (       1 calls)

     Called by init_run:
     wfcinit      :    192.51s CPU    195.68s WALL (       1 calls)
     wfcinit:atom :      4.36s CPU      4.47s WALL (     316 calls)
     wfcinit:wfcr :    177.48s CPU    180.32s WALL (     316 calls)
     potinit      :      4.09s CPU      4.23s WALL (       1 calls)
     hinit0       :      3.67s CPU      3.81s WALL (       1 calls)

     Called by electrons:
     c_bands      :  17402.29s CPU  17578.08s WALL (      36 calls)
     sum_band     :   1990.80s CPU   2044.55s WALL (      36 calls)
     v_of_rho     :     33.78s CPU     35.25s WALL (      37 calls)
     v_h          :      1.63s CPU      1.71s WALL (      37 calls)
     v_xc         :     33.83s CPU     35.30s WALL (      39 calls)
     newd         :     53.53s CPU     76.67s WALL (      37 calls)
     PAW_pot      :     17.50s CPU     17.57s WALL (      37 calls)
     mix_rho      :      7.93s CPU      8.24s WALL (      36 calls)

     Called by c_bands:
     init_us_2    :    345.31s CPU    353.85s WALL (   23700 calls)
     cegterg      :  16844.49s CPU  17008.46s WALL (   11376 calls)

     Called by sum_band:
     sum_band:wei :      0.63s CPU      0.63s WALL (      36 calls)
     sum_band:loo :   1807.74s CPU   1831.07s WALL (      36 calls)
     sum_band:buf :     87.00s CPU     88.98s WALL (   11376 calls)
     sum_band:ini :    168.75s CPU    172.60s WALL (   11376 calls)
     sum_band:cal :    871.45s CPU    880.37s WALL (   11376 calls)
     sum_band:bec :      6.15s CPU      6.25s WALL (   11376 calls)
     addusdens    :    174.58s CPU    204.75s WALL (      36 calls)
     addusd:skk   :      0.97s CPU      1.03s WALL (     108 calls)
     addusd:dgemm :     79.21s CPU    102.82s WALL (     216 calls)
     addusd:qvan2 :     92.35s CPU     93.29s WALL (     216 calls)

     Called by *egterg:
     cdiaghg      :    997.58s CPU   1021.78s WALL (   43110 calls)
     cegterg:over :   1632.02s CPU   1657.38s WALL (   31734 calls)
     cegterg:upda :    903.39s CPU    908.56s WALL (   31734 calls)
     cegterg:last :   1909.55s CPU   1920.08s WALL (   19344 calls)
     h_psi        :   8255.81s CPU   8331.57s WALL (   43426 calls)
     s_psi        :   2105.53s CPU   2116.80s WALL (   43426 calls)
     g_psi        :     18.48s CPU     18.74s WALL (   31734 calls)

     Called by h_psi:
     h_psi:calbec :   2245.17s CPU   2268.01s WALL (   43426 calls)
     vloc_psi     :   3591.95s CPU   3627.59s WALL (   43426 calls)
     add_vuspsi   :   2219.55s CPU   2231.27s WALL (   43426 calls)

     General routines
     calbec       :   3297.83s CPU   3340.62s WALL (   56382 calls)
     fft          :     31.05s CPU     32.87s WALL (     963 calls)
     ffts         :      0.68s CPU      0.76s WALL (     146 calls)
     fftw         :   3969.00s CPU   4008.80s WALL ( 6976172 calls)
     interpolate  :      2.50s CPU      2.67s WALL (      74 calls)

     Parallel routines
     fft_scatt_xy :    405.06s CPU    409.71s WALL ( 6977281 calls)
     fft_scatt_yz :   1803.40s CPU   1820.47s WALL ( 6977281 calls)

     PAW routines
     PAW_pot      :     17.50s CPU     17.57s WALL (      37 calls)

     PWSCF        :      5h45m CPU      5h49m WALL


   This run was terminated on:   5:58:54  18Dec2022            

=------------------------------------------------------------------------------=
   JOB DONE.
=------------------------------------------------------------------------------=
Note: The following floating-point exceptions are signalling: IEEE_INVALID_FLAG IEEE_UNDERFLOW_FLAG IEEE_DENORMAL
Note: The following floating-point exceptions are signalling: IEEE_DENORMAL
Note: The following floating-point exceptions are signalling: IEEE_DENORMAL
Note: The following floating-point exceptions are signalling: IEEE_DENORMAL
Note: The following floating-point exceptions are signalling: IEEE_DENORMAL
Note: The following floating-point exceptions are signalling: IEEE_DENORMAL
Note: The following floating-point exceptions are signalling: IEEE_DENORMAL
Note: The following floating-point exceptions are signalling: IEEE_DENORMAL
Note: The following floating-point exceptions are signalling: IEEE_INVALID_FLAG IEEE_DENORMAL
Note: The following floating-point exceptions are signalling: IEEE_DENORMAL
Note: The following floating-point exceptions are signalling: IEEE_DENORMAL
Note: The following floating-point exceptions are signalling: IEEE_DENORMAL
Note: The following floating-point exceptions are signalling: IEEE_DENORMAL
Note: The following floating-point exceptions are signalling: IEEE_DENORMAL
Note: The following floating-point exceptions are signalling: IEEE_DENORMAL
Note: The following floating-point exceptions are signalling: IEEE_DENORMAL
Note: The following floating-point exceptions are signalling: IEEE_DENORMAL
Note: The following floating-point exceptions are signalling: IEEE_DENORMAL
Note: The following floating-point exceptions are signalling: IEEE_DENORMAL
Note: The following floating-point exceptions are signalling: IEEE_DENORMAL
Note: The following floating-point exceptions are signalling: IEEE_DENORMAL
Note: The following floating-point exceptions are signalling: IEEE_DENORMAL
Note: The following floating-point exceptions are signalling: IEEE_DENORMAL
Note: The following floating-point exceptions are signalling: IEEE_DENORMAL
