
     Program PWSCF v.6.7MaX starts on 17Dec2022 at 23:13:37 

     This program is part of the open-source Quantum ESPRESSO suite
     for quantum simulation of materials; please cite
         "P. Giannozzi et al., J. Phys.:Condens. Matter 21 395502 (2009);
         "P. Giannozzi et al., J. Phys.:Condens. Matter 29 465901 (2017);
          URL http://www.quantum-espresso.org", 
     in publications or presentations arising from this work. More details at
     http://www.quantum-espresso.org/quote

     Parallel version (MPI), running on    24 processors

     MPI processes distributed on     1 nodes
     R & G space division:  proc/nbgrp/npool/nimage =      24
     Reading input from scale_2dab-00.in

     Current dimensions of program PWSCF are:
     Max number of different atomic species (ntypx) = 10
     Max number of k-points (npk) =  40000
     Max angular momentum in pseudopotentials (lmaxx) =  3
     Message from routine read_pp_mesh:
     mesh size missing, using the one in header
     file Fe.pbe-spn-kjpaw_psl.0.2.1.UPF: wavefunction(s)  3D renormalized
     file O.pbe-n-kjpaw_psl.0.1.UPF: wavefunction(s)  2P renormalized

     Subspace diagonalization in iterative solution of the eigenvalue problem:
     a serial algorithm will be used


     Parallelization info
     --------------------
     sticks:   dense  smooth     PW     G-vecs:    dense   smooth      PW
     Min         746     276     74                48686    10978    1547
     Max         748     277     76                48687    10981    1549
     Sum       17927    6645   1805              1168479   263495   37159



     bravais-lattice index     =            0
     lattice parameter (alat)  =      18.6818  a.u.
     unit-cell volume          =    1949.7229 (a.u.)^3
     number of atoms/cell      =           25
     number of atomic types    =            4
     number of electrons       =       189.00
     number of Kohn-Sham states=          114
     kinetic-energy cutoff     =     100.0000  Ry
     charge density cutoff     =    1080.0000  Ry
     scf convergence threshold =      2.0E-10
     mixing beta               =       0.4000
     number of iterations used =            8  plain     mixing
     Exchange-correlation= PBE
                           (   1   4   3   4   0   0   0)

     celldm(1)=  18.681804  celldm(2)=   0.000000  celldm(3)=   0.000000
     celldm(4)=   0.000000  celldm(5)=   0.000000  celldm(6)=   0.000000

     crystal axes: (cart. coord. in units of alat)
               a(1) = (   1.000000   0.000000   0.000000 )  
               a(2) = (   0.000000   0.597590   0.000000 )  
               a(3) = (   0.000000   0.000000   0.500395 )  

     reciprocal axes: (cart. coord. in units 2 pi/alat)
               b(1) = (  1.000000  0.000000  0.000000 )  
               b(2) = (  0.000000  1.673388  0.000000 )  
               b(3) = (  0.000000  0.000000  1.998420 )  


     PseudoPot. # 1 for Fe read from file:
     /opt/QEpot/SSSP_precision_pseudos/Fe.pbe-spn-kjpaw_psl.0.2.1.UPF
     MD5 check sum: e86618425769142926afa95317d90200
     Pseudo is Projector augmented-wave + core cor, Zval = 16.0
     Generated using "atomic" code by A. Dal Corso  v.5.0.99 svn rev. 10869
     Shape of augmentation charge: PSQ
     Using radial grid of 1191 points,  6 beta functions with: 
                l(1) =   0
                l(2) =   0
                l(3) =   1
                l(4) =   1
                l(5) =   2
                l(6) =   2
     Q(r) pseudized with 0 coefficients 


     PseudoPot. # 2 for Na read from file:
     /opt/QEpot/SSSP_precision_pseudos/Na_ONCV_PBE-1.0.oncvpsp.upf
     MD5 check sum: 24a298df0a6742ae313db96548fdb2a4
     Pseudo is Norm-conserving, Zval =  9.0
     Generated using ONCVPSP code by D. R. Hamann
     Using radial grid of 1992 points,  4 beta functions with: 
                l(1) =   0
                l(2) =   0
                l(3) =   1
                l(4) =   1

     PseudoPot. # 3 for O  read from file:
     /opt/QEpot/SSSP_precision_pseudos/O.pbe-n-kjpaw_psl.0.1.UPF
     MD5 check sum: 0234752ac141de4415c5fc33072bef88
     Pseudo is Projector augmented-wave + core cor, Zval =  6.0
     Generated using "atomic" code by A. Dal Corso  v.5.0.99 svn rev. 10869
     Shape of augmentation charge: BESSEL
     Using radial grid of 1095 points,  4 beta functions with: 
                l(1) =   0
                l(2) =   0
                l(3) =   1
                l(4) =   1
     Q(r) pseudized with 0 coefficients 


     PseudoPot. # 4 for P  read from file:
     /opt/QEpot/SSSP_precision_pseudos/P.pbe-n-rrkjus_psl.1.0.0.UPF
     MD5 check sum: 8b930f418f0a4573dca56cd030ffe088
     Pseudo is Ultrasoft + core correction, Zval =  5.0
     Generated using "atomic" code by A. Dal Corso  v.5.1
     Using radial grid of 1147 points,  6 beta functions with: 
                l(1) =   0
                l(2) =   0
                l(3) =   1
                l(4) =   1
                l(5) =   2
                l(6) =   2
     Q(r) pseudized with 0 coefficients 


     atomic species   valence    mass     pseudopotential
        Fe            16.00    55.84500     Fe( 1.00)
        Na             9.00    22.98977     Na( 1.00)
        O              6.00    15.99940     O ( 1.00)
        P              5.00    30.97376     P ( 1.00)

     Starting magnetic structure 
     atomic species   magnetization
        Fe           0.312
        Na           0.000
        O            0.000
        P            0.000

     No symmetry found


                                    s                        frac. trans.

      isym =  1     identity                                     

 cryst.   s( 1) = (     1          0          0      )
                  (     0          1          0      )
                  (     0          0          1      )

 cart.    s( 1) = (  1.0000000  0.0000000  0.0000000 )
                  (  0.0000000  1.0000000  0.0000000 )
                  (  0.0000000  0.0000000  1.0000000 )


   Cartesian axes

     site n.     atom                  positions (alat units)
         1           Na  tau(   1) = (   0.5574590   0.1493981   0.2228650  )
         2           Fe  tau(   2) = (   0.2771150   0.4481954   0.4960874  )
         3           Fe  tau(   3) = (   0.2107060   0.1493969   0.2454229  )
         4           Fe  tau(   4) = (   0.7302140   0.1493975   0.0000535  )
         5           Fe  tau(   5) = (   0.7810190   0.4481960   0.2574679  )
         6           P   tau(   6) = (   0.1051510   0.4481942   0.2221194  )
         7           P   tau(   7) = (   0.3871250   0.1493987   0.4711472  )
         8           P   tau(   8) = (   0.8922730   0.1493987   0.2785325  )
         9           P   tau(   9) = (   0.6039150   0.4481942   0.0330836  )
        10           O   tau(  10) = (   0.1313210   0.4481948   0.3757213  )
        11           O   tau(  11) = (   0.3628270   0.1493981   0.1248886  )
        12           O   tau(  12) = (   0.8714480   0.1493981   0.1243127  )
        13           O   tau(  13) = (   0.6323650   0.4481948   0.3803805  )
        14           O   tau(  14) = (   0.4574600   0.4481948   0.0598177  )
        15           O   tau(  15) = (   0.0361810   0.1493981   0.3139565  )
        16           O   tau(  16) = (   0.5358400   0.1493975   0.4483416  )
        17           O   tau(  17) = (   0.9582930   0.4481948   0.1957681  )
        18           O   tau(  18) = (   0.1741600   0.5648814   0.1499079  )
        19           O   tau(  19) = (   0.3208130   0.0329153   0.3979178  )
        20           O   tau(  20) = (   0.8175190   0.2646445   0.3480479  )
        21           O   tau(  21) = (   0.6721860   0.3307857   0.1066312  )
        22           O   tau(  22) = (   0.8175190   0.0341529   0.3480484  )
        23           O   tau(  23) = (   0.6721870   0.5656027   0.1066322  )
        24           O   tau(  24) = (   0.1741600   0.3315070   0.1499079  )
        25           O   tau(  25) = (   0.3208140   0.2658821   0.3979188  )

   Crystallographic axes

     site n.     atom                  positions (cryst. coord.)
         1           Na  tau(   1) = (  0.5574590  0.2500010  0.4453780  )
         2           Fe  tau(   2) = (  0.2771150  0.7500050  0.9913910  )
         3           Fe  tau(   3) = (  0.2107060  0.2499990  0.4904580  )
         4           Fe  tau(   4) = (  0.7302140  0.2500000  0.0001070  )
         5           Fe  tau(   5) = (  0.7810190  0.7500060  0.5145290  )
         6           P   tau(   6) = (  0.1051510  0.7500030  0.4438880  )
         7           P   tau(   7) = (  0.3871250  0.2500020  0.9415500  )
         8           P   tau(   8) = (  0.8922730  0.2500020  0.5566250  )
         9           P   tau(   9) = (  0.6039150  0.7500030  0.0661150  )
        10           O   tau(  10) = (  0.1313210  0.7500040  0.7508490  )
        11           O   tau(  11) = (  0.3628270  0.2500010  0.2495800  )
        12           O   tau(  12) = (  0.8714480  0.2500010  0.2484290  )
        13           O   tau(  13) = (  0.6323650  0.7500040  0.7601600  )
        14           O   tau(  14) = (  0.4574600  0.7500040  0.1195410  )
        15           O   tau(  15) = (  0.0361810  0.2500010  0.6274170  )
        16           O   tau(  16) = (  0.5358400  0.2500000  0.8959750  )
        17           O   tau(  17) = (  0.9582930  0.7500040  0.3912270  )
        18           O   tau(  18) = (  0.1741600  0.9452660  0.2995790  )
        19           O   tau(  19) = (  0.3208130  0.0550800  0.7952070  )
        20           O   tau(  20) = (  0.8175190  0.4428530  0.6955460  )
        21           O   tau(  21) = (  0.6721860  0.5535330  0.2130940  )
        22           O   tau(  22) = (  0.8175190  0.0571510  0.6955470  )
        23           O   tau(  23) = (  0.6721870  0.9464730  0.2130960  )
        24           O   tau(  24) = (  0.1741600  0.5547400  0.2995790  )
        25           O   tau(  25) = (  0.3208140  0.4449240  0.7952090  )

     number of k points=   158  Marzari-Vanderbilt smearing, width (Ry)=  0.0073
                       cart. coord. in units 2pi/alat
        k(    1) = (   0.0000000   0.0000000   0.0000000), wk =   0.0031746
        k(    2) = (   0.0000000   0.0000000   0.2220467), wk =   0.0063492
        k(    3) = (   0.0000000   0.0000000   0.4440934), wk =   0.0063492
        k(    4) = (   0.0000000   0.0000000   0.6661401), wk =   0.0063492
        k(    5) = (   0.0000000   0.0000000   0.8881868), wk =   0.0063492
        k(    6) = (   0.0000000   0.2390555   0.0000000), wk =   0.0063492
        k(    7) = (   0.0000000   0.2390555   0.2220467), wk =   0.0063492
        k(    8) = (   0.0000000   0.2390555   0.4440934), wk =   0.0063492
        k(    9) = (   0.0000000   0.2390555   0.6661401), wk =   0.0063492
        k(   10) = (   0.0000000   0.2390555   0.8881868), wk =   0.0063492
        k(   11) = (   0.0000000   0.4781110   0.0000000), wk =   0.0063492
        k(   12) = (   0.0000000   0.4781110   0.2220467), wk =   0.0063492
        k(   13) = (   0.0000000   0.4781110   0.4440934), wk =   0.0063492
        k(   14) = (   0.0000000   0.4781110   0.6661401), wk =   0.0063492
        k(   15) = (   0.0000000   0.4781110   0.8881868), wk =   0.0063492
        k(   16) = (   0.0000000   0.7171664   0.0000000), wk =   0.0063492
        k(   17) = (   0.0000000   0.7171664   0.2220467), wk =   0.0063492
        k(   18) = (   0.0000000   0.7171664   0.4440934), wk =   0.0063492
        k(   19) = (   0.0000000   0.7171664   0.6661401), wk =   0.0063492
        k(   20) = (   0.0000000   0.7171664   0.8881868), wk =   0.0063492
        k(   21) = (   0.2000000   0.0000000   0.0000000), wk =   0.0063492
        k(   22) = (   0.2000000   0.0000000   0.2220467), wk =   0.0063492
        k(   23) = (   0.2000000   0.0000000   0.4440934), wk =   0.0063492
        k(   24) = (   0.2000000   0.0000000   0.6661401), wk =   0.0063492
        k(   25) = (   0.2000000   0.0000000   0.8881868), wk =   0.0063492
        k(   26) = (   0.2000000   0.2390555   0.0000000), wk =   0.0063492
        k(   27) = (   0.2000000   0.2390555   0.2220467), wk =   0.0063492
        k(   28) = (   0.2000000   0.2390555   0.4440934), wk =   0.0063492
        k(   29) = (   0.2000000   0.2390555   0.6661401), wk =   0.0063492
        k(   30) = (   0.2000000   0.2390555   0.8881868), wk =   0.0063492
        k(   31) = (   0.2000000   0.4781110   0.0000000), wk =   0.0063492
        k(   32) = (   0.2000000   0.4781110   0.2220467), wk =   0.0063492
        k(   33) = (   0.2000000   0.4781110   0.4440934), wk =   0.0063492
        k(   34) = (   0.2000000   0.4781110   0.6661401), wk =   0.0063492
        k(   35) = (   0.2000000   0.4781110   0.8881868), wk =   0.0063492
        k(   36) = (   0.2000000   0.7171664   0.0000000), wk =   0.0063492
        k(   37) = (   0.2000000   0.7171664   0.2220467), wk =   0.0063492
        k(   38) = (   0.2000000   0.7171664   0.4440934), wk =   0.0063492
        k(   39) = (   0.2000000   0.7171664   0.6661401), wk =   0.0063492
        k(   40) = (   0.2000000   0.7171664   0.8881868), wk =   0.0063492
        k(   41) = (   0.4000000   0.0000000   0.0000000), wk =   0.0063492
        k(   42) = (   0.4000000   0.0000000   0.2220467), wk =   0.0063492
        k(   43) = (   0.4000000   0.0000000   0.4440934), wk =   0.0063492
        k(   44) = (   0.4000000   0.0000000   0.6661401), wk =   0.0063492
        k(   45) = (   0.4000000   0.0000000   0.8881868), wk =   0.0063492
        k(   46) = (   0.4000000   0.2390555   0.0000000), wk =   0.0063492
        k(   47) = (   0.4000000   0.2390555   0.2220467), wk =   0.0063492
        k(   48) = (   0.4000000   0.2390555   0.4440934), wk =   0.0063492
        k(   49) = (   0.4000000   0.2390555   0.6661401), wk =   0.0063492
        k(   50) = (   0.4000000   0.2390555   0.8881868), wk =   0.0063492
        k(   51) = (   0.4000000   0.4781110   0.0000000), wk =   0.0063492
        k(   52) = (   0.4000000   0.4781110   0.2220467), wk =   0.0063492
        k(   53) = (   0.4000000   0.4781110   0.4440934), wk =   0.0063492
        k(   54) = (   0.4000000   0.4781110   0.6661401), wk =   0.0063492
        k(   55) = (   0.4000000   0.4781110   0.8881868), wk =   0.0063492
        k(   56) = (   0.4000000   0.7171664   0.0000000), wk =   0.0063492
        k(   57) = (   0.4000000   0.7171664   0.2220467), wk =   0.0063492
        k(   58) = (   0.4000000   0.7171664   0.4440934), wk =   0.0063492
        k(   59) = (   0.4000000   0.7171664   0.6661401), wk =   0.0063492
        k(   60) = (   0.4000000   0.7171664   0.8881868), wk =   0.0063492
        k(   61) = (   0.0000000  -0.2390555   0.2220467), wk =   0.0063492
        k(   62) = (   0.0000000  -0.2390555   0.4440934), wk =   0.0063492
        k(   63) = (   0.0000000  -0.2390555   0.6661401), wk =   0.0063492
        k(   64) = (   0.0000000  -0.2390555   0.8881868), wk =   0.0063492
        k(   65) = (   0.0000000  -0.4781110   0.2220467), wk =   0.0063492
        k(   66) = (   0.0000000  -0.4781110   0.4440934), wk =   0.0063492
        k(   67) = (   0.0000000  -0.4781110   0.6661401), wk =   0.0063492
        k(   68) = (   0.0000000  -0.4781110   0.8881868), wk =   0.0063492
        k(   69) = (   0.0000000  -0.7171664   0.2220467), wk =   0.0063492
        k(   70) = (   0.0000000  -0.7171664   0.4440934), wk =   0.0063492
        k(   71) = (   0.0000000  -0.7171664   0.6661401), wk =   0.0063492
        k(   72) = (   0.0000000  -0.7171664   0.8881868), wk =   0.0063492
        k(   73) = (  -0.2000000   0.0000000   0.2220467), wk =   0.0063492
        k(   74) = (  -0.2000000   0.0000000   0.4440934), wk =   0.0063492
        k(   75) = (  -0.2000000   0.0000000   0.6661401), wk =   0.0063492
        k(   76) = (  -0.2000000   0.0000000   0.8881868), wk =   0.0063492
        k(   77) = (  -0.2000000   0.2390555   0.0000000), wk =   0.0063492
        k(   78) = (  -0.2000000  -0.2390555   0.2220467), wk =   0.0063492
        k(   79) = (  -0.2000000   0.2390555  -0.2220467), wk =   0.0063492
        k(   80) = (   0.2000000  -0.2390555  -0.2220467), wk =   0.0063492
        k(   81) = (  -0.2000000  -0.2390555   0.4440934), wk =   0.0063492
        k(   82) = (  -0.2000000   0.2390555  -0.4440934), wk =   0.0063492
        k(   83) = (   0.2000000  -0.2390555  -0.4440934), wk =   0.0063492
        k(   84) = (  -0.2000000  -0.2390555   0.6661401), wk =   0.0063492
        k(   85) = (  -0.2000000   0.2390555  -0.6661401), wk =   0.0063492
        k(   86) = (   0.2000000  -0.2390555  -0.6661401), wk =   0.0063492
        k(   87) = (  -0.2000000  -0.2390555   0.8881868), wk =   0.0063492
        k(   88) = (  -0.2000000   0.2390555  -0.8881868), wk =   0.0063492
        k(   89) = (   0.2000000  -0.2390555  -0.8881868), wk =   0.0063492
        k(   90) = (  -0.2000000   0.4781110   0.0000000), wk =   0.0063492
        k(   91) = (  -0.2000000  -0.4781110   0.2220467), wk =   0.0063492
        k(   92) = (  -0.2000000   0.4781110  -0.2220467), wk =   0.0063492
        k(   93) = (   0.2000000  -0.4781110  -0.2220467), wk =   0.0063492
        k(   94) = (  -0.2000000  -0.4781110   0.4440934), wk =   0.0063492
        k(   95) = (  -0.2000000   0.4781110  -0.4440934), wk =   0.0063492
        k(   96) = (   0.2000000  -0.4781110  -0.4440934), wk =   0.0063492
        k(   97) = (  -0.2000000  -0.4781110   0.6661401), wk =   0.0063492
        k(   98) = (  -0.2000000   0.4781110  -0.6661401), wk =   0.0063492
        k(   99) = (   0.2000000  -0.4781110  -0.6661401), wk =   0.0063492
        k(  100) = (  -0.2000000  -0.4781110   0.8881868), wk =   0.0063492
        k(  101) = (  -0.2000000   0.4781110  -0.8881868), wk =   0.0063492
        k(  102) = (   0.2000000  -0.4781110  -0.8881868), wk =   0.0063492
        k(  103) = (  -0.2000000   0.7171664   0.0000000), wk =   0.0063492
        k(  104) = (  -0.2000000  -0.7171664   0.2220467), wk =   0.0063492
        k(  105) = (  -0.2000000   0.7171664  -0.2220467), wk =   0.0063492
        k(  106) = (   0.2000000  -0.7171664  -0.2220467), wk =   0.0063492
        k(  107) = (  -0.2000000  -0.7171664   0.4440934), wk =   0.0063492
        k(  108) = (  -0.2000000   0.7171664  -0.4440934), wk =   0.0063492
        k(  109) = (   0.2000000  -0.7171664  -0.4440934), wk =   0.0063492
        k(  110) = (  -0.2000000  -0.7171664   0.6661401), wk =   0.0063492
        k(  111) = (  -0.2000000   0.7171664  -0.6661401), wk =   0.0063492
        k(  112) = (   0.2000000  -0.7171664  -0.6661401), wk =   0.0063492
        k(  113) = (  -0.2000000  -0.7171664   0.8881868), wk =   0.0063492
        k(  114) = (  -0.2000000   0.7171664  -0.8881868), wk =   0.0063492
        k(  115) = (   0.2000000  -0.7171664  -0.8881868), wk =   0.0063492
        k(  116) = (  -0.4000000   0.0000000   0.2220467), wk =   0.0063492
        k(  117) = (  -0.4000000   0.0000000   0.4440934), wk =   0.0063492
        k(  118) = (  -0.4000000   0.0000000   0.6661401), wk =   0.0063492
        k(  119) = (  -0.4000000   0.0000000   0.8881868), wk =   0.0063492
        k(  120) = (  -0.4000000   0.2390555   0.0000000), wk =   0.0063492
        k(  121) = (  -0.4000000  -0.2390555   0.2220467), wk =   0.0063492
        k(  122) = (  -0.4000000   0.2390555  -0.2220467), wk =   0.0063492
        k(  123) = (   0.4000000  -0.2390555  -0.2220467), wk =   0.0063492
        k(  124) = (  -0.4000000  -0.2390555   0.4440934), wk =   0.0063492
        k(  125) = (  -0.4000000   0.2390555  -0.4440934), wk =   0.0063492
        k(  126) = (   0.4000000  -0.2390555  -0.4440934), wk =   0.0063492
        k(  127) = (  -0.4000000  -0.2390555   0.6661401), wk =   0.0063492
        k(  128) = (  -0.4000000   0.2390555  -0.6661401), wk =   0.0063492
        k(  129) = (   0.4000000  -0.2390555  -0.6661401), wk =   0.0063492
        k(  130) = (  -0.4000000  -0.2390555   0.8881868), wk =   0.0063492
        k(  131) = (  -0.4000000   0.2390555  -0.8881868), wk =   0.0063492
        k(  132) = (   0.4000000  -0.2390555  -0.8881868), wk =   0.0063492
        k(  133) = (  -0.4000000   0.4781110   0.0000000), wk =   0.0063492
        k(  134) = (  -0.4000000  -0.4781110   0.2220467), wk =   0.0063492
        k(  135) = (  -0.4000000   0.4781110  -0.2220467), wk =   0.0063492
        k(  136) = (   0.4000000  -0.4781110  -0.2220467), wk =   0.0063492
        k(  137) = (  -0.4000000  -0.4781110   0.4440934), wk =   0.0063492
        k(  138) = (  -0.4000000   0.4781110  -0.4440934), wk =   0.0063492
        k(  139) = (   0.4000000  -0.4781110  -0.4440934), wk =   0.0063492
        k(  140) = (  -0.4000000  -0.4781110   0.6661401), wk =   0.0063492
        k(  141) = (  -0.4000000   0.4781110  -0.6661401), wk =   0.0063492
        k(  142) = (   0.4000000  -0.4781110  -0.6661401), wk =   0.0063492
        k(  143) = (  -0.4000000  -0.4781110   0.8881868), wk =   0.0063492
        k(  144) = (  -0.4000000   0.4781110  -0.8881868), wk =   0.0063492
        k(  145) = (   0.4000000  -0.4781110  -0.8881868), wk =   0.0063492
        k(  146) = (  -0.4000000   0.7171664   0.0000000), wk =   0.0063492
        k(  147) = (  -0.4000000  -0.7171664   0.2220467), wk =   0.0063492
        k(  148) = (  -0.4000000   0.7171664  -0.2220467), wk =   0.0063492
        k(  149) = (   0.4000000  -0.7171664  -0.2220467), wk =   0.0063492
        k(  150) = (  -0.4000000  -0.7171664   0.4440934), wk =   0.0063492
        k(  151) = (  -0.4000000   0.7171664  -0.4440934), wk =   0.0063492
        k(  152) = (   0.4000000  -0.7171664  -0.4440934), wk =   0.0063492
        k(  153) = (  -0.4000000  -0.7171664   0.6661401), wk =   0.0063492
        k(  154) = (  -0.4000000   0.7171664  -0.6661401), wk =   0.0063492
        k(  155) = (   0.4000000  -0.7171664  -0.6661401), wk =   0.0063492
        k(  156) = (  -0.4000000  -0.7171664   0.8881868), wk =   0.0063492
        k(  157) = (  -0.4000000   0.7171664  -0.8881868), wk =   0.0063492
        k(  158) = (   0.4000000  -0.7171664  -0.8881868), wk =   0.0063492

                       cryst. coord.
        k(    1) = (   0.0000000   0.0000000   0.0000000), wk =   0.0031746
        k(    2) = (   0.0000000   0.0000000   0.1111111), wk =   0.0063492
        k(    3) = (   0.0000000   0.0000000   0.2222222), wk =   0.0063492
        k(    4) = (   0.0000000   0.0000000   0.3333333), wk =   0.0063492
        k(    5) = (   0.0000000   0.0000000   0.4444444), wk =   0.0063492
        k(    6) = (   0.0000000   0.1428571   0.0000000), wk =   0.0063492
        k(    7) = (   0.0000000   0.1428571   0.1111111), wk =   0.0063492
        k(    8) = (   0.0000000   0.1428571   0.2222222), wk =   0.0063492
        k(    9) = (   0.0000000   0.1428571   0.3333333), wk =   0.0063492
        k(   10) = (   0.0000000   0.1428571   0.4444444), wk =   0.0063492
        k(   11) = (   0.0000000   0.2857143   0.0000000), wk =   0.0063492
        k(   12) = (   0.0000000   0.2857143   0.1111111), wk =   0.0063492
        k(   13) = (   0.0000000   0.2857143   0.2222222), wk =   0.0063492
        k(   14) = (   0.0000000   0.2857143   0.3333333), wk =   0.0063492
        k(   15) = (   0.0000000   0.2857143   0.4444444), wk =   0.0063492
        k(   16) = (   0.0000000   0.4285714   0.0000000), wk =   0.0063492
        k(   17) = (   0.0000000   0.4285714   0.1111111), wk =   0.0063492
        k(   18) = (   0.0000000   0.4285714   0.2222222), wk =   0.0063492
        k(   19) = (   0.0000000   0.4285714   0.3333333), wk =   0.0063492
        k(   20) = (   0.0000000   0.4285714   0.4444444), wk =   0.0063492
        k(   21) = (   0.2000000   0.0000000   0.0000000), wk =   0.0063492
        k(   22) = (   0.2000000   0.0000000   0.1111111), wk =   0.0063492
        k(   23) = (   0.2000000   0.0000000   0.2222222), wk =   0.0063492
        k(   24) = (   0.2000000   0.0000000   0.3333333), wk =   0.0063492
        k(   25) = (   0.2000000   0.0000000   0.4444444), wk =   0.0063492
        k(   26) = (   0.2000000   0.1428571   0.0000000), wk =   0.0063492
        k(   27) = (   0.2000000   0.1428571   0.1111111), wk =   0.0063492
        k(   28) = (   0.2000000   0.1428571   0.2222222), wk =   0.0063492
        k(   29) = (   0.2000000   0.1428571   0.3333333), wk =   0.0063492
        k(   30) = (   0.2000000   0.1428571   0.4444444), wk =   0.0063492
        k(   31) = (   0.2000000   0.2857143   0.0000000), wk =   0.0063492
        k(   32) = (   0.2000000   0.2857143   0.1111111), wk =   0.0063492
        k(   33) = (   0.2000000   0.2857143   0.2222222), wk =   0.0063492
        k(   34) = (   0.2000000   0.2857143   0.3333333), wk =   0.0063492
        k(   35) = (   0.2000000   0.2857143   0.4444444), wk =   0.0063492
        k(   36) = (   0.2000000   0.4285714   0.0000000), wk =   0.0063492
        k(   37) = (   0.2000000   0.4285714   0.1111111), wk =   0.0063492
        k(   38) = (   0.2000000   0.4285714   0.2222222), wk =   0.0063492
        k(   39) = (   0.2000000   0.4285714   0.3333333), wk =   0.0063492
        k(   40) = (   0.2000000   0.4285714   0.4444444), wk =   0.0063492
        k(   41) = (   0.4000000   0.0000000   0.0000000), wk =   0.0063492
        k(   42) = (   0.4000000   0.0000000   0.1111111), wk =   0.0063492
        k(   43) = (   0.4000000   0.0000000   0.2222222), wk =   0.0063492
        k(   44) = (   0.4000000   0.0000000   0.3333333), wk =   0.0063492
        k(   45) = (   0.4000000   0.0000000   0.4444444), wk =   0.0063492
        k(   46) = (   0.4000000   0.1428571   0.0000000), wk =   0.0063492
        k(   47) = (   0.4000000   0.1428571   0.1111111), wk =   0.0063492
        k(   48) = (   0.4000000   0.1428571   0.2222222), wk =   0.0063492
        k(   49) = (   0.4000000   0.1428571   0.3333333), wk =   0.0063492
        k(   50) = (   0.4000000   0.1428571   0.4444444), wk =   0.0063492
        k(   51) = (   0.4000000   0.2857143   0.0000000), wk =   0.0063492
        k(   52) = (   0.4000000   0.2857143   0.1111111), wk =   0.0063492
        k(   53) = (   0.4000000   0.2857143   0.2222222), wk =   0.0063492
        k(   54) = (   0.4000000   0.2857143   0.3333333), wk =   0.0063492
        k(   55) = (   0.4000000   0.2857143   0.4444444), wk =   0.0063492
        k(   56) = (   0.4000000   0.4285714   0.0000000), wk =   0.0063492
        k(   57) = (   0.4000000   0.4285714   0.1111111), wk =   0.0063492
        k(   58) = (   0.4000000   0.4285714   0.2222222), wk =   0.0063492
        k(   59) = (   0.4000000   0.4285714   0.3333333), wk =   0.0063492
        k(   60) = (   0.4000000   0.4285714   0.4444444), wk =   0.0063492
        k(   61) = (   0.0000000  -0.1428571   0.1111111), wk =   0.0063492
        k(   62) = (   0.0000000  -0.1428571   0.2222222), wk =   0.0063492
        k(   63) = (   0.0000000  -0.1428571   0.3333333), wk =   0.0063492
        k(   64) = (   0.0000000  -0.1428571   0.4444444), wk =   0.0063492
        k(   65) = (   0.0000000  -0.2857143   0.1111111), wk =   0.0063492
        k(   66) = (   0.0000000  -0.2857143   0.2222222), wk =   0.0063492
        k(   67) = (   0.0000000  -0.2857143   0.3333333), wk =   0.0063492
        k(   68) = (   0.0000000  -0.2857143   0.4444444), wk =   0.0063492
        k(   69) = (   0.0000000  -0.4285714   0.1111111), wk =   0.0063492
        k(   70) = (   0.0000000  -0.4285714   0.2222222), wk =   0.0063492
        k(   71) = (   0.0000000  -0.4285714   0.3333333), wk =   0.0063492
        k(   72) = (   0.0000000  -0.4285714   0.4444444), wk =   0.0063492
        k(   73) = (  -0.2000000   0.0000000   0.1111111), wk =   0.0063492
        k(   74) = (  -0.2000000   0.0000000   0.2222222), wk =   0.0063492
        k(   75) = (  -0.2000000   0.0000000   0.3333333), wk =   0.0063492
        k(   76) = (  -0.2000000   0.0000000   0.4444444), wk =   0.0063492
        k(   77) = (  -0.2000000   0.1428571   0.0000000), wk =   0.0063492
        k(   78) = (  -0.2000000  -0.1428571   0.1111111), wk =   0.0063492
        k(   79) = (  -0.2000000   0.1428571  -0.1111111), wk =   0.0063492
        k(   80) = (   0.2000000  -0.1428571  -0.1111111), wk =   0.0063492
        k(   81) = (  -0.2000000  -0.1428571   0.2222222), wk =   0.0063492
        k(   82) = (  -0.2000000   0.1428571  -0.2222222), wk =   0.0063492
        k(   83) = (   0.2000000  -0.1428571  -0.2222222), wk =   0.0063492
        k(   84) = (  -0.2000000  -0.1428571   0.3333333), wk =   0.0063492
        k(   85) = (  -0.2000000   0.1428571  -0.3333333), wk =   0.0063492
        k(   86) = (   0.2000000  -0.1428571  -0.3333333), wk =   0.0063492
        k(   87) = (  -0.2000000  -0.1428571   0.4444444), wk =   0.0063492
        k(   88) = (  -0.2000000   0.1428571  -0.4444444), wk =   0.0063492
        k(   89) = (   0.2000000  -0.1428571  -0.4444444), wk =   0.0063492
        k(   90) = (  -0.2000000   0.2857143   0.0000000), wk =   0.0063492
        k(   91) = (  -0.2000000  -0.2857143   0.1111111), wk =   0.0063492
        k(   92) = (  -0.2000000   0.2857143  -0.1111111), wk =   0.0063492
        k(   93) = (   0.2000000  -0.2857143  -0.1111111), wk =   0.0063492
        k(   94) = (  -0.2000000  -0.2857143   0.2222222), wk =   0.0063492
        k(   95) = (  -0.2000000   0.2857143  -0.2222222), wk =   0.0063492
        k(   96) = (   0.2000000  -0.2857143  -0.2222222), wk =   0.0063492
        k(   97) = (  -0.2000000  -0.2857143   0.3333333), wk =   0.0063492
        k(   98) = (  -0.2000000   0.2857143  -0.3333333), wk =   0.0063492
        k(   99) = (   0.2000000  -0.2857143  -0.3333333), wk =   0.0063492
        k(  100) = (  -0.2000000  -0.2857143   0.4444444), wk =   0.0063492
        k(  101) = (  -0.2000000   0.2857143  -0.4444444), wk =   0.0063492
        k(  102) = (   0.2000000  -0.2857143  -0.4444444), wk =   0.0063492
        k(  103) = (  -0.2000000   0.4285714   0.0000000), wk =   0.0063492
        k(  104) = (  -0.2000000  -0.4285714   0.1111111), wk =   0.0063492
        k(  105) = (  -0.2000000   0.4285714  -0.1111111), wk =   0.0063492
        k(  106) = (   0.2000000  -0.4285714  -0.1111111), wk =   0.0063492
        k(  107) = (  -0.2000000  -0.4285714   0.2222222), wk =   0.0063492
        k(  108) = (  -0.2000000   0.4285714  -0.2222222), wk =   0.0063492
        k(  109) = (   0.2000000  -0.4285714  -0.2222222), wk =   0.0063492
        k(  110) = (  -0.2000000  -0.4285714   0.3333333), wk =   0.0063492
        k(  111) = (  -0.2000000   0.4285714  -0.3333333), wk =   0.0063492
        k(  112) = (   0.2000000  -0.4285714  -0.3333333), wk =   0.0063492
        k(  113) = (  -0.2000000  -0.4285714   0.4444444), wk =   0.0063492
        k(  114) = (  -0.2000000   0.4285714  -0.4444444), wk =   0.0063492
        k(  115) = (   0.2000000  -0.4285714  -0.4444444), wk =   0.0063492
        k(  116) = (  -0.4000000   0.0000000   0.1111111), wk =   0.0063492
        k(  117) = (  -0.4000000   0.0000000   0.2222222), wk =   0.0063492
        k(  118) = (  -0.4000000   0.0000000   0.3333333), wk =   0.0063492
        k(  119) = (  -0.4000000   0.0000000   0.4444444), wk =   0.0063492
        k(  120) = (  -0.4000000   0.1428571   0.0000000), wk =   0.0063492
        k(  121) = (  -0.4000000  -0.1428571   0.1111111), wk =   0.0063492
        k(  122) = (  -0.4000000   0.1428571  -0.1111111), wk =   0.0063492
        k(  123) = (   0.4000000  -0.1428571  -0.1111111), wk =   0.0063492
        k(  124) = (  -0.4000000  -0.1428571   0.2222222), wk =   0.0063492
        k(  125) = (  -0.4000000   0.1428571  -0.2222222), wk =   0.0063492
        k(  126) = (   0.4000000  -0.1428571  -0.2222222), wk =   0.0063492
        k(  127) = (  -0.4000000  -0.1428571   0.3333333), wk =   0.0063492
        k(  128) = (  -0.4000000   0.1428571  -0.3333333), wk =   0.0063492
        k(  129) = (   0.4000000  -0.1428571  -0.3333333), wk =   0.0063492
        k(  130) = (  -0.4000000  -0.1428571   0.4444444), wk =   0.0063492
        k(  131) = (  -0.4000000   0.1428571  -0.4444444), wk =   0.0063492
        k(  132) = (   0.4000000  -0.1428571  -0.4444444), wk =   0.0063492
        k(  133) = (  -0.4000000   0.2857143   0.0000000), wk =   0.0063492
        k(  134) = (  -0.4000000  -0.2857143   0.1111111), wk =   0.0063492
        k(  135) = (  -0.4000000   0.2857143  -0.1111111), wk =   0.0063492
        k(  136) = (   0.4000000  -0.2857143  -0.1111111), wk =   0.0063492
        k(  137) = (  -0.4000000  -0.2857143   0.2222222), wk =   0.0063492
        k(  138) = (  -0.4000000   0.2857143  -0.2222222), wk =   0.0063492
        k(  139) = (   0.4000000  -0.2857143  -0.2222222), wk =   0.0063492
        k(  140) = (  -0.4000000  -0.2857143   0.3333333), wk =   0.0063492
        k(  141) = (  -0.4000000   0.2857143  -0.3333333), wk =   0.0063492
        k(  142) = (   0.4000000  -0.2857143  -0.3333333), wk =   0.0063492
        k(  143) = (  -0.4000000  -0.2857143   0.4444444), wk =   0.0063492
        k(  144) = (  -0.4000000   0.2857143  -0.4444444), wk =   0.0063492
        k(  145) = (   0.4000000  -0.2857143  -0.4444444), wk =   0.0063492
        k(  146) = (  -0.4000000   0.4285714   0.0000000), wk =   0.0063492
        k(  147) = (  -0.4000000  -0.4285714   0.1111111), wk =   0.0063492
        k(  148) = (  -0.4000000   0.4285714  -0.1111111), wk =   0.0063492
        k(  149) = (   0.4000000  -0.4285714  -0.1111111), wk =   0.0063492
        k(  150) = (  -0.4000000  -0.4285714   0.2222222), wk =   0.0063492
        k(  151) = (  -0.4000000   0.4285714  -0.2222222), wk =   0.0063492
        k(  152) = (   0.4000000  -0.4285714  -0.2222222), wk =   0.0063492
        k(  153) = (  -0.4000000  -0.4285714   0.3333333), wk =   0.0063492
        k(  154) = (  -0.4000000   0.4285714  -0.3333333), wk =   0.0063492
        k(  155) = (   0.4000000  -0.4285714  -0.3333333), wk =   0.0063492
        k(  156) = (  -0.4000000  -0.4285714   0.4444444), wk =   0.0063492
        k(  157) = (  -0.4000000   0.4285714  -0.4444444), wk =   0.0063492
        k(  158) = (   0.4000000  -0.4285714  -0.4444444), wk =   0.0063492

     Dense  grid:  1168479 G-vectors     FFT dimensions: ( 200, 120, 100)

     Smooth grid:   263495 G-vectors     FFT dimensions: ( 120,  72,  60)

     Dynamical RAM for                 wfc:       2.38 MB

     Dynamical RAM for     wfc (w. buffer):     756.00 MB

     Dynamical RAM for           str. fact:       2.97 MB

     Dynamical RAM for           local pot:       0.00 MB

     Dynamical RAM for          nlocal pot:       5.86 MB

     Dynamical RAM for                qrad:      10.54 MB

     Dynamical RAM for          rho,v,vnew:       9.95 MB

     Dynamical RAM for               rhoin:       3.32 MB

     Dynamical RAM for            rho*nmix:      23.77 MB

     Dynamical RAM for           G-vectors:       2.87 MB

     Dynamical RAM for          h,s,v(r/c):       2.38 MB

     Dynamical RAM for          <psi|beta>:       0.49 MB

     Dynamical RAM for                 psi:       4.77 MB

     Dynamical RAM for                hpsi:       4.77 MB

     Dynamical RAM for                spsi:       4.77 MB

     Dynamical RAM for      wfcinit/wfcrot:       6.16 MB

     Dynamical RAM for           addusdens:     150.81 MB

     Dynamical RAM for          addusforce:     173.22 MB

     Dynamical RAM for         addusstress:     150.44 MB

     Estimated static dynamical RAM per process >     824.49 MB

     Estimated max dynamical RAM per process >     997.71 MB

     Estimated total dynamical RAM >      23.38 GB

     Check: negative core charge=   -0.000003
     Generating pointlists ...
     new r_m :   0.0773 (alat units)  1.4449 (a.u.) for type    1
     new r_m :   0.0899 (alat units)  1.6792 (a.u.) for type    2
     new r_m :   0.0611 (alat units)  1.1421 (a.u.) for type    3
     new r_m :   0.0611 (alat units)  1.1421 (a.u.) for type    4

     Initial potential from superposition of free atoms

     starting charge  188.99132, renormalised to  189.00000
     Starting wfcs are  137 randomized atomic wfcs
     Checking if some PAW data can be deallocated... 
       PAW data deallocated on   20 nodes for type:  1
       PAW data deallocated on    8 nodes for type:  3

     total cpu time spent up to now is      172.8 secs

     Self-consistent Calculation

     iteration #  1     ecut=   100.00 Ry     beta= 0.40
     Davidson diagonalization with overlap
     ethr =  1.00E-02,  avg # of iterations =  3.5

     negative rho (up, down):  0.000E+00 1.381E-04

     total cpu time spent up to now is      772.3 secs

     total energy              =   -2123.90120590 Ry
     estimated scf accuracy    <       6.88332712 Ry

     total magnetization       =    19.00 Bohr mag/cell
     absolute magnetization    =    19.00 Bohr mag/cell

     iteration #  2     ecut=   100.00 Ry     beta= 0.40
     Davidson diagonalization with overlap
     ethr =  3.64E-03,  avg # of iterations =  2.0

     negative rho (up, down):  0.000E+00 9.491E-05

     total cpu time spent up to now is     1276.4 secs

     total energy              =   -2120.96015375 Ry
     estimated scf accuracy    <      41.57259199 Ry

     total magnetization       =     7.59 Bohr mag/cell
     absolute magnetization    =     8.91 Bohr mag/cell

     iteration #  3     ecut=   100.00 Ry     beta= 0.40
     Davidson diagonalization with overlap
     ethr =  3.64E-03,  avg # of iterations =  2.8

     negative rho (up, down):  0.000E+00 5.900E-05

     total cpu time spent up to now is     1724.3 secs

     total energy              =   -2123.53484463 Ry
     estimated scf accuracy    <      59.30527679 Ry

     total magnetization       =     3.11 Bohr mag/cell
     absolute magnetization    =     7.36 Bohr mag/cell

     iteration #  4     ecut=   100.00 Ry     beta= 0.40
     Davidson diagonalization with overlap
     ethr =  3.64E-03,  avg # of iterations =  1.3

     negative rho (up, down):  0.000E+00 5.378E-05

     total cpu time spent up to now is     2096.3 secs

     total energy              =   -2124.47586245 Ry
     estimated scf accuracy    <      30.45627759 Ry

     total magnetization       =     9.00 Bohr mag/cell
     absolute magnetization    =     9.44 Bohr mag/cell

     iteration #  5     ecut=   100.00 Ry     beta= 0.40
     Davidson diagonalization with overlap
     ethr =  3.64E-03,  avg # of iterations =  2.0

     negative rho (up, down):  0.000E+00 1.720E-04

     total cpu time spent up to now is     2521.3 secs

     total energy              =   -2125.88469483 Ry
     estimated scf accuracy    <       1.40997112 Ry

     total magnetization       =    19.01 Bohr mag/cell
     absolute magnetization    =    19.01 Bohr mag/cell

     iteration #  6     ecut=   100.00 Ry     beta= 0.40
     Davidson diagonalization with overlap
     ethr =  7.46E-04,  avg # of iterations =  2.0

     negative rho (up, down):  0.000E+00 2.833E-04

     total cpu time spent up to now is     2945.5 secs

     total energy              =   -2125.98485144 Ry
     estimated scf accuracy    <       0.42231058 Ry

     total magnetization       =    19.07 Bohr mag/cell
     absolute magnetization    =    19.07 Bohr mag/cell

     iteration #  7     ecut=   100.00 Ry     beta= 0.40
     Davidson diagonalization with overlap
     c_bands:  1 eigenvalues not converged
     ethr =  2.23E-04,  avg # of iterations =  4.6

     negative rho (up, down):  0.000E+00 4.115E-04

     total cpu time spent up to now is     3415.1 secs

     total energy              =   -2125.99395939 Ry
     estimated scf accuracy    <       0.19334666 Ry

     total magnetization       =    19.00 Bohr mag/cell
     absolute magnetization    =    19.00 Bohr mag/cell

     iteration #  8     ecut=   100.00 Ry     beta= 0.40
     Davidson diagonalization with overlap
     c_bands:  1 eigenvalues not converged
     c_bands:  1 eigenvalues not converged
     c_bands:  1 eigenvalues not converged
     ethr =  1.02E-04,  avg # of iterations =  9.7

     negative rho (up, down):  0.000E+00 5.027E-04

     total cpu time spent up to now is     4061.5 secs

     total energy              =   -2125.98681202 Ry
     estimated scf accuracy    <       0.45637794 Ry

     total magnetization       =    19.00 Bohr mag/cell
     absolute magnetization    =    19.01 Bohr mag/cell

     iteration #  9     ecut=   100.00 Ry     beta= 0.40
     Davidson diagonalization with overlap
     ethr =  1.02E-04,  avg # of iterations =  1.4

     negative rho (up, down):  0.000E+00 5.150E-04

     total cpu time spent up to now is     4435.9 secs

     total energy              =   -2126.00644487 Ry
     estimated scf accuracy    <       0.14554600 Ry

     total magnetization       =    19.00 Bohr mag/cell
     absolute magnetization    =    19.01 Bohr mag/cell

     iteration # 10     ecut=   100.00 Ry     beta= 0.40
     Davidson diagonalization with overlap
     ethr =  7.70E-05,  avg # of iterations =  1.1

     negative rho (up, down):  0.000E+00 6.799E-04

     total cpu time spent up to now is     4797.9 secs

     total energy              =   -2126.01373746 Ry
     estimated scf accuracy    <       0.02512739 Ry

     total magnetization       =    19.00 Bohr mag/cell
     absolute magnetization    =    19.01 Bohr mag/cell

     iteration # 11     ecut=   100.00 Ry     beta= 0.40
     Davidson diagonalization with overlap
     c_bands:  1 eigenvalues not converged
     c_bands:  1 eigenvalues not converged
     c_bands:  1 eigenvalues not converged
     c_bands:  1 eigenvalues not converged
     c_bands:  1 eigenvalues not converged
     ethr =  1.33E-05,  avg # of iterations = 10.3

     negative rho (up, down):  0.000E+00 7.910E-04

     total cpu time spent up to now is     5453.6 secs

     total energy              =   -2126.01722839 Ry
     estimated scf accuracy    <       0.10164785 Ry

     total magnetization       =    19.00 Bohr mag/cell
     absolute magnetization    =    19.02 Bohr mag/cell

     iteration # 12     ecut=   100.00 Ry     beta= 0.40
     Davidson diagonalization with overlap
     ethr =  1.33E-05,  avg # of iterations =  1.2

     negative rho (up, down):  0.000E+00 8.001E-04

     total cpu time spent up to now is     5816.2 secs

     total energy              =   -2126.01779351 Ry
     estimated scf accuracy    <       0.04469929 Ry

     total magnetization       =    19.00 Bohr mag/cell
     absolute magnetization    =    19.03 Bohr mag/cell

     iteration # 13     ecut=   100.00 Ry     beta= 0.40
     Davidson diagonalization with overlap
     ethr =  1.33E-05,  avg # of iterations =  1.0

     negative rho (up, down):  0.000E+00 8.071E-04

     total cpu time spent up to now is     6173.3 secs

     total energy              =   -2126.01818424 Ry
     estimated scf accuracy    <       0.00467313 Ry

     total magnetization       =    19.00 Bohr mag/cell
     absolute magnetization    =    19.03 Bohr mag/cell

     iteration # 14     ecut=   100.00 Ry     beta= 0.40
     Davidson diagonalization with overlap
     c_bands:  1 eigenvalues not converged
     c_bands:  1 eigenvalues not converged
     c_bands:  1 eigenvalues not converged
     c_bands:  1 eigenvalues not converged
     c_bands:  1 eigenvalues not converged
     c_bands:  1 eigenvalues not converged
     c_bands:  1 eigenvalues not converged
     ethr =  2.47E-06,  avg # of iterations =  8.8

     negative rho (up, down):  0.000E+00 8.146E-04

     total cpu time spent up to now is     6796.0 secs

     total energy              =   -2126.01869866 Ry
     estimated scf accuracy    <       0.01080888 Ry

     total magnetization       =    19.00 Bohr mag/cell
     absolute magnetization    =    19.04 Bohr mag/cell

     iteration # 15     ecut=   100.00 Ry     beta= 0.40
     Davidson diagonalization with overlap
     ethr =  2.47E-06,  avg # of iterations =  1.1

     negative rho (up, down):  0.000E+00 8.082E-04

     total cpu time spent up to now is     7154.8 secs

     total energy              =   -2126.01893061 Ry
     estimated scf accuracy    <       0.00066807 Ry

     total magnetization       =    19.00 Bohr mag/cell
     absolute magnetization    =    19.04 Bohr mag/cell

     iteration # 16     ecut=   100.00 Ry     beta= 0.40
     Davidson diagonalization with overlap
     ethr =  3.53E-07,  avg # of iterations =  4.8

     negative rho (up, down):  0.000E+00 8.010E-04

     total cpu time spent up to now is     7771.8 secs

     total energy              =   -2126.01911932 Ry
     estimated scf accuracy    <       0.00023994 Ry

     total magnetization       =    19.00 Bohr mag/cell
     absolute magnetization    =    19.04 Bohr mag/cell

     iteration # 17     ecut=   100.00 Ry     beta= 0.40
     Davidson diagonalization with overlap
     ethr =  1.27E-07,  avg # of iterations =  1.2

     negative rho (up, down):  0.000E+00 7.970E-04

     total cpu time spent up to now is     8138.9 secs

     total energy              =   -2126.01912605 Ry
     estimated scf accuracy    <       0.00005634 Ry

     total magnetization       =    19.00 Bohr mag/cell
     absolute magnetization    =    19.04 Bohr mag/cell

     iteration # 18     ecut=   100.00 Ry     beta= 0.40
     Davidson diagonalization with overlap
     ethr =  2.98E-08,  avg # of iterations =  1.4

     negative rho (up, down):  0.000E+00 7.928E-04

     total cpu time spent up to now is     8517.4 secs

     total energy              =   -2126.01913026 Ry
     estimated scf accuracy    <       0.00001328 Ry

     total magnetization       =    19.00 Bohr mag/cell
     absolute magnetization    =    19.04 Bohr mag/cell

     iteration # 19     ecut=   100.00 Ry     beta= 0.40
     Davidson diagonalization with overlap
     ethr =  7.03E-09,  avg # of iterations =  1.9

     negative rho (up, down):  0.000E+00 7.897E-04

     total cpu time spent up to now is     8926.5 secs

     total energy              =   -2126.01913165 Ry
     estimated scf accuracy    <       0.00001606 Ry

     total magnetization       =    19.00 Bohr mag/cell
     absolute magnetization    =    19.04 Bohr mag/cell

     iteration # 20     ecut=   100.00 Ry     beta= 0.40
     Davidson diagonalization with overlap
     ethr =  7.03E-09,  avg # of iterations =  1.0

     negative rho (up, down):  0.000E+00 7.888E-04

     total cpu time spent up to now is     9282.4 secs

     total energy              =   -2126.01913214 Ry
     estimated scf accuracy    <       0.00000253 Ry

     total magnetization       =    19.00 Bohr mag/cell
     absolute magnetization    =    19.04 Bohr mag/cell

     iteration # 21     ecut=   100.00 Ry     beta= 0.40
     Davidson diagonalization with overlap
     ethr =  1.34E-09,  avg # of iterations =  1.3

     negative rho (up, down):  0.000E+00 7.887E-04

     total cpu time spent up to now is     9657.3 secs

     total energy              =   -2126.01913236 Ry
     estimated scf accuracy    <       0.00000044 Ry

     total magnetization       =    19.00 Bohr mag/cell
     absolute magnetization    =    19.04 Bohr mag/cell

     iteration # 22     ecut=   100.00 Ry     beta= 0.40
     Davidson diagonalization with overlap
     ethr =  2.31E-10,  avg # of iterations =  3.1

     negative rho (up, down):  0.000E+00 7.890E-04

     total cpu time spent up to now is    10117.9 secs

     total energy              =   -2126.01913240 Ry
     estimated scf accuracy    <       0.00000061 Ry

     total magnetization       =    19.00 Bohr mag/cell
     absolute magnetization    =    19.04 Bohr mag/cell

     iteration # 23     ecut=   100.00 Ry     beta= 0.40
     Davidson diagonalization with overlap
     ethr =  2.31E-10,  avg # of iterations =  2.0

     negative rho (up, down):  0.000E+00 7.893E-04

     total cpu time spent up to now is    10554.4 secs

     total energy              =   -2126.01913247 Ry
     estimated scf accuracy    <       0.00000002 Ry

     total magnetization       =    19.00 Bohr mag/cell
     absolute magnetization    =    19.04 Bohr mag/cell

     iteration # 24     ecut=   100.00 Ry     beta= 0.40
     Davidson diagonalization with overlap
     ethr =  1.27E-11,  avg # of iterations =  5.0

     negative rho (up, down):  0.000E+00 7.893E-04

     total cpu time spent up to now is    11247.2 secs

     total energy              =   -2126.01913248 Ry
     estimated scf accuracy    <       0.00000001 Ry

     total magnetization       =    19.00 Bohr mag/cell
     absolute magnetization    =    19.04 Bohr mag/cell

     iteration # 25     ecut=   100.00 Ry     beta= 0.40
     Davidson diagonalization with overlap
     ethr =  7.20E-12,  avg # of iterations =  2.0

     negative rho (up, down):  0.000E+00 7.893E-04

     total cpu time spent up to now is    11673.0 secs

     total energy              =   -2126.01913249 Ry
     estimated scf accuracy    <       0.00000003 Ry

     total magnetization       =    19.00 Bohr mag/cell
     absolute magnetization    =    19.04 Bohr mag/cell

     iteration # 26     ecut=   100.00 Ry     beta= 0.40
     Davidson diagonalization with overlap
     ethr =  7.20E-12,  avg # of iterations =  1.0

     negative rho (up, down):  0.000E+00 7.894E-04

     total cpu time spent up to now is    12029.7 secs

     total energy              =   -2126.01913249 Ry
     estimated scf accuracy    <          9.1E-09 Ry

     total magnetization       =    19.00 Bohr mag/cell
     absolute magnetization    =    19.04 Bohr mag/cell

     iteration # 27     ecut=   100.00 Ry     beta= 0.40
     Davidson diagonalization with overlap
     ethr =  4.81E-12,  avg # of iterations =  1.0

     negative rho (up, down):  0.000E+00 7.894E-04

     total cpu time spent up to now is    12384.9 secs

     total energy              =   -2126.01913249 Ry
     estimated scf accuracy    <          3.0E-09 Ry

     total magnetization       =    19.00 Bohr mag/cell
     absolute magnetization    =    19.04 Bohr mag/cell

     iteration # 28     ecut=   100.00 Ry     beta= 0.40
     Davidson diagonalization with overlap
     ethr =  1.57E-12,  avg # of iterations =  2.0

     negative rho (up, down):  0.000E+00 7.894E-04

     total cpu time spent up to now is    12817.9 secs

     total energy              =   -2126.01913249 Ry
     estimated scf accuracy    <          2.5E-09 Ry

     total magnetization       =    19.00 Bohr mag/cell
     absolute magnetization    =    19.04 Bohr mag/cell

     iteration # 29     ecut=   100.00 Ry     beta= 0.40
     Davidson diagonalization with overlap
     ethr =  1.30E-12,  avg # of iterations =  1.2

     negative rho (up, down):  0.000E+00 7.893E-04

     total cpu time spent up to now is    13183.7 secs

     total energy              =   -2126.01913249 Ry
     estimated scf accuracy    <          1.1E-09 Ry

     total magnetization       =    19.00 Bohr mag/cell
     absolute magnetization    =    19.04 Bohr mag/cell

     iteration # 30     ecut=   100.00 Ry     beta= 0.40
     Davidson diagonalization with overlap
     ethr =  5.95E-13,  avg # of iterations =  2.0

     negative rho (up, down):  0.000E+00 7.893E-04

     total cpu time spent up to now is    13618.8 secs

     total energy              =   -2126.01913249 Ry
     estimated scf accuracy    <          1.2E-09 Ry

     total magnetization       =    19.00 Bohr mag/cell
     absolute magnetization    =    19.04 Bohr mag/cell

     iteration # 31     ecut=   100.00 Ry     beta= 0.40
     Davidson diagonalization with overlap
     ethr =  5.95E-13,  avg # of iterations =  1.5

     negative rho (up, down):  0.000E+00 7.893E-04

     total cpu time spent up to now is    14002.3 secs

     total energy              =   -2126.01913249 Ry
     estimated scf accuracy    <          2.4E-10 Ry

     total magnetization       =    19.00 Bohr mag/cell
     absolute magnetization    =    19.04 Bohr mag/cell

     iteration # 32     ecut=   100.00 Ry     beta= 0.40
     Davidson diagonalization with overlap
     ethr =  1.25E-13,  avg # of iterations =  3.1

     negative rho (up, down):  0.000E+00 7.893E-04

     Magnetic moment per site:
     atom:    1    charge:    7.8602    magn:    0.0006    constr:    0.0000
     atom:    2    charge:   12.6982    magn:    3.6124    constr:    0.0000
     atom:    3    charge:   12.7024    magn:    3.6040    constr:    0.0000
     atom:    4    charge:   12.7441    magn:    3.4856    constr:    0.0000
     atom:    5    charge:   12.7051    magn:    3.6030    constr:    0.0000
     atom:    6    charge:    0.7494    magn:    0.0109    constr:    0.0000
     atom:    7    charge:    0.7521    magn:    0.0086    constr:    0.0000
     atom:    8    charge:    0.7524    magn:    0.0116    constr:    0.0000
     atom:    9    charge:    0.7465    magn:    0.0093    constr:    0.0000
     atom:   10    charge:    4.0208    magn:    0.1338    constr:    0.0000
     atom:   11    charge:    4.0368    magn:    0.0911    constr:    0.0000
     atom:   12    charge:    4.0219    magn:    0.1233    constr:    0.0000
     atom:   13    charge:    4.0193    magn:    0.1094    constr:    0.0000
     atom:   14    charge:    4.0668    magn:    0.1074    constr:    0.0000
     atom:   15    charge:    4.0734    magn:    0.1199    constr:    0.0000
     atom:   16    charge:    4.0641    magn:    0.0762    constr:    0.0000
     atom:   17    charge:    4.0680    magn:    0.1293    constr:    0.0000
     atom:   18    charge:    4.0325    magn:    0.1470    constr:    0.0000
     atom:   19    charge:    4.0356    magn:    0.1304    constr:    0.0000
     atom:   20    charge:    4.0401    magn:    0.1421    constr:    0.0000
     atom:   21    charge:    4.0307    magn:    0.1209    constr:    0.0000
     atom:   22    charge:    4.0401    magn:    0.1421    constr:    0.0000
     atom:   23    charge:    4.0307    magn:    0.1209    constr:    0.0000
     atom:   24    charge:    4.0325    magn:    0.1470    constr:    0.0000
     atom:   25    charge:    4.0356    magn:    0.1304    constr:    0.0000

     total cpu time spent up to now is    14468.5 secs

     End of self-consistent calculation

 ------ SPIN UP ------------


          k = 0.0000 0.0000 0.0000 ( 32925 PWs)   bands (ev):

   -83.7950 -83.7614 -83.7579 -83.2968 -49.9346 -49.8703 -49.8343 -49.7531
   -49.7528 -49.7184 -49.7126 -49.6972 -49.6634 -49.6426 -49.2414 -49.0678
   -43.8753 -15.9901 -15.8910 -15.8383 -15.8254 -15.5808 -15.3902 -15.2736
   -13.3123 -13.1484 -12.9850 -12.9622 -12.7701 -12.6564 -12.6436 -12.6194
   -12.5360 -12.4203 -12.4119 -12.3022  -3.2361  -2.7308  -2.5497  -2.0625
    -1.5790  -1.1575  -1.0584  -0.8849  -0.8655  -0.6612  -0.4938  -0.4383
    -0.3229  -0.1279   0.0030   0.2843   0.5221   0.5886   1.1803   1.1888
     1.2675   1.3465   1.5037   1.5370   1.6650   1.6668   1.9743   2.0474
     2.2749   2.4348   2.4357   2.5663   2.5797   2.5849   2.6739   2.7128
     2.8010   3.0261   3.2784   3.3306   3.3496   3.4857   3.5092   3.6309
     3.7676   3.8943   4.0183   4.1263   4.2557   4.3154   4.4691   4.4700
     4.5526   4.7044   4.7226   4.7569   4.8544   4.8997   5.0257   5.1212
     5.1460   5.4355   5.5914   5.7942   6.0140   6.1936   6.3045   6.4320
    11.0046  13.1220  13.2488  14.0498  14.2530  14.3879  15.1598  15.2465
    15.2741  15.4616

     occupation numbers 
     1.0000   1.0000   1.0000   1.0000   1.0000   1.0000   1.0000   1.0000
     1.0000   1.0000   1.0000   1.0000   1.0000   1.0000   1.0000   1.0000
     1.0000   1.0000   1.0000   1.0000   1.0000   1.0000   1.0000   1.0000
     1.0000   1.0000   1.0000   1.0000   1.0000   1.0000   1.0000   1.0000
     1.0000   1.0000   1.0000   1.0000   1.0000   1.0000   1.0000   1.0000
     1.0000   1.0000   1.0000   1.0000   1.0000   1.0000   1.0000   1.0000
     1.0000   1.0000   1.0000   1.0000   1.0000   1.0000   1.0000   1.0000
     1.0000   1.0000   1.0000   1.0000   1.0000   1.0000   1.0000   1.0000
     1.0000   1.0000   1.0000   1.0000   1.0000   1.0000   1.0000   1.0000
     1.0000   1.0000   1.0000   1.0000   1.0000   1.0000   1.0000   1.0000
     1.0000   1.0000   1.0000   1.0000   1.0000   1.0000   1.0000   1.0000
     1.0000   1.0000   1.0000   1.0000   1.0000   1.0000   1.0000   1.0000
     1.0000   1.0000   1.0000   1.0000   1.0000   1.0000   1.0000   1.0000
     0.0000   0.0000   0.0000   0.0000   0.0000   0.0000   0.0000   0.0000
     0.0000   0.0000

          k = 0.0000 0.0000 0.2220 ( 32901 PWs)   bands (ev):

   -83.7950 -83.7614 -83.7579 -83.2968 -49.9346 -49.8703 -49.8343 -49.7531
   -49.7528 -49.7184 -49.7126 -49.6972 -49.6634 -49.6426 -49.2414 -49.0678
   -43.8753 -15.9974 -15.9129 -15.8253 -15.8064 -15.5695 -15.3843 -15.2727
   -13.3135 -13.1479 -12.9980 -12.9567 -12.7662 -12.6554 -12.6524 -12.6218
   -12.5394 -12.4241 -12.4240 -12.3123  -3.2066  -2.7177  -2.5464  -2.0833
    -1.5224  -1.1366  -1.0645  -0.8761  -0.8585  -0.6787  -0.5103  -0.3643
    -0.3154  -0.0964  -0.0441   0.3141   0.5390   0.5478   1.1744   1.1902
     1.2764   1.3586   1.5158   1.5598   1.6433   1.6682   1.9392   2.0904
     2.2430   2.3996   2.4058   2.5111   2.5500   2.5687   2.6622   2.6903
     2.9477   3.0002   3.1962   3.3008   3.3706   3.4660   3.5174   3.5969
     3.7600   3.8513   4.0672   4.1603   4.2749   4.3165   4.3997   4.4867
     4.5133   4.6915   4.6933   4.7418   4.8907   4.9022   5.0930   5.1222
     5.2089   5.4227   5.6270   5.7809   6.0083   6.1707   6.2748   6.4067
    11.1607  13.2002  13.3312  14.0580  14.2821  14.3748  15.1034  15.1269
    15.2662  15.4012

     occupation numbers 
     1.0000   1.0000   1.0000   1.0000   1.0000   1.0000   1.0000   1.0000
     1.0000   1.0000   1.0000   1.0000   1.0000   1.0000   1.0000   1.0000
     1.0000   1.0000   1.0000   1.0000   1.0000   1.0000   1.0000   1.0000
     1.0000   1.0000   1.0000   1.0000   1.0000   1.0000   1.0000   1.0000
     1.0000   1.0000   1.0000   1.0000   1.0000   1.0000   1.0000   1.0000
     1.0000   1.0000   1.0000   1.0000   1.0000   1.0000   1.0000   1.0000
     1.0000   1.0000   1.0000   1.0000   1.0000   1.0000   1.0000   1.0000
     1.0000   1.0000   1.0000   1.0000   1.0000   1.0000   1.0000   1.0000
     1.0000   1.0000   1.0000   1.0000   1.0000   1.0000   1.0000   1.0000
     1.0000   1.0000   1.0000   1.0000   1.0000   1.0000   1.0000   1.0000
     1.0000   1.0000   1.0000   1.0000   1.0000   1.0000   1.0000   1.0000
     1.0000   1.0000   1.0000   1.0000   1.0000   1.0000   1.0000   1.0000
     1.0000   1.0000   1.0000   1.0000   1.0000   1.0000   1.0000   1.0000
     0.0000   0.0000   0.0000   0.0000   0.0000   0.0000   0.0000   0.0000
     0.0000   0.0000

          k = 0.0000 0.0000 0.4441 ( 32914 PWs)   bands (ev):

   -83.7950 -83.7614 -83.7579 -83.2968 -49.9346 -49.8703 -49.8343 -49.7531
   -49.7528 -49.7184 -49.7126 -49.6972 -49.6634 -49.6426 -49.2414 -49.0679
   -43.8753 -16.0220 -15.9270 -15.8251 -15.7608 -15.5391 -15.3689 -15.2726
   -13.3171 -13.1466 -13.0225 -12.9520 -12.7556 -12.6803 -12.6419 -12.6319
   -12.5485 -12.4539 -12.4346 -12.3378  -3.1231  -2.6932  -2.5332  -2.1481
    -1.3684  -1.1087  -1.0531  -0.8580  -0.8458  -0.7002  -0.5104  -0.3012
    -0.2112  -0.1534  -0.0156   0.4029   0.4297   0.5935   1.1429   1.2238
     1.3061   1.3805   1.5373   1.5826   1.6635   1.6654   1.8406   2.1552
     2.2163   2.3296   2.3692   2.3938   2.4881   2.5141   2.6031   2.6908
     2.8189   3.0120   3.2092   3.2528   3.3929   3.3948   3.4860   3.6462
     3.6793   3.8553   4.1027   4.1652   4.2058   4.3351   4.3614   4.4236
     4.5352   4.5886   4.6804   4.8016   4.9625   4.9707   5.1227   5.2189
     5.3464   5.3913   5.6958   5.7671   5.9934   6.1149   6.1849   6.3301
    11.5822  13.4063  13.5568  14.0965  14.3205  14.4119  14.8862  14.9079
    15.1328  15.2539

     occupation numbers 
     1.0000   1.0000   1.0000   1.0000   1.0000   1.0000   1.0000   1.0000
     1.0000   1.0000   1.0000   1.0000   1.0000   1.0000   1.0000   1.0000
     1.0000   1.0000   1.0000   1.0000   1.0000   1.0000   1.0000   1.0000
     1.0000   1.0000   1.0000   1.0000   1.0000   1.0000   1.0000   1.0000
     1.0000   1.0000   1.0000   1.0000   1.0000   1.0000   1.0000   1.0000
     1.0000   1.0000   1.0000   1.0000   1.0000   1.0000   1.0000   1.0000
     1.0000   1.0000   1.0000   1.0000   1.0000   1.0000   1.0000   1.0000
     1.0000   1.0000   1.0000   1.0000   1.0000   1.0000   1.0000   1.0000
     1.0000   1.0000   1.0000   1.0000   1.0000   1.0000   1.0000   1.0000
     1.0000   1.0000   1.0000   1.0000   1.0000   1.0000   1.0000   1.0000
     1.0000   1.0000   1.0000   1.0000   1.0000   1.0000   1.0000   1.0000
     1.0000   1.0000   1.0000   1.0000   1.0000   1.0000   1.0000   1.0000
     1.0000   1.0000   1.0000   1.0000   1.0000   1.0000   1.0000   1.0000
     0.0000   0.0000   0.0000   0.0000   0.0000   0.0000   0.0000   0.0000
     0.0000   0.0000

          k = 0.0000 0.0000 0.6661 ( 32938 PWs)   bands (ev):

   -83.7950 -83.7614 -83.7579 -83.2968 -49.9346 -49.8703 -49.8343 -49.7531
   -49.7528 -49.7184 -49.7126 -49.6972 -49.6634 -49.6426 -49.2414 -49.0679
   -43.8753 -16.0511 -15.9264 -15.8250 -15.7237 -15.5008 -15.3486 -15.2784
   -13.3225 -13.1458 -13.0472 -12.9517 -12.7422 -12.7034 -12.6475 -12.6291
   -12.5594 -12.4860 -12.4483 -12.3667  -3.0010  -2.6900  -2.5069  -2.2448
    -1.2002  -1.1012  -0.9937  -0.8662  -0.7857  -0.7037  -0.5022  -0.3821
    -0.1706  -0.0428   0.0871   0.2597   0.5502   0.7084   1.1106   1.2855
     1.3655   1.3736   1.5172   1.6096   1.6307   1.7043   1.7445   2.0969
     2.2310   2.2310   2.3177   2.3445   2.4547   2.4732   2.5153   2.5696
     2.7108   2.8469   3.1907   3.2248   3.2810   3.4723   3.5876   3.6261
     3.7400   3.8842   3.9359   4.0917   4.2076   4.2646   4.3691   4.3970
     4.5435   4.5525   4.7321   4.8540   5.0311   5.0611   5.2421   5.3114
     5.3269   5.5392   5.7391   5.7924   5.9773   6.0344   6.0561   6.2029
    12.1681  13.6729  13.8250  14.1294  14.2436  14.5225  14.6902  14.7499
    14.9129  14.9986

     occupation numbers 
     1.0000   1.0000   1.0000   1.0000   1.0000   1.0000   1.0000   1.0000
     1.0000   1.0000   1.0000   1.0000   1.0000   1.0000   1.0000   1.0000
     1.0000   1.0000   1.0000   1.0000   1.0000   1.0000   1.0000   1.0000
     1.0000   1.0000   1.0000   1.0000   1.0000   1.0000   1.0000   1.0000
     1.0000   1.0000   1.0000   1.0000   1.0000   1.0000   1.0000   1.0000
     1.0000   1.0000   1.0000   1.0000   1.0000   1.0000   1.0000   1.0000
     1.0000   1.0000   1.0000   1.0000   1.0000   1.0000   1.0000   1.0000
     1.0000   1.0000   1.0000   1.0000   1.0000   1.0000   1.0000   1.0000
     1.0000   1.0000   1.0000   1.0000   1.0000   1.0000   1.0000   1.0000
     1.0000   1.0000   1.0000   1.0000   1.0000   1.0000   1.0000   1.0000
     1.0000   1.0000   1.0000   1.0000   1.0000   1.0000   1.0000   1.0000
     1.0000   1.0000   1.0000   1.0000   1.0000   1.0000   1.0000   1.0000
     1.0000   1.0000   1.0000   1.0000   1.0000   1.0000   1.0000   1.0000
     0.0000   0.0000   0.0000   0.0000   0.0000   0.0000   0.0000   0.0000
     0.0000   0.0000

          k = 0.0000 0.0000 0.8882 ( 32928 PWs)   bands (ev):

   -83.7950 -83.7614 -83.7579 -83.2968 -49.9346 -49.8703 -49.8343 -49.7531
   -49.7528 -49.7184 -49.7126 -49.6972 -49.6634 -49.6426 -49.2414 -49.0679
   -43.8753 -16.0689 -15.9236 -15.8248 -15.7028 -15.4731 -15.3290 -15.2911
   -13.3269 -13.1454 -13.0628 -12.9530 -12.7322 -12.7158 -12.6603 -12.6207
   -12.5664 -12.5051 -12.4586 -12.3855  -2.8726  -2.7327  -2.4734  -2.3328
    -1.1591  -1.0538  -0.9362  -0.8543  -0.6941  -0.6839  -0.5295  -0.5176
    -0.0710   0.0641   0.0817   0.1584   0.7242   0.9154   1.0823   1.2111
     1.3673   1.4488   1.4843   1.5527   1.5800   1.6510   1.7901   1.9669
     2.1536   2.2530   2.2664   2.3178   2.3261   2.4573   2.5100   2.5698
     2.7632   2.8069   3.0255   3.0305   3.3337   3.4899   3.6158   3.7123
     3.8520   3.8620   3.9189   3.9945   4.1030   4.1882   4.3829   4.4077
     4.5434   4.5449   4.8160   4.9040   5.0499   5.0660   5.2572   5.3549
     5.5173   5.7227   5.7605   5.8190   5.8367   5.9675   6.0222   6.0482
    12.8210  13.4622  13.9691  14.2052  14.3394  14.5539  14.6480  14.7105
    14.7908  14.8973

     occupation numbers 
     1.0000   1.0000   1.0000   1.0000   1.0000   1.0000   1.0000   1.0000
     1.0000   1.0000   1.0000   1.0000   1.0000   1.0000   1.0000   1.0000
     1.0000   1.0000   1.0000   1.0000   1.0000   1.0000   1.0000   1.0000
     1.0000   1.0000   1.0000   1.0000   1.0000   1.0000   1.0000   1.0000
     1.0000   1.0000   1.0000   1.0000   1.0000   1.0000   1.0000   1.0000
     1.0000   1.0000   1.0000   1.0000   1.0000   1.0000   1.0000   1.0000
     1.0000   1.0000   1.0000   1.0000   1.0000   1.0000   1.0000   1.0000
     1.0000   1.0000   1.0000   1.0000   1.0000   1.0000   1.0000   1.0000
     1.0000   1.0000   1.0000   1.0000   1.0000   1.0000   1.0000   1.0000
     1.0000   1.0000   1.0000   1.0000   1.0000   1.0000   1.0000   1.0000
     1.0000   1.0000   1.0000   1.0000   1.0000   1.0000   1.0000   1.0000
     1.0000   1.0000   1.0000   1.0000   1.0000   1.0000   1.0000   1.0000
     1.0000   1.0000   1.0000   1.0000   1.0000   1.0000   1.0000   1.0000
     0.0000   0.0000   0.0000   0.0000   0.0000   0.0000   0.0000   0.0000
     0.0000   0.0000

          k = 0.0000 0.2391 0.0000 ( 32913 PWs)   bands (ev):

   -83.7950 -83.7614 -83.7579 -83.2968 -49.9346 -49.8703 -49.8343 -49.7531
   -49.7528 -49.7184 -49.7126 -49.6972 -49.6634 -49.6426 -49.2414 -49.0678
   -43.8753 -15.9890 -15.8899 -15.8437 -15.8059 -15.5739 -15.3858 -15.2948
   -13.3151 -13.1489 -13.0102 -12.9640 -12.7719 -12.6909 -12.6219 -12.6121
   -12.5260 -12.4227 -12.4026 -12.2976  -3.2107  -2.7526  -2.5180  -2.0652
    -1.5525  -1.1681  -1.0658  -0.8814  -0.8247  -0.6609  -0.4901  -0.4387
    -0.2480  -0.1334   0.0499   0.3146   0.4620   0.6269   1.1439   1.2211
     1.2481   1.3259   1.3997   1.5137   1.5385   1.7758   2.0178   2.0936
     2.2855   2.4208   2.4312   2.4988   2.5481   2.5888   2.6407   2.6761
     2.8486   3.0221   3.2627   3.3534   3.3583   3.5029   3.5403   3.5751
     3.8161   3.8991   3.9507   4.1118   4.1722   4.3009   4.4318   4.4674
     4.5152   4.6100   4.7126   4.8072   4.8877   4.9490   5.0557   5.1294
     5.1564   5.4047   5.6791   5.7339   5.9699   6.0877   6.4187   6.4775
    11.1630  13.2046  13.3382  13.9734  14.3063  14.4783  15.0814  15.1765
    15.3409  15.4018

     occupation numbers 
     1.0000   1.0000   1.0000   1.0000   1.0000   1.0000   1.0000   1.0000
     1.0000   1.0000   1.0000   1.0000   1.0000   1.0000   1.0000   1.0000
     1.0000   1.0000   1.0000   1.0000   1.0000   1.0000   1.0000   1.0000
     1.0000   1.0000   1.0000   1.0000   1.0000   1.0000   1.0000   1.0000
     1.0000   1.0000   1.0000   1.0000   1.0000   1.0000   1.0000   1.0000
     1.0000   1.0000   1.0000   1.0000   1.0000   1.0000   1.0000   1.0000
     1.0000   1.0000   1.0000   1.0000   1.0000   1.0000   1.0000   1.0000
     1.0000   1.0000   1.0000   1.0000   1.0000   1.0000   1.0000   1.0000
     1.0000   1.0000   1.0000   1.0000   1.0000   1.0000   1.0000   1.0000
     1.0000   1.0000   1.0000   1.0000   1.0000   1.0000   1.0000   1.0000
     1.0000   1.0000   1.0000   1.0000   1.0000   1.0000   1.0000   1.0000
     1.0000   1.0000   1.0000   1.0000   1.0000   1.0000   1.0000   1.0000
     1.0000   1.0000   1.0000   1.0000   1.0000   1.0000   1.0000   1.0000
     0.0000   0.0000   0.0000   0.0000   0.0000   0.0000   0.0000   0.0000
     0.0000   0.0000

          k = 0.0000 0.2391 0.2220 ( 32922 PWs)   bands (ev):

   -83.7950 -83.7614 -83.7579 -83.2968 -49.9346 -49.8703 -49.8343 -49.7531
   -49.7528 -49.7184 -49.7126 -49.6972 -49.6634 -49.6426 -49.2414 -49.0679
   -43.8753 -15.9957 -15.9097 -15.8349 -15.7861 -15.5624 -15.3804 -15.2928
   -13.3160 -13.1485 -13.0179 -12.9613 -12.7729 -12.6939 -12.6282 -12.6165
   -12.5287 -12.4261 -12.4114 -12.3064  -3.1817  -2.7381  -2.5160  -2.0844
    -1.4992  -1.1467  -1.0672  -0.8730  -0.8159  -0.6768  -0.4998  -0.3755
    -0.2369  -0.1062   0.0025   0.3229   0.4534   0.6273   1.1232   1.2203
     1.2564   1.3307   1.4410   1.5281   1.5370   1.7645   2.0376   2.0782
     2.2240   2.3693   2.4148   2.4869   2.5453   2.5703   2.6216   2.6680
     2.9656   3.0077   3.1975   3.3223   3.3749   3.4770   3.5012   3.5743
     3.7767   3.8972   3.9857   4.1531   4.1871   4.2754   4.4021   4.4410
     4.4816   4.6173   4.7175   4.7962   4.8859   4.9616   5.1017   5.1405
     5.2078   5.3964   5.7060   5.7230   5.9437   6.0830   6.3980   6.4592
    11.3136  13.2826  13.4198  14.0111  14.3175  14.4554  14.9827  15.1752
    15.2483  15.3312

     occupation numbers 
     1.0000   1.0000   1.0000   1.0000   1.0000   1.0000   1.0000   1.0000
     1.0000   1.0000   1.0000   1.0000   1.0000   1.0000   1.0000   1.0000
     1.0000   1.0000   1.0000   1.0000   1.0000   1.0000   1.0000   1.0000
     1.0000   1.0000   1.0000   1.0000   1.0000   1.0000   1.0000   1.0000
     1.0000   1.0000   1.0000   1.0000   1.0000   1.0000   1.0000   1.0000
     1.0000   1.0000   1.0000   1.0000   1.0000   1.0000   1.0000   1.0000
     1.0000   1.0000   1.0000   1.0000   1.0000   1.0000   1.0000   1.0000
     1.0000   1.0000   1.0000   1.0000   1.0000   1.0000   1.0000   1.0000
     1.0000   1.0000   1.0000   1.0000   1.0000   1.0000   1.0000   1.0000
     1.0000   1.0000   1.0000   1.0000   1.0000   1.0000   1.0000   1.0000
     1.0000   1.0000   1.0000   1.0000   1.0000   1.0000   1.0000   1.0000
     1.0000   1.0000   1.0000   1.0000   1.0000   1.0000   1.0000   1.0000
     1.0000   1.0000   1.0000   1.0000   1.0000   1.0000   1.0000   1.0000
     0.0000   0.0000   0.0000   0.0000   0.0000   0.0000   0.0000   0.0000
     0.0000   0.0000

          k = 0.0000 0.2391 0.4441 ( 32913 PWs)   bands (ev):

   -83.7950 -83.7614 -83.7579 -83.2968 -49.9346 -49.8703 -49.8343 -49.7531
   -49.7528 -49.7184 -49.7126 -49.6972 -49.6634 -49.6426 -49.2414 -49.0679
   -43.8753 -16.0186 -15.9245 -15.8309 -15.7466 -15.5314 -15.3664 -15.2894
   -13.3193 -13.1478 -13.0362 -12.9569 -12.7764 -12.7015 -12.6457 -12.6247
   -12.5352 -12.4387 -12.4286 -12.3288  -3.0995  -2.7082  -2.5075  -2.1469
    -1.3524  -1.1094  -1.0511  -0.8653  -0.7876  -0.6937  -0.4980  -0.2707
    -0.1940  -0.1105  -0.0214   0.3087   0.4652   0.6351   1.0822   1.2291
     1.2558   1.3567   1.5069   1.5501   1.6109   1.7280   1.9755   2.1121
     2.1610   2.2930   2.3598   2.4392   2.4882   2.5403   2.5867   2.6576
     2.8396   3.0155   3.2125   3.2883   3.3519   3.4144   3.4689   3.5940
     3.6933   3.9034   4.0853   4.1227   4.1797   4.2267   4.3614   4.4079
     4.4549   4.6209   4.7211   4.8071   4.8926   5.0361   5.1291   5.2240
     5.3292   5.3683   5.6689   5.7950   5.8817   6.0714   6.3379   6.4060
    11.7219  13.4876  13.6428  14.1164  14.3462  14.4493  14.8026  14.9511
    15.0960  15.2724

     occupation numbers 
     1.0000   1.0000   1.0000   1.0000   1.0000   1.0000   1.0000   1.0000
     1.0000   1.0000   1.0000   1.0000   1.0000   1.0000   1.0000   1.0000
     1.0000   1.0000   1.0000   1.0000   1.0000   1.0000   1.0000   1.0000
     1.0000   1.0000   1.0000   1.0000   1.0000   1.0000   1.0000   1.0000
     1.0000   1.0000   1.0000   1.0000   1.0000   1.0000   1.0000   1.0000
     1.0000   1.0000   1.0000   1.0000   1.0000   1.0000   1.0000   1.0000
     1.0000   1.0000   1.0000   1.0000   1.0000   1.0000   1.0000   1.0000
     1.0000   1.0000   1.0000   1.0000   1.0000   1.0000   1.0000   1.0000
     1.0000   1.0000   1.0000   1.0000   1.0000   1.0000   1.0000   1.0000
     1.0000   1.0000   1.0000   1.0000   1.0000   1.0000   1.0000   1.0000
     1.0000   1.0000   1.0000   1.0000   1.0000   1.0000   1.0000   1.0000
     1.0000   1.0000   1.0000   1.0000   1.0000   1.0000   1.0000   1.0000
     1.0000   1.0000   1.0000   1.0000   1.0000   1.0000   1.0000   1.0000
     0.0000   0.0000   0.0000   0.0000   0.0000   0.0000   0.0000   0.0000
     0.0000   0.0000

          k = 0.0000 0.2391 0.6661 ( 32939 PWs)   bands (ev):

   -83.7950 -83.7614 -83.7579 -83.2968 -49.9346 -49.8703 -49.8343 -49.7531
   -49.7528 -49.7184 -49.7126 -49.6972 -49.6634 -49.6426 -49.2414 -49.0679
   -43.8753 -16.0468 -15.9250 -15.8295 -15.7122 -15.4927 -15.3485 -15.2903
   -13.3243 -13.1478 -13.0565 -12.9546 -12.7808 -12.7110 -12.6686 -12.6294
   -12.5414 -12.4607 -12.4382 -12.3543  -2.9800  -2.6941  -2.4896  -2.2429
    -1.1871  -1.0917  -0.9864  -0.8690  -0.7332  -0.6892  -0.4889  -0.3391
    -0.1490  -0.0505   0.0878   0.2177   0.5549   0.6903   1.0263   1.1964
     1.2968   1.4277   1.5279   1.6021   1.6649   1.7562   1.8764   2.0647
     2.1256   2.2330   2.3092   2.3903   2.4300   2.5073   2.5293   2.5756
     2.6742   2.8439   3.1553   3.2457   3.3059   3.4753   3.5429   3.6421
     3.6534   3.8981   3.9973   4.1096   4.1544   4.2236   4.2741   4.4350
     4.4647   4.5857   4.7658   4.8654   4.9926   5.0608   5.1827   5.3057
     5.3278   5.4744   5.6381   5.7750   5.9048   6.0598   6.2479   6.3277
    12.2931  13.7489  13.9087  14.2184  14.2899  14.5519  14.6471  14.7351
    14.8992  14.9520

     occupation numbers 
     1.0000   1.0000   1.0000   1.0000   1.0000   1.0000   1.0000   1.0000
     1.0000   1.0000   1.0000   1.0000   1.0000   1.0000   1.0000   1.0000
     1.0000   1.0000   1.0000   1.0000   1.0000   1.0000   1.0000   1.0000
     1.0000   1.0000   1.0000   1.0000   1.0000   1.0000   1.0000   1.0000
     1.0000   1.0000   1.0000   1.0000   1.0000   1.0000   1.0000   1.0000
     1.0000   1.0000   1.0000   1.0000   1.0000   1.0000   1.0000   1.0000
     1.0000   1.0000   1.0000   1.0000   1.0000   1.0000   1.0000   1.0000
     1.0000   1.0000   1.0000   1.0000   1.0000   1.0000   1.0000   1.0000
     1.0000   1.0000   1.0000   1.0000   1.0000   1.0000   1.0000   1.0000
     1.0000   1.0000   1.0000   1.0000   1.0000   1.0000   1.0000   1.0000
     1.0000   1.0000   1.0000   1.0000   1.0000   1.0000   1.0000   1.0000
     1.0000   1.0000   1.0000   1.0000   1.0000   1.0000   1.0000   1.0000
     1.0000   1.0000   1.0000   1.0000   1.0000   1.0000   1.0000   1.0000
     0.0000   0.0000   0.0000   0.0000   0.0000   0.0000   0.0000   0.0000
     0.0000   0.0000

          k = 0.0000 0.2391 0.8882 ( 32940 PWs)   bands (ev):

   -83.7950 -83.7614 -83.7579 -83.2968 -49.9346 -49.8703 -49.8343 -49.7531
   -49.7528 -49.7184 -49.7126 -49.6972 -49.6634 -49.6426 -49.2414 -49.0679
   -43.8753 -16.0643 -15.9227 -15.8289 -15.6925 -15.4649 -15.3327 -15.2976
   -13.3285 -13.1482 -13.0698 -12.9543 -12.7823 -12.7221 -12.6806 -12.6319
   -12.5439 -12.4759 -12.4421 -12.3715  -2.8571  -2.7225  -2.4671  -2.3281
    -1.1379  -1.0423  -0.9285  -0.8580  -0.6749  -0.6394  -0.5047  -0.4780
    -0.0757   0.0181   0.0985   0.1865   0.6748   0.8421   0.9609   1.0666
     1.3751   1.5191   1.5506   1.6211   1.6737   1.7346   1.8276   1.9580
     2.0815   2.2110   2.2862   2.3069   2.3742   2.4275   2.5000   2.5429
     2.7097   2.8155   2.9660   3.0997   3.3467   3.4845   3.6007   3.6533
     3.7763   3.9100   3.9329   4.0046   4.1258   4.1918   4.2671   4.4549
     4.4864   4.5595   4.8370   4.9023   5.0288   5.0835   5.2457   5.3145
     5.3697   5.5410   5.6462   5.7234   5.9617   6.0537   6.1638   6.2565
    12.9317  13.5606  14.0550  14.2812  14.4034  14.5628  14.6250  14.7177
    14.7627  14.9343

     occupation numbers 
     1.0000   1.0000   1.0000   1.0000   1.0000   1.0000   1.0000   1.0000
     1.0000   1.0000   1.0000   1.0000   1.0000   1.0000   1.0000   1.0000
     1.0000   1.0000   1.0000   1.0000   1.0000   1.0000   1.0000   1.0000
     1.0000   1.0000   1.0000   1.0000   1.0000   1.0000   1.0000   1.0000
     1.0000   1.0000   1.0000   1.0000   1.0000   1.0000   1.0000   1.0000
     1.0000   1.0000   1.0000   1.0000   1.0000   1.0000   1.0000   1.0000
     1.0000   1.0000   1.0000   1.0000   1.0000   1.0000   1.0000   1.0000
     1.0000   1.0000   1.0000   1.0000   1.0000   1.0000   1.0000   1.0000
     1.0000   1.0000   1.0000   1.0000   1.0000   1.0000   1.0000   1.0000
     1.0000   1.0000   1.0000   1.0000   1.0000   1.0000   1.0000   1.0000
     1.0000   1.0000   1.0000   1.0000   1.0000   1.0000   1.0000   1.0000
     1.0000   1.0000   1.0000   1.0000   1.0000   1.0000   1.0000   1.0000
     1.0000   1.0000   1.0000   1.0000   1.0000   1.0000   1.0000   1.0000
     0.0000   0.0000   0.0000   0.0000   0.0000   0.0000   0.0000   0.0000
     0.0000   0.0000

          k = 0.0000 0.4781 0.0000 ( 32886 PWs)   bands (ev):

   -83.7950 -83.7614 -83.7579 -83.2968 -49.9346 -49.8703 -49.8343 -49.7531
   -49.7528 -49.7184 -49.7126 -49.6972 -49.6634 -49.6426 -49.2414 -49.0678
   -43.8753 -15.9863 -15.8878 -15.8519 -15.7600 -15.5555 -15.3804 -15.3468
   -13.3193 -13.1473 -13.0715 -12.9679 -12.7666 -12.7079 -12.6351 -12.6106
   -12.5069 -12.4079 -12.3877 -12.2904  -3.1412  -2.8145  -2.4328  -2.0918
    -1.4780  -1.1950  -1.0769  -0.9073  -0.7228  -0.6369  -0.4613  -0.3920
    -0.1836  -0.0615   0.1182   0.3394   0.4079   0.7071   1.0267   1.0932
     1.2947   1.3042   1.3587   1.4093   1.5149   1.8773   1.9331   2.1700
     2.2119   2.2399   2.3296   2.3991   2.5955   2.6206   2.7204   2.7536
     2.9559   3.0102   3.2498   3.2976   3.3392   3.4179   3.5283   3.6233
     3.8235   3.8460   3.9199   4.0257   4.1551   4.2535   4.3319   4.3778
     4.4594   4.5320   4.8328   4.8692   4.9387   4.9734   5.0699   5.1703
     5.2010   5.3553   5.5241   5.6995   5.8931   6.2269   6.4887   6.5232
    11.5936  13.4098  13.5539  13.5822  14.5346  14.6969  14.9128  14.9814
    15.2872  15.4574

     occupation numbers 
     1.0000   1.0000   1.0000   1.0000   1.0000   1.0000   1.0000   1.0000
     1.0000   1.0000   1.0000   1.0000   1.0000   1.0000   1.0000   1.0000
     1.0000   1.0000   1.0000   1.0000   1.0000   1.0000   1.0000   1.0000
     1.0000   1.0000   1.0000   1.0000   1.0000   1.0000   1.0000   1.0000
     1.0000   1.0000   1.0000   1.0000   1.0000   1.0000   1.0000   1.0000
     1.0000   1.0000   1.0000   1.0000   1.0000   1.0000   1.0000   1.0000
     1.0000   1.0000   1.0000   1.0000   1.0000   1.0000   1.0000   1.0000
     1.0000   1.0000   1.0000   1.0000   1.0000   1.0000   1.0000   1.0000
     1.0000   1.0000   1.0000   1.0000   1.0000   1.0000   1.0000   1.0000
     1.0000   1.0000   1.0000   1.0000   1.0000   1.0000   1.0000   1.0000
     1.0000   1.0000   1.0000   1.0000   1.0000   1.0000   1.0000   1.0000
     1.0000   1.0000   1.0000   1.0000   1.0000   1.0000   1.0000   1.0000
     1.0000   1.0000   1.0000   1.0000   1.0000   1.0000   1.0000   1.0000
     0.0000   0.0000   0.0000   0.0000   0.0000   0.0000   0.0000   0.0000
     0.0000   0.0000

          k = 0.0000 0.4781 0.2220 ( 32900 PWs)   bands (ev):

   -83.7950 -83.7614 -83.7579 -83.2968 -49.9346 -49.8703 -49.8343 -49.7531
   -49.7528 -49.7184 -49.7126 -49.6972 -49.6634 -49.6426 -49.2414 -49.0679
   -43.8753 -15.9919 -15.9028 -15.8473 -15.7438 -15.5429 -15.3763 -15.3419
   -13.3198 -13.1472 -13.0726 -12.9682 -12.7765 -12.7124 -12.6466 -12.6148
   -12.5063 -12.4088 -12.3939 -12.2968  -3.1135  -2.7966  -2.4343  -2.1068
    -1.4330  -1.1703  -1.0693  -0.8965  -0.7162  -0.6436  -0.4449  -0.3608
    -0.1422  -0.0730   0.0756   0.2819   0.4447   0.7053   0.9998   1.0743
     1.2493   1.3608   1.4015   1.4297   1.5462   1.8607   1.9570   2.1201
     2.1706   2.2042   2.3402   2.3920   2.5793   2.6239   2.6960   2.7778
     2.9637   3.0629   3.1889   3.2966   3.3554   3.4267   3.5003   3.5759
     3.7721   3.8477   3.9433   4.0156   4.1471   4.2328   4.3209   4.3561
     4.4298   4.5547   4.8147   4.8880   4.9385   4.9966   5.1014   5.1938
     5.2148   5.3535   5.4961   5.6754   5.9224   6.2258   6.4768   6.5165
    11.7290  13.4758  13.6049  13.6901  14.5429  14.6713  14.8247  15.0245
    15.1919  15.3296

     occupation numbers 
[...]
     atom   24 type  3   force =     0.03697063   -0.08251252   -0.03404717
     atom   25 type  3   force =    -0.03766523    0.08887698   -0.03694934
     The non-local contrib.  to forces
     atom    1 type  2   force =     0.13452275    0.00000101    0.01261770
     atom    2 type  1   force =     0.02565773   -0.00000369    0.16605490
     atom    3 type  1   force =     0.06976770    0.00001510    0.13980097
     atom    4 type  1   force =    -0.15972574    0.00000608   -0.10721044
     atom    5 type  1   force =    -0.05262661   -0.00001287   -0.14737604
     atom    6 type  4   force =     0.01827050    0.00000174    0.05692545
     atom    7 type  4   force =     0.00703748   -0.00001271    0.08754227
     atom    8 type  4   force =    -0.03912824   -0.00000390   -0.06112485
     atom    9 type  4   force =     0.05148922    0.00001188   -0.04715879
     atom   10 type  3   force =     0.27787505   -0.00000658   -1.44797757
     atom   11 type  3   force =    -0.09351858    0.00000178   -1.36645326
     atom   12 type  3   force =    -0.36469967    0.00000484    1.45176910
     atom   13 type  3   force =     0.19828510    0.00000012    1.44489314
     atom   14 type  3   force =     1.18432722    0.00000090   -0.61839797
     atom   15 type  3   force =    -1.16320887    0.00000495   -0.80250718
     atom   16 type  3   force =    -1.17146251    0.00001597    0.33535814
     atom   17 type  3   force =     1.13864714   -0.00000375    0.63524703
     atom   18 type  3   force =    -0.52770898   -1.02399863    0.82952486
     atom   19 type  3   force =     0.53769259    1.09009326    0.85405553
     atom   20 type  3   force =     0.55336579   -1.03539479   -0.74106731
     atom   21 type  3   force =    -0.54466897    1.00627300   -0.73950496
     atom   22 type  3   force =     0.55334538    1.03536376   -0.74107131
     atom   23 type  3   force =    -0.54465408   -1.00625104   -0.73949576
     atom   24 type  3   force =    -0.52772742    1.02402906    0.82952546
     atom   25 type  3   force =     0.53770970   -1.09011770    0.85406045
     The ionic contribution  to forces
     atom    1 type  2   force =    -3.83620760    0.00034572    3.10134140
     atom    2 type  1   force =    -1.83732176   -0.00083451   -0.30749522
     atom    3 type  1   force =    -6.84965545    0.00101867   -0.46453616
     atom    4 type  1   force =     5.47089450    0.00079827   -0.63043562
     atom    5 type  1   force =     7.07000167   -0.00114255    0.48849775
     atom    6 type  4   force =    -2.84580974   -0.00028762    1.01235813
     atom    7 type  4   force =     0.13886136    0.00018161    1.11149048
     atom    8 type  4   force =     4.80600809    0.00026651   -1.31787980
     atom    9 type  4   force =    -2.08904910   -0.00017664   -1.47925463
     atom   10 type  3   force =   -10.61601672   -0.00029981    2.46502640
     atom   11 type  3   force =     3.92305789    0.00027487    0.80306140
     atom   12 type  3   force =    12.74811120    0.00028129   -2.67721058
     atom   13 type  3   force =    -8.73834486   -0.00032572   -1.78262264
     atom   14 type  3   force =     0.71504377   -0.00023450    6.13075165
     atom   15 type  3   force =    -1.91721274    0.00027907    7.89002319
     atom   16 type  3   force =    -2.03427506    0.00015060   -3.28447651
     atom   17 type  3   force =     3.74803882   -0.00028841   -6.95987742
     atom   18 type  3   force =    -3.96071908    2.64972924   -3.65776304
     atom   19 type  3   force =     0.75683255   -4.06165464   -3.13139012
     atom   20 type  3   force =     5.36190815    4.29497752    3.07377432
     atom   21 type  3   force =    -1.08606629   -1.21702181    1.66588601
     atom   22 type  3   force =     5.36217405   -4.29445871    3.07394374
     atom   23 type  3   force =    -1.08630161    1.21662785    1.66577696
     atom   24 type  3   force =    -3.96051127   -2.65026119   -3.65753558
     atom   25 type  3   force =     0.75655925    4.06205489   -3.13145412
     The local contribution  to forces
     atom    1 type  2   force =     3.71257972   -0.00034555   -3.10344043
     atom    2 type  1   force =     1.79190534    0.00083118    0.14008709
     atom    3 type  1   force =     6.80615871   -0.00102484    0.32005832
     atom    4 type  1   force =    -5.31483916   -0.00079822    0.74189385
     atom    5 type  1   force =    -7.04221465    0.00114504   -0.33961893
     atom    6 type  4   force =     2.87826777    0.00027926   -0.98222193
     atom    7 type  4   force =    -0.17707667   -0.00017459   -1.10872406
     atom    8 type  4   force =    -4.81897538   -0.00025873    1.28305263
     atom    9 type  4   force =     2.09807639    0.00016906    1.44413454
     atom   10 type  3   force =    10.31250664    0.00030472   -1.04325894
     atom   11 type  3   force =    -3.81847485   -0.00027614    0.53849368
     atom   12 type  3   force =   -12.35907461   -0.00028514    1.25408524
     atom   13 type  3   force =     8.51628312    0.00032527    0.36044484
     atom   14 type  3   force =    -2.00912551    0.00023488   -5.48363049
     atom   15 type  3   force =     3.18651739   -0.00028339   -7.05049455
     atom   16 type  3   force =     3.31288352   -0.00016659    2.92745562
     atom   17 type  3   force =    -4.98607435    0.00029167    6.29464986
     atom   18 type  3   force =     4.52139928   -1.55086324    2.80107068
     atom   19 type  3   force =    -1.32814041    2.89085916    2.24746231
     atom   20 type  3   force =    -5.94914593   -3.18138463   -2.31200628
     atom   21 type  3   force =     1.66167829    0.13713026   -0.90033600
     atom   22 type  3   force =    -5.94938942    3.18090058   -2.31217095
     atom   23 type  3   force =     1.66189247   -0.13676844   -0.90024170
     atom   24 type  3   force =     4.52120906    1.55136369    2.80084706
     atom   25 type  3   force =    -1.32789046   -2.89122314    2.24751569
     The core correction contribution to forces
     atom    1 type  2   force =     0.00000000    0.00000000    0.00000000
     atom    2 type  1   force =    -0.00024233    0.00000015   -0.00014143
     atom    3 type  1   force =    -0.00031897   -0.00000032    0.00059284
     atom    4 type  1   force =     0.00354908   -0.00000015   -0.00112084
     atom    5 type  1   force =     0.00062467    0.00000035    0.00009143
     atom    6 type  4   force =    -0.00182765    0.00000004   -0.00668342
     atom    7 type  4   force =     0.00049220    0.00000095   -0.00893097
     atom    8 type  4   force =     0.00261120    0.00000019    0.00732071
     atom    9 type  4   force =    -0.00441229   -0.00000096    0.00610787
     atom   10 type  3   force =    -0.00272502    0.00000008    0.01264513
     atom   11 type  3   force =     0.00133828   -0.00000002    0.01183016
     atom   12 type  3   force =     0.00352905   -0.00000005   -0.01265843
     atom   13 type  3   force =    -0.00206881   -0.00000000   -0.01254700
     atom   14 type  3   force =    -0.00822936   -0.00000003    0.00534228
     atom   15 type  3   force =     0.00810725   -0.00000005    0.00678434
     atom   16 type  3   force =     0.00808594   -0.00000014   -0.00294204
     atom   17 type  3   force =    -0.00802584    0.00000004   -0.00543712
     atom   18 type  3   force =     0.00399894    0.00764137   -0.00688321
     atom   19 type  3   force =    -0.00404068   -0.00816388   -0.00706853
     atom   20 type  3   force =    -0.00423008    0.00773774    0.00610777
     atom   21 type  3   force =     0.00413270   -0.00759403    0.00616998
     atom   22 type  3   force =    -0.00422991   -0.00773750    0.00610778
     atom   23 type  3   force =     0.00413263    0.00759399    0.00616996
     atom   24 type  3   force =     0.00399912   -0.00764164   -0.00688328
     atom   25 type  3   force =    -0.00404077    0.00816393   -0.00706851
     The Hubbard contrib.    to forces
     atom    1 type  2   force =     0.00000000    0.00000000    0.00000000
     atom    2 type  1   force =     0.00000000    0.00000000    0.00000000
     atom    3 type  1   force =     0.00000000    0.00000000    0.00000000
     atom    4 type  1   force =     0.00000000    0.00000000    0.00000000
     atom    5 type  1   force =     0.00000000    0.00000000    0.00000000
     atom    6 type  4   force =     0.00000000    0.00000000    0.00000000
     atom    7 type  4   force =     0.00000000    0.00000000    0.00000000
     atom    8 type  4   force =     0.00000000    0.00000000    0.00000000
     atom    9 type  4   force =     0.00000000    0.00000000    0.00000000
     atom   10 type  3   force =     0.00000000    0.00000000    0.00000000
     atom   11 type  3   force =     0.00000000    0.00000000    0.00000000
     atom   12 type  3   force =     0.00000000    0.00000000    0.00000000
     atom   13 type  3   force =     0.00000000    0.00000000    0.00000000
     atom   14 type  3   force =     0.00000000    0.00000000    0.00000000
     atom   15 type  3   force =     0.00000000    0.00000000    0.00000000
     atom   16 type  3   force =     0.00000000    0.00000000    0.00000000
     atom   17 type  3   force =     0.00000000    0.00000000    0.00000000
     atom   18 type  3   force =     0.00000000    0.00000000    0.00000000
     atom   19 type  3   force =     0.00000000    0.00000000    0.00000000
     atom   20 type  3   force =     0.00000000    0.00000000    0.00000000
     atom   21 type  3   force =     0.00000000    0.00000000    0.00000000
     atom   22 type  3   force =     0.00000000    0.00000000    0.00000000
     atom   23 type  3   force =     0.00000000    0.00000000    0.00000000
     atom   24 type  3   force =     0.00000000    0.00000000    0.00000000
     atom   25 type  3   force =     0.00000000    0.00000000    0.00000000
     The SCF correction term to forces
     atom    1 type  2   force =    -0.00000539    0.00000001    0.00000090
     atom    2 type  1   force =    -0.00000207   -0.00000002    0.00000093
     atom    3 type  1   force =     0.00000011    0.00000002    0.00000034
     atom    4 type  1   force =    -0.00000010    0.00000003   -0.00000041
     atom    5 type  1   force =     0.00000201   -0.00000001    0.00000035
     atom    6 type  4   force =     0.00000159   -0.00000001   -0.00000016
     atom    7 type  4   force =    -0.00000278    0.00000001   -0.00000015
     atom    8 type  4   force =     0.00000311   -0.00000000   -0.00000039
     atom    9 type  4   force =    -0.00000186   -0.00000000   -0.00000041
     atom   10 type  3   force =     0.00000239   -0.00000000    0.00000005
     atom   11 type  3   force =    -0.00000477    0.00000000    0.00000223
     atom   12 type  3   force =     0.00000442    0.00000001    0.00000114
     atom   13 type  3   force =    -0.00000141    0.00000000   -0.00000049
     atom   14 type  3   force =    -0.00000359   -0.00000000   -0.00000006
     atom   15 type  3   force =     0.00000624    0.00000000   -0.00000130
     atom   16 type  3   force =    -0.00000423   -0.00000000   -0.00000080
     atom   17 type  3   force =     0.00000269   -0.00000001    0.00000012
     atom   18 type  3   force =     0.00000135    0.00000244    0.00000088
     atom   19 type  3   force =    -0.00000275    0.00000101   -0.00000115
     atom   20 type  3   force =     0.00000249    0.00000149   -0.00000129
     atom   21 type  3   force =    -0.00000132    0.00000155    0.00000093
     atom   22 type  3   force =     0.00000248   -0.00000149   -0.00000129
     atom   23 type  3   force =    -0.00000132   -0.00000156    0.00000093
     atom   24 type  3   force =     0.00000136   -0.00000244    0.00000088
     atom   25 type  3   force =    -0.00000274   -0.00000100   -0.00000114

     Total force =     0.417481     Total SCF correction =     0.000016


     Computing stress (Cartesian axis) and pressure


     negative rho (up, down):  0.000E+00 7.893E-04
          total   stress  (Ry/bohr**3)                   (kbar)     P=      169.79
   0.00161586   0.00000000  -0.00002395          237.70        0.00       -3.52
   0.00000000   0.00123956  -0.00000001            0.00      182.35       -0.00
  -0.00002395  -0.00000001   0.00060717           -3.52       -0.00       89.32

     kinetic stress (kbar)  29712.37      0.00    -12.24
                                0.00  29934.29      0.00
                              -12.24      0.00  29592.61

     local   stress (kbar)  -3704.29     -0.11   1337.16
                               -0.11 -14572.64     -0.01
                             1337.16     -0.01  -8158.35

     nonloc. stress (kbar)  -7605.98     -0.00      4.04
                               -0.00  -7535.60     -0.00
                                4.04     -0.00  -7568.60

     hartree stress (kbar)  13363.64      0.05   -546.15
                                0.05  19389.92      0.00
                             -546.15      0.00  16115.04

     exc-cor stress (kbar)  -3134.89     -0.00     -0.83
                               -0.00  -3143.39     -0.00
                               -0.83     -0.00  -3140.42

     corecor stress (kbar)  -3457.97      0.00      0.88
                                0.00  -3455.39      0.00
                                0.88      0.00  -3455.23

     ewald   stress (kbar) -24935.18      0.06   -786.38
                                0.06 -20434.84      0.01
                             -786.38      0.01 -23295.73

     hubbard stress (kbar)      0.00      0.00      0.00
                                0.00      0.00      0.00
                                0.00      0.00      0.00

     DFT-D   stress (kbar)      0.00      0.00      0.00
                                0.00      0.00      0.00
                                0.00      0.00      0.00

     XDM     stress (kbar)      0.00      0.00      0.00
                                0.00      0.00      0.00
                                0.00      0.00      0.00

     dft-nl  stress (kbar)      0.00      0.00      0.00
                                0.00      0.00      0.00
                                0.00      0.00      0.00

     TS-vdW  stress (kbar)      0.00      0.00      0.00
                                0.00      0.00      0.00
                                0.00      0.00      0.00



     init_run     :    168.22s CPU    171.60s WALL (       1 calls)
     electrons    :  14125.06s CPU  14295.73s WALL (       1 calls)
     forces       :    109.95s CPU    111.42s WALL (       1 calls)
     stress       :    717.13s CPU    720.61s WALL (       1 calls)

     Called by init_run:
     wfcinit      :    158.98s CPU    161.51s WALL (       1 calls)
     wfcinit:atom :      3.20s CPU      3.21s WALL (     316 calls)
     wfcinit:wfcr :    146.03s CPU    148.51s WALL (     316 calls)
     potinit      :      3.20s CPU      3.39s WALL (       1 calls)
     hinit0       :      3.29s CPU      3.41s WALL (       1 calls)

     Called by electrons:
     c_bands      :  12543.83s CPU  12657.91s WALL (      32 calls)
     sum_band     :   1491.44s CPU   1530.66s WALL (      32 calls)
     v_of_rho     :     24.98s CPU     25.88s WALL (      33 calls)
     v_h          :      1.05s CPU      1.11s WALL (      33 calls)
     v_xc         :     25.34s CPU     26.22s WALL (      35 calls)
     newd         :     44.05s CPU     60.73s WALL (      33 calls)
     PAW_pot      :     14.69s CPU     14.71s WALL (      33 calls)
     mix_rho      :      6.03s CPU      6.19s WALL (      32 calls)

     Called by c_bands:
     init_us_2    :    268.75s CPU    269.99s WALL (   21172 calls)
     cegterg      :  12100.01s CPU  12211.36s WALL (   10112 calls)

     Called by sum_band:
     sum_band:wei :      0.51s CPU      0.51s WALL (      32 calls)
     sum_band:loo :   1355.15s CPU   1374.57s WALL (      32 calls)
     sum_band:buf :     69.48s CPU     70.03s WALL (   10112 calls)
     sum_band:ini :    129.56s CPU    130.20s WALL (   10112 calls)
     sum_band:cal :    645.96s CPU    651.00s WALL (   10112 calls)
     sum_band:bec :      5.41s CPU      5.53s WALL (   10112 calls)
     addusdens    :    125.94s CPU    145.57s WALL (      32 calls)
     addusd:skk   :      0.63s CPU      0.67s WALL (      96 calls)
     addusd:dgemm :     60.82s CPU     77.42s WALL (     192 calls)
     addusd:qvan2 :     62.97s CPU     63.19s WALL (     192 calls)

     Called by *egterg:
     cdiaghg      :    844.65s CPU    862.59s WALL (   38026 calls)
     cegterg:over :   1228.10s CPU   1239.04s WALL (   27914 calls)
     cegterg:upda :    678.85s CPU    679.80s WALL (   27914 calls)
     cegterg:last :   1305.57s CPU   1306.95s WALL (   16431 calls)
     h_psi        :   5724.59s CPU   5798.89s WALL (   38342 calls)
     s_psi        :   1565.06s CPU   1567.15s WALL (   38342 calls)
     g_psi        :     12.43s CPU     12.55s WALL (   27914 calls)

     Called by h_psi:
     h_psi:calbec :   1687.36s CPU   1700.40s WALL (   38342 calls)
     vloc_psi     :   2187.56s CPU   2244.43s WALL (   38342 calls)
     add_vuspsi   :   1696.65s CPU   1699.19s WALL (   38342 calls)

     General routines
     calbec       :   2433.41s CPU   2452.50s WALL (   50034 calls)
     fft          :     22.05s CPU     23.33s WALL (     863 calls)
     ffts         :      4.83s CPU      4.91s WALL (     130 calls)
     fftw         :   2474.57s CPU   2538.34s WALL ( 6221696 calls)
     interpolate  :      1.47s CPU      1.63s WALL (      66 calls)

     Parallel routines
     fft_scatt_xy :    254.24s CPU    260.76s WALL ( 6222689 calls)
     fft_scatt_yz :    824.43s CPU    847.77s WALL ( 6222689 calls)

     PAW routines
     PAW_pot      :     14.69s CPU     14.71s WALL (      33 calls)

     PWSCF        :      4h12m CPU      4h15m WALL


   This run was terminated on:   3:28:37  18Dec2022            

=------------------------------------------------------------------------------=
   JOB DONE.
=------------------------------------------------------------------------------=
Note: The following floating-point exceptions are signalling: IEEE_UNDERFLOW_FLAG IEEE_DENORMAL
Note: The following floating-point exceptions are signalling: IEEE_DENORMAL
Note: The following floating-point exceptions are signalling: IEEE_INVALID_FLAG IEEE_DENORMAL
Note: The following floating-point exceptions are signalling: IEEE_DENORMAL
Note: The following floating-point exceptions are signalling: IEEE_DENORMAL
Note: The following floating-point exceptions are signalling: IEEE_DENORMAL
Note: The following floating-point exceptions are signalling: IEEE_DENORMAL
Note: The following floating-point exceptions are signalling: IEEE_DENORMAL
Note: The following floating-point exceptions are signalling: IEEE_DENORMAL
Note: The following floating-point exceptions are signalling: IEEE_DENORMAL
Note: The following floating-point exceptions are signalling: IEEE_DENORMAL
Note: The following floating-point exceptions are signalling: IEEE_DENORMAL
Note: The following floating-point exceptions are signalling: IEEE_DENORMAL
Note: The following floating-point exceptions are signalling: IEEE_DENORMAL
Note: The following floating-point exceptions are signalling: IEEE_DENORMAL
Note: The following floating-point exceptions are signalling: IEEE_DENORMAL
Note: The following floating-point exceptions are signalling: IEEE_INVALID_FLAG IEEE_DENORMAL
Note: The following floating-point exceptions are signalling: IEEE_DENORMAL
Note: The following floating-point exceptions are signalling: IEEE_DENORMAL
Note: The following floating-point exceptions are signalling: IEEE_DENORMAL
Note: The following floating-point exceptions are signalling: IEEE_DENORMAL
Note: The following floating-point exceptions are signalling: IEEE_DENORMAL
Note: The following floating-point exceptions are signalling: IEEE_DENORMAL
Note: The following floating-point exceptions are signalling: IEEE_DENORMAL
