# /home/jsp1/perl4dpgen_20221025/initial/BN_mp-344/BN_mp-344.in

8 atoms
3 atom types

0.000000000000       4.993837980000  xlo xhi
0.000000000000       3.104424082485  ylo yhi
0.000000000000       4.181742997785  zlo zhi
-3.911645291508       0.392676942164       1.126449816983  xy xz yz

Masses

1 10.81  # B
2 15.999  # O
3 14.007  # N

Atoms  # atomic

1 1 1.522022786935 2.474781842652 4.180889922214
2 1 0.149920075965 2.321424732499 2.090018423321
3 1 2.324726246833 1.121918099720 2.125073974872
4 1 -1.319842063427 1.760735509240 0.034202475979
5 3 2.440541649470 1.376850506088 0.665804574878
6 3 -0.859403706359 3.158869204940 2.756676073771
7 3 1.336314966929 1.944144001379 2.839014593397
8 3 -0.034487543483 1.790333645310 0.748143094505
