
     Program PWSCF v.6.7MaX starts on 28Sep2022 at 20:57:56 

     This program is part of the open-source Quantum ESPRESSO suite
     for quantum simulation of materials; please cite
         "P. Giannozzi et al., J. Phys.:Condens. Matter 21 395502 (2009);
         "P. Giannozzi et al., J. Phys.:Condens. Matter 29 465901 (2017);
          URL http://www.quantum-espresso.org", 
     in publications or presentations arising from this work. More details at
     http://www.quantum-espresso.org/quote

     Parallel version (MPI), running on    16 processors

     MPI processes distributed on     1 nodes
     R & G space division:  proc/nbgrp/npool/nimage =      16
     Reading input from scale_1da-02.in

     Current dimensions of program PWSCF are:
     Max number of different atomic species (ntypx) = 10
     Max number of k-points (npk) =  40000
     Max angular momentum in pseudopotentials (lmaxx) =  3
     Message from routine read_pp_mesh:
     mesh size missing, using the one in header

     Subspace diagonalization in iterative solution of the eigenvalue problem:
     a serial algorithm will be used


     Parallelization info
     --------------------
     sticks:   dense  smooth     PW     G-vecs:    dense   smooth      PW
     Min         118      86     25                 4191     2600     422
     Max         119      87     26                 4195     2602     427
     Sum        1903    1385    415                67103    41617    6805



     bravais-lattice index     =            0
     lattice parameter (alat)  =       9.2796  a.u.
     unit-cell volume          =     430.1962 (a.u.)^3
     number of atoms/cell      =            8
     number of atomic types    =            2
     number of electrons       =        32.00
     number of Kohn-Sham states=           20
     kinetic-energy cutoff     =      80.0000  Ry
     charge density cutoff     =     440.0000  Ry
     scf convergence threshold =      2.0E-10
     mixing beta               =       0.4000
     number of iterations used =            8  plain     mixing
     Exchange-correlation= PBE
                           (   1   4   3   4   0   0   0)

     celldm(1)=   9.279632  celldm(2)=   0.000000  celldm(3)=   0.000000
     celldm(4)=   0.000000  celldm(5)=   0.000000  celldm(6)=   0.000000

     crystal axes: (cart. coord. in units of alat)
               a(1) = (   1.000000   0.000000   0.000000 )  
               a(2) = (   0.203429   0.632187   0.000000 )  
               a(3) = (   0.079967   0.229395   0.851586 )  

     reciprocal axes: (cart. coord. in units 2 pi/alat)
               b(1) = (  1.000000 -0.321787 -0.007222 )  
               b(2) = (  0.000000  1.581809 -0.426099 )  
               b(3) = (  0.000000  0.000000  1.174280 )  


     PseudoPot. # 1 for B  read from file:
     /opt/QEpot/SSSP_precision_pseudos/B_pbe_v1.01.uspp.F.UPF
     MD5 check sum: d081ebb89d0c768e112975f650467a00
     Pseudo is Ultrasoft + core correction, Zval =  3.0
     Generated by new atomic code, or converted to UPF format
     Using radial grid of  781 points,  4 beta functions with: 
                l(1) =   0
                l(2) =   0
                l(3) =   1
                l(4) =   1
     Q(r) pseudized with  8 coefficients,  rinner =    1.100   1.100   1.100


     PseudoPot. # 2 for N  read from file:
     /opt/QEpot/SSSP_precision_pseudos/N.oncvpsp.upf
     MD5 check sum: 563d65bfb082928f0c9eb97172f6c357
     Pseudo is Norm-conserving + core correction, Zval =  5.0
     Generated using ONCVPSP code by D. R. Hamann
     Using radial grid of 1058 points,  4 beta functions with: 
                l(1) =   0
                l(2) =   0
                l(3) =   1
                l(4) =   1

     atomic species   valence    mass     pseudopotential
        B              3.00    10.81000     B ( 1.00)
        N              5.00    14.00700     N ( 1.00)

     No symmetry found


                                    s                        frac. trans.

      isym =  1     identity                                     

 cryst.   s( 1) = (     1          0          0      )
                  (     0          1          0      )
                  (     0          0          1      )

 cart.    s( 1) = (  1.0000000  0.0000000  0.0000000 )
                  (  0.0000000  1.0000000  0.0000000 )
                  (  0.0000000  0.0000000  1.0000000 )


   Cartesian axes

     site n.     atom                  positions (alat units)
         1           B   tau(   1) = (   0.2217146   0.2761301   0.0017116  )
         2           B   tau(   2) = (   0.0237822   0.4736238   0.4259608  )
         3           B   tau(   3) = (   0.4651812   0.2300251   0.4346433  )
         4           B   tau(   4) = (  -0.2711593   0.3594426   0.0073069  )
         5           N   tau(   5) = (   0.4851360   0.2819383   0.1374722  )
         6           N   tau(   6) = (  -0.1802125   0.6448321   0.5632651  )
         7           N   tau(   7) = (   0.2647890   0.3974646   0.5800328  )
         8           N   tau(   8) = (  -0.0121277   0.3661404   0.1542400  )

   Crystallographic axes

     site n.     atom                  positions (cryst. coord.)
         1           B   tau(   1) = (  0.1328472  0.4360559  0.0020099  )
         2           B   tau(   2) = ( -0.1316999  0.5676812  0.5001973  )
         3           B   tau(   3) = (  0.3880232  0.1786549  0.5103929  )
         4           B   tau(   4) = ( -0.3868759  0.5654562  0.0085803  )
         5           N   tau(   5) = (  0.3934192  0.3873959  0.1614309  )
         6           N   tau(   6) = ( -0.3917788  0.7799949  0.6614309  )
         7           N   tau(   7) = (  0.1327012  0.3815619  0.6811209  )
         8           N   tau(   8) = ( -0.1310608  0.5134429  0.1811209  )

     number of k points=   106  Marzari-Vanderbilt smearing, width (Ry)=  0.0220
                       cart. coord. in units 2pi/alat
        k(    1) = (   0.0000000   0.0000000   0.0000000), wk =   0.0095238
        k(    2) = (   0.0000000   0.0000000   0.2348560), wk =   0.0190476
        k(    3) = (   0.0000000   0.0000000   0.4697120), wk =   0.0190476
        k(    4) = (   0.0000000   0.2636349  -0.0710165), wk =   0.0190476
        k(    5) = (   0.0000000   0.2636349   0.1638395), wk =   0.0190476
        k(    6) = (   0.0000000   0.2636349   0.3986955), wk =   0.0190476
        k(    7) = (   0.0000000   0.2636349  -0.5407285), wk =   0.0190476
        k(    8) = (   0.0000000   0.2636349  -0.3058725), wk =   0.0190476
        k(    9) = (   0.0000000   0.5272698  -0.1420329), wk =   0.0190476
        k(   10) = (   0.0000000   0.5272698   0.0928231), wk =   0.0190476
        k(   11) = (   0.0000000   0.5272698   0.3276791), wk =   0.0190476
        k(   12) = (   0.0000000   0.5272698  -0.6117450), wk =   0.0190476
        k(   13) = (   0.0000000   0.5272698  -0.3768889), wk =   0.0190476
        k(   14) = (   0.0000000  -0.7909046   0.2130494), wk =   0.0095238
        k(   15) = (   0.0000000  -0.7909046   0.4479054), wk =   0.0190476
        k(   16) = (   0.0000000  -0.7909046   0.6827614), wk =   0.0190476
        k(   17) = (   0.1428571  -0.0459695  -0.0010317), wk =   0.0190476
        k(   18) = (   0.1428571  -0.0459695   0.2338243), wk =   0.0190476
        k(   19) = (   0.1428571  -0.0459695   0.4686803), wk =   0.0190476
        k(   20) = (   0.1428571  -0.0459695  -0.4707437), wk =   0.0190476
        k(   21) = (   0.1428571  -0.0459695  -0.2358877), wk =   0.0190476
        k(   22) = (   0.1428571   0.2176654  -0.0720482), wk =   0.0190476
        k(   23) = (   0.1428571   0.2176654   0.1628078), wk =   0.0190476
        k(   24) = (   0.1428571   0.2176654   0.3976638), wk =   0.0190476
        k(   25) = (   0.1428571   0.2176654  -0.5417602), wk =   0.0190476
        k(   26) = (   0.1428571   0.2176654  -0.3069042), wk =   0.0190476
        k(   27) = (   0.1428571   0.4813002  -0.1430647), wk =   0.0190476
        k(   28) = (   0.1428571   0.4813002   0.0917914), wk =   0.0190476
        k(   29) = (   0.1428571   0.4813002   0.3266474), wk =   0.0190476
        k(   30) = (   0.1428571   0.4813002  -0.6127767), wk =   0.0190476
        k(   31) = (   0.1428571   0.4813002  -0.3779207), wk =   0.0190476
        k(   32) = (   0.1428571  -0.8368742   0.2120177), wk =   0.0190476
        k(   33) = (   0.1428571  -0.8368742   0.4468737), wk =   0.0190476
        k(   34) = (   0.1428571  -0.8368742   0.6817297), wk =   0.0190476
        k(   35) = (   0.1428571  -0.8368742  -0.2576943), wk =   0.0190476
        k(   36) = (   0.1428571  -0.8368742  -0.0228383), wk =   0.0190476
        k(   37) = (   0.1428571  -0.5732393   0.1410012), wk =   0.0190476
        k(   38) = (   0.1428571  -0.5732393   0.3758572), wk =   0.0190476
        k(   39) = (   0.1428571  -0.5732393   0.6107132), wk =   0.0190476
        k(   40) = (   0.1428571  -0.5732393  -0.3287108), wk =   0.0190476
        k(   41) = (   0.1428571  -0.5732393  -0.0938548), wk =   0.0190476
        k(   42) = (   0.1428571  -0.3096044   0.0699848), wk =   0.0190476
        k(   43) = (   0.1428571  -0.3096044   0.3048408), wk =   0.0190476
        k(   44) = (   0.1428571  -0.3096044   0.5396968), wk =   0.0190476
        k(   45) = (   0.1428571  -0.3096044  -0.3997273), wk =   0.0190476
        k(   46) = (   0.1428571  -0.3096044  -0.1648713), wk =   0.0190476
        k(   47) = (   0.2857143  -0.0919390  -0.0020634), wk =   0.0190476
        k(   48) = (   0.2857143  -0.0919390   0.2327926), wk =   0.0190476
        k(   49) = (   0.2857143  -0.0919390   0.4676486), wk =   0.0190476
        k(   50) = (   0.2857143  -0.0919390  -0.4717754), wk =   0.0190476
        k(   51) = (   0.2857143  -0.0919390  -0.2369194), wk =   0.0190476
        k(   52) = (   0.2857143   0.1716958  -0.0730799), wk =   0.0190476
        k(   53) = (   0.2857143   0.1716958   0.1617761), wk =   0.0190476
        k(   54) = (   0.2857143   0.1716958   0.3966321), wk =   0.0190476
        k(   55) = (   0.2857143   0.1716958  -0.5427919), wk =   0.0190476
        k(   56) = (   0.2857143   0.1716958  -0.3079359), wk =   0.0190476
        k(   57) = (   0.2857143   0.4353307  -0.1440964), wk =   0.0190476
        k(   58) = (   0.2857143   0.4353307   0.0907596), wk =   0.0190476
        k(   59) = (   0.2857143   0.4353307   0.3256156), wk =   0.0190476
        k(   60) = (   0.2857143   0.4353307  -0.6138084), wk =   0.0190476
        k(   61) = (   0.2857143   0.4353307  -0.3789524), wk =   0.0190476
        k(   62) = (   0.2857143  -0.8828437   0.2109860), wk =   0.0190476
        k(   63) = (   0.2857143  -0.8828437   0.4458420), wk =   0.0190476
        k(   64) = (   0.2857143  -0.8828437   0.6806980), wk =   0.0190476
        k(   65) = (   0.2857143  -0.8828437  -0.2587260), wk =   0.0190476
        k(   66) = (   0.2857143  -0.8828437  -0.0238700), wk =   0.0190476
        k(   67) = (   0.2857143  -0.6192088   0.1399695), wk =   0.0190476
        k(   68) = (   0.2857143  -0.6192088   0.3748255), wk =   0.0190476
        k(   69) = (   0.2857143  -0.6192088   0.6096815), wk =   0.0190476
        k(   70) = (   0.2857143  -0.6192088  -0.3297425), wk =   0.0190476
        k(   71) = (   0.2857143  -0.6192088  -0.0948865), wk =   0.0190476
        k(   72) = (   0.2857143  -0.3555739   0.0689530), wk =   0.0190476
        k(   73) = (   0.2857143  -0.3555739   0.3038090), wk =   0.0190476
        k(   74) = (   0.2857143  -0.3555739   0.5386650), wk =   0.0190476
        k(   75) = (   0.2857143  -0.3555739  -0.4007590), wk =   0.0190476
        k(   76) = (   0.2857143  -0.3555739  -0.1659030), wk =   0.0190476
        k(   77) = (   0.4285714  -0.1379086  -0.0030951), wk =   0.0190476
        k(   78) = (   0.4285714  -0.1379086   0.2317609), wk =   0.0190476
        k(   79) = (   0.4285714  -0.1379086   0.4666169), wk =   0.0190476
        k(   80) = (   0.4285714  -0.1379086  -0.4728072), wk =   0.0190476
        k(   81) = (   0.4285714  -0.1379086  -0.2379512), wk =   0.0190476
        k(   82) = (   0.4285714   0.1257263  -0.0741116), wk =   0.0190476
        k(   83) = (   0.4285714   0.1257263   0.1607444), wk =   0.0190476
        k(   84) = (   0.4285714   0.1257263   0.3956004), wk =   0.0190476
        k(   85) = (   0.4285714   0.1257263  -0.5438236), wk =   0.0190476
        k(   86) = (   0.4285714   0.1257263  -0.3089676), wk =   0.0190476
        k(   87) = (   0.4285714   0.3893612  -0.1451281), wk =   0.0190476
        k(   88) = (   0.4285714   0.3893612   0.0897279), wk =   0.0190476
        k(   89) = (   0.4285714   0.3893612   0.3245839), wk =   0.0190476
        k(   90) = (   0.4285714   0.3893612  -0.6148401), wk =   0.0190476
        k(   91) = (   0.4285714   0.3893612  -0.3799841), wk =   0.0190476
        k(   92) = (   0.4285714  -0.9288132   0.2099543), wk =   0.0190476
        k(   93) = (   0.4285714  -0.9288132   0.4448103), wk =   0.0190476
        k(   94) = (   0.4285714  -0.9288132   0.6796663), wk =   0.0190476
        k(   95) = (   0.4285714  -0.9288132  -0.2597578), wk =   0.0190476
        k(   96) = (   0.4285714  -0.9288132  -0.0249017), wk =   0.0190476
        k(   97) = (   0.4285714  -0.6651783   0.1389378), wk =   0.0190476
        k(   98) = (   0.4285714  -0.6651783   0.3737938), wk =   0.0190476
        k(   99) = (   0.4285714  -0.6651783   0.6086498), wk =   0.0190476
        k(  100) = (   0.4285714  -0.6651783  -0.3307742), wk =   0.0190476
        k(  101) = (   0.4285714  -0.6651783  -0.0959182), wk =   0.0190476
        k(  102) = (   0.4285714  -0.4015434   0.0679213), wk =   0.0190476
        k(  103) = (   0.4285714  -0.4015434   0.3027773), wk =   0.0190476
        k(  104) = (   0.4285714  -0.4015434   0.5376333), wk =   0.0190476
        k(  105) = (   0.4285714  -0.4015434  -0.4017907), wk =   0.0190476
        k(  106) = (   0.4285714  -0.4015434  -0.1669347), wk =   0.0190476

                       cryst. coord.
        k(    1) = (   0.0000000   0.0000000   0.0000000), wk =   0.0095238
        k(    2) = (   0.0000000   0.0000000   0.2000000), wk =   0.0190476
        k(    3) = (   0.0000000   0.0000000   0.4000000), wk =   0.0190476
        k(    4) = (   0.0000000   0.1666667  -0.0000000), wk =   0.0190476
        k(    5) = (   0.0000000   0.1666667   0.2000000), wk =   0.0190476
        k(    6) = (   0.0000000   0.1666667   0.4000000), wk =   0.0190476
        k(    7) = (   0.0000000   0.1666667  -0.4000000), wk =   0.0190476
        k(    8) = (   0.0000000   0.1666667  -0.2000000), wk =   0.0190476
        k(    9) = (   0.0000000   0.3333333  -0.0000000), wk =   0.0190476
        k(   10) = (   0.0000000   0.3333333   0.2000000), wk =   0.0190476
        k(   11) = (   0.0000000   0.3333333   0.4000000), wk =   0.0190476
        k(   12) = (   0.0000000   0.3333333  -0.4000000), wk =   0.0190476
        k(   13) = (   0.0000000   0.3333333  -0.2000000), wk =   0.0190476
        k(   14) = (   0.0000000  -0.5000000   0.0000000), wk =   0.0095238
        k(   15) = (   0.0000000  -0.5000000   0.2000000), wk =   0.0190476
        k(   16) = (   0.0000000  -0.5000000   0.4000000), wk =   0.0190476
        k(   17) = (   0.1428571   0.0000000  -0.0000000), wk =   0.0190476
        k(   18) = (   0.1428571   0.0000000   0.2000000), wk =   0.0190476
        k(   19) = (   0.1428571   0.0000000   0.4000000), wk =   0.0190476
        k(   20) = (   0.1428571   0.0000000  -0.4000000), wk =   0.0190476
        k(   21) = (   0.1428571   0.0000000  -0.2000000), wk =   0.0190476
        k(   22) = (   0.1428571   0.1666667  -0.0000000), wk =   0.0190476
        k(   23) = (   0.1428571   0.1666667   0.2000000), wk =   0.0190476
        k(   24) = (   0.1428571   0.1666667   0.4000000), wk =   0.0190476
        k(   25) = (   0.1428571   0.1666667  -0.4000000), wk =   0.0190476
        k(   26) = (   0.1428571   0.1666667  -0.2000000), wk =   0.0190476
        k(   27) = (   0.1428571   0.3333333  -0.0000000), wk =   0.0190476
        k(   28) = (   0.1428571   0.3333333   0.2000000), wk =   0.0190476
        k(   29) = (   0.1428571   0.3333333   0.4000000), wk =   0.0190476
        k(   30) = (   0.1428571   0.3333333  -0.4000000), wk =   0.0190476
        k(   31) = (   0.1428571   0.3333333  -0.2000000), wk =   0.0190476
        k(   32) = (   0.1428571  -0.5000000  -0.0000000), wk =   0.0190476
        k(   33) = (   0.1428571  -0.5000000   0.2000000), wk =   0.0190476
        k(   34) = (   0.1428571  -0.5000000   0.4000000), wk =   0.0190476
        k(   35) = (   0.1428571  -0.5000000  -0.4000000), wk =   0.0190476
        k(   36) = (   0.1428571  -0.5000000  -0.2000000), wk =   0.0190476
        k(   37) = (   0.1428571  -0.3333333  -0.0000000), wk =   0.0190476
        k(   38) = (   0.1428571  -0.3333333   0.2000000), wk =   0.0190476
        k(   39) = (   0.1428571  -0.3333333   0.4000000), wk =   0.0190476
        k(   40) = (   0.1428571  -0.3333333  -0.4000000), wk =   0.0190476
        k(   41) = (   0.1428571  -0.3333333  -0.2000000), wk =   0.0190476
        k(   42) = (   0.1428571  -0.1666667   0.0000000), wk =   0.0190476
        k(   43) = (   0.1428571  -0.1666667   0.2000000), wk =   0.0190476
        k(   44) = (   0.1428571  -0.1666667   0.4000000), wk =   0.0190476
        k(   45) = (   0.1428571  -0.1666667  -0.4000000), wk =   0.0190476
        k(   46) = (   0.1428571  -0.1666667  -0.2000000), wk =   0.0190476
        k(   47) = (   0.2857143   0.0000000  -0.0000000), wk =   0.0190476
        k(   48) = (   0.2857143   0.0000000   0.2000000), wk =   0.0190476
        k(   49) = (   0.2857143   0.0000000   0.4000000), wk =   0.0190476
        k(   50) = (   0.2857143   0.0000000  -0.4000000), wk =   0.0190476
        k(   51) = (   0.2857143   0.0000000  -0.2000000), wk =   0.0190476
        k(   52) = (   0.2857143   0.1666667  -0.0000000), wk =   0.0190476
        k(   53) = (   0.2857143   0.1666667   0.2000000), wk =   0.0190476
        k(   54) = (   0.2857143   0.1666667   0.4000000), wk =   0.0190476
        k(   55) = (   0.2857143   0.1666667  -0.4000000), wk =   0.0190476
        k(   56) = (   0.2857143   0.1666667  -0.2000000), wk =   0.0190476
        k(   57) = (   0.2857143   0.3333333  -0.0000000), wk =   0.0190476
        k(   58) = (   0.2857143   0.3333333   0.2000000), wk =   0.0190476
        k(   59) = (   0.2857143   0.3333333   0.4000000), wk =   0.0190476
        k(   60) = (   0.2857143   0.3333333  -0.4000000), wk =   0.0190476
        k(   61) = (   0.2857143   0.3333333  -0.2000000), wk =   0.0190476
        k(   62) = (   0.2857143  -0.5000000   0.0000000), wk =   0.0190476
        k(   63) = (   0.2857143  -0.5000000   0.2000000), wk =   0.0190476
        k(   64) = (   0.2857143  -0.5000000   0.4000000), wk =   0.0190476
        k(   65) = (   0.2857143  -0.5000000  -0.4000000), wk =   0.0190476
        k(   66) = (   0.2857143  -0.5000000  -0.2000000), wk =   0.0190476
        k(   67) = (   0.2857143  -0.3333333  -0.0000000), wk =   0.0190476
        k(   68) = (   0.2857143  -0.3333333   0.2000000), wk =   0.0190476
        k(   69) = (   0.2857143  -0.3333333   0.4000000), wk =   0.0190476
        k(   70) = (   0.2857143  -0.3333333  -0.4000000), wk =   0.0190476
        k(   71) = (   0.2857143  -0.3333333  -0.2000000), wk =   0.0190476
        k(   72) = (   0.2857143  -0.1666667   0.0000000), wk =   0.0190476
        k(   73) = (   0.2857143  -0.1666667   0.2000000), wk =   0.0190476
        k(   74) = (   0.2857143  -0.1666667   0.4000000), wk =   0.0190476
        k(   75) = (   0.2857143  -0.1666667  -0.4000000), wk =   0.0190476
        k(   76) = (   0.2857143  -0.1666667  -0.2000000), wk =   0.0190476
        k(   77) = (   0.4285714  -0.0000000  -0.0000000), wk =   0.0190476
        k(   78) = (   0.4285714  -0.0000000   0.2000000), wk =   0.0190476
        k(   79) = (   0.4285714  -0.0000000   0.4000000), wk =   0.0190476
        k(   80) = (   0.4285714  -0.0000000  -0.4000000), wk =   0.0190476
        k(   81) = (   0.4285714  -0.0000000  -0.2000000), wk =   0.0190476
        k(   82) = (   0.4285714   0.1666667   0.0000000), wk =   0.0190476
        k(   83) = (   0.4285714   0.1666667   0.2000000), wk =   0.0190476
        k(   84) = (   0.4285714   0.1666667   0.4000000), wk =   0.0190476
        k(   85) = (   0.4285714   0.1666667  -0.4000000), wk =   0.0190476
        k(   86) = (   0.4285714   0.1666667  -0.2000000), wk =   0.0190476
        k(   87) = (   0.4285714   0.3333333  -0.0000000), wk =   0.0190476
        k(   88) = (   0.4285714   0.3333333   0.2000000), wk =   0.0190476
        k(   89) = (   0.4285714   0.3333333   0.4000000), wk =   0.0190476
        k(   90) = (   0.4285714   0.3333333  -0.4000000), wk =   0.0190476
        k(   91) = (   0.4285714   0.3333333  -0.2000000), wk =   0.0190476
        k(   92) = (   0.4285714  -0.5000000   0.0000000), wk =   0.0190476
        k(   93) = (   0.4285714  -0.5000000   0.2000000), wk =   0.0190476
        k(   94) = (   0.4285714  -0.5000000   0.4000000), wk =   0.0190476
        k(   95) = (   0.4285714  -0.5000000  -0.4000000), wk =   0.0190476
        k(   96) = (   0.4285714  -0.5000000  -0.2000000), wk =   0.0190476
        k(   97) = (   0.4285714  -0.3333333   0.0000000), wk =   0.0190476
        k(   98) = (   0.4285714  -0.3333333   0.2000000), wk =   0.0190476
        k(   99) = (   0.4285714  -0.3333333   0.4000000), wk =   0.0190476
        k(  100) = (   0.4285714  -0.3333333  -0.4000000), wk =   0.0190476
        k(  101) = (   0.4285714  -0.3333333  -0.2000000), wk =   0.0190476
        k(  102) = (   0.4285714  -0.1666667   0.0000000), wk =   0.0190476
        k(  103) = (   0.4285714  -0.1666667   0.2000000), wk =   0.0190476
        k(  104) = (   0.4285714  -0.1666667   0.4000000), wk =   0.0190476
        k(  105) = (   0.4285714  -0.1666667  -0.4000000), wk =   0.0190476
        k(  106) = (   0.4285714  -0.1666667  -0.2000000), wk =   0.0190476

     Dense  grid:    67103 G-vectors     FFT dimensions: (  64,  45,  60)

     Smooth grid:    41617 G-vectors     FFT dimensions: (  54,  36,  48)

     Dynamical RAM for                 wfc:       0.10 MB

     Dynamical RAM for     wfc (w. buffer):      10.58 MB

     Dynamical RAM for           str. fact:       0.13 MB

     Dynamical RAM for           local pot:       0.00 MB

     Dynamical RAM for          nlocal pot:       0.32 MB

     Dynamical RAM for                qrad:       0.96 MB

     Dynamical RAM for          rho,v,vnew:       0.46 MB

     Dynamical RAM for               rhoin:       0.15 MB

     Dynamical RAM for            rho*nmix:       1.02 MB

     Dynamical RAM for           G-vectors:       0.26 MB

     Dynamical RAM for          h,s,v(r/c):       0.07 MB

     Dynamical RAM for          <psi|beta>:       0.02 MB

     Dynamical RAM for                 psi:       0.20 MB

     Dynamical RAM for                hpsi:       0.20 MB

     Dynamical RAM for                spsi:       0.20 MB

     Dynamical RAM for      wfcinit/wfcrot:       0.34 MB

     Dynamical RAM for           addusdens:       3.01 MB

     Dynamical RAM for          addusforce:       3.43 MB

     Dynamical RAM for         addusstress:       3.20 MB

     Estimated static dynamical RAM per process >      14.51 MB

     Estimated max dynamical RAM per process >      17.94 MB

     Estimated total dynamical RAM >     286.99 MB

     Check: negative core charge=   -0.000011

     Initial potential from superposition of free atoms

     starting charge   31.99884, renormalised to   32.00000
     Starting wfcs are   32 randomized atomic wfcs

     total cpu time spent up to now is        1.5 secs

     Self-consistent Calculation

     iteration #  1     ecut=    80.00 Ry     beta= 0.40
     Davidson diagonalization with overlap
     ethr =  1.00E-02,  avg # of iterations =  2.1

     total cpu time spent up to now is        3.6 secs

     total energy              =    -109.41602118 Ry
     estimated scf accuracy    <       1.45828214 Ry

     iteration #  2     ecut=    80.00 Ry     beta= 0.40
     Davidson diagonalization with overlap
     ethr =  4.56E-03,  avg # of iterations =  2.0

     total cpu time spent up to now is        5.6 secs

     total energy              =    -109.61508590 Ry
     estimated scf accuracy    <       0.09696876 Ry

     iteration #  3     ecut=    80.00 Ry     beta= 0.40
     Davidson diagonalization with overlap
     ethr =  3.03E-04,  avg # of iterations =  2.8

     total cpu time spent up to now is        7.5 secs

     total energy              =    -109.62070789 Ry
     estimated scf accuracy    <       0.02813366 Ry

     iteration #  4     ecut=    80.00 Ry     beta= 0.40
     Davidson diagonalization with overlap
     ethr =  8.79E-05,  avg # of iterations =  3.2

     total cpu time spent up to now is        9.5 secs

     total energy              =    -109.62447819 Ry
     estimated scf accuracy    <       0.00164283 Ry

     iteration #  5     ecut=    80.00 Ry     beta= 0.40
     Davidson diagonalization with overlap
     ethr =  5.13E-06,  avg # of iterations =  5.6

     total cpu time spent up to now is       12.0 secs

     total energy              =    -109.62497398 Ry
     estimated scf accuracy    <       0.00031494 Ry

     iteration #  6     ecut=    80.00 Ry     beta= 0.40
     Davidson diagonalization with overlap
     ethr =  9.84E-07,  avg # of iterations =  2.5

     total cpu time spent up to now is       14.0 secs

     total energy              =    -109.62502834 Ry
     estimated scf accuracy    <       0.00002439 Ry

     iteration #  7     ecut=    80.00 Ry     beta= 0.40
     Davidson diagonalization with overlap
     ethr =  7.62E-08,  avg # of iterations =  5.0

     total cpu time spent up to now is       16.7 secs

     total energy              =    -109.62504264 Ry
     estimated scf accuracy    <       0.00000130 Ry

     iteration #  8     ecut=    80.00 Ry     beta= 0.40
     Davidson diagonalization with overlap
     ethr =  4.05E-09,  avg # of iterations =  4.3

     total cpu time spent up to now is       19.1 secs

     total energy              =    -109.62504327 Ry
     estimated scf accuracy    <       0.00000032 Ry

     iteration #  9     ecut=    80.00 Ry     beta= 0.40
     Davidson diagonalization with overlap
     ethr =  1.01E-09,  avg # of iterations =  2.1

     total cpu time spent up to now is       21.0 secs

     total energy              =    -109.62504334 Ry
     estimated scf accuracy    <       0.00000003 Ry

     iteration # 10     ecut=    80.00 Ry     beta= 0.40
     Davidson diagonalization with overlap
     ethr =  7.85E-11,  avg # of iterations =  3.2

     total cpu time spent up to now is       23.1 secs

     total energy              =    -109.62504334 Ry
     estimated scf accuracy    <          1.4E-09 Ry

     iteration # 11     ecut=    80.00 Ry     beta= 0.40
     Davidson diagonalization with overlap
     ethr =  4.34E-12,  avg # of iterations =  4.8

     total cpu time spent up to now is       25.7 secs

     End of self-consistent calculation

          k = 0.0000 0.0000 0.0000 (  5211 PWs)   bands (ev):

   -11.7536  -8.5165  -8.4337  -8.3301  -2.8121  -1.5551  -1.2955   0.0615
     0.5565   2.1816   3.4970   3.8065   4.6439   5.6346   5.7919   5.9778
    10.0819  11.6702  12.5663  12.5961

     occupation numbers 
     1.0000   1.0000   1.0000   1.0000   1.0000   1.0000   1.0000   1.0000
     1.0000   1.0000   1.0000   1.0000   1.0000   1.0000   1.0000   1.0000
     0.0000   0.0000   0.0000   0.0000

          k = 0.0000 0.0000 0.2349 (  5208 PWs)   bands (ev):

   -11.5468  -8.9869  -8.4267  -8.3267  -2.2707  -1.8800  -1.7221   0.6860
     1.1307   2.2011   3.4684   3.7374   3.9373   5.6679   5.8179   5.9127
    10.0603  11.4699  13.0472  13.0826

     occupation numbers 
     1.0000   1.0000   1.0000   1.0000   1.0000   1.0000   1.0000   1.0000
     1.0000   1.0000   1.0000   1.0000   1.0000   1.0000   1.0000   1.0000
     0.0000   0.0000   0.0000   0.0000

          k = 0.0000 0.0000 0.4697 (  5185 PWs)   bands (ev):

   -10.9465 -10.0138  -8.3572  -8.2623  -2.5978  -2.4838  -0.0787   1.4808
     1.6170   1.9214   2.6747   2.9744   4.4506   5.2251   5.8302   5.8872
    10.3294  10.9433  13.8090  13.8995

     occupation numbers 
     1.0000   1.0000   1.0000   1.0000   1.0000   1.0000   1.0000   1.0000
     1.0000   1.0000   1.0000   1.0000   1.0000   1.0000   1.0000   1.0000
     0.0000   0.0000   0.0000   0.0000

          k = 0.0000 0.2636-0.0710 (  5202 PWs)   bands (ev):

   -11.5592  -8.7648  -8.4212  -8.0994  -2.6736  -1.6617  -1.0607  -0.0841
     0.7448   1.9047   2.7704   3.3753   4.3507   4.9373   5.4912   6.3700
    10.7082  12.0851  12.5422  13.8216

     occupation numbers 
     1.0000   1.0000   1.0000   1.0000   1.0000   1.0000   1.0000   1.0000
     1.0000   1.0000   1.0000   1.0000   1.0000   1.0000   1.0000   1.0000
     0.0000   0.0000   0.0000   0.0000

          k = 0.0000 0.2636 0.1638 (  5195 PWs)   bands (ev):

   -11.4557  -8.7395  -8.6508  -8.1353  -2.3716  -1.8499  -1.4235   0.1444
     1.1594   2.0512   3.1492   3.4123   4.0416   4.8934   5.2097   6.0046
    10.2757  12.1920  13.3041  13.7488

     occupation numbers 
     1.0000   1.0000   1.0000   1.0000   1.0000   1.0000   1.0000   1.0000
     1.0000   1.0000   1.0000   1.0000   1.0000   1.0000   1.0000   1.0000
     0.0000   0.0000   0.0000   0.0000

          k = 0.0000 0.2636 0.3987 (  5190 PWs)   bands (ev):

   -10.9642  -9.6448  -8.5245  -8.1820  -2.5033  -2.1578  -0.6642   1.1445
     1.4640   1.9114   2.7186   3.0507   4.0113   4.6824   5.1485   5.9910
    10.3154  11.9389  13.9035  14.1477

     occupation numbers 
     1.0000   1.0000   1.0000   1.0000   1.0000   1.0000   1.0000   1.0000
     1.0000   1.0000   1.0000   1.0000   1.0000   1.0000   1.0000   1.0000
     0.0000   0.0000   0.0000   0.0000

          k = 0.0000 0.2636-0.5407 (  5194 PWs)   bands (ev):

   -10.6075 -10.1218  -8.4292  -8.2438  -2.5917  -2.2452   0.2998   0.9358
     1.3321   1.8189   2.3864   2.8629   3.7666   4.6855   5.6526   6.1521
    10.7756  11.5444  13.4363  14.5223

     occupation numbers 
     1.0000   1.0000   1.0000   1.0000   1.0000   1.0000   1.0000   1.0000
     1.0000   1.0000   1.0000   1.0000   1.0000   1.0000   1.0000   1.0000
     0.0000   0.0000   0.0000   0.0000

          k = 0.0000 0.2636-0.3059 (  5199 PWs)   bands (ev):

   -11.2635  -9.1732  -8.5725  -8.1521  -2.3278  -1.7524  -1.3814   0.7602
     1.2889   1.7623   2.7303   3.0854   3.5063   4.9550   5.9103   6.3790
    11.1690  11.5116  12.6374  14.3172

     occupation numbers 
     1.0000   1.0000   1.0000   1.0000   1.0000   1.0000   1.0000   1.0000
     1.0000   1.0000   1.0000   1.0000   1.0000   1.0000   1.0000   1.0000
     0.0000   0.0000   0.0000   0.0000

          k = 0.0000 0.5273-0.1420 (  5193 PWs)   bands (ev):

   -11.0775  -9.0906  -8.3754  -7.9346  -2.4157  -1.7499  -0.7758  -0.0903
     0.9631   1.0874   1.9286   2.8542   3.5943   4.4522   5.0163   6.4371
    10.9158  12.1080  12.6870  14.7795

     occupation numbers 
     1.0000   1.0000   1.0000   1.0000   1.0000   1.0000   1.0000   1.0000
     1.0000   1.0000   1.0000   1.0000   1.0000   1.0000   1.0000   1.0000
     0.0000   0.0000   0.0000   0.0000

          k = 0.0000 0.5273 0.0928 (  5207 PWs)   bands (ev):

   -11.0432  -8.9977  -8.4531  -8.0491  -2.4238  -1.6848  -0.7832  -0.3841
     1.0367   1.4964   2.1625   3.0519   3.6333   4.2879   4.6963   6.0067
    10.5664  12.5684  13.2278  14.6260

     occupation numbers 
     1.0000   1.0000   1.0000   1.0000   1.0000   1.0000   1.0000   1.0000
     1.0000   1.0000   1.0000   1.0000   1.0000   1.0000   1.0000   1.0000
     0.0000   0.0000   0.0000   0.0000

          k = 0.0000 0.5273 0.3277 (  5197 PWs)   bands (ev):

   -10.6745  -9.2546  -8.7674  -8.1314  -2.4568  -1.4859  -1.1493   0.7595
     0.8643   1.7352   2.4670   2.8810   3.2456   4.1218   4.5977   5.7534
    10.5014  12.6150  13.6468  14.3083

     occupation numbers 
     1.0000   1.0000   1.0000   1.0000   1.0000   1.0000   1.0000   1.0000
     1.0000   1.0000   1.0000   1.0000   1.0000   1.0000   1.0000   1.0000
     0.0000   0.0000   0.0000   0.0000

          k = 0.0000 0.5273-0.6117 (  5204 PWs)   bands (ev):

   -10.2549  -9.8544  -8.6214  -8.2110  -2.5393  -1.6414  -0.0940   0.2917
     0.7243   1.8663   2.2112   2.8804   3.0315   4.0507   4.9482   5.9041
    10.7221  12.3199  13.2723  14.5495

     occupation numbers 
     1.0000   1.0000   1.0000   1.0000   1.0000   1.0000   1.0000   1.0000
     1.0000   1.0000   1.0000   1.0000   1.0000   1.0000   1.0000   1.0000
     0.0000   0.0000   0.0000   0.0000

          k = 0.0000 0.5273-0.3769 (  5193 PWs)   bands (ev):

   -10.7679  -9.3098  -8.6056  -8.0701  -2.3680  -1.3637  -1.0903   0.3075
     0.9023   1.5620   2.1019   2.7069   2.9275   4.3456   5.3376   6.2867
    11.0783  11.9440  12.6625  14.7706

     occupation numbers 
     1.0000   1.0000   1.0000   1.0000   1.0000   1.0000   1.0000   1.0000
     1.0000   1.0000   1.0000   1.0000   1.0000   1.0000   1.0000   1.0000
     0.0000   0.0000   0.0000   0.0000

          k = 0.0000-0.7909 0.2130 (  5190 PWs)   bands (ev):

   -10.7416  -9.3143  -8.3455  -7.9006  -2.3136  -1.7950  -0.7131   0.0491
     0.7095   1.2013   1.5244   2.6686   3.1153   4.3214   4.8077   6.4080
    10.7472  11.8265  12.7284  14.8331

     occupation numbers 
     1.0000   1.0000   1.0000   1.0000   1.0000   1.0000   1.0000   1.0000
     1.0000   1.0000   1.0000   1.0000   1.0000   1.0000   1.0000   1.0000
     0.0000   0.0000   0.0000   0.0000

          k = 0.0000-0.7909 0.4479 (  5198 PWs)   bands (ev):

   -10.6137  -9.2979  -8.4612  -8.0696  -2.4150  -1.4110  -0.8068  -0.0332
     0.6425   1.3701   1.7574   2.7646   3.1706   4.1202   4.7180   6.1140
    10.5398  12.1577  13.0454  14.6548

     occupation numbers 
     1.0000   1.0000   1.0000   1.0000   1.0000   1.0000   1.0000   1.0000
     1.0000   1.0000   1.0000   1.0000   1.0000   1.0000   1.0000   1.0000
     0.0000   0.0000   0.0000   0.0000

          k = 0.0000-0.7909 0.6828 (  5210 PWs)   bands (ev):

   -10.3108  -9.3794  -8.7813  -8.1591  -2.5158  -1.3464  -0.7096   0.1880
     0.6213   1.7421   2.2643   2.7458   2.9103   3.7884   4.5952   5.7245
    10.2965  12.6495  13.3863  14.3650

     occupation numbers 
     1.0000   1.0000   1.0000   1.0000   1.0000   1.0000   1.0000   1.0000
     1.0000   1.0000   1.0000   1.0000   1.0000   1.0000   1.0000   1.0000
     0.0000   0.0000   0.0000   0.0000

          k = 0.1429-0.0460-0.0010 (  5214 PWs)   bands (ev):

   -11.6690  -9.0965  -8.3841  -7.9305  -2.7383  -1.6656  -0.7976  -0.4570
     1.1152   1.9237   3.3601   3.7454   4.4792   5.5265   5.8493   6.0054
    10.1899  11.6981  12.4848  12.8686

     occupation numbers 
     1.0000   1.0000   1.0000   1.0000   1.0000   1.0000   1.0000   1.0000
     1.0000   1.0000   1.0000   1.0000   1.0000   1.0000   1.0000   1.0000
     0.0000   0.0000   0.0000   0.0000

          k = 0.1429-0.0460 0.2338 (  5213 PWs)   bands (ev):

   -11.4653  -8.9904  -8.8912  -8.0295  -2.2575  -1.8832  -1.2659   0.3358
     1.5124   1.9884   3.1854   3.7592   3.9023   5.5906   5.7713   5.9592
    10.1916  11.4933  12.9112  13.3193

     occupation numbers 
     1.0000   1.0000   1.0000   1.0000   1.0000   1.0000   1.0000   1.0000
     1.0000   1.0000   1.0000   1.0000   1.0000   1.0000   1.0000   1.0000
     0.0000   0.0000   0.0000   0.0000

          k = 0.1429-0.0460 0.4687 (  5181 PWs)   bands (ev):

   -10.8705  -9.9368  -8.6509  -8.2968  -2.4536  -2.1044  -0.0783   1.3348
     1.5901   1.9448   2.5401   2.8715   4.4027   5.1801   5.7718   5.8927
    10.4369  11.0214  13.6541  14.0356

     occupation numbers 
     1.0000   1.0000   1.0000   1.0000   1.0000   1.0000   1.0000   1.0000
     1.0000   1.0000   1.0000   1.0000   1.0000   1.0000   1.0000   1.0000
     0.0000   0.0000   0.0000   0.0000

          k = 0.1429-0.0460-0.4707 (  5206 PWs)   bands (ev):

   -10.8633  -9.9474  -8.6752  -8.2681  -2.4351  -2.1205  -0.0674   1.2892
     1.6132   1.9554   2.5207   2.8835   4.4121   5.1431   5.8226   5.8662
    10.4187  11.0478  13.6788  14.0279

     occupation numbers 
     1.0000   1.0000   1.0000   1.0000   1.0000   1.0000   1.0000   1.0000
     1.0000   1.0000   1.0000   1.0000   1.0000   1.0000   1.0000   1.0000
     0.0000   0.0000   0.0000   0.0000

          k = 0.1429-0.0460-0.2359 (  5207 PWs)   bands (ev):

   -11.4616  -9.0293  -8.8737  -8.0113  -2.2516  -1.8332  -1.3062   0.2854
     1.5492   1.9967   3.1966   3.7295   3.8894   5.5355   5.8509   5.9436
    10.1644  11.5571  12.8999  13.3356

     occupation numbers 
     1.0000   1.0000   1.0000   1.0000   1.0000   1.0000   1.0000   1.0000
     1.0000   1.0000   1.0000   1.0000   1.0000   1.0000   1.0000   1.0000
     0.0000   0.0000   0.0000   0.0000

          k = 0.1429 0.2177-0.0720 (  5203 PWs)   bands (ev):

   -11.5630  -8.7418  -8.4141  -8.1226  -2.6838  -1.5660  -1.1997  -0.0139
     0.6532   1.9707   2.8354   3.3023   4.3857   4.8839   5.5550   6.3501
    10.7018  12.0590  12.5692  13.8185

     occupation numbers 
     1.0000   1.0000   1.0000   1.0000   1.0000   1.0000   1.0000   1.0000
     1.0000   1.0000   1.0000   1.0000   1.0000   1.0000   1.0000   1.0000
     0.0000   0.0000   0.0000   0.0000

          k = 0.1429 0.2177 0.1628 (  5197 PWs)   bands (ev):

   -11.4614  -8.7102  -8.6365  -8.1681  -2.3675  -1.8609  -1.4753   0.2217
     1.0694   2.0992   3.1805   3.4367   4.0758   4.8270   5.2286   5.9901
    10.2579  12.1871  13.3266  13.7457

     occupation numbers 
     1.0000   1.0000   1.0000   1.0000   1.0000   1.0000   1.0000   1.0000
     1.0000   1.0000   1.0000   1.0000   1.0000   1.0000   1.0000   1.0000
     0.0000   0.0000   0.0000   0.0000

          k = 0.1429 0.2177 0.3977 (  5196 PWs)   bands (ev):

   -10.9699  -9.6463  -8.5016  -8.1866  -2.4650  -2.2548  -0.6635   1.1822
     1.4839   1.9037   2.7829   2.9855   4.0594   4.6078   5.2158   5.9617
    10.2789  11.9642  13.8921  14.1741

     occupation numbers 
     1.0000   1.0000   1.0000   1.0000   1.0000   1.0000   1.0000   1.0000
     1.0000   1.0000   1.0000   1.0000   1.0000   1.0000   1.0000   1.0000
     0.0000   0.0000   0.0000   0.0000

          k = 0.1429 0.2177-0.5418 (  5198 PWs)   bands (ev):

   -10.5983 -10.1426  -8.4553  -8.1921  -2.5406  -2.3526   0.3083   0.9502
     1.3964   1.7673   2.4310   2.8066   3.7954   4.6575   5.7157   6.1197
    10.7140  11.5981  13.4436  14.5359

     occupation numbers 
     1.0000   1.0000   1.0000   1.0000   1.0000   1.0000   1.0000   1.0000
     1.0000   1.0000   1.0000   1.0000   1.0000   1.0000   1.0000   1.0000
     0.0000   0.0000   0.0000   0.0000

          k = 0.1429 0.2177-0.3069 (  5202 PWs)   bands (ev):

   -11.2643  -9.1902  -8.5522  -8.1471  -2.2833  -1.8093  -1.4111   0.7669
     1.2606   1.8492   2.7759   2.9697   3.5234   4.9494   6.0209   6.3092
    11.0812  11.6002  12.6331  14.3086

     occupation numbers 
     1.0000   1.0000   1.0000   1.0000   1.0000   1.0000   1.0000   1.0000
     1.0000   1.0000   1.0000   1.0000   1.0000   1.0000   1.0000   1.0000
     0.0000   0.0000   0.0000   0.0000

          k = 0.1429 0.4813-0.1431 (  5196 PWs)   bands (ev):

   -11.1451  -8.8709  -8.3137  -8.1154  -2.4725  -1.4996  -1.2652   0.0867
     0.6136   1.3688   2.2039   2.5616   3.8012   4.2959   5.3020   6.3420
    10.9165  12.3472  12.4483  14.8514

     occupation numbers 
     1.0000   1.0000   1.0000   1.0000   1.0000   1.0000   1.0000   1.0000
     1.0000   1.0000   1.0000   1.0000   1.0000   1.0000   1.0000   1.0000
     0.0000   0.0000   0.0000   0.0000

          k = 0.1429 0.4813 0.0918 (  5189 PWs)   bands (ev):

   -11.1195  -8.6028  -8.4371  -8.3455  -2.4182  -1.7710  -1.1254  -0.0340
     0.5878   1.8873   2.3333   3.0245   3.8927   4.0538   4.7242   5.9501
    10.5464  12.6360  13.2509  14.7026

     occupation numbers 
     1.0000   1.0000   1.0000   1.0000   1.0000   1.0000   1.0000   1.0000
     1.0000   1.0000   1.0000   1.0000   1.0000   1.0000   1.0000   1.0000
     0.0000   0.0000   0.0000   0.0000

          k = 0.1429 0.4813 0.3266 (  5191 PWs)   bands (ev):

   -10.7453  -9.2790  -8.5202  -8.2052  -2.2875  -2.0947  -1.1317   0.9453
     1.1860   1.5631   2.3877   2.7518   3.6165   4.0295   4.6990   5.6247
    10.5779  12.4210  14.0117  14.1742

     occupation numbers 
     1.0000   1.0000   1.0000   1.0000   1.0000   1.0000   1.0000   1.0000
     1.0000   1.0000   1.0000   1.0000   1.0000   1.0000   1.0000   1.0000
     0.0000   0.0000   0.0000   0.0000

          k = 0.1429 0.4813-0.6128 (  5208 PWs)   bands (ev):

   -10.2139 -10.0255  -8.5147  -8.0843  -2.3880  -2.2382   0.0405   0.3420
     1.1589   1.3910   2.2773   2.7701   3.2139   4.0524   5.1746   5.7633
    10.9479  12.0145  13.3228  14.7559

     occupation numbers 
     1.0000   1.0000   1.0000   1.0000   1.0000   1.0000   1.0000   1.0000
     1.0000   1.0000   1.0000   1.0000   1.0000   1.0000   1.0000   1.0000
     0.0000   0.0000   0.0000   0.0000

          k = 0.1429 0.4813-0.3779 (  5200 PWs)   bands (ev):

   -10.8137  -9.3597  -8.3597  -8.1540  -2.1681  -1.8357  -1.1858   0.4691
     1.1547   1.3526   2.2182   2.4451   3.0473   4.3666   5.7645   6.0029
    11.4373  11.6635  12.5503  14.9015

     occupation numbers 
     1.0000   1.0000   1.0000   1.0000   1.0000   1.0000   1.0000   1.0000
     1.0000   1.0000   1.0000   1.0000   1.0000   1.0000   1.0000   1.0000
     0.0000   0.0000   0.0000   0.0000

          k = 0.1429-0.8369 0.2120 (  5193 PWs)   bands (ev):

   -10.7246  -9.3549  -8.2873  -7.9464  -2.2771  -1.6271  -0.9216  -0.2412
     0.8916   1.3690   1.6677   2.5254   3.1245   4.0557   5.1601   6.2556
    10.7616  11.9539  12.5371  14.8022

     occupation numbers 
     1.0000   1.0000   1.0000   1.0000   1.0000   1.0000   1.0000   1.0000
     1.0000   1.0000   1.0000   1.0000   1.0000   1.0000   1.0000   1.0000
     0.0000   0.0000   0.0000   0.0000

          k = 0.1429-0.8369 0.4469 (  5193 PWs)   bands (ev):

   -10.6662  -9.0297  -8.5547  -8.2216  -2.3234  -1.5963  -0.5621  -0.2644
     0.5885   1.3757   1.9493   2.8244   3.4364   3.9705   4.5682   6.0896
    10.3850  12.4216  12.9749  14.4481

     occupation numbers 
     1.0000   1.0000   1.0000   1.0000   1.0000   1.0000   1.0000   1.0000
     1.0000   1.0000   1.0000   1.0000   1.0000   1.0000   1.0000   1.0000
     0.0000   0.0000   0.0000   0.0000

          k = 0.1429-0.8369 0.6817 (  5204 PWs)   bands (ev):

   -10.3731  -9.1595  -8.7762  -8.3531  -2.3085  -1.4616  -1.1130   0.6579
     0.8331   1.3415   2.2660   2.5085   3.3397   3.9206   4.4284   5.6443
    10.3115  12.4892  13.5133  14.2805

     occupation numbers 
     1.0000   1.0000   1.0000   1.0000   1.0000   1.0000   1.0000   1.0000
     1.0000   1.0000   1.0000   1.0000   1.0000   1.0000   1.0000   1.0000
     0.0000   0.0000   0.0000   0.0000

          k = 0.1429-0.8369-0.2577 (  5212 PWs)   bands (ev):

   -10.1664  -9.6540  -8.7269  -8.0797  -2.3611  -1.7245  -0.4053   0.1580
     0.7652   1.6638   2.2121   2.4759   2.9087   3.7919   4.8499   5.6497
    10.5445  12.1420  13.5610  14.4341

     occupation numbers 
     1.0000   1.0000   1.0000   1.0000   1.0000   1.0000   1.0000   1.0000
     1.0000   1.0000   1.0000   1.0000   1.0000   1.0000   1.0000   1.0000
     0.0000   0.0000   0.0000   0.0000

          k = 0.1429-0.8369-0.0228 (  5194 PWs)   bands (ev):

   -10.5066  -9.5736  -8.3312  -8.0261  -2.1949  -1.5116  -1.0952   0.0798
     0.7051   1.5715   1.7966   2.4966   2.9584   3.9964   5.1941   5.9413
    10.9287  11.8297  12.7928  14.8641

     occupation numbers 
     1.0000   1.0000   1.0000   1.0000   1.0000   1.0000   1.0000   1.0000
     1.0000   1.0000   1.0000   1.0000   1.0000   1.0000   1.0000   1.0000
     0.0000   0.0000   0.0000   0.0000

          k = 0.1429-0.5732 0.1410 (  5201 PWs)   bands (ev):

   -10.8841  -9.5486  -8.2854  -7.8435  -2.2550  -1.6368  -0.8581   0.1298
     0.6482   1.5235   1.7673   2.8740   3.3012   4.3098   5.0655   6.3913
    10.9627  11.9874  12.6863  14.6338

     occupation numbers 
     1.0000   1.0000   1.0000   1.0000   1.0000   1.0000   1.0000   1.0000
     1.0000   1.0000   1.0000   1.0000   1.0000   1.0000   1.0000   1.0000
     0.0000   0.0000   0.0000   0.0000

          k = 0.1429-0.5732 0.3759 (  5182 PWs)   bands (ev):

   -10.6239  -9.3623  -8.7841  -8.1301  -2.2327  -1.2542  -0.6998   0.1536
     0.8587   1.4806   1.8908   2.8645   3.0279   4.2468   5.0409   6.3497
    10.7928  12.1576  12.7508  14.4767

     occupation numbers 
     1.0000   1.0000   1.0000   1.0000   1.0000   1.0000   1.0000   1.0000
     1.0000   1.0000   1.0000   1.0000   1.0000   1.0000   1.0000   1.0000
     0.0000   0.0000   0.0000   0.0000

          k = 0.1429-0.5732 0.6107 (  5195 PWs)   bands (ev):

   -10.1991  -9.5740  -8.8607  -8.5164  -2.2661  -1.0102  -0.5362   0.3653
     0.7139   1.6712   2.2125   2.6831   3.1269   4.1763   4.7155   5.9459
    10.5480  12.6070  13.1377  14.1920

     occupation numbers 
     1.0000   1.0000   1.0000   1.0000   1.0000   1.0000   1.0000   1.0000
     1.0000   1.0000   1.0000   1.0000   1.0000   1.0000   1.0000   1.0000
     0.0000   0.0000   0.0000   0.0000

          k = 0.1429-0.5732-0.3287 (  5190 PWs)   bands (ev):

   -10.4741  -9.3671  -8.9740  -8.1790  -2.2413  -1.2825  -0.6556   0.3147
     0.7469   1.8298   2.2778   2.6194   3.2378   4.0104   4.7588   5.8351
    10.5274  12.6164  13.3609  14.2538

     occupation numbers 
     1.0000   1.0000   1.0000   1.0000   1.0000   1.0000   1.0000   1.0000
     1.0000   1.0000   1.0000   1.0000   1.0000   1.0000   1.0000   1.0000
     0.0000   0.0000   0.0000   0.0000

          k = 0.1429-0.5732-0.0939 (  5211 PWs)   bands (ev):

   -10.8288  -9.5370  -8.3481  -7.9231  -2.2369  -1.5385  -0.8696   0.0725
     0.6040   1.7549   2.0922   2.6456   3.2882   4.2239   5.0303   6.0490
    10.7466  12.3252  13.0531  14.5249

     occupation numbers 
     1.0000   1.0000   1.0000   1.0000   1.0000   1.0000   1.0000   1.0000
     1.0000   1.0000   1.0000   1.0000   1.0000   1.0000   1.0000   1.0000
     0.0000   0.0000   0.0000   0.0000

          k = 0.1429-0.3096 0.0700 (  5201 PWs)   bands (ev):

   -11.3930  -9.4002  -8.3241  -7.8171  -2.5175  -1.6450  -0.7940  -0.2145
     1.2685   1.5223   2.5578   3.3423   4.0619   4.9672   5.3620   6.4272
    10.8335  12.0523  12.5400  14.0628

     occupation numbers 
     1.0000   1.0000   1.0000   1.0000   1.0000   1.0000   1.0000   1.0000
     1.0000   1.0000   1.0000   1.0000   1.0000   1.0000   1.0000   1.0000
     0.0000   0.0000   0.0000   0.0000

          k = 0.1429-0.3096 0.3048 (  5190 PWs)   bands (ev):

   -11.1065  -9.2521  -8.9380  -8.0396  -2.2240  -1.4725  -0.9204   0.4026
     1.2524   1.8088   2.4600   3.2010   3.3711   4.8601   5.6823   6.4526
    11.0723  11.7898  12.5183  14.4136

     occupation numbers 
     1.0000   1.0000   1.0000   1.0000   1.0000   1.0000   1.0000   1.0000
     1.0000   1.0000   1.0000   1.0000   1.0000   1.0000   1.0000   1.0000
     0.0000   0.0000   0.0000   0.0000

          k = 0.1429-0.3096 0.5397 (  5185 PWs)   bands (ev):

   -10.4766  -9.9562  -8.7732  -8.4823  -2.2885  -1.5799   0.2024   0.7568
     1.1278   1.9881   2.1715   2.8185   3.5041   4.7727   5.5007   6.1424
    10.8362  11.7662  13.2584  14.3285

     occupation numbers 
     1.0000   1.0000   1.0000   1.0000   1.0000   1.0000   1.0000   1.0000
     1.0000   1.0000   1.0000   1.0000   1.0000   1.0000   1.0000   1.0000
     0.0000   0.0000   0.0000   0.0000

          k = 0.1429-0.3096-0.3997 (  5185 PWs)   bands (ev):

   -10.8042  -9.5217  -8.9882  -8.2551  -2.2539  -1.4664  -0.6654   0.9616
     1.1933   1.9197   2.4635   2.9559   3.8836   4.8541   4.9665   6.0136
    10.5175  12.0927  13.7112  13.9898

     occupation numbers 
     1.0000   1.0000   1.0000   1.0000   1.0000   1.0000   1.0000   1.0000
     1.0000   1.0000   1.0000   1.0000   1.0000   1.0000   1.0000   1.0000
     0.0000   0.0000   0.0000   0.0000

          k = 0.1429-0.3096-0.1649 (  5184 PWs)   bands (ev):

   -11.2879  -9.3269  -8.5885  -7.9086  -2.2312  -1.7971  -0.7631  -0.2257
     1.3647   1.8452   2.8845   3.2201   3.7548   4.9256   5.3117   6.0640
    10.5111  12.2506  13.0825  13.9285

     occupation numbers 
     1.0000   1.0000   1.0000   1.0000   1.0000   1.0000   1.0000   1.0000
     1.0000   1.0000   1.0000   1.0000   1.0000   1.0000   1.0000   1.0000
     0.0000   0.0000   0.0000   0.0000

          k = 0.2857-0.0919-0.0021 (  5215 PWs)   bands (ev):

   -11.4180  -9.8036  -8.2372  -7.7437  -2.5207  -1.4279  -1.0645   0.0531
     1.2248   1.8573   2.8955   3.6831   4.0480   5.2546   5.9431   6.1117
    10.4691  11.7206  12.5252  13.4772

     occupation numbers 
     1.0000   1.0000   1.0000   1.0000   1.0000   1.0000   1.0000   1.0000
     1.0000   1.0000   1.0000   1.0000   1.0000   1.0000   1.0000   1.0000
     0.0000   0.0000   0.0000   0.0000

          k = 0.2857-0.0919 0.2328 (  5204 PWs)   bands (ev):

   -11.2199  -9.6369  -8.7340  -7.9973  -1.9669  -1.7292  -0.4776  -0.0381
     1.3310   2.1293   2.5868   3.5541   3.8301   5.3362   5.8379   6.0156
    10.5414  11.5804  12.7659  13.8164

     occupation numbers 
     1.0000   1.0000   1.0000   1.0000   1.0000   1.0000   1.0000   1.0000
     1.0000   1.0000   1.0000   1.0000   1.0000   1.0000   1.0000   1.0000
     0.0000   0.0000   0.0000   0.0000

          k = 0.2857-0.0919 0.4676 (  5192 PWs)   bands (ev):

   -10.6394  -9.7230  -9.1790  -8.5762  -1.8653  -1.3453  -0.0952   1.0708
     1.3521   1.8274   2.2783   2.6507   4.3038   5.0586   5.7242   5.8827
    10.7474  11.2834  13.2971  14.0761

     occupation numbers 
     1.0000   1.0000   1.0000   1.0000   1.0000   1.0000   1.0000   1.0000
     1.0000   1.0000   1.0000   1.0000   1.0000   1.0000   1.0000   1.0000
     0.0000   0.0000   0.0000   0.0000

          k = 0.2857-0.0919-0.4718 (  5204 PWs)   bands (ev):

   -10.6251  -9.7475  -9.1962  -8.5475  -1.8623  -1.3388  -0.0757   1.0182
     1.3567   1.8207   2.2863   2.6571   4.3527   4.9700   5.7791   5.8674
    10.7127  11.3252  13.3445  14.0374

     occupation numbers 
     1.0000   1.0000   1.0000   1.0000   1.0000   1.0000   1.0000   1.0000
     1.0000   1.0000   1.0000   1.0000   1.0000   1.0000   1.0000   1.0000
     0.0000   0.0000   0.0000   0.0000

          k = 0.2857-0.0919-0.2369 (  5198 PWs)   bands (ev):

   -11.2125  -9.6552  -8.7433  -7.9761  -1.9678  -1.6862  -0.4606  -0.1195
     1.3342   2.1487   2.5810   3.5458   3.8454   5.2629   5.8900   6.0194
    10.4754  11.7179  12.7240  13.8392

     occupation numbers 
     1.0000   1.0000   1.0000   1.0000   1.0000   1.0000   1.0000   1.0000
     1.0000   1.0000   1.0000   1.0000   1.0000   1.0000   1.0000   1.0000
     0.0000   0.0000   0.0000   0.0000

          k = 0.2857 0.1717-0.0731 (  5216 PWs)   bands (ev):

   -11.4045  -9.3666  -8.3368  -7.8172  -2.5471  -1.5961  -0.7800  -0.3512
     1.2959   1.5190   2.6278   3.3459   4.1095   4.9153   5.3899   6.4231
    10.8220  11.9583  12.6261  14.0555

     occupation numbers 
     1.0000   1.0000   1.0000   1.0000   1.0000   1.0000   1.0000   1.0000
     1.0000   1.0000   1.0000   1.0000   1.0000   1.0000   1.0000   1.0000
     0.0000   0.0000   0.0000   0.0000

          k = 0.2857 0.1717 0.1618 (  5212 PWs)   bands (ev):

   -11.3049  -9.2745  -8.5963  -7.9231  -2.2571  -1.8311  -0.8293  -0.1823
     1.3969   1.8064   2.9821   3.2506   3.8227   4.9626   5.1907   6.0490
    10.4513  12.2139  13.1837  13.9168

     occupation numbers 
     1.0000   1.0000   1.0000   1.0000   1.0000   1.0000   1.0000   1.0000
     1.0000   1.0000   1.0000   1.0000   1.0000   1.0000   1.0000   1.0000
     0.0000   0.0000   0.0000   0.0000

          k = 0.2857 0.1717 0.3966 (  5199 PWs)   bands (ev):

   -10.8210  -9.5230  -8.9580  -8.2431  -2.2775  -1.5985  -0.6604   1.0128
     1.2556   1.9325   2.5223   2.9746   3.8798   4.7749   5.0143   6.0015
    10.4055  12.1633  13.8225  13.9498

     occupation numbers 
     1.0000   1.0000   1.0000   1.0000   1.0000   1.0000   1.0000   1.0000
     1.0000   1.0000   1.0000   1.0000   1.0000   1.0000   1.0000   1.0000
     0.0000   0.0000   0.0000   0.0000

          k = 0.2857 0.1717-0.5428 (  5207 PWs)   bands (ev):

   -10.4498 -10.0188  -8.8045  -8.3859  -2.3057  -1.7054   0.2361   0.8210
     1.1212   1.9925   2.2135   2.7945   3.5782   4.6281   5.6059   6.1348
    10.6923  11.8801  13.2966  14.3896

     occupation numbers 
     1.0000   1.0000   1.0000   1.0000   1.0000   1.0000   1.0000   1.0000
     1.0000   1.0000   1.0000   1.0000   1.0000   1.0000   1.0000   1.0000
     0.0000   0.0000   0.0000   0.0000

          k = 0.2857 0.1717-0.3079 (  5204 PWs)   bands (ev):

   -11.1090  -9.2804  -8.9216  -8.0068  -2.2212  -1.4690  -1.0135   0.3417
     1.3917   1.7735   2.5329   3.1222   3.4000   4.7857   5.8196   6.4179
    10.9529  11.9251  12.4823  14.4241

     occupation numbers 
     1.0000   1.0000   1.0000   1.0000   1.0000   1.0000   1.0000   1.0000
     1.0000   1.0000   1.0000   1.0000   1.0000   1.0000   1.0000   1.0000
     0.0000   0.0000   0.0000   0.0000

          k = 0.2857 0.4353-0.1441 (  5197 PWs)   bands (ev):

   -11.0794  -9.0810  -8.3698  -7.9440  -2.4433  -1.6225  -0.9586  -0.1058
     0.8920   1.1767   2.0564   2.7227   3.6979   4.3466   5.1896   6.3971
    10.9217  12.1608  12.6351  14.8155

     occupation numbers 
     1.0000   1.0000   1.0000   1.0000   1.0000   1.0000   1.0000   1.0000
     1.0000   1.0000   1.0000   1.0000   1.0000   1.0000   1.0000   1.0000
     0.0000   0.0000   0.0000   0.0000

          k = 0.2857 0.4353 0.0908 (  5195 PWs)   bands (ev):

   -11.0537  -8.9314  -8.4674  -8.0868  -2.4192  -1.7176  -0.9160  -0.2461
     0.8417   1.6552   2.2276   3.0733   3.7627   4.1666   4.7027   5.9984
    10.5836  12.5966  13.2653  14.6339

     occupation numbers 
     1.0000   1.0000   1.0000   1.0000   1.0000   1.0000   1.0000   1.0000
     1.0000   1.0000   1.0000   1.0000   1.0000   1.0000   1.0000   1.0000
     0.0000   0.0000   0.0000   0.0000

          k = 0.2857 0.4353 0.3256 (  5208 PWs)   bands (ev):

   -10.6820  -9.2455  -8.7556  -8.1319  -2.4168  -1.6991  -1.1301   0.8712
     1.0079   1.6197   2.4842   2.7840   3.3519   4.1531   4.6107   5.7068
    10.5728  12.5464  13.8071  14.2190

     occupation numbers 
     1.0000   1.0000   1.0000   1.0000   1.0000   1.0000   1.0000   1.0000
     1.0000   1.0000   1.0000   1.0000   1.0000   1.0000   1.0000   1.0000
     0.0000   0.0000   0.0000   0.0000

          k = 0.2857 0.4353-0.6138 (  5207 PWs)   bands (ev):

   -10.1168 -10.0274  -8.6454  -8.1303  -2.5118  -1.8310  -0.0270   0.3476
     0.8305   1.7391   2.2493   2.8033   3.0697   4.0395   5.0791   5.8412
    10.8493  12.1791  13.3064  14.6424

     occupation numbers 
     1.0000   1.0000   1.0000   1.0000   1.0000   1.0000   1.0000   1.0000
     1.0000   1.0000   1.0000   1.0000   1.0000   1.0000   1.0000   1.0000
     0.0000   0.0000   0.0000   0.0000

          k = 0.2857 0.4353-0.3790 (  5205 PWs)   bands (ev):

   -10.7503  -9.3820  -8.5672  -8.0414  -2.3062  -1.4918  -1.1337   0.3323
     1.0052   1.5198   2.1561   2.5661   2.9655   4.3365   5.5671   6.1560
    11.2218  11.8258  12.6262  14.8526

     occupation numbers 
     1.0000   1.0000   1.0000   1.0000   1.0000   1.0000   1.0000   1.0000
     1.0000   1.0000   1.0000   1.0000   1.0000   1.0000   1.0000   1.0000
     0.0000   0.0000   0.0000   0.0000

          k = 0.2857-0.8828 0.2110 (  5200 PWs)   bands (ev):

   -10.6841  -9.4317  -8.2560  -7.9552  -2.2612  -1.3988  -1.1414  -0.3787
     0.9676   1.3843   1.8763   2.3710   3.1896   3.8890   5.3908   6.1176
    10.7660  12.1327  12.3163  14.7884

     occupation numbers 
     1.0000   1.0000   1.0000   1.0000   1.0000   1.0000   1.0000   1.0000
     1.0000   1.0000   1.0000   1.0000   1.0000   1.0000   1.0000   1.0000
     0.0000   0.0000   0.0000   0.0000

          k = 0.2857-0.8828 0.4458 (  5185 PWs)   bands (ev):

   -10.6487  -9.0317  -8.5339  -8.2792  -2.2332  -1.6857  -0.6185  -0.0420
     0.2846   1.5859   2.0599   2.6537   3.5263   3.8827   4.6325   6.0555
    10.3709  12.5615  12.8285  14.4000

     occupation numbers 
     1.0000   1.0000   1.0000   1.0000   1.0000   1.0000   1.0000   1.0000
     1.0000   1.0000   1.0000   1.0000   1.0000   1.0000   1.0000   1.0000
     0.0000   0.0000   0.0000   0.0000

          k = 0.2857-0.8828 0.6807 (  5201 PWs)   bands (ev):

   -10.3567  -9.1033  -8.8123  -8.4150  -2.1141  -1.7260  -1.0741   0.7377
     0.9675   1.3356   2.0758   2.4501   3.4446   3.9509   4.4453   5.6085
    10.3803  12.3419  13.5822  14.2397

     occupation numbers 
     1.0000   1.0000   1.0000   1.0000   1.0000   1.0000   1.0000   1.0000
     1.0000   1.0000   1.0000   1.0000   1.0000   1.0000   1.0000   1.0000
     0.0000   0.0000   0.0000   0.0000

          k = 0.2857-0.8828-0.2587 (  5208 PWs)   bands (ev):

    -9.9818  -9.8593  -8.7330  -8.0702  -2.2023  -1.9092  -0.4260   0.2815
     0.9890   1.3671   2.2289   2.3754   2.9738   3.7715   4.9360   5.6242
    10.7409  11.8654  13.6120  14.4336

     occupation numbers 
     1.0000   1.0000   1.0000   1.0000   1.0000   1.0000   1.0000   1.0000
     1.0000   1.0000   1.0000   1.0000   1.0000   1.0000   1.0000   1.0000
     0.0000   0.0000   0.0000   0.0000

          k = 0.2857-0.8828-0.0239 (  5218 PWs)   bands (ev):

   -10.4183  -9.7109  -8.3080  -8.0128  -2.0022  -1.7144  -1.0714  -0.0359
     1.0156   1.4063   1.7145   2.7039   2.8276   3.8786   5.3984   5.8299
    11.2634  11.5214  12.7030  14.9094

     occupation numbers 
     1.0000   1.0000   1.0000   1.0000   1.0000   1.0000   1.0000   1.0000
     1.0000   1.0000   1.0000   1.0000   1.0000   1.0000   1.0000   1.0000
     0.0000   0.0000   0.0000   0.0000

          k = 0.2857-0.6192 0.1400 (  5204 PWs)   bands (ev):

   -10.6140  -9.9795  -8.1579  -7.8825  -2.1149  -1.2639  -0.9640  -0.4865
     1.0113   1.7403   2.1275   2.5449   3.0259   3.9232   5.6659   6.0297
    11.0445  12.1356  12.3452  14.5503

     occupation numbers 
     1.0000   1.0000   1.0000   1.0000   1.0000   1.0000   1.0000   1.0000
     1.0000   1.0000   1.0000   1.0000   1.0000   1.0000   1.0000   1.0000
     0.0000   0.0000   0.0000   0.0000

          k = 0.2857-0.6192 0.3748 (  5183 PWs)   bands (ev):

   -10.4419  -9.6024  -8.6785  -8.2932  -1.9371  -1.3277  -0.4376  -0.1630
     1.0767   1.6429   1.8168   2.4302   3.1210   4.2454   5.1195   6.1950
    10.6767  12.4093  12.5893  14.2598

     occupation numbers 
     1.0000   1.0000   1.0000   1.0000   1.0000   1.0000   1.0000   1.0000
     1.0000   1.0000   1.0000   1.0000   1.0000   1.0000   1.0000   1.0000
     0.0000   0.0000   0.0000   0.0000

          k = 0.2857-0.6192 0.6097 (  5196 PWs)   bands (ev):

   -10.0967  -9.2305  -9.0506  -8.9251  -1.7320  -1.2427  -0.5027   0.4257
     1.1260   1.3970   1.8988   2.3975   3.2100   4.4001   4.7261   5.8121
    10.5591  12.5015  13.1734  13.9565

     occupation numbers 
     1.0000   1.0000   1.0000   1.0000   1.0000   1.0000   1.0000   1.0000
     1.0000   1.0000   1.0000   1.0000   1.0000   1.0000   1.0000   1.0000
     0.0000   0.0000   0.0000   0.0000

          k = 0.2857-0.6192-0.3297 (  5203 PWs)   bands (ev):

   -10.1654  -9.7616  -8.8923  -8.3020  -1.8062  -1.5058  -0.2879   0.3096
     0.9027   1.3568   2.1797   2.3072   3.4312   3.8558   5.0185   5.7820
    10.7654  12.0922  13.5970  14.0196

     occupation numbers 
     1.0000   1.0000   1.0000   1.0000   1.0000   1.0000   1.0000   1.0000
     1.0000   1.0000   1.0000   1.0000   1.0000   1.0000   1.0000   1.0000
     0.0000   0.0000   0.0000   0.0000

          k = 0.2857-0.6192-0.0949 (  5199 PWs)   bands (ev):

   -10.4976 -10.0409  -8.2299  -7.9477  -1.9239  -1.5711  -0.8598  -0.0669
     0.9620   1.7035   1.7873   2.7954   3.0619   3.8303   5.4250   5.9967
    11.2381  11.7514  12.9069  14.4882

     occupation numbers 
     1.0000   1.0000   1.0000   1.0000   1.0000   1.0000   1.0000   1.0000
     1.0000   1.0000   1.0000   1.0000   1.0000   1.0000   1.0000   1.0000
     0.0000   0.0000   0.0000   0.0000

          k = 0.2857-0.3556 0.0690 (  5196 PWs)   bands (ev):

   -11.0711 -10.0508  -8.1497  -7.7882  -2.2500  -1.4263  -1.0381   0.4415
     0.6703   2.0092   2.4615   2.9788   3.6453   4.6336   5.7412   6.3536
    11.0172  11.9818  12.5997  14.2032

     occupation numbers 
     1.0000   1.0000   1.0000   1.0000   1.0000   1.0000   1.0000   1.0000
     1.0000   1.0000   1.0000   1.0000   1.0000   1.0000   1.0000   1.0000
     0.0000   0.0000   0.0000   0.0000

          k = 0.2857-0.3556 0.3038 (  5186 PWs)   bands (ev):

   -10.8025  -9.8040  -8.7639  -8.1812  -1.8531  -1.2338  -0.5100   0.4222
     0.7629   1.9874   2.2908   2.9250   3.1194   4.9298   5.6731   6.3335
    11.0089  12.0170  12.5318  14.2398

     occupation numbers 
     1.0000   1.0000   1.0000   1.0000   1.0000   1.0000   1.0000   1.0000
     1.0000   1.0000   1.0000   1.0000   1.0000   1.0000   1.0000   1.0000
     0.0000   0.0000   0.0000   0.0000

          k = 0.2857-0.3556 0.5387 (  5184 PWs)   bands (ev):

   -10.2213  -9.6623  -9.2364  -8.8822  -1.6261  -0.8270  -0.0672   0.4919
     1.1676   1.7250   2.0800   2.5296   3.2264   5.1212   5.4039   5.9500
    10.9584  12.1152  12.9897  13.8960

     occupation numbers 
     1.0000   1.0000   1.0000   1.0000   1.0000   1.0000   1.0000   1.0000
     1.0000   1.0000   1.0000   1.0000   1.0000   1.0000   1.0000   1.0000
     0.0000   0.0000   0.0000   0.0000

          k = 0.2857-0.3556-0.4008 (  5183 PWs)   bands (ev):

   -10.4995  -9.5833  -9.2383  -8.5343  -1.6694  -0.8276  -0.4978   0.7069
     0.9197   1.5269   2.3377   2.5994   3.9800   4.5652   5.3095   5.9061
    10.8758  12.3441  13.1494  13.7619

     occupation numbers 
     1.0000   1.0000   1.0000   1.0000   1.0000   1.0000   1.0000   1.0000
     1.0000   1.0000   1.0000   1.0000   1.0000   1.0000   1.0000   1.0000
     0.0000   0.0000   0.0000   0.0000

          k = 0.2857-0.3556-0.1659 (  5187 PWs)   bands (ev):

   -10.9645  -9.9667  -8.4003  -7.9494  -1.9535  -1.5793  -0.5802   0.2651
     0.6983   2.1661   2.2442   3.1858   3.5274   4.5447   5.6619   6.1119
    10.9797  12.1620  12.8510  14.0078

     occupation numbers 
     1.0000   1.0000   1.0000   1.0000   1.0000   1.0000   1.0000   1.0000
     1.0000   1.0000   1.0000   1.0000   1.0000   1.0000   1.0000   1.0000
     0.0000   0.0000   0.0000   0.0000

          k = 0.4286-0.1379-0.0031 (  5200 PWs)   bands (ev):

   -11.0098 -10.4598  -8.0336  -7.8124  -2.1820  -1.7050  -0.6394   0.2933
     0.9643   2.1592   2.5310   3.4922   3.7010   5.0382   6.0415   6.1564
    10.8376  11.4718  12.9130  14.1339

     occupation numbers 
     1.0000   1.0000   1.0000   1.0000   1.0000   1.0000   1.0000   1.0000
     1.0000   1.0000   1.0000   1.0000   1.0000   1.0000   1.0000   1.0000
     0.0000   0.0000   0.0000   0.0000

          k = 0.4286-0.1379 0.2318 (  5195 PWs)   bands (ev):

   -10.8208 -10.2714  -8.4730  -8.1976  -1.6393  -1.4971  -0.1753   0.3383
     0.7468   1.7629   2.6493   3.1856   3.8082   5.1200   5.9296   6.0391
    11.0331  11.4043  12.9163  14.1259

     occupation numbers 
     1.0000   1.0000   1.0000   1.0000   1.0000   1.0000   1.0000   1.0000
     1.0000   1.0000   1.0000   1.0000   1.0000   1.0000   1.0000   1.0000
     0.0000   0.0000   0.0000   0.0000

          k = 0.4286-0.1379 0.4666 (  5186 PWs)   bands (ev):

   -10.2671  -9.7514  -9.3761  -8.9876  -1.0735  -0.6267  -0.1606   0.6874
     1.0936   1.3033   2.3106   2.4532   4.2597   4.9326   5.7285   5.8752
    11.1680  11.5276  12.9920  13.6877

     occupation numbers 
     1.0000   1.0000   1.0000   1.0000   1.0000   1.0000   1.0000   1.0000
     1.0000   1.0000   1.0000   1.0000   1.0000   1.0000   1.0000   1.0000
     0.0000   0.0000   0.0000   0.0000

          k = 0.4286-0.1379-0.4728 (  5191 PWs)   bands (ev):

   -10.2455  -9.7866  -9.3862  -8.9632  -1.0957  -0.5791  -0.1432   0.6196
     1.0819   1.3298   2.3107   2.4571   4.2951   4.8797   5.7497   5.8728
    11.1401  11.5497  13.0573  13.6301

     occupation numbers 
     1.0000   1.0000   1.0000   1.0000   1.0000   1.0000   1.0000   1.0000
     1.0000   1.0000   1.0000   1.0000   1.0000   1.0000   1.0000   1.0000
     0.0000   0.0000   0.0000   0.0000

          k = 0.4286-0.1379-0.2380 (  5201 PWs)   bands (ev):

   -10.8100 -10.2855  -8.4897  -8.1769  -1.6311  -1.4924  -0.1587   0.3187
     0.7225   1.7606   2.6607   3.1824   3.8285   5.0805   5.9461   6.0433
    10.9317  11.5390  12.8977  14.1017

     occupation numbers 
     1.0000   1.0000   1.0000   1.0000   1.0000   1.0000   1.0000   1.0000
     1.0000   1.0000   1.0000   1.0000   1.0000   1.0000   1.0000   1.0000
     0.0000   0.0000   0.0000   0.0000

          k = 0.4286 0.1257-0.0741 (  5206 PWs)   bands (ev):

   -11.0899 -10.0195  -8.1723  -7.7689  -2.2853  -1.3957  -1.0511   0.3898
     0.6820   1.9727   2.4591   3.0483   3.6921   4.7296   5.5481   6.4393
    11.0154  11.8602  12.6968  14.2002

     occupation numbers 
     1.0000   1.0000   1.0000   1.0000   1.0000   1.0000   1.0000   1.0000
     1.0000   1.0000   1.0000   1.0000   1.0000   1.0000   1.0000   1.0000
     0.0000   0.0000   0.0000   0.0000

          k = 0.4286 0.1257 0.1607 (  5210 PWs)   bands (ev):

   -10.9925  -9.9202  -8.4089  -7.9480  -2.0065  -1.5982  -0.5087   0.0867
     0.7975   2.1654   2.3499   3.2013   3.4997   4.6704   5.4863   6.1553
    10.8830  12.1111  13.0089  13.9886

     occupation numbers 
     1.0000   1.0000   1.0000   1.0000   1.0000   1.0000   1.0000   1.0000
     1.0000   1.0000   1.0000   1.0000   1.0000   1.0000   1.0000   1.0000
     0.0000   0.0000   0.0000   0.0000

          k = 0.4286 0.1257 0.3956 (  5208 PWs)   bands (ev):

   -10.5265  -9.5352  -9.2618  -8.5139  -1.7354  -0.8554  -0.5700   0.7414
     0.9390   1.6514   2.3237   2.6802   3.9119   4.6708   5.1246   5.9819
    10.7210  12.4398  13.2753  13.7492

     occupation numbers 
     1.0000   1.0000   1.0000   1.0000   1.0000   1.0000   1.0000   1.0000
     1.0000   1.0000   1.0000   1.0000   1.0000   1.0000   1.0000   1.0000
     0.0000   0.0000   0.0000   0.0000

          k = 0.4286 0.1257-0.5438 (  5194 PWs)   bands (ev):

   -10.1796  -9.7749  -9.2453  -8.7808  -1.7058  -0.8887   0.0028   0.5001
     1.1205   1.7685   2.1032   2.5973   3.2706   4.8979   5.4697   6.0399
    10.8113  12.2118  13.0558  13.9607

     occupation numbers 
     1.0000   1.0000   1.0000   1.0000   1.0000   1.0000   1.0000   1.0000
     1.0000   1.0000   1.0000   1.0000   1.0000   1.0000   1.0000   1.0000
     0.0000   0.0000   0.0000   0.0000

          k = 0.4286 0.1257-0.3090 (  5197 PWs)   bands (ev):

   -10.8065  -9.8030  -8.7926  -8.1340  -1.8858  -1.2429  -0.4850   0.3141
     0.7966   2.0236   2.2848   2.9680   3.1788   4.8203   5.6886   6.3900
    10.9201  12.1379  12.4602  14.3159

     occupation numbers 
     1.0000   1.0000   1.0000   1.0000   1.0000   1.0000   1.0000   1.0000
     1.0000   1.0000   1.0000   1.0000   1.0000   1.0000   1.0000   1.0000
     0.0000   0.0000   0.0000   0.0000

          k = 0.4286 0.3894-0.1451 (  5186 PWs)   bands (ev):

   -10.8882  -9.5334  -8.3132  -7.8170  -2.3143  -1.6291  -0.7941   0.0452
     0.6975   1.4488   1.7201   2.9102   3.4000   4.4226   4.9589   6.4594
    10.9539  11.9648  12.7552  14.6868

     occupation numbers 
     1.0000   1.0000   1.0000   1.0000   1.0000   1.0000   1.0000   1.0000
     1.0000   1.0000   1.0000   1.0000   1.0000   1.0000   1.0000   1.0000
     0.0000   0.0000   0.0000   0.0000

          k = 0.4286 0.3894 0.0897 (  5210 PWs)   bands (ev):

   -10.8499  -9.4787  -8.3721  -7.9270  -2.3201  -1.5593  -0.7030  -0.2029
     0.8015   1.6314   2.0445   2.8359   3.3866   4.3273   4.8172   6.0993
    10.7104  12.3965  13.1815  14.5026

     occupation numbers 
     1.0000   1.0000   1.0000   1.0000   1.0000   1.0000   1.0000   1.0000
     1.0000   1.0000   1.0000   1.0000   1.0000   1.0000   1.0000   1.0000
     0.0000   0.0000   0.0000   0.0000

          k = 0.4286 0.3894 0.3246 (  5211 PWs)   bands (ev):

   -10.4897  -9.3105  -9.0196  -8.1559  -2.3272  -1.1891  -0.8853   0.4638
     0.7507   1.8416   2.3506   2.7554   3.0957   4.1164   4.6313   5.8606
    10.5460  12.7366  13.4039  14.2022

     occupation numbers 
     1.0000   1.0000   1.0000   1.0000   1.0000   1.0000   1.0000   1.0000
     1.0000   1.0000   1.0000   1.0000   1.0000   1.0000   1.0000   1.0000
     0.0000   0.0000   0.0000   0.0000

          k = 0.4286 0.3894-0.6148 (  5206 PWs)   bands (ev):

   -10.0852  -9.7628  -8.9034  -8.3703  -2.3635  -1.1287  -0.3342   0.2890
     0.6890   1.8073   2.2061   2.7679   3.0043   4.0742   4.8136   5.9729
    10.6093  12.5394  13.2209  14.2901

     occupation numbers 
     1.0000   1.0000   1.0000   1.0000   1.0000   1.0000   1.0000   1.0000
     1.0000   1.0000   1.0000   1.0000   1.0000   1.0000   1.0000   1.0000
     0.0000   0.0000   0.0000   0.0000

          k = 0.4286 0.3894-0.3800 (  5207 PWs)   bands (ev):

   -10.5934  -9.4636  -8.7581  -8.0653  -2.2800  -1.2305  -0.7558   0.1575
     0.8460   1.5272   1.9156   2.8528   2.9653   4.2344   5.1777   6.3433
    10.8737  12.0394  12.7880  14.6151

     occupation numbers 
     1.0000   1.0000   1.0000   1.0000   1.0000   1.0000   1.0000   1.0000
     1.0000   1.0000   1.0000   1.0000   1.0000   1.0000   1.0000   1.0000
     0.0000   0.0000   0.0000   0.0000

          k = 0.4286-0.9288 0.2100 (  5202 PWs)   bands (ev):

   -10.6491  -9.4841  -8.3265  -7.8675  -2.3079  -1.6858  -0.7497  -0.1423
     0.8020   1.3145   1.5371   2.6162   3.1298   4.2084   4.9693   6.3607
    10.7428  11.8764  12.6392  14.8269

     occupation numbers 
     1.0000   1.0000   1.0000   1.0000   1.0000   1.0000   1.0000   1.0000
     1.0000   1.0000   1.0000   1.0000   1.0000   1.0000   1.0000   1.0000
     0.0000   0.0000   0.0000   0.0000

          k = 0.4286-0.9288 0.4448 (  5200 PWs)   bands (ev):

   -10.5689  -9.3029  -8.5077  -8.1047  -2.3865  -1.4744  -0.6093  -0.1675
     0.7569   1.1755   1.8011   2.8962   3.2991   4.0682   4.5907   6.1527
    10.4589  12.2700  13.0609  14.5261

     occupation numbers 
     1.0000   1.0000   1.0000   1.0000   1.0000   1.0000   1.0000   1.0000
     1.0000   1.0000   1.0000   1.0000   1.0000   1.0000   1.0000   1.0000
     0.0000   0.0000   0.0000   0.0000

          k = 0.4286-0.9288 0.6797 (  5205 PWs)   bands (ev):

   -10.2703  -9.2827  -8.9046  -8.2254  -2.4482  -1.2205  -0.9789   0.4780
     0.6572   1.5061   2.3046   2.6305   3.0530   3.9160   4.4504   5.7676
    10.3387  12.6137  13.4013  14.2825

     occupation numbers 
     1.0000   1.0000   1.0000   1.0000   1.0000   1.0000   1.0000   1.0000
     1.0000   1.0000   1.0000   1.0000   1.0000   1.0000   1.0000   1.0000
     0.0000   0.0000   0.0000   0.0000

          k = 0.4286-0.9288-0.2598 (  5208 PWs)   bands (ev):

   -10.1248  -9.6164  -8.8220  -8.1006  -2.4839  -1.4357  -0.3934   0.0432
     0.6304   1.8258   2.2250   2.6123   2.7595   3.8150   4.7047   5.7713
    10.4684  12.3785  13.4737  14.3598

     occupation numbers 
     1.0000   1.0000   1.0000   1.0000   1.0000   1.0000   1.0000   1.0000
     1.0000   1.0000   1.0000   1.0000   1.0000   1.0000   1.0000   1.0000
     0.0000   0.0000   0.0000   0.0000

          k = 0.4286-0.9288-0.0249 (  5211 PWs)   bands (ev):

   -10.4607  -9.5906  -8.4146  -7.9986  -2.3461  -1.3737  -0.9177   0.1192
     0.4944   1.5691   1.7446   2.6135   3.0166   4.0738   4.9550   6.0848
    10.7564  11.9691  12.9248  14.7682

     occupation numbers 
     1.0000   1.0000   1.0000   1.0000   1.0000   1.0000   1.0000   1.0000
     1.0000   1.0000   1.0000   1.0000   1.0000   1.0000   1.0000   1.0000
     0.0000   0.0000   0.0000   0.0000

          k = 0.4286-0.6652 0.1389 (  5196 PWs)   bands (ev):

   -10.6188  -9.9702  -8.1875  -7.8515  -2.1444  -1.3531  -0.9390  -0.3152
     0.9400   1.6033   2.0733   2.6482   3.0693   4.0505   5.4060   6.2333
    11.0342  11.9893  12.5298  14.5693

     occupation numbers 
     1.0000   1.0000   1.0000   1.0000   1.0000   1.0000   1.0000   1.0000
     1.0000   1.0000   1.0000   1.0000   1.0000   1.0000   1.0000   1.0000
     0.0000   0.0000   0.0000   0.0000

          k = 0.4286-0.6652 0.3738 (  5187 PWs)   bands (ev):

   -10.4196  -9.6468  -8.6993  -8.2404  -2.0078  -1.2730  -0.5380   0.0171
     1.0025   1.5153   1.8033   2.6026   3.0978   4.2366   5.0852   6.2578
    10.6913  12.2610  12.7257  14.3294

     occupation numbers 
     1.0000   1.0000   1.0000   1.0000   1.0000   1.0000   1.0000   1.0000
     1.0000   1.0000   1.0000   1.0000   1.0000   1.0000   1.0000   1.0000
     0.0000   0.0000   0.0000   0.0000

          k = 0.4286-0.6652 0.6086 (  5200 PWs)   bands (ev):

   -10.0491  -9.3888  -9.1063  -8.7458  -1.9036  -1.0610  -0.4973   0.3924
     0.9821   1.4188   2.0650   2.4433   3.1546   4.3737   4.6598   5.8938
    10.5453  12.5491  13.1909  13.9891

     occupation numbers 
     1.0000   1.0000   1.0000   1.0000   1.0000   1.0000   1.0000   1.0000
     1.0000   1.0000   1.0000   1.0000   1.0000   1.0000   1.0000   1.0000
     0.0000   0.0000   0.0000   0.0000

          k = 0.4286-0.6652-0.3308 (  5206 PWs)   bands (ev):

   -10.1887  -9.7249  -8.9166  -8.2823  -1.9637  -1.3580  -0.2735   0.2303
     0.7650   1.5744   2.2200   2.3476   3.3165   3.9374   4.9078   5.8505
    10.7041  12.2529  13.5663  14.0147

     occupation numbers 
     1.0000   1.0000   1.0000   1.0000   1.0000   1.0000   1.0000   1.0000
     1.0000   1.0000   1.0000   1.0000   1.0000   1.0000   1.0000   1.0000
     0.0000   0.0000   0.0000   0.0000

          k = 0.4286-0.6652-0.0959 (  5207 PWs)   bands (ev):

   -10.5274  -9.9984  -8.2481  -7.9367  -2.0387  -1.5036  -0.8354   0.0414
     0.6982   1.7790   1.9500   2.6774   3.0600   3.9878   5.2643   6.0830
    11.0890  11.9217  12.9694  14.4688

     occupation numbers 
     1.0000   1.0000   1.0000   1.0000   1.0000   1.0000   1.0000   1.0000
     1.0000   1.0000   1.0000   1.0000   1.0000   1.0000   1.0000   1.0000
     0.0000   0.0000   0.0000   0.0000

          k = 0.4286-0.4015 0.0679 (  5201 PWs)   bands (ev):

   -10.6628 -10.5707  -8.0147  -7.8677  -2.0359  -1.6615  -0.4134  -0.2817
     1.1003   2.0193   2.4202   3.1068   3.2083   4.5051   5.9848   6.2266
    11.1414  11.8378  12.7287  14.1069

     occupation numbers 
     1.0000   1.0000   1.0000   1.0000   1.0000   1.0000   1.0000   1.0000
     1.0000   1.0000   1.0000   1.0000   1.0000   1.0000   1.0000   1.0000
     0.0000   0.0000   0.0000   0.0000

          k = 0.4286-0.4015 0.3028 (  5182 PWs)   bands (ev):

   -10.4484 -10.2606  -8.5934  -8.3383  -1.6688  -1.0357  -0.3924   0.0757
     1.2035   1.5116   2.5658   2.6588   2.9755   4.9363   5.8086   6.2015
    10.9790  12.0217  12.6748  14.0942

     occupation numbers 
     1.0000   1.0000   1.0000   1.0000   1.0000   1.0000   1.0000   1.0000
     1.0000   1.0000   1.0000   1.0000   1.0000   1.0000   1.0000   1.0000
     0.0000   0.0000   0.0000   0.0000

          k = 0.4286-0.4015 0.5376 (  5186 PWs)   bands (ev):

    -9.9527  -9.6368  -9.3349  -9.1994  -0.9882  -0.8885   0.0853   0.2048
     1.1715   1.6484   1.8723   2.4376   3.1545   5.2422   5.4704   5.7854
    10.9991  12.2707  13.0029  13.5950

     occupation numbers 
     1.0000   1.0000   1.0000   1.0000   1.0000   1.0000   1.0000   1.0000
     1.0000   1.0000   1.0000   1.0000   1.0000   1.0000   1.0000   1.0000
     0.0000   0.0000   0.0000   0.0000

          k = 0.4286-0.4015-0.4018 (  5195 PWs)   bands (ev):

   -10.1537 -10.0006  -9.0275  -8.7869  -1.1576  -1.0473   0.0961   0.4247
     0.8271   1.1692   2.3671   2.4139   4.0729   4.4251   5.4507   5.8277
    11.0575  12.4425  13.0341  13.4767

     occupation numbers 
     1.0000   1.0000   1.0000   1.0000   1.0000   1.0000   1.0000   1.0000
     1.0000   1.0000   1.0000   1.0000   1.0000   1.0000   1.0000   1.0000
     0.0000   0.0000   0.0000   0.0000

          k = 0.4286-0.4015-0.1669 (  5201 PWs)   bands (ev):

   -10.5457 -10.4915  -8.2244  -8.0919  -1.8021  -1.5351  -0.3044   0.0706
     0.9257   1.6136   2.4172   3.0685   3.5990   4.3197   5.7728   6.1255
    11.4420  11.7299  12.9494  13.8595

     occupation numbers 
     1.0000   1.0000   1.0000   1.0000   1.0000   1.0000   1.0000   1.0000
     1.0000   1.0000   1.0000   1.0000   1.0000   1.0000   1.0000   1.0000
     0.0000   0.0000   0.0000   0.0000

     the Fermi energy is     8.5437 ev

!    total energy              =    -109.62504334 Ry
     estimated scf accuracy    <          1.9E-10 Ry
     smearing contrib. (-TS)   =      -0.00000000 Ry
     internal energy E=F+TS    =    -109.62504334 Ry

     The total energy is F=E-TS. E is the sum of the following terms:
     one-electron contribution =     -13.56532974 Ry
     hartree contribution      =      25.44643896 Ry
     xc contribution           =     -37.25344033 Ry
     ewald contribution        =     -84.25271224 Ry

     convergence has been achieved in  11 iterations

     Forces acting on atoms (cartesian axes, Ry/au):

     atom    1 type  1   force =    -0.00440029   -0.00341772   -0.00519784
     atom    2 type  1   force =     0.00247764    0.00456639    0.00999805
     atom    3 type  1   force =     0.00319912   -0.00442596    0.00516370
     atom    4 type  1   force =     0.01809337    0.00728044   -0.00416498
     atom    5 type  2   force =    -0.01370086   -0.01210580    0.01489516
     atom    6 type  2   force =    -0.00114026    0.00774561   -0.01392203
     atom    7 type  2   force =    -0.00204992   -0.00310078   -0.00107043
     atom    8 type  2   force =    -0.00247881    0.00345783   -0.00570162
     The non-local contrib.  to forces
     atom    1 type  1   force =     0.02018913   -0.00354373   -0.01177359
     atom    2 type  1   force =    -0.01907276    0.01888452    0.01578204
     atom    3 type  1   force =     0.02812976    0.01859423   -0.01118839
     atom    4 type  1   force =     0.02663010    0.04039537   -0.02906578
     atom    5 type  2   force =    -0.07592771    0.05983900    0.03482378
     atom    6 type  2   force =     0.09434623    0.00618463    0.03394168
     atom    7 type  2   force =    -0.00511408    0.04209558   -0.03298518
     atom    8 type  2   force =     0.04086668    0.04410851   -0.04058750
     The ionic contribution  to forces
     atom    1 type  1   force =     0.07510672    0.06204778   -0.22410801
     atom    2 type  1   force =    -0.01823748    0.21278548   -0.09994389
     atom    3 type  1   force =     0.11171833   -0.01591774    0.10170184
     atom    4 type  1   force =     0.11248521    0.19749274   -0.06897927
     atom    5 type  2   force =     0.02294853   -0.23342663    0.00167283
     atom    6 type  2   force =    -0.14543326    0.14269008   -0.28814682
     atom    7 type  2   force =    -0.03792537   -0.26139548    0.28639044
     atom    8 type  2   force =    -0.12066268   -0.10427623    0.29141288
     The local contribution  to forces
     atom    1 type  1   force =    -0.09814223   -0.06193136    0.22938190
     atom    2 type  1   force =     0.03850001   -0.22555080    0.09454604
     atom    3 type  1   force =    -0.13530115   -0.00562416   -0.08614081
     atom    4 type  1   force =    -0.11877872   -0.22797738    0.09175934
     atom    5 type  2   force =     0.03578102    0.16188282   -0.01893889
     atom    6 type  2   force =     0.05248952   -0.14145935    0.24121813
     atom    7 type  2   force =     0.04170491    0.21668651   -0.25470350
     atom    8 type  2   force =     0.07713871    0.06507743   -0.25689112
     The core correction contribution to forces
     atom    1 type  1   force =    -0.00155135    0.00000980    0.00130151
     atom    2 type  1   force =     0.00128487   -0.00155111   -0.00038788
     atom    3 type  1   force =    -0.00134583   -0.00147860    0.00079101
     atom    4 type  1   force =    -0.00224721   -0.00262845    0.00212111
     atom    5 type  2   force =     0.00350663   -0.00040070   -0.00266076
     atom    6 type  2   force =    -0.00255574    0.00033841   -0.00093662
     atom    7 type  2   force =    -0.00070643   -0.00049318    0.00022580
     atom    8 type  2   force =     0.00016994   -0.00145151    0.00036544
     The Hubbard contrib.    to forces
     atom    1 type  1   force =     0.00000000    0.00000000    0.00000000
     atom    2 type  1   force =     0.00000000    0.00000000    0.00000000
     atom    3 type  1   force =     0.00000000    0.00000000    0.00000000
     atom    4 type  1   force =     0.00000000    0.00000000    0.00000000
     atom    5 type  2   force =     0.00000000    0.00000000    0.00000000
     atom    6 type  2   force =     0.00000000    0.00000000    0.00000000
     atom    7 type  2   force =     0.00000000    0.00000000    0.00000000
     atom    8 type  2   force =     0.00000000    0.00000000    0.00000000
     The SCF correction term to forces
     atom    1 type  1   force =    -0.00000302    0.00000094   -0.00000017
     atom    2 type  1   force =     0.00000254   -0.00000054    0.00000122
     atom    3 type  1   force =    -0.00000245    0.00000146   -0.00000046
     atom    4 type  1   force =     0.00000353   -0.00000068   -0.00000090
     atom    5 type  2   force =    -0.00000979    0.00000086   -0.00000231
     atom    6 type  2   force =     0.00001253   -0.00000701    0.00000108
     atom    7 type  2   force =    -0.00000941    0.00000695    0.00000151
     atom    8 type  2   force =     0.00000808    0.00000079   -0.00000183

     Total force =     0.038936     Total SCF correction =     0.000024


     Computing stress (Cartesian axis) and pressure

          total   stress  (Ry/bohr**3)                   (kbar)     P=       28.01
   0.00051959   0.00012032  -0.00009316           76.43       17.70      -13.70
   0.00012032  -0.00000293   0.00001036           17.70       -0.43        1.52
  -0.00009316   0.00001036   0.00005462          -13.70        1.52        8.03

     kinetic stress (kbar)  16542.85    330.06    -53.81
                              330.06  17268.40   -126.02
                              -53.81   -126.02  16315.68

     local   stress (kbar)  -8975.80   6248.21   -980.78
                             6248.21   7844.46  -2960.42
                             -980.78  -2960.42 -11801.66

     nonloc. stress (kbar)  -2120.84    -16.27      4.97
                              -16.27  -2138.74      8.05
                                4.97      8.05  -2092.04

     hartree stress (kbar)   4215.69  -1725.00    294.29
                            -1725.00   -513.32    885.87
                              294.29    885.87   4999.02

     exc-cor stress (kbar)   -870.88    -22.54      3.06
                              -22.54   -929.41      9.12
                                3.06      9.12   -860.60

     corecor stress (kbar)  -2670.72      9.79     -0.87
                                9.79  -2643.79     -3.61
                               -0.87     -3.61  -2674.14

     ewald   stress (kbar)  -6043.87  -4806.54    719.43
                            -4806.54 -18888.03   2188.53
                              719.43   2188.53  -3878.22

     hubbard stress (kbar)      0.00      0.00      0.00
                                0.00      0.00      0.00
                                0.00      0.00      0.00

     DFT-D   stress (kbar)      0.00      0.00      0.00
                                0.00      0.00      0.00
                                0.00      0.00      0.00

     XDM     stress (kbar)      0.00      0.00      0.00
                                0.00      0.00      0.00
                                0.00      0.00      0.00

     dft-nl  stress (kbar)      0.00      0.00      0.00
                                0.00      0.00      0.00
                                0.00      0.00      0.00

     TS-vdW  stress (kbar)      0.00      0.00      0.00
                                0.00      0.00      0.00
                                0.00      0.00      0.00



     init_run     :      1.20s CPU      1.34s WALL (       1 calls)
     electrons    :     23.04s CPU     24.21s WALL (       1 calls)
     forces       :      0.42s CPU      0.42s WALL (       1 calls)
     stress       :      1.04s CPU      1.05s WALL (       1 calls)

     Called by init_run:
     wfcinit      :      0.84s CPU      0.92s WALL (       1 calls)
     wfcinit:atom :      0.01s CPU      0.01s WALL (     106 calls)
     wfcinit:wfcr :      0.74s CPU      0.82s WALL (     106 calls)
     potinit      :      0.12s CPU      0.12s WALL (       1 calls)
     hinit0       :      0.22s CPU      0.25s WALL (       1 calls)

     Called by electrons:
     c_bands      :     20.11s CPU     21.15s WALL (      11 calls)
     sum_band     :      2.72s CPU      2.85s WALL (      11 calls)
     v_of_rho     :      0.12s CPU      0.12s WALL (      12 calls)
     v_h          :      0.01s CPU      0.01s WALL (      12 calls)
     v_xc         :      0.13s CPU      0.13s WALL (      14 calls)
     newd         :      0.07s CPU      0.08s WALL (      12 calls)
     mix_rho      :      0.02s CPU      0.02s WALL (      11 calls)

     Called by c_bands:
     init_us_2    :      0.58s CPU      0.60s WALL (    2650 calls)
     cegterg      :     19.12s CPU     20.12s WALL (    1166 calls)

     Called by sum_band:
     sum_band:wei :      0.00s CPU      0.00s WALL (      11 calls)
     sum_band:loo :      2.65s CPU      2.77s WALL (      11 calls)
     sum_band:buf :      0.09s CPU      0.10s WALL (    1166 calls)
     sum_band:ini :      0.25s CPU      0.26s WALL (    1166 calls)
     sum_band:cal :      0.33s CPU      0.35s WALL (    1166 calls)
     sum_band:bec :      0.01s CPU      0.01s WALL (    1166 calls)
     addusdens    :      0.06s CPU      0.07s WALL (      11 calls)
     addusd:skk   :      0.00s CPU      0.00s WALL (      11 calls)
     addusd:dgemm :      0.03s CPU      0.03s WALL (      11 calls)
     addusd:qvan2 :      0.03s CPU      0.03s WALL (      11 calls)

     Called by *egterg:
     cdiaghg      :      1.82s CPU      2.10s WALL (    5139 calls)
     cegterg:over :      1.27s CPU      1.31s WALL (    3973 calls)
     cegterg:upda :      0.42s CPU      0.43s WALL (    3973 calls)
     cegterg:last :      0.71s CPU      0.73s WALL (    2785 calls)
     h_psi        :     14.37s CPU     15.06s WALL (    5245 calls)
     s_psi        :      0.52s CPU      0.54s WALL (    5245 calls)
     g_psi        :      0.07s CPU      0.07s WALL (    3973 calls)

     Called by h_psi:
     h_psi:calbec :      1.55s CPU      1.64s WALL (    5245 calls)
     vloc_psi     :     11.71s CPU     12.27s WALL (    5245 calls)
     add_vuspsi   :      0.91s CPU      0.96s WALL (    5245 calls)

     General routines
     calbec       :      1.98s CPU      2.10s WALL (    6941 calls)
     fft          :      0.05s CPU      0.08s WALL (     179 calls)
     ffts         :      0.00s CPU      0.01s WALL (      23 calls)
     fftw         :     11.95s CPU     12.53s WALL (  168652 calls)
     interpolate  :      0.01s CPU      0.01s WALL (      12 calls)

     Parallel routines
     fft_scatt_xy :      1.63s CPU      1.68s WALL (  168854 calls)
     fft_scatt_yz :      3.68s CPU      3.86s WALL (  168854 calls)

     PWSCF        :     25.80s CPU     27.24s WALL


   This run was terminated on:  20:58:24  28Sep2022            

=------------------------------------------------------------------------------=
   JOB DONE.
=------------------------------------------------------------------------------=
Note: The following floating-point exceptions are signalling: IEEE_UNDERFLOW_FLAG IEEE_DENORMAL
