
     Program PWSCF v.6.7MaX starts on 28Sep2022 at 20:59:42 

     This program is part of the open-source Quantum ESPRESSO suite
     for quantum simulation of materials; please cite
         "P. Giannozzi et al., J. Phys.:Condens. Matter 21 395502 (2009);
         "P. Giannozzi et al., J. Phys.:Condens. Matter 29 465901 (2017);
          URL http://www.quantum-espresso.org", 
     in publications or presentations arising from this work. More details at
     http://www.quantum-espresso.org/quote

     Parallel version (MPI), running on    16 processors

     MPI processes distributed on     1 nodes
     R & G space division:  proc/nbgrp/npool/nimage =      16
     Reading input from scale_2dab-01.in

     Current dimensions of program PWSCF are:
     Max number of different atomic species (ntypx) = 10
     Max number of k-points (npk) =  40000
     Max angular momentum in pseudopotentials (lmaxx) =  3
     Message from routine read_pp_mesh:
     mesh size missing, using the one in header

     Subspace diagonalization in iterative solution of the eigenvalue problem:
     a serial algorithm will be used


     Parallelization info
     --------------------
     sticks:   dense  smooth     PW     G-vecs:    dense   smooth      PW
     Min         113      82     24                 3975     2469     404
     Max         114      83     25                 3979     2471     408
     Sum        1809    1313    399                63641    39529    6511



     bravais-lattice index     =            0
     lattice parameter (alat)  =       9.1224  a.u.
     unit-cell volume          =     408.8079 (a.u.)^3
     number of atoms/cell      =            8
     number of atomic types    =            2
     number of electrons       =        32.00
     number of Kohn-Sham states=           20
     kinetic-energy cutoff     =      80.0000  Ry
     charge density cutoff     =     440.0000  Ry
     scf convergence threshold =      2.0E-10
     mixing beta               =       0.4000
     number of iterations used =            8  plain     mixing
     Exchange-correlation= PBE
                           (   1   4   3   4   0   0   0)

     celldm(1)=   9.122351  celldm(2)=   0.000000  celldm(3)=   0.000000
     celldm(4)=   0.000000  celldm(5)=   0.000000  celldm(6)=   0.000000

     crystal axes: (cart. coord. in units of alat)
               a(1) = (   1.000000   0.000000   0.000000 )  
               a(2) = (   0.216706   0.621651   0.000000 )  
               a(3) = (   0.081345   0.233350   0.866268 )  

     reciprocal axes: (cart. coord. in units 2 pi/alat)
               b(1) = (  1.000000 -0.348597 -0.000000 )  
               b(2) = (  0.000000  1.608620 -0.433321 )  
               b(3) = (  0.000000  0.000000  1.154377 )  


     PseudoPot. # 1 for B  read from file:
     /opt/QEpot/SSSP_precision_pseudos/B_pbe_v1.01.uspp.F.UPF
     MD5 check sum: d081ebb89d0c768e112975f650467a00
     Pseudo is Ultrasoft + core correction, Zval =  3.0
     Generated by new atomic code, or converted to UPF format
     Using radial grid of  781 points,  4 beta functions with: 
                l(1) =   0
                l(2) =   0
                l(3) =   1
                l(4) =   1
     Q(r) pseudized with  8 coefficients,  rinner =    1.100   1.100   1.100


     PseudoPot. # 2 for N  read from file:
     /opt/QEpot/SSSP_precision_pseudos/N.oncvpsp.upf
     MD5 check sum: 563d65bfb082928f0c9eb97172f6c357
     Pseudo is Norm-conserving + core correction, Zval =  5.0
     Generated using ONCVPSP code by D. R. Hamann
     Using radial grid of 1058 points,  4 beta functions with: 
                l(1) =   0
                l(2) =   0
                l(3) =   1
                l(4) =   1

     atomic species   valence    mass     pseudopotential
        B              3.00    10.81000     B ( 1.00)
        N              5.00    14.00700     N ( 1.00)

     No symmetry found


                                    s                        frac. trans.

      isym =  1     identity                                     

 cryst.   s( 1) = (     1          0          0      )
                  (     0          1          0      )
                  (     0          0          1      )

 cart.    s( 1) = (  1.0000000  0.0000000 -0.0000000 )
                  (  0.0000000  1.0000000 -0.0000000 )
                  (  0.0000000  0.0000000  1.0000000 )


   Cartesian axes

     site n.     atom                  positions (alat units)
         1           B   tau(   1) = (   0.3066964   0.5052776   0.8654382  )
         2           B   tau(   2) = (   0.0310999   0.4684291   0.4324877  )
         3           B   tau(   3) = (   0.4661014   0.2305449   0.4395661  )
         4           B   tau(   4) = (  -0.2645490   0.3523269   0.0066155  )
         5           N   tau(   5) = (   0.4883464   0.2788786   0.1372714  )
         6           N   tau(   6) = (  -0.1711006   0.6396133   0.5704055  )
         7           N   tau(   7) = (   0.2686384   0.3965217   0.5874623  )
         8           N   tau(   8) = (  -0.0072168   0.3618305   0.1543283  )

   Crystallographic axes

     site n.     atom                  positions (cryst. coord.)
         1           B   tau(   1) = (  0.1305582  0.4377870  0.9990420  )
         2           B   tau(   2) = ( -0.1321931  0.5661184  0.4992538  )
         3           B   tau(   3) = (  0.3857342  0.1803860  0.5074250  )
         4           B   tau(   4) = ( -0.3873691  0.5638934  0.0076368  )
         5           N   tau(   5) = (  0.3911302  0.3891270  0.1584630  )
         6           N   tau(   6) = ( -0.3940678  0.7817260  0.6584630  )
         7           N   tau(   7) = (  0.1304122  0.3832930  0.6781530  )
         8           N   tau(   8) = ( -0.1333498  0.5151740  0.1781530  )

     number of k points=   106  Marzari-Vanderbilt smearing, width (Ry)=  0.0220
                       cart. coord. in units 2pi/alat
        k(    1) = (   0.0000000   0.0000000   0.0000000), wk =   0.0095238
        k(    2) = (   0.0000000   0.0000000   0.2308754), wk =   0.0190476
        k(    3) = (   0.0000000   0.0000000   0.4617508), wk =   0.0190476
        k(    4) = (   0.0000000   0.2681033  -0.0722201), wk =   0.0190476
        k(    5) = (   0.0000000   0.2681033   0.1586553), wk =   0.0190476
        k(    6) = (   0.0000000   0.2681033   0.3895307), wk =   0.0190476
        k(    7) = (   0.0000000   0.2681033  -0.5339709), wk =   0.0190476
        k(    8) = (   0.0000000   0.2681033  -0.3030955), wk =   0.0190476
        k(    9) = (   0.0000000   0.5362065  -0.1444403), wk =   0.0190476
        k(   10) = (   0.0000000   0.5362065   0.0864351), wk =   0.0190476
        k(   11) = (   0.0000000   0.5362065   0.3173105), wk =   0.0190476
        k(   12) = (   0.0000000   0.5362065  -0.6061911), wk =   0.0190476
        k(   13) = (   0.0000000   0.5362065  -0.3753157), wk =   0.0190476
        k(   14) = (   0.0000000  -0.8043098   0.2166604), wk =   0.0095238
        k(   15) = (   0.0000000  -0.8043098   0.4475358), wk =   0.0190476
        k(   16) = (   0.0000000  -0.8043098   0.6784112), wk =   0.0190476
        k(   17) = (   0.1428571  -0.0497996  -0.0000000), wk =   0.0190476
        k(   18) = (   0.1428571  -0.0497996   0.2308754), wk =   0.0190476
        k(   19) = (   0.1428571  -0.0497996   0.4617508), wk =   0.0190476
        k(   20) = (   0.1428571  -0.0497996  -0.4617508), wk =   0.0190476
        k(   21) = (   0.1428571  -0.0497996  -0.2308754), wk =   0.0190476
        k(   22) = (   0.1428571   0.2183037  -0.0722201), wk =   0.0190476
        k(   23) = (   0.1428571   0.2183037   0.1586553), wk =   0.0190476
        k(   24) = (   0.1428571   0.2183037   0.3895307), wk =   0.0190476
        k(   25) = (   0.1428571   0.2183037  -0.5339709), wk =   0.0190476
        k(   26) = (   0.1428571   0.2183037  -0.3030955), wk =   0.0190476
        k(   27) = (   0.1428571   0.4864070  -0.1444403), wk =   0.0190476
        k(   28) = (   0.1428571   0.4864070   0.0864351), wk =   0.0190476
        k(   29) = (   0.1428571   0.4864070   0.3173105), wk =   0.0190476
        k(   30) = (   0.1428571   0.4864070  -0.6061911), wk =   0.0190476
        k(   31) = (   0.1428571   0.4864070  -0.3753157), wk =   0.0190476
        k(   32) = (   0.1428571  -0.8541094   0.2166604), wk =   0.0190476
        k(   33) = (   0.1428571  -0.8541094   0.4475358), wk =   0.0190476
        k(   34) = (   0.1428571  -0.8541094   0.6784112), wk =   0.0190476
        k(   35) = (   0.1428571  -0.8541094  -0.2450904), wk =   0.0190476
        k(   36) = (   0.1428571  -0.8541094  -0.0142150), wk =   0.0190476
        k(   37) = (   0.1428571  -0.5860061   0.1444403), wk =   0.0190476
        k(   38) = (   0.1428571  -0.5860061   0.3753157), wk =   0.0190476
        k(   39) = (   0.1428571  -0.5860061   0.6061911), wk =   0.0190476
        k(   40) = (   0.1428571  -0.5860061  -0.3173105), wk =   0.0190476
        k(   41) = (   0.1428571  -0.5860061  -0.0864351), wk =   0.0190476
        k(   42) = (   0.1428571  -0.3179028   0.0722201), wk =   0.0190476
        k(   43) = (   0.1428571  -0.3179028   0.3030955), wk =   0.0190476
        k(   44) = (   0.1428571  -0.3179028   0.5339709), wk =   0.0190476
        k(   45) = (   0.1428571  -0.3179028  -0.3895307), wk =   0.0190476
        k(   46) = (   0.1428571  -0.3179028  -0.1586553), wk =   0.0190476
        k(   47) = (   0.2857143  -0.0995991  -0.0000000), wk =   0.0190476
        k(   48) = (   0.2857143  -0.0995991   0.2308754), wk =   0.0190476
        k(   49) = (   0.2857143  -0.0995991   0.4617508), wk =   0.0190476
        k(   50) = (   0.2857143  -0.0995991  -0.4617508), wk =   0.0190476
        k(   51) = (   0.2857143  -0.0995991  -0.2308754), wk =   0.0190476
        k(   52) = (   0.2857143   0.1685041  -0.0722201), wk =   0.0190476
        k(   53) = (   0.2857143   0.1685041   0.1586553), wk =   0.0190476
        k(   54) = (   0.2857143   0.1685041   0.3895307), wk =   0.0190476
        k(   55) = (   0.2857143   0.1685041  -0.5339709), wk =   0.0190476
        k(   56) = (   0.2857143   0.1685041  -0.3030955), wk =   0.0190476
        k(   57) = (   0.2857143   0.4366074  -0.1444403), wk =   0.0190476
        k(   58) = (   0.2857143   0.4366074   0.0864351), wk =   0.0190476
        k(   59) = (   0.2857143   0.4366074   0.3173105), wk =   0.0190476
        k(   60) = (   0.2857143   0.4366074  -0.6061911), wk =   0.0190476
        k(   61) = (   0.2857143   0.4366074  -0.3753157), wk =   0.0190476
        k(   62) = (   0.2857143  -0.9039089   0.2166604), wk =   0.0190476
        k(   63) = (   0.2857143  -0.9039089   0.4475358), wk =   0.0190476
        k(   64) = (   0.2857143  -0.9039089   0.6784112), wk =   0.0190476
        k(   65) = (   0.2857143  -0.9039089  -0.2450904), wk =   0.0190476
        k(   66) = (   0.2857143  -0.9039089  -0.0142150), wk =   0.0190476
        k(   67) = (   0.2857143  -0.6358057   0.1444403), wk =   0.0190476
        k(   68) = (   0.2857143  -0.6358057   0.3753157), wk =   0.0190476
        k(   69) = (   0.2857143  -0.6358057   0.6061911), wk =   0.0190476
        k(   70) = (   0.2857143  -0.6358057  -0.3173105), wk =   0.0190476
        k(   71) = (   0.2857143  -0.6358057  -0.0864351), wk =   0.0190476
        k(   72) = (   0.2857143  -0.3677024   0.0722201), wk =   0.0190476
        k(   73) = (   0.2857143  -0.3677024   0.3030955), wk =   0.0190476
        k(   74) = (   0.2857143  -0.3677024   0.5339709), wk =   0.0190476
        k(   75) = (   0.2857143  -0.3677024  -0.3895307), wk =   0.0190476
        k(   76) = (   0.2857143  -0.3677024  -0.1586553), wk =   0.0190476
        k(   77) = (   0.4285714  -0.1493987  -0.0000000), wk =   0.0190476
        k(   78) = (   0.4285714  -0.1493987   0.2308754), wk =   0.0190476
        k(   79) = (   0.4285714  -0.1493987   0.4617508), wk =   0.0190476
        k(   80) = (   0.4285714  -0.1493987  -0.4617508), wk =   0.0190476
        k(   81) = (   0.4285714  -0.1493987  -0.2308754), wk =   0.0190476
        k(   82) = (   0.4285714   0.1187046  -0.0722201), wk =   0.0190476
        k(   83) = (   0.4285714   0.1187046   0.1586553), wk =   0.0190476
        k(   84) = (   0.4285714   0.1187046   0.3895307), wk =   0.0190476
        k(   85) = (   0.4285714   0.1187046  -0.5339709), wk =   0.0190476
        k(   86) = (   0.4285714   0.1187046  -0.3030955), wk =   0.0190476
        k(   87) = (   0.4285714   0.3868078  -0.1444403), wk =   0.0190476
        k(   88) = (   0.4285714   0.3868078   0.0864351), wk =   0.0190476
        k(   89) = (   0.4285714   0.3868078   0.3173105), wk =   0.0190476
        k(   90) = (   0.4285714   0.3868078  -0.6061911), wk =   0.0190476
        k(   91) = (   0.4285714   0.3868078  -0.3753157), wk =   0.0190476
        k(   92) = (   0.4285714  -0.9537085   0.2166604), wk =   0.0190476
        k(   93) = (   0.4285714  -0.9537085   0.4475358), wk =   0.0190476
        k(   94) = (   0.4285714  -0.9537085   0.6784112), wk =   0.0190476
        k(   95) = (   0.4285714  -0.9537085  -0.2450904), wk =   0.0190476
        k(   96) = (   0.4285714  -0.9537085  -0.0142150), wk =   0.0190476
        k(   97) = (   0.4285714  -0.6856052   0.1444403), wk =   0.0190476
        k(   98) = (   0.4285714  -0.6856052   0.3753157), wk =   0.0190476
        k(   99) = (   0.4285714  -0.6856052   0.6061911), wk =   0.0190476
        k(  100) = (   0.4285714  -0.6856052  -0.3173105), wk =   0.0190476
        k(  101) = (   0.4285714  -0.6856052  -0.0864351), wk =   0.0190476
        k(  102) = (   0.4285714  -0.4175020   0.0722201), wk =   0.0190476
        k(  103) = (   0.4285714  -0.4175020   0.3030955), wk =   0.0190476
        k(  104) = (   0.4285714  -0.4175020   0.5339709), wk =   0.0190476
        k(  105) = (   0.4285714  -0.4175020  -0.3895307), wk =   0.0190476
        k(  106) = (   0.4285714  -0.4175020  -0.1586553), wk =   0.0190476

                       cryst. coord.
        k(    1) = (   0.0000000   0.0000000   0.0000000), wk =   0.0095238
        k(    2) = (   0.0000000   0.0000000   0.2000000), wk =   0.0190476
        k(    3) = (   0.0000000   0.0000000   0.4000000), wk =   0.0190476
        k(    4) = (   0.0000000   0.1666667   0.0000000), wk =   0.0190476
        k(    5) = (   0.0000000   0.1666667   0.2000000), wk =   0.0190476
        k(    6) = (   0.0000000   0.1666667   0.4000000), wk =   0.0190476
        k(    7) = (   0.0000000   0.1666667  -0.4000000), wk =   0.0190476
        k(    8) = (   0.0000000   0.1666667  -0.2000000), wk =   0.0190476
        k(    9) = (   0.0000000   0.3333333   0.0000000), wk =   0.0190476
        k(   10) = (   0.0000000   0.3333333   0.2000000), wk =   0.0190476
        k(   11) = (   0.0000000   0.3333333   0.4000000), wk =   0.0190476
        k(   12) = (   0.0000000   0.3333333  -0.4000000), wk =   0.0190476
        k(   13) = (   0.0000000   0.3333333  -0.2000000), wk =   0.0190476
        k(   14) = (   0.0000000  -0.5000000   0.0000000), wk =   0.0095238
        k(   15) = (   0.0000000  -0.5000000   0.2000000), wk =   0.0190476
        k(   16) = (   0.0000000  -0.5000000   0.4000000), wk =   0.0190476
        k(   17) = (   0.1428571   0.0000000  -0.0000000), wk =   0.0190476
        k(   18) = (   0.1428571   0.0000000   0.2000000), wk =   0.0190476
        k(   19) = (   0.1428571   0.0000000   0.4000000), wk =   0.0190476
        k(   20) = (   0.1428571   0.0000000  -0.4000000), wk =   0.0190476
        k(   21) = (   0.1428571   0.0000000  -0.2000000), wk =   0.0190476
        k(   22) = (   0.1428571   0.1666667   0.0000000), wk =   0.0190476
        k(   23) = (   0.1428571   0.1666667   0.2000000), wk =   0.0190476
        k(   24) = (   0.1428571   0.1666667   0.4000000), wk =   0.0190476
        k(   25) = (   0.1428571   0.1666667  -0.4000000), wk =   0.0190476
        k(   26) = (   0.1428571   0.1666667  -0.2000000), wk =   0.0190476
        k(   27) = (   0.1428571   0.3333333   0.0000000), wk =   0.0190476
        k(   28) = (   0.1428571   0.3333333   0.2000000), wk =   0.0190476
        k(   29) = (   0.1428571   0.3333333   0.4000000), wk =   0.0190476
        k(   30) = (   0.1428571   0.3333333  -0.4000000), wk =   0.0190476
        k(   31) = (   0.1428571   0.3333333  -0.2000000), wk =   0.0190476
        k(   32) = (   0.1428571  -0.5000000   0.0000000), wk =   0.0190476
        k(   33) = (   0.1428571  -0.5000000   0.2000000), wk =   0.0190476
        k(   34) = (   0.1428571  -0.5000000   0.4000000), wk =   0.0190476
        k(   35) = (   0.1428571  -0.5000000  -0.4000000), wk =   0.0190476
        k(   36) = (   0.1428571  -0.5000000  -0.2000000), wk =   0.0190476
        k(   37) = (   0.1428571  -0.3333333   0.0000000), wk =   0.0190476
        k(   38) = (   0.1428571  -0.3333333   0.2000000), wk =   0.0190476
        k(   39) = (   0.1428571  -0.3333333   0.4000000), wk =   0.0190476
        k(   40) = (   0.1428571  -0.3333333  -0.4000000), wk =   0.0190476
        k(   41) = (   0.1428571  -0.3333333  -0.2000000), wk =   0.0190476
        k(   42) = (   0.1428571  -0.1666667   0.0000000), wk =   0.0190476
        k(   43) = (   0.1428571  -0.1666667   0.2000000), wk =   0.0190476
        k(   44) = (   0.1428571  -0.1666667   0.4000000), wk =   0.0190476
        k(   45) = (   0.1428571  -0.1666667  -0.4000000), wk =   0.0190476
        k(   46) = (   0.1428571  -0.1666667  -0.2000000), wk =   0.0190476
        k(   47) = (   0.2857143   0.0000000  -0.0000000), wk =   0.0190476
        k(   48) = (   0.2857143   0.0000000   0.2000000), wk =   0.0190476
        k(   49) = (   0.2857143   0.0000000   0.4000000), wk =   0.0190476
        k(   50) = (   0.2857143   0.0000000  -0.4000000), wk =   0.0190476
        k(   51) = (   0.2857143   0.0000000  -0.2000000), wk =   0.0190476
        k(   52) = (   0.2857143   0.1666667   0.0000000), wk =   0.0190476
        k(   53) = (   0.2857143   0.1666667   0.2000000), wk =   0.0190476
        k(   54) = (   0.2857143   0.1666667   0.4000000), wk =   0.0190476
        k(   55) = (   0.2857143   0.1666667  -0.4000000), wk =   0.0190476
        k(   56) = (   0.2857143   0.1666667  -0.2000000), wk =   0.0190476
        k(   57) = (   0.2857143   0.3333333   0.0000000), wk =   0.0190476
        k(   58) = (   0.2857143   0.3333333   0.2000000), wk =   0.0190476
        k(   59) = (   0.2857143   0.3333333   0.4000000), wk =   0.0190476
        k(   60) = (   0.2857143   0.3333333  -0.4000000), wk =   0.0190476
        k(   61) = (   0.2857143   0.3333333  -0.2000000), wk =   0.0190476
        k(   62) = (   0.2857143  -0.5000000   0.0000000), wk =   0.0190476
        k(   63) = (   0.2857143  -0.5000000   0.2000000), wk =   0.0190476
        k(   64) = (   0.2857143  -0.5000000   0.4000000), wk =   0.0190476
        k(   65) = (   0.2857143  -0.5000000  -0.4000000), wk =   0.0190476
        k(   66) = (   0.2857143  -0.5000000  -0.2000000), wk =   0.0190476
        k(   67) = (   0.2857143  -0.3333333   0.0000000), wk =   0.0190476
        k(   68) = (   0.2857143  -0.3333333   0.2000000), wk =   0.0190476
        k(   69) = (   0.2857143  -0.3333333   0.4000000), wk =   0.0190476
        k(   70) = (   0.2857143  -0.3333333  -0.4000000), wk =   0.0190476
        k(   71) = (   0.2857143  -0.3333333  -0.2000000), wk =   0.0190476
        k(   72) = (   0.2857143  -0.1666667  -0.0000000), wk =   0.0190476
        k(   73) = (   0.2857143  -0.1666667   0.2000000), wk =   0.0190476
        k(   74) = (   0.2857143  -0.1666667   0.4000000), wk =   0.0190476
        k(   75) = (   0.2857143  -0.1666667  -0.4000000), wk =   0.0190476
        k(   76) = (   0.2857143  -0.1666667  -0.2000000), wk =   0.0190476
        k(   77) = (   0.4285714   0.0000000  -0.0000000), wk =   0.0190476
        k(   78) = (   0.4285714   0.0000000   0.2000000), wk =   0.0190476
        k(   79) = (   0.4285714   0.0000000   0.4000000), wk =   0.0190476
        k(   80) = (   0.4285714   0.0000000  -0.4000000), wk =   0.0190476
        k(   81) = (   0.4285714   0.0000000  -0.2000000), wk =   0.0190476
        k(   82) = (   0.4285714   0.1666667   0.0000000), wk =   0.0190476
        k(   83) = (   0.4285714   0.1666667   0.2000000), wk =   0.0190476
        k(   84) = (   0.4285714   0.1666667   0.4000000), wk =   0.0190476
        k(   85) = (   0.4285714   0.1666667  -0.4000000), wk =   0.0190476
        k(   86) = (   0.4285714   0.1666667  -0.2000000), wk =   0.0190476
        k(   87) = (   0.4285714   0.3333333   0.0000000), wk =   0.0190476
        k(   88) = (   0.4285714   0.3333333   0.2000000), wk =   0.0190476
        k(   89) = (   0.4285714   0.3333333   0.4000000), wk =   0.0190476
        k(   90) = (   0.4285714   0.3333333  -0.4000000), wk =   0.0190476
        k(   91) = (   0.4285714   0.3333333  -0.2000000), wk =   0.0190476
        k(   92) = (   0.4285714  -0.5000000   0.0000000), wk =   0.0190476
        k(   93) = (   0.4285714  -0.5000000   0.2000000), wk =   0.0190476
        k(   94) = (   0.4285714  -0.5000000   0.4000000), wk =   0.0190476
        k(   95) = (   0.4285714  -0.5000000  -0.4000000), wk =   0.0190476
        k(   96) = (   0.4285714  -0.5000000  -0.2000000), wk =   0.0190476
        k(   97) = (   0.4285714  -0.3333333   0.0000000), wk =   0.0190476
        k(   98) = (   0.4285714  -0.3333333   0.2000000), wk =   0.0190476
        k(   99) = (   0.4285714  -0.3333333   0.4000000), wk =   0.0190476
        k(  100) = (   0.4285714  -0.3333333  -0.4000000), wk =   0.0190476
        k(  101) = (   0.4285714  -0.3333333  -0.2000000), wk =   0.0190476
        k(  102) = (   0.4285714  -0.1666667   0.0000000), wk =   0.0190476
        k(  103) = (   0.4285714  -0.1666667   0.2000000), wk =   0.0190476
        k(  104) = (   0.4285714  -0.1666667   0.4000000), wk =   0.0190476
        k(  105) = (   0.4285714  -0.1666667  -0.4000000), wk =   0.0190476
        k(  106) = (   0.4285714  -0.1666667  -0.2000000), wk =   0.0190476

     Dense  grid:    63641 G-vectors     FFT dimensions: (  64,  45,  60)

     Smooth grid:    39529 G-vectors     FFT dimensions: (  54,  36,  48)

     Dynamical RAM for                 wfc:       0.09 MB

     Dynamical RAM for     wfc (w. buffer):      10.06 MB

     Dynamical RAM for           str. fact:       0.12 MB

     Dynamical RAM for           local pot:       0.00 MB

     Dynamical RAM for          nlocal pot:       0.30 MB

     Dynamical RAM for                qrad:       0.96 MB

     Dynamical RAM for          rho,v,vnew:       0.45 MB

     Dynamical RAM for               rhoin:       0.15 MB

     Dynamical RAM for            rho*nmix:       0.97 MB

     Dynamical RAM for           G-vectors:       0.25 MB

     Dynamical RAM for          h,s,v(r/c):       0.07 MB

     Dynamical RAM for          <psi|beta>:       0.02 MB

     Dynamical RAM for                 psi:       0.19 MB

     Dynamical RAM for                hpsi:       0.19 MB

     Dynamical RAM for                spsi:       0.19 MB

     Dynamical RAM for      wfcinit/wfcrot:       0.32 MB

     Dynamical RAM for           addusdens:       2.85 MB

     Dynamical RAM for          addusforce:       3.25 MB

     Dynamical RAM for         addusstress:       3.04 MB

     Estimated static dynamical RAM per process >      13.88 MB

     Estimated max dynamical RAM per process >      17.13 MB

     Estimated total dynamical RAM >     274.03 MB

     Check: negative core charge=   -0.000011

     Initial potential from superposition of free atoms

     starting charge   31.99884, renormalised to   32.00000
     Starting wfcs are   32 randomized atomic wfcs

     total cpu time spent up to now is        2.7 secs

     Self-consistent Calculation

     iteration #  1     ecut=    80.00 Ry     beta= 0.40
     Davidson diagonalization with overlap
     ethr =  1.00E-02,  avg # of iterations =  2.1

     total cpu time spent up to now is        4.9 secs

     total energy              =    -109.40953074 Ry
     estimated scf accuracy    <       1.50525324 Ry

     iteration #  2     ecut=    80.00 Ry     beta= 0.40
     Davidson diagonalization with overlap
     ethr =  4.70E-03,  avg # of iterations =  2.0

     total cpu time spent up to now is        6.9 secs

     total energy              =    -109.59346898 Ry
     estimated scf accuracy    <       0.10705220 Ry

     iteration #  3     ecut=    80.00 Ry     beta= 0.40
     Davidson diagonalization with overlap
     ethr =  3.35E-04,  avg # of iterations =  2.9

     total cpu time spent up to now is        9.0 secs

     total energy              =    -109.60401173 Ry
     estimated scf accuracy    <       0.02877245 Ry

     iteration #  4     ecut=    80.00 Ry     beta= 0.40
     Davidson diagonalization with overlap
     ethr =  8.99E-05,  avg # of iterations =  3.5

     total cpu time spent up to now is       11.1 secs

     total energy              =    -109.60862086 Ry
     estimated scf accuracy    <       0.00166740 Ry

     iteration #  5     ecut=    80.00 Ry     beta= 0.40
     Davidson diagonalization with overlap
     ethr =  5.21E-06,  avg # of iterations =  5.4

     total cpu time spent up to now is       13.7 secs

     total energy              =    -109.60911576 Ry
     estimated scf accuracy    <       0.00034604 Ry

     iteration #  6     ecut=    80.00 Ry     beta= 0.40
     Davidson diagonalization with overlap
     ethr =  1.08E-06,  avg # of iterations =  2.7

     total cpu time spent up to now is       15.8 secs

     total energy              =    -109.60917553 Ry
     estimated scf accuracy    <       0.00005318 Ry

     iteration #  7     ecut=    80.00 Ry     beta= 0.40
     Davidson diagonalization with overlap
     ethr =  1.66E-07,  avg # of iterations =  4.0

     total cpu time spent up to now is       18.2 secs

     total energy              =    -109.60919275 Ry
     estimated scf accuracy    <       0.00000183 Ry

     iteration #  8     ecut=    80.00 Ry     beta= 0.40
     Davidson diagonalization with overlap
     ethr =  5.72E-09,  avg # of iterations =  4.8

     total cpu time spent up to now is       20.9 secs

     total energy              =    -109.60919402 Ry
     estimated scf accuracy    <       0.00000076 Ry

     iteration #  9     ecut=    80.00 Ry     beta= 0.40
     Davidson diagonalization with overlap
     ethr =  2.37E-09,  avg # of iterations =  2.0

     total cpu time spent up to now is       22.9 secs

     total energy              =    -109.60919421 Ry
     estimated scf accuracy    <       0.00000005 Ry

     iteration # 10     ecut=    80.00 Ry     beta= 0.40
     Davidson diagonalization with overlap
     ethr =  1.53E-10,  avg # of iterations =  3.0

     total cpu time spent up to now is       25.1 secs

     total energy              =    -109.60919422 Ry
     estimated scf accuracy    <          1.5E-09 Ry

     iteration # 11     ecut=    80.00 Ry     beta= 0.40
     Davidson diagonalization with overlap
     ethr =  4.54E-12,  avg # of iterations =  5.4

     total cpu time spent up to now is       28.2 secs

     total energy              =    -109.60919423 Ry
     estimated scf accuracy    <          1.7E-09 Ry

     iteration # 12     ecut=    80.00 Ry     beta= 0.40
     Davidson diagonalization with overlap
     ethr =  4.54E-12,  avg # of iterations =  2.1

     total cpu time spent up to now is       30.3 secs

     total energy              =    -109.60919423 Ry
     estimated scf accuracy    <          6.6E-10 Ry

     iteration # 13     ecut=    80.00 Ry     beta= 0.40
     Davidson diagonalization with overlap
     ethr =  2.07E-12,  avg # of iterations =  1.0

     total cpu time spent up to now is       31.7 secs

     End of self-consistent calculation

          k = 0.0000 0.0000 0.0000 (  4953 PWs)   bands (ev):

   -11.4988  -8.1467  -7.9765  -7.8962  -2.5111  -1.1878  -0.9694   0.5546
     1.0427   2.8645   4.0589   4.4065   5.2645   6.1711   6.3737   6.5647
    10.8056  12.3522  13.3690  13.4822

     occupation numbers 
     1.0000   1.0000   1.0000   1.0000   1.0000   1.0000   1.0000   1.0000
     1.0000   1.0000   1.0000   1.0000   1.0000   1.0000   1.0000   1.0000
     0.0000   0.0000   0.0000   0.0000

          k = 0.0000 0.0000 0.2309 (  4948 PWs)   bands (ev):

   -11.2901  -8.6950  -7.9317  -7.8650  -1.9030  -1.4856  -1.3955   1.1414
     1.5822   2.8595   4.0832   4.2695   4.5269   6.2078   6.4283   6.4966
    10.8052  12.1390  13.9106  13.9614

     occupation numbers 
     1.0000   1.0000   1.0000   1.0000   1.0000   1.0000   1.0000   1.0000
     1.0000   1.0000   1.0000   1.0000   1.0000   1.0000   1.0000   1.0000
     0.0000   0.0000   0.0000   0.0000

          k = 0.0000 0.0000 0.4618 (  4930 PWs)   bands (ev):

   -10.6819  -9.7453  -7.8473  -7.8112  -2.1839  -2.0923   0.3029   1.9168
     2.0913   2.3548   3.3054   3.5751   5.0138   5.7651   6.4509   6.5005
    11.0925  11.6074  14.7515  14.8076

     occupation numbers 
     1.0000   1.0000   1.0000   1.0000   1.0000   1.0000   1.0000   1.0000
     1.0000   1.0000   1.0000   1.0000   1.0000   1.0000   1.0000   1.0000
     0.0000   0.0000   0.0000   0.0000

          k = 0.0000 0.2681-0.0722 (  4946 PWs)   bands (ev):

   -11.2778  -8.3258  -8.0897  -7.6016  -2.3494  -1.2819  -0.7154   0.3760
     1.2501   2.5360   3.2926   3.8772   4.9626   5.4266   6.0506   6.9271
    11.4685  12.8264  13.3722  14.7909

     occupation numbers 
     1.0000   1.0000   1.0000   1.0000   1.0000   1.0000   1.0000   1.0000
     1.0000   1.0000   1.0000   1.0000   1.0000   1.0000   1.0000   1.0000
     0.0000   0.0000   0.0000   0.0000

          k = 0.0000 0.2681 0.1587 (  4949 PWs)   bands (ev):

   -11.1789  -8.3838  -8.2438  -7.6264  -2.0119  -1.4863  -1.0260   0.5747
     1.6360   2.6440   3.6572   3.9957   4.6369   5.3046   5.7752   6.5818
    11.0452  12.9239  14.1641  14.6907

     occupation numbers 
     1.0000   1.0000   1.0000   1.0000   1.0000   1.0000   1.0000   1.0000
     1.0000   1.0000   1.0000   1.0000   1.0000   1.0000   1.0000   1.0000
     0.0000   0.0000   0.0000   0.0000

          k = 0.0000 0.2681 0.3895 (  4933 PWs)   bands (ev):

   -10.6854  -9.3385  -8.0652  -7.6994  -2.0735  -1.7347  -0.2797   1.5270
     1.9797   2.3158   3.3549   3.5976   4.5484   5.1189   5.7356   6.5553
    11.0642  12.7246  14.7645  15.0498

     occupation numbers 
     1.0000   1.0000   1.0000   1.0000   1.0000   1.0000   1.0000   1.0000
     1.0000   1.0000   1.0000   1.0000   1.0000   1.0000   1.0000   1.0000
     0.0000   0.0000   0.0000   0.0000

          k = 0.0000 0.2681-0.5340 (  4936 PWs)   bands (ev):

   -10.2968  -9.8518  -7.9724  -7.7633  -2.1659  -1.8159   0.6954   1.3959
     1.8019   2.2534   2.9438   3.3601   4.2708   5.2393   6.2360   6.7085
    11.4904  12.3887  14.2155  15.4519

     occupation numbers 
     1.0000   1.0000   1.0000   1.0000   1.0000   1.0000   1.0000   1.0000
     1.0000   1.0000   1.0000   1.0000   1.0000   1.0000   1.0000   1.0000
     0.0000   0.0000   0.0000   0.0000

          k = 0.0000 0.2681-0.3031 (  4935 PWs)   bands (ev):

   -10.9731  -8.8617  -8.1471  -7.6497  -1.9399  -1.3397  -1.0126   1.1721
     1.7714   2.3657   3.2667   3.5240   4.0779   5.5151   6.4851   6.9217
    11.8956  12.3450  13.3904  15.2703

     occupation numbers 
     1.0000   1.0000   1.0000   1.0000   1.0000   1.0000   1.0000   1.0000
     1.0000   1.0000   1.0000   1.0000   1.0000   1.0000   1.0000   1.0000
     0.0000   0.0000   0.0000   0.0000

          k = 0.0000 0.5362-0.1444 (  4931 PWs)   bands (ev):

   -10.7229  -8.6835  -8.0041  -7.4523  -2.0695  -1.3359  -0.3827   0.3453
     1.4135   1.5701   2.4278   3.3249   4.1571   4.9514   5.5151   6.9788
    11.5502  12.8132  13.5592  15.6230

     occupation numbers 
     1.0000   1.0000   1.0000   1.0000   1.0000   1.0000   1.0000   1.0000
     1.0000   1.0000   1.0000   1.0000   1.0000   1.0000   1.0000   1.0000
     0.0000   0.0000   0.0000   0.0000

          k = 0.0000 0.5362 0.0864 (  4936 PWs)   bands (ev):

   -10.6996  -8.5877  -8.0946  -7.5390  -2.0385  -1.2982  -0.3690   0.0308
     1.5350   1.9564   2.5494   3.6273   4.1708   4.7196   5.2007   6.5588
    11.3004  13.2744  14.0635  15.4546

     occupation numbers 
     1.0000   1.0000   1.0000   1.0000   1.0000   1.0000   1.0000   1.0000
     1.0000   1.0000   1.0000   1.0000   1.0000   1.0000   1.0000   1.0000
     0.0000   0.0000   0.0000   0.0000

          k = 0.0000 0.5362 0.3173 (  4924 PWs)   bands (ev):

   -10.3320  -8.8891  -8.3607  -7.6432  -2.0358  -0.9928  -0.7504   1.1172
     1.3340   2.0956   3.0404   3.3754   3.7112   4.5913   5.0644   6.2970
    11.2442  13.4013  14.4405  15.0954

     occupation numbers 
     1.0000   1.0000   1.0000   1.0000   1.0000   1.0000   1.0000   1.0000
     1.0000   1.0000   1.0000   1.0000   1.0000   1.0000   1.0000   1.0000
     0.0000   0.0000   0.0000   0.0000

          k = 0.0000 0.5362-0.6062 (  4930 PWs)   bands (ev):

    -9.8429  -9.5638  -8.2112  -7.7376  -2.1227  -1.1263   0.3222   0.7025
     1.1274   2.3217   2.7383   3.3517   3.4115   4.5998   5.4130   6.4320
    11.4440  13.0659  14.0322  15.4128

     occupation numbers 
     1.0000   1.0000   1.0000   1.0000   1.0000   1.0000   1.0000   1.0000
     1.0000   1.0000   1.0000   1.0000   1.0000   1.0000   1.0000   1.0000
     0.0000   0.0000   0.0000   0.0000

          k = 0.0000 0.5362-0.3753 (  4918 PWs)   bands (ev):

   -10.3970  -8.9471  -8.2303  -7.5855  -1.9784  -0.9507  -0.6068   0.6663
     1.3693   2.0567   2.5709   3.1525   3.4382   4.8919   5.8246   6.8085
    11.7504  12.5785  13.5337  15.6552

     occupation numbers 
     1.0000   1.0000   1.0000   1.0000   1.0000   1.0000   1.0000   1.0000
     1.0000   1.0000   1.0000   1.0000   1.0000   1.0000   1.0000   1.0000
     0.0000   0.0000   0.0000   0.0000

          k = 0.0000-0.8043 0.2167 (  4930 PWs)   bands (ev):

   -10.3220  -8.9408  -7.9466  -7.4454  -1.9840  -1.3745  -0.2685   0.3822
     1.2967   1.6564   1.9437   3.0959   3.6769   4.8738   5.2441   6.9402
    11.2956  12.4839  13.5544  15.7113

     occupation numbers 
     1.0000   1.0000   1.0000   1.0000   1.0000   1.0000   1.0000   1.0000
     1.0000   1.0000   1.0000   1.0000   1.0000   1.0000   1.0000   1.0000
     0.0000   0.0000   0.0000   0.0000

          k = 0.0000-0.8043 0.4475 (  4920 PWs)   bands (ev):

   -10.1955  -8.9285  -8.0820  -7.5932  -2.0325  -1.0216  -0.3700   0.4405
     1.0663   1.8609   2.1073   3.3182   3.6288   4.6629   5.1396   6.6607
    11.1806  12.7641  13.8615  15.5196

     occupation numbers 
     1.0000   1.0000   1.0000   1.0000   1.0000   1.0000   1.0000   1.0000
     1.0000   1.0000   1.0000   1.0000   1.0000   1.0000   1.0000   1.0000
     0.0000   0.0000   0.0000   0.0000

          k = 0.0000-0.8043 0.6784 (  4924 PWs)   bands (ev):

    -9.8915  -9.0243  -8.3950  -7.6813  -2.1179  -0.8923  -0.2025   0.6344
     0.9521   2.1500   2.7468   3.1853   3.3674   4.2791   5.0358   6.2909
    10.9676  13.3839  14.1254  15.1471

     occupation numbers 
     1.0000   1.0000   1.0000   1.0000   1.0000   1.0000   1.0000   1.0000
     1.0000   1.0000   1.0000   1.0000   1.0000   1.0000   1.0000   1.0000
     0.0000   0.0000   0.0000   0.0000

          k = 0.1429-0.0498-0.0000 (  4941 PWs)   bands (ev):

   -11.4087  -8.6561  -8.0762  -7.4388  -2.4341  -1.3241  -0.4144   0.0060
     1.6358   2.5969   3.9146   4.3375   5.1045   6.1053   6.4023   6.5716
    10.9098  12.4140  13.2833  13.7598

     occupation numbers 
     1.0000   1.0000   1.0000   1.0000   1.0000   1.0000   1.0000   1.0000
     1.0000   1.0000   1.0000   1.0000   1.0000   1.0000   1.0000   1.0000
     0.0000   0.0000   0.0000   0.0000

          k = 0.1429-0.0498 0.2309 (  4946 PWs)   bands (ev):

   -11.2013  -8.6358  -8.5197  -7.5363  -1.8761  -1.5165  -0.8699   0.7454
     2.0078   2.6345   3.7750   4.2971   4.4895   6.1297   6.3835   6.5351
    10.9134  12.2270  13.7243  14.2473

     occupation numbers 
     1.0000   1.0000   1.0000   1.0000   1.0000   1.0000   1.0000   1.0000
     1.0000   1.0000   1.0000   1.0000   1.0000   1.0000   1.0000   1.0000
     0.0000   0.0000   0.0000   0.0000

          k = 0.1429-0.0498 0.4618 (  4950 PWs)   bands (ev):

   -10.5969  -9.6663  -8.2077  -7.8222  -2.0237  -1.6755   0.3208   1.7455
     2.1210   2.3535   3.1421   3.4709   4.9643   5.6909   6.4107   6.4914
    11.1858  11.7243  14.5443  14.9918

     occupation numbers 
     1.0000   1.0000   1.0000   1.0000   1.0000   1.0000   1.0000   1.0000
     1.0000   1.0000   1.0000   1.0000   1.0000   1.0000   1.0000   1.0000
     0.0000   0.0000   0.0000   0.0000

          k = 0.1429-0.0498-0.4618 (  4950 PWs)   bands (ev):

   -10.5961  -9.6678  -8.2109  -7.8179  -2.0166  -1.6832   0.3183   1.7251
     2.1297   2.3728   3.1578   3.4523   4.9579   5.6971   6.4217   6.4769
    11.2039  11.7070  14.5724  14.9621

     occupation numbers 
     1.0000   1.0000   1.0000   1.0000   1.0000   1.0000   1.0000   1.0000
     1.0000   1.0000   1.0000   1.0000   1.0000   1.0000   1.0000   1.0000
     0.0000   0.0000   0.0000   0.0000

          k = 0.1429-0.0498-0.2309 (  4946 PWs)   bands (ev):

   -11.2009  -8.6464  -8.5115  -7.5337  -1.8751  -1.5050  -0.8836   0.7272
     2.0266   2.6393   3.7824   4.3129   4.4599   6.1322   6.3955   6.5200
    10.9252  12.2201  13.7374  14.2255

     occupation numbers 
     1.0000   1.0000   1.0000   1.0000   1.0000   1.0000   1.0000   1.0000
     1.0000   1.0000   1.0000   1.0000   1.0000   1.0000   1.0000   1.0000
     0.0000   0.0000   0.0000   0.0000

          k = 0.1429 0.2183-0.0722 (  4942 PWs)   bands (ev):

   -11.2919  -8.2587  -8.0577  -7.6760  -2.3622  -1.2375  -0.8219   0.4734
     1.1404   2.5954   3.3201   3.8463   4.9763   5.4354   6.0757   6.9185
    11.4679  12.8243  13.3731  14.7672

     occupation numbers 
     1.0000   1.0000   1.0000   1.0000   1.0000   1.0000   1.0000   1.0000
     1.0000   1.0000   1.0000   1.0000   1.0000   1.0000   1.0000   1.0000
     0.0000   0.0000   0.0000   0.0000

          k = 0.1429 0.2183 0.1587 (  4948 PWs)   bands (ev):

   -11.1933  -8.3909  -8.1459  -7.6882  -2.0174  -1.4798  -1.1061   0.6457
     1.5578   2.6902   3.6738   4.0201   4.6585   5.2649   5.7899   6.5864
    11.0333  12.9179  14.1828  14.6736

     occupation numbers 
     1.0000   1.0000   1.0000   1.0000   1.0000   1.0000   1.0000   1.0000
     1.0000   1.0000   1.0000   1.0000   1.0000   1.0000   1.0000   1.0000
     0.0000   0.0000   0.0000   0.0000

          k = 0.1429 0.2183 0.3895 (  4926 PWs)   bands (ev):

   -10.6992  -9.3496  -8.0055  -7.7056  -2.0674  -1.8273  -0.2798   1.5567
     1.9910   2.3112   3.3570   3.6027   4.5869   5.0911   5.7591   6.5555
    11.0524  12.7162  14.7571  15.0790

     occupation numbers 
     1.0000   1.0000   1.0000   1.0000   1.0000   1.0000   1.0000   1.0000
     1.0000   1.0000   1.0000   1.0000   1.0000   1.0000   1.0000   1.0000
     0.0000   0.0000   0.0000   0.0000

          k = 0.1429 0.2183-0.5340 (  4935 PWs)   bands (ev):

   -10.3074  -9.8674  -7.9425  -7.7339  -2.1612  -1.9115   0.6968   1.3984
     1.8729   2.2017   2.9651   3.3443   4.2914   5.2517   6.2614   6.6992
    11.4934  12.3703  14.2314  15.4609

     occupation numbers 
     1.0000   1.0000   1.0000   1.0000   1.0000   1.0000   1.0000   1.0000
     1.0000   1.0000   1.0000   1.0000   1.0000   1.0000   1.0000   1.0000
     0.0000   0.0000   0.0000   0.0000

          k = 0.1429 0.2183-0.3031 (  4930 PWs)   bands (ev):

   -10.9865  -8.8739  -8.0607  -7.6904  -1.9206  -1.4041  -1.0498   1.2328
     1.7068   2.4245   3.2738   3.4954   4.0854   5.5388   6.5335   6.8895
    11.9362  12.2917  13.4095  15.2532

     occupation numbers 
     1.0000   1.0000   1.0000   1.0000   1.0000   1.0000   1.0000   1.0000
     1.0000   1.0000   1.0000   1.0000   1.0000   1.0000   1.0000   1.0000
     0.0000   0.0000   0.0000   0.0000

          k = 0.1429 0.4864-0.1444 (  4948 PWs)   bands (ev):

   -10.8164  -8.4263  -7.8607  -7.7055  -2.1218  -1.1019  -0.9082   0.5509
     1.0739   1.7897   2.7668   2.9806   4.3764   4.8059   5.8090   6.8676
    11.5606  13.1005  13.2766  15.6791

     occupation numbers 
     1.0000   1.0000   1.0000   1.0000   1.0000   1.0000   1.0000   1.0000
     1.0000   1.0000   1.0000   1.0000   1.0000   1.0000   1.0000   1.0000
     0.0000   0.0000   0.0000   0.0000

          k = 0.1429 0.4864 0.0864 (  4943 PWs)   bands (ev):

   -10.7996  -8.1917  -8.0102  -7.8581  -2.0374  -1.4009  -0.7359   0.3650
     1.0460   2.3976   2.7883   3.5394   4.4155   4.4716   5.2747   6.4832
    11.3038  13.3504  14.0398  15.5378

     occupation numbers 
     1.0000   1.0000   1.0000   1.0000   1.0000   1.0000   1.0000   1.0000
     1.0000   1.0000   1.0000   1.0000   1.0000   1.0000   1.0000   1.0000
     0.0000   0.0000   0.0000   0.0000

          k = 0.1429 0.4864 0.3173 (  4939 PWs)   bands (ev):

   -10.4270  -8.9314  -8.0413  -7.7143  -1.8898  -1.6425  -0.7420   1.2767
     1.7030   1.9217   2.9252   3.2339   4.1922   4.4054   5.2219   6.1444
    11.3452  13.1708  14.8208  14.9623

     occupation numbers 
     1.0000   1.0000   1.0000   1.0000   1.0000   1.0000   1.0000   1.0000
     1.0000   1.0000   1.0000   1.0000   1.0000   1.0000   1.0000   1.0000
     0.0000   0.0000   0.0000   0.0000

          k = 0.1429 0.4864-0.6062 (  4935 PWs)   bands (ev):

    -9.8202  -9.7498  -8.0383  -7.6078  -1.9879  -1.7723   0.4354   0.7123
     1.6278   1.8595   2.7055   3.2311   3.6700   4.6311   5.6792   6.2433
    11.7001  12.7556  14.0801  15.6302

     occupation numbers 
     1.0000   1.0000   1.0000   1.0000   1.0000   1.0000   1.0000   1.0000
     1.0000   1.0000   1.0000   1.0000   1.0000   1.0000   1.0000   1.0000
     0.0000   0.0000   0.0000   0.0000

          k = 0.1429 0.4864-0.3753 (  4929 PWs)   bands (ev):

   -10.4728  -8.9916  -7.9271  -7.6731  -1.8008  -1.3783  -0.8035   0.8545
     1.6324   1.7992   2.6957   2.8679   3.6095   4.9257   6.2749   6.4857
    12.0929  12.3888  13.3867  15.7675

     occupation numbers 
     1.0000   1.0000   1.0000   1.0000   1.0000   1.0000   1.0000   1.0000
     1.0000   1.0000   1.0000   1.0000   1.0000   1.0000   1.0000   1.0000
     0.0000   0.0000   0.0000   0.0000

          k = 0.1429-0.8541 0.2167 (  4921 PWs)   bands (ev):

   -10.3204  -8.9568  -7.8683  -7.5178  -1.9350  -1.2135  -0.4908   0.1639
     1.2742   1.8865   2.1655   2.9749   3.6597   4.5606   5.6497   6.7698
    11.3123  12.6518  13.3272  15.6685

     occupation numbers 
     1.0000   1.0000   1.0000   1.0000   1.0000   1.0000   1.0000   1.0000
     1.0000   1.0000   1.0000   1.0000   1.0000   1.0000   1.0000   1.0000
     0.0000   0.0000   0.0000   0.0000

          k = 0.1429-0.8541 0.4475 (  4925 PWs)   bands (ev):

   -10.2717  -8.6237  -8.1428  -7.7868  -1.9273  -1.2234  -0.2016   0.2598
     1.0179   1.8252   2.3665   3.3552   3.9460   4.4126   5.0673   6.6262
    11.0291  13.0555  13.7207  15.2923

     occupation numbers 
     1.0000   1.0000   1.0000   1.0000   1.0000   1.0000   1.0000   1.0000
     1.0000   1.0000   1.0000   1.0000   1.0000   1.0000   1.0000   1.0000
     0.0000   0.0000   0.0000   0.0000

          k = 0.1429-0.8541 0.6784 (  4923 PWs)   bands (ev):

    -9.9808  -8.7851  -8.3799  -7.8706  -1.9160  -0.9944  -0.6711   1.0291
     1.3281   1.6907   2.7259   3.0115   3.8148   4.3432   4.9061   6.1954
    11.0042  13.2011  14.2268  15.0816

     occupation numbers 
     1.0000   1.0000   1.0000   1.0000   1.0000   1.0000   1.0000   1.0000
     1.0000   1.0000   1.0000   1.0000   1.0000   1.0000   1.0000   1.0000
     0.0000   0.0000   0.0000   0.0000

          k = 0.1429-0.8541-0.2451 (  4937 PWs)   bands (ev):

    -9.7311  -9.3280  -8.3139  -7.6091  -1.9533  -1.2484   0.0138   0.5638
     1.1635   2.1741   2.6505   2.9225   3.2566   4.3433   5.3122   6.1765
    11.2435  12.8520  14.3069  15.2268

     occupation numbers 
     1.0000   1.0000   1.0000   1.0000   1.0000   1.0000   1.0000   1.0000
     1.0000   1.0000   1.0000   1.0000   1.0000   1.0000   1.0000   1.0000
     0.0000   0.0000   0.0000   0.0000

          k = 0.1429-0.8541-0.0142 (  4933 PWs)   bands (ev):

   -10.0902  -9.2033  -7.9481  -7.5486  -1.8089  -1.0663  -0.6681   0.4155
     1.1796   1.9262   2.3489   3.0246   3.3895   4.5349   5.6413   6.4536
    11.6025  12.4545  13.5905  15.7453

     occupation numbers 
     1.0000   1.0000   1.0000   1.0000   1.0000   1.0000   1.0000   1.0000
     1.0000   1.0000   1.0000   1.0000   1.0000   1.0000   1.0000   1.0000
     0.0000   0.0000   0.0000   0.0000

          k = 0.1429-0.5860 0.1444 (  4937 PWs)   bands (ev):

   -10.4989  -9.1831  -7.9005  -7.3914  -1.9112  -1.1860  -0.4530   0.5339
     1.1898   1.9649   2.2449   3.3916   3.8219   4.8583   5.4891   6.9573
    11.5900  12.6617  13.5658  15.5063

     occupation numbers 
     1.0000   1.0000   1.0000   1.0000   1.0000   1.0000   1.0000   1.0000
     1.0000   1.0000   1.0000   1.0000   1.0000   1.0000   1.0000   1.0000
     0.0000   0.0000   0.0000   0.0000

          k = 0.1429-0.5860 0.3753 (  4930 PWs)   bands (ev):

   -10.2231  -9.0018  -8.4187  -7.6961  -1.8196  -0.8665  -0.2150   0.6467
     1.3374   1.9799   2.2518   3.3425   3.5499   4.7579   5.5129   6.9052
    11.4369  12.7601  13.6085  15.3719

     occupation numbers 
     1.0000   1.0000   1.0000   1.0000   1.0000   1.0000   1.0000   1.0000
     1.0000   1.0000   1.0000   1.0000   1.0000   1.0000   1.0000   1.0000
     0.0000   0.0000   0.0000   0.0000

          k = 0.1429-0.5860 0.6062 (  4934 PWs)   bands (ev):

    -9.7758  -9.2529  -8.5031  -8.0667  -1.8339  -0.5053  -0.0134   0.8170
     1.0737   2.1323   2.6490   3.1690   3.5845   4.6619   5.1455   6.5266
    11.2313  13.3329  13.8985  15.0447

     occupation numbers 
     1.0000   1.0000   1.0000   1.0000   1.0000   1.0000   1.0000   1.0000
     1.0000   1.0000   1.0000   1.0000   1.0000   1.0000   1.0000   1.0000
     0.0000   0.0000   0.0000   0.0000

          k = 0.1429-0.5860-0.3173 (  4941 PWs)   bands (ev):

   -10.0996  -9.0031  -8.5951  -7.7262  -1.7983  -0.8403  -0.1318   0.7707
     1.0746   2.2942   2.7516   3.1579   3.6162   4.5087   5.2120   6.4115
    11.2287  13.4105  14.1641  15.0363

     occupation numbers 
     1.0000   1.0000   1.0000   1.0000   1.0000   1.0000   1.0000   1.0000
     1.0000   1.0000   1.0000   1.0000   1.0000   1.0000   1.0000   1.0000
     0.0000   0.0000   0.0000   0.0000

          k = 0.1429-0.5860-0.0864 (  4939 PWs)   bands (ev):

   -10.4547  -9.1717  -7.9705  -7.4458  -1.8382  -1.1208  -0.4775   0.5448
     1.0797   2.1867   2.5182   3.1956   3.7659   4.7849   5.4457   6.6262
    11.4477  13.0219  13.9096  15.3749

     occupation numbers 
     1.0000   1.0000   1.0000   1.0000   1.0000   1.0000   1.0000   1.0000
     1.0000   1.0000   1.0000   1.0000   1.0000   1.0000   1.0000   1.0000
     0.0000   0.0000   0.0000   0.0000

          k = 0.1429-0.3179 0.0722 (  4957 PWs)   bands (ev):

   -11.0908  -9.0111  -7.9884  -7.3280  -2.1863  -1.2439  -0.3864   0.2129
     1.8382   2.0897   3.0525   3.8913   4.6470   5.5178   5.8300   7.0079
    11.5674  12.7803  13.4255  14.9975

     occupation numbers 
     1.0000   1.0000   1.0000   1.0000   1.0000   1.0000   1.0000   1.0000
     1.0000   1.0000   1.0000   1.0000   1.0000   1.0000   1.0000   1.0000
     0.0000   0.0000   0.0000   0.0000

          k = 0.1429-0.3179 0.3031 (  4943 PWs)   bands (ev):

   -10.7932  -8.8736  -8.6163  -7.5706  -1.8030  -1.0756  -0.4511   0.7825
     1.8441   2.3082   2.9679   3.6829   3.9260   5.3846   6.2248   7.0330
    11.7273  12.7193  13.2339  15.3360

     occupation numbers 
     1.0000   1.0000   1.0000   1.0000   1.0000   1.0000   1.0000   1.0000
     1.0000   1.0000   1.0000   1.0000   1.0000   1.0000   1.0000   1.0000
     0.0000   0.0000   0.0000   0.0000

          k = 0.1429-0.3179 0.5340 (  4942 PWs)   bands (ev):

   -10.1368  -9.6774  -8.3811  -8.0331  -1.8246  -1.0834   0.6358   1.2575
     1.5503   2.4371   2.6814   3.3557   3.9773   5.2723   6.0449   6.7437
    11.5073  12.6670  14.0190  15.2399

     occupation numbers 
     1.0000   1.0000   1.0000   1.0000   1.0000   1.0000   1.0000   1.0000
     1.0000   1.0000   1.0000   1.0000   1.0000   1.0000   1.0000   1.0000
     0.0000   0.0000   0.0000   0.0000

          k = 0.1429-0.3179-0.3895 (  4940 PWs)   bands (ev):

   -10.5058  -9.1931  -8.5892  -7.8077  -1.7878  -0.9822  -0.2611   1.3397
     1.6948   2.3725   3.0673   3.5166   4.3405   5.3470   5.4797   6.6060
    11.2408  12.9245  14.5771  14.8351

     occupation numbers 
     1.0000   1.0000   1.0000   1.0000   1.0000   1.0000   1.0000   1.0000
     1.0000   1.0000   1.0000   1.0000   1.0000   1.0000   1.0000   1.0000
     0.0000   0.0000   0.0000   0.0000

          k = 0.1429-0.3179-0.1587 (  4944 PWs)   bands (ev):

   -10.9918  -8.9329  -8.2527  -7.4247  -1.8571  -1.4121  -0.3072   0.1763
     1.9477   2.3238   3.4563   3.7299   4.3222   5.4986   5.7314   6.6527
    11.2642  12.9958  13.9621  14.8330

     occupation numbers 
     1.0000   1.0000   1.0000   1.0000   1.0000   1.0000   1.0000   1.0000
     1.0000   1.0000   1.0000   1.0000   1.0000   1.0000   1.0000   1.0000
     0.0000   0.0000   0.0000   0.0000

          k = 0.2857-0.0996-0.0000 (  4942 PWs)   bands (ev):

   -11.1411  -9.4157  -7.9067  -7.2789  -2.2079  -1.1011  -0.5751   0.4920
     1.8640   2.4096   3.4435   4.2527   4.6703   5.8557   6.4678   6.6679
    11.1902  12.5040  13.3300  14.3790

     occupation numbers 
     1.0000   1.0000   1.0000   1.0000   1.0000   1.0000   1.0000   1.0000
     1.0000   1.0000   1.0000   1.0000   1.0000   1.0000   1.0000   1.0000
     0.0000   0.0000   0.0000   0.0000

          k = 0.2857-0.0996 0.2309 (  4950 PWs)   bands (ev):

   -10.9375  -9.2526  -8.4257  -7.5389  -1.5661  -1.3354   0.0061   0.3423
     1.9563   2.6216   3.1617   4.1125   4.3959   5.8910   6.4073   6.5877
    11.2438  12.4142  13.5536  14.7599

     occupation numbers 
     1.0000   1.0000   1.0000   1.0000   1.0000   1.0000   1.0000   1.0000
     1.0000   1.0000   1.0000   1.0000   1.0000   1.0000   1.0000   1.0000
     0.0000   0.0000   0.0000   0.0000

          k = 0.2857-0.0996 0.4618 (  4954 PWs)   bands (ev):

   -10.3453  -9.4374  -8.7878  -8.1470  -1.3891  -0.8487   0.3540   1.4917
     1.8859   2.3120   2.7774   3.1895   4.8602   5.5341   6.3704   6.4639
    11.5011  12.0460  14.1720  14.9842

     occupation numbers 
     1.0000   1.0000   1.0000   1.0000   1.0000   1.0000   1.0000   1.0000
     1.0000   1.0000   1.0000   1.0000   1.0000   1.0000   1.0000   1.0000
     0.0000   0.0000   0.0000   0.0000

          k = 0.2857-0.0996-0.4618 (  4954 PWs)   bands (ev):

   -10.3435  -9.4415  -8.7884  -8.1436  -1.3807  -0.8558   0.3454   1.4704
     1.8951   2.3368   2.8097   3.1525   4.8568   5.5371   6.3853   6.4463
    11.5252  12.0233  14.1784  14.9817

     occupation numbers 
     1.0000   1.0000   1.0000   1.0000   1.0000   1.0000   1.0000   1.0000
     1.0000   1.0000   1.0000   1.0000   1.0000   1.0000   1.0000   1.0000
     0.0000   0.0000   0.0000   0.0000

          k = 0.2857-0.0996-0.2309 (  4950 PWs)   bands (ev):

   -10.9367  -9.2560  -8.4251  -7.5361  -1.5671  -1.3225  -0.0014   0.3155
     1.9633   2.6411   3.1785   4.1004   4.3866   5.8869   6.4260   6.5699
    11.2572  12.4170  13.5402  14.7474

     occupation numbers 
     1.0000   1.0000   1.0000   1.0000   1.0000   1.0000   1.0000   1.0000
     1.0000   1.0000   1.0000   1.0000   1.0000   1.0000   1.0000   1.0000
     0.0000   0.0000   0.0000   0.0000

          k = 0.2857 0.1685-0.0722 (  4959 PWs)   bands (ev):

   -11.1327  -8.8988  -8.0099  -7.3494  -2.2241  -1.2681  -0.3487   0.1061
     1.8215   2.1161   3.0865   3.9240   4.6919   5.5179   5.8647   6.9933
    11.5645  12.7682  13.4295  14.9545

     occupation numbers 
     1.0000   1.0000   1.0000   1.0000   1.0000   1.0000   1.0000   1.0000
     1.0000   1.0000   1.0000   1.0000   1.0000   1.0000   1.0000   1.0000
     0.0000   0.0000   0.0000   0.0000

          k = 0.2857 0.1685 0.1587 (  4947 PWs)   bands (ev):

   -11.0343  -8.8178  -8.2809  -7.4336  -1.8923  -1.4592  -0.4141   0.2322
     1.9632   2.3114   3.4950   3.7981   4.3724   5.4964   5.7132   6.6458
    11.2206  12.9847  14.0181  14.8003

     occupation numbers 
     1.0000   1.0000   1.0000   1.0000   1.0000   1.0000   1.0000   1.0000
     1.0000   1.0000   1.0000   1.0000   1.0000   1.0000   1.0000   1.0000
     0.0000   0.0000   0.0000   0.0000

          k = 0.2857 0.1685 0.3895 (  4934 PWs)   bands (ev):

   -10.5465  -9.2232  -8.4997  -7.7661  -1.8625  -1.1294  -0.2575   1.3854
     1.7465   2.3507   3.1078   3.5805   4.3592   5.3210   5.4951   6.6189
    11.1986  12.9035  14.6698  14.8238

     occupation numbers 
     1.0000   1.0000   1.0000   1.0000   1.0000   1.0000   1.0000   1.0000
     1.0000   1.0000   1.0000   1.0000   1.0000   1.0000   1.0000   1.0000
     0.0000   0.0000   0.0000   0.0000

          k = 0.2857 0.1685-0.5340 (  4942 PWs)   bands (ev):

   -10.1676  -9.7235  -8.3150  -7.9550  -1.8954  -1.2390   0.6448   1.2992
     1.5714   2.4216   2.7338   3.3742   4.0314   5.2451   6.0856   6.7506
    11.5002  12.6238  14.0609  15.2977

     occupation numbers 
     1.0000   1.0000   1.0000   1.0000   1.0000   1.0000   1.0000   1.0000
     1.0000   1.0000   1.0000   1.0000   1.0000   1.0000   1.0000   1.0000
     0.0000   0.0000   0.0000   0.0000

          k = 0.2857 0.1685-0.3031 (  4942 PWs)   bands (ev):

   -10.8325  -8.8455  -8.5746  -7.5544  -1.8393  -1.1097  -0.5808   0.8025
     1.9381   2.2561   3.0277   3.7182   3.9075   5.3970   6.2816   7.0181
    11.7635  12.6486  13.2655  15.3356

     occupation numbers 
     1.0000   1.0000   1.0000   1.0000   1.0000   1.0000   1.0000   1.0000
     1.0000   1.0000   1.0000   1.0000   1.0000   1.0000   1.0000   1.0000
     0.0000   0.0000   0.0000   0.0000

          k = 0.2857 0.4366-0.1444 (  4939 PWs)   bands (ev):

   -10.7677  -8.5721  -7.9716  -7.5239  -2.0960  -1.2843  -0.5525   0.3755
     1.3538   1.5949   2.5746   3.1955   4.2136   4.9309   5.6513   6.9349
    11.5552  12.9055  13.4761  15.6633

     occupation numbers 
     1.0000   1.0000   1.0000   1.0000   1.0000   1.0000   1.0000   1.0000
     1.0000   1.0000   1.0000   1.0000   1.0000   1.0000   1.0000   1.0000
     0.0000   0.0000   0.0000   0.0000

          k = 0.2857 0.4366 0.0864 (  4944 PWs)   bands (ev):

   -10.7483  -8.4162  -8.1106  -7.6151  -2.0427  -1.3614  -0.5142   0.1424
     1.3461   2.1280   2.6508   3.6262   4.2720   4.6024   5.2403   6.5337
    11.3042  13.3106  14.0710  15.4912

     occupation numbers 
     1.0000   1.0000   1.0000   1.0000   1.0000   1.0000   1.0000   1.0000
     1.0000   1.0000   1.0000   1.0000   1.0000   1.0000   1.0000   1.0000
     0.0000   0.0000   0.0000   0.0000

          k = 0.2857 0.4366 0.3173 (  4931 PWs)   bands (ev):

   -10.3781  -8.9058  -8.2447  -7.6430  -2.0252  -1.2434  -0.7466   1.1914
     1.5051   1.9830   3.0244   3.3182   3.8664   4.5662   5.1112   6.2481
    11.2912  13.3095  14.6039  15.0460

     occupation numbers 
     1.0000   1.0000   1.0000   1.0000   1.0000   1.0000   1.0000   1.0000
     1.0000   1.0000   1.0000   1.0000   1.0000   1.0000   1.0000   1.0000
     0.0000   0.0000   0.0000   0.0000

          k = 0.2857 0.4366-0.6062 (  4928 PWs)   bands (ev):

    -9.8304  -9.6575  -8.1438  -7.6572  -2.1134  -1.3787   0.3751   0.7161
     1.2669   2.1982   2.7226   3.2953   3.5012   4.6321   5.5232   6.3666
    11.5526  12.9396  14.0641  15.5180

     occupation numbers 
     1.0000   1.0000   1.0000   1.0000   1.0000   1.0000   1.0000   1.0000
     1.0000   1.0000   1.0000   1.0000   1.0000   1.0000   1.0000   1.0000
     0.0000   0.0000   0.0000   0.0000

          k = 0.2857 0.4366-0.3753 (  4919 PWs)   bands (ev):

   -10.4316  -8.9757  -8.1143  -7.5913  -1.9312  -1.0812  -0.7377   0.7446
     1.4376   2.0048   2.6432   3.0123   3.4744   4.9383   5.9913   6.7083
    11.8827  12.5151  13.4758  15.7245

     occupation numbers 
     1.0000   1.0000   1.0000   1.0000   1.0000   1.0000   1.0000   1.0000
     1.0000   1.0000   1.0000   1.0000   1.0000   1.0000   1.0000   1.0000
     0.0000   0.0000   0.0000   0.0000

          k = 0.2857-0.9039 0.2167 (  4917 PWs)   bands (ev):

   -10.3173  -8.9735  -7.7952  -7.5815  -1.9082  -1.0044  -0.7372   0.0556
     1.3363   1.8686   2.4094   2.8172   3.7083   4.4066   5.8804   6.6237
    11.3196  12.8602  13.0872  15.6552

     occupation numbers 
     1.0000   1.0000   1.0000   1.0000   1.0000   1.0000   1.0000   1.0000
     1.0000   1.0000   1.0000   1.0000   1.0000   1.0000   1.0000   1.0000
     0.0000   0.0000   0.0000   0.0000

          k = 0.2857-0.9039 0.4475 (  4932 PWs)   bands (ev):

   -10.2861  -8.5537  -8.0940  -7.8995  -1.8188  -1.3449  -0.2134   0.3977
     0.7101   2.0179   2.5625   3.1595   4.0428   4.2904   5.1574   6.5740
    11.0186  13.2233  13.5360  15.2459

     occupation numbers 
     1.0000   1.0000   1.0000   1.0000   1.0000   1.0000   1.0000   1.0000
     1.0000   1.0000   1.0000   1.0000   1.0000   1.0000   1.0000   1.0000
     0.0000   0.0000   0.0000   0.0000

          k = 0.2857-0.9039 0.6784 (  4940 PWs)   bands (ev):

    -9.9967  -8.7429  -8.3333  -7.9514  -1.7273  -1.2655  -0.6647   1.1446
     1.3242   1.7820   2.6230   2.8747   4.0036   4.2711   4.9768   6.1249
    11.0663  13.0546  14.2915  15.0620

     occupation numbers 
     1.0000   1.0000   1.0000   1.0000   1.0000   1.0000   1.0000   1.0000
     1.0000   1.0000   1.0000   1.0000   1.0000   1.0000   1.0000   1.0000
     0.0000   0.0000   0.0000   0.0000

          k = 0.2857-0.9039-0.2451 (  4930 PWs)   bands (ev):

    -9.6236  -9.4682  -8.2922  -7.5978  -1.7513  -1.4973  -0.0418   0.6370
     1.4897   1.8536   2.6290   2.8123   3.3523   4.3503   5.4243   6.0995
    11.4154  12.6023  14.3553  15.2481

     occupation numbers 
     1.0000   1.0000   1.0000   1.0000   1.0000   1.0000   1.0000   1.0000
     1.0000   1.0000   1.0000   1.0000   1.0000   1.0000   1.0000   1.0000
     0.0000   0.0000   0.0000   0.0000

          k = 0.2857-0.9039-0.0142 (  4925 PWs)   bands (ev):

   -10.0522  -9.2810  -7.9017  -7.5554  -1.5720  -1.3022  -0.6997   0.3223
     1.4699   1.8741   2.1646   3.1336   3.3471   4.4376   5.8731   6.2956
    11.8766  12.2370  13.4819  15.7991

     occupation numbers 
     1.0000   1.0000   1.0000   1.0000   1.0000   1.0000   1.0000   1.0000
     1.0000   1.0000   1.0000   1.0000   1.0000   1.0000   1.0000   1.0000
     0.0000   0.0000   0.0000   0.0000

          k = 0.2857-0.6358 0.1444 (  4928 PWs)   bands (ev):

   -10.2151  -9.6203  -7.7309  -7.4925  -1.7699  -0.7806  -0.5350  -0.0863
     1.4584   2.2107   2.6523   3.0941   3.5384   4.3854   6.1441   6.5771
    11.6729  12.8384  13.1658  15.4487

     occupation numbers 
     1.0000   1.0000   1.0000   1.0000   1.0000   1.0000   1.0000   1.0000
     1.0000   1.0000   1.0000   1.0000   1.0000   1.0000   1.0000   1.0000
     0.0000   0.0000   0.0000   0.0000

          k = 0.2857-0.6358 0.3753 (  4939 PWs)   bands (ev):

   -10.0402  -9.2277  -8.2719  -7.9271  -1.5069  -0.9508   0.0131   0.3505
     1.6191   2.0688   2.2422   2.9247   3.6240   4.6857   5.6619   6.7294
    11.3180  13.0558  13.3511  15.1539

     occupation numbers 
     1.0000   1.0000   1.0000   1.0000   1.0000   1.0000   1.0000   1.0000
     1.0000   1.0000   1.0000   1.0000   1.0000   1.0000   1.0000   1.0000
     0.0000   0.0000   0.0000   0.0000

          k = 0.2857-0.6358 0.6062 (  4956 PWs)   bands (ev):

    -9.6888  -8.8731  -8.7011  -8.4966  -1.3168  -0.7461   0.0030   0.9520
     1.5028   1.8300   2.3892   2.8165   3.6848   4.7807   5.2653   6.3850
    11.2509  13.2181  13.8654  14.8299

     occupation numbers 
     1.0000   1.0000   1.0000   1.0000   1.0000   1.0000   1.0000   1.0000
     1.0000   1.0000   1.0000   1.0000   1.0000   1.0000   1.0000   1.0000
     0.0000   0.0000   0.0000   0.0000

          k = 0.2857-0.6358-0.3173 (  4951 PWs)   bands (ev):

    -9.7536  -9.4366  -8.5002  -7.8695  -1.3399  -1.0589   0.1792   0.7244
     1.3596   1.8943   2.6130   2.7241   3.7764   4.3996   5.5260   6.3369
    11.4699  12.8295  14.4342  14.7990

     occupation numbers 
     1.0000   1.0000   1.0000   1.0000   1.0000   1.0000   1.0000   1.0000
     1.0000   1.0000   1.0000   1.0000   1.0000   1.0000   1.0000   1.0000
     0.0000   0.0000   0.0000   0.0000

          k = 0.2857-0.6358-0.0864 (  4947 PWs)   bands (ev):

   -10.0970  -9.6982  -7.8393  -7.4989  -1.4878  -1.1798  -0.4317   0.3308
     1.4958   2.1393   2.2777   3.2741   3.4966   4.3871   5.9038   6.5370
    11.9571  12.4420  13.7104  15.3780

     occupation numbers 
     1.0000   1.0000   1.0000   1.0000   1.0000   1.0000   1.0000   1.0000
     1.0000   1.0000   1.0000   1.0000   1.0000   1.0000   1.0000   1.0000
     0.0000   0.0000   0.0000   0.0000

          k = 0.2857-0.3677 0.0722 (  4963 PWs)   bands (ev):

   -10.7385  -9.7076  -7.7808  -7.3543  -1.9093  -1.0610  -0.5420   0.9539
     1.1871   2.5149   3.0046   3.5068   4.2093   5.1868   6.1880   6.9675
    11.7441  12.7332  13.4913  15.0500

     occupation numbers 
     1.0000   1.0000   1.0000   1.0000   1.0000   1.0000   1.0000   1.0000
     1.0000   1.0000   1.0000   1.0000   1.0000   1.0000   1.0000   1.0000
     0.0000   0.0000   0.0000   0.0000

          k = 0.2857-0.3677 0.3031 (  4950 PWs)   bands (ev):

   -10.4572  -9.4586  -8.4214  -7.7760  -1.4182  -0.8031  -0.0196   0.8858
     1.3065   2.5093   2.7642   3.4100   3.6449   5.4558   6.1940   6.9294
    11.6820  12.9075  13.2716  15.1434

     occupation numbers 
     1.0000   1.0000   1.0000   1.0000   1.0000   1.0000   1.0000   1.0000
     1.0000   1.0000   1.0000   1.0000   1.0000   1.0000   1.0000   1.0000
     0.0000   0.0000   0.0000   0.0000

          k = 0.2857-0.3677 0.5340 (  4935 PWs)   bands (ev):

    -9.8460  -9.3612  -8.8884  -8.4917  -1.1282  -0.2964   0.4926   0.9891
     1.5813   2.2014   2.5008   3.0599   3.6334   5.6224   5.9175   6.5891
    11.6581  13.0134  13.7462  14.7609

     occupation numbers 
     1.0000   1.0000   1.0000   1.0000   1.0000   1.0000   1.0000   1.0000
     1.0000   1.0000   1.0000   1.0000   1.0000   1.0000   1.0000   1.0000
     0.0000   0.0000   0.0000   0.0000

          k = 0.2857-0.3677-0.3895 (  4949 PWs)   bands (ev):

   -10.1703  -9.2284  -8.8892  -8.1373  -1.1596  -0.3774   0.0393   1.1566
     1.3284   2.1225   2.7627   3.1116   4.4204   5.0659   5.8153   6.5324
    11.6105  13.2173  13.9874  14.5572

     occupation numbers 
     1.0000   1.0000   1.0000   1.0000   1.0000   1.0000   1.0000   1.0000
     1.0000   1.0000   1.0000   1.0000   1.0000   1.0000   1.0000   1.0000
     0.0000   0.0000   0.0000   0.0000

          k = 0.2857-0.3677-0.1587 (  4952 PWs)   bands (ev):

   -10.6390  -9.6206  -8.0347  -7.5160  -1.5696  -1.1617  -0.1491   0.7596
     1.2371   2.6962   2.7937   3.6807   4.0031   5.1179   6.1318   6.7169
    11.7432  12.9074  13.7415  14.8194

     occupation numbers 
     1.0000   1.0000   1.0000   1.0000   1.0000   1.0000   1.0000   1.0000
     1.0000   1.0000   1.0000   1.0000   1.0000   1.0000   1.0000   1.0000
     0.0000   0.0000   0.0000   0.0000

          k = 0.4286-0.1494-0.0000 (  4952 PWs)   bands (ev):

   -10.7053 -10.1189  -7.6609  -7.4050  -1.8587  -1.3635  -0.1137   0.8805
     1.4555   2.6773   3.1110   4.1082   4.2497   5.6354   6.5752   6.6941
    11.5720  12.2805  13.7561  15.0771

     occupation numbers 
     1.0000   1.0000   1.0000   1.0000   1.0000   1.0000   1.0000   1.0000
     1.0000   1.0000   1.0000   1.0000   1.0000   1.0000   1.0000   1.0000
     0.0000   0.0000   0.0000   0.0000

          k = 0.4286-0.1494 0.2309 (  4950 PWs)   bands (ev):

   -10.5090  -9.9335  -8.1303  -7.7955  -1.2526  -1.0714   0.3021   0.8877
     1.2646   2.3188   3.1550   3.7351   4.3529   5.6937   6.4960   6.5856
    11.7415  12.2596  13.7410  15.0500

     occupation numbers 
     1.0000   1.0000   1.0000   1.0000   1.0000   1.0000   1.0000   1.0000
     1.0000   1.0000   1.0000   1.0000   1.0000   1.0000   1.0000   1.0000
     0.0000   0.0000   0.0000   0.0000

          k = 0.4286-0.1494 0.4618 (  4957 PWs)   bands (ev):

    -9.9405  -9.4082  -9.0621  -8.6123  -0.5686  -0.0979   0.4155   1.2196
     1.5160   1.8063   2.7349   2.9165   4.7886   5.4260   6.3753   6.4339
    11.9603  12.3342  13.8583  14.5047

     occupation numbers 
     1.0000   1.0000   1.0000   1.0000   1.0000   1.0000   1.0000   1.0000
     1.0000   1.0000   1.0000   1.0000   1.0000   1.0000   1.0000   1.0000
     0.0000   0.0000   0.0000   0.0000

          k = 0.4286-0.1494-0.4618 (  4957 PWs)   bands (ev):

    -9.9374  -9.4160  -9.0592  -8.6104  -0.5604  -0.0959   0.3938   1.2133
     1.5140   1.8309   2.7694   2.8773   4.7889   5.4253   6.3886   6.4200
    11.9765  12.3205  13.8467  14.5194

     occupation numbers 
     1.0000   1.0000   1.0000   1.0000   1.0000   1.0000   1.0000   1.0000
     1.0000   1.0000   1.0000   1.0000   1.0000   1.0000   1.0000   1.0000
     0.0000   0.0000   0.0000   0.0000

          k = 0.4286-0.1494-0.2309 (  4950 PWs)   bands (ev):

   -10.5077  -9.9355  -8.1314  -7.7933  -1.2545  -1.0629   0.2949   0.8669
     1.2717   2.3335   3.1753   3.7156   4.3524   5.6908   6.5151   6.5671
    11.7452  12.2689  13.7192  15.0612

     occupation numbers 
     1.0000   1.0000   1.0000   1.0000   1.0000   1.0000   1.0000   1.0000
     1.0000   1.0000   1.0000   1.0000   1.0000   1.0000   1.0000   1.0000
     0.0000   0.0000   0.0000   0.0000

          k = 0.4286 0.1187-0.0722 (  4962 PWs)   bands (ev):

   -10.8063  -9.6005  -7.8175  -7.3323  -1.9612  -1.0229  -0.6055   0.8757
     1.2539   2.4904   2.9645   3.5841   4.2843   5.2526   6.1028   6.9924
    11.7332  12.7217  13.4894  15.0651

     occupation numbers 
     1.0000   1.0000   1.0000   1.0000   1.0000   1.0000   1.0000   1.0000
     1.0000   1.0000   1.0000   1.0000   1.0000   1.0000   1.0000   1.0000
     0.0000   0.0000   0.0000   0.0000

          k = 0.4286 0.1187 0.1587 (  4950 PWs)   bands (ev):

   -10.7079  -9.5116  -8.0749  -7.4861  -1.6179  -1.2020  -0.1377   0.6135
     1.3516   2.6421   2.9049   3.7067   4.0105   5.2030   6.0540   6.7264
    11.6564  12.9417  13.7895  14.8267

     occupation numbers 
     1.0000   1.0000   1.0000   1.0000   1.0000   1.0000   1.0000   1.0000
     1.0000   1.0000   1.0000   1.0000   1.0000   1.0000   1.0000   1.0000
     0.0000   0.0000   0.0000   0.0000

          k = 0.4286 0.1187 0.3895 (  4947 PWs)   bands (ev):

   -10.2356  -9.1374  -8.9350  -8.0729  -1.2707  -0.3925  -0.0703   1.1832
     1.3703   2.1946   2.7671   3.2046   4.3976   5.1199   5.7263   6.5775
    11.5376  13.2035  14.0874  14.5863

     occupation numbers 
     1.0000   1.0000   1.0000   1.0000   1.0000   1.0000   1.0000   1.0000
     1.0000   1.0000   1.0000   1.0000   1.0000   1.0000   1.0000   1.0000
     0.0000   0.0000   0.0000   0.0000

          k = 0.4286 0.1187-0.5340 (  4930 PWs)   bands (ev):

    -9.8917  -9.4352  -8.8141  -8.3978  -1.2376  -0.4064   0.4999   1.0253
     1.5588   2.2627   2.5406   3.1193   3.6713   5.5364   5.9397   6.6380
    11.6276  12.9837  13.7695  14.8560

     occupation numbers 
     1.0000   1.0000   1.0000   1.0000   1.0000   1.0000   1.0000   1.0000
     1.0000   1.0000   1.0000   1.0000   1.0000   1.0000   1.0000   1.0000
     0.0000   0.0000   0.0000   0.0000

          k = 0.4286 0.1187-0.3031 (  4952 PWs)   bands (ev):

   -10.5195  -9.3664  -8.4647  -7.7255  -1.4674  -0.8566  -0.0464   0.8118
     1.3539   2.5818   2.7323   3.5128   3.6561   5.4256   6.1865   6.9613
    11.6912  12.9338  13.2059  15.2048

     occupation numbers 
     1.0000   1.0000   1.0000   1.0000   1.0000   1.0000   1.0000   1.0000
     1.0000   1.0000   1.0000   1.0000   1.0000   1.0000   1.0000   1.0000
     0.0000   0.0000   0.0000   0.0000

          k = 0.4286 0.3868-0.1444 (  4950 PWs)   bands (ev):

   -10.5822  -9.0280  -7.9358  -7.3871  -1.9698  -1.2622  -0.3829   0.5060
     1.1726   1.9539   2.1457   3.4412   3.9000   5.0179   5.3854   6.9932
    11.5693  12.6888  13.6113  15.5684

     occupation numbers 
     1.0000   1.0000   1.0000   1.0000   1.0000   1.0000   1.0000   1.0000
     1.0000   1.0000   1.0000   1.0000   1.0000   1.0000   1.0000   1.0000
     0.0000   0.0000   0.0000   0.0000

          k = 0.4286 0.3868 0.0864 (  4938 PWs)   bands (ev):

   -10.5487  -8.9882  -8.0157  -7.4466  -1.9229  -1.1966  -0.3684   0.2937
     1.2944   2.1056   2.4408   3.3738   3.8661   4.8779   5.3027   6.6192
    11.3765  13.1319  14.0011  15.3875

     occupation numbers 
     1.0000   1.0000   1.0000   1.0000   1.0000   1.0000   1.0000   1.0000
     1.0000   1.0000   1.0000   1.0000   1.0000   1.0000   1.0000   1.0000
     0.0000   0.0000   0.0000   0.0000

          k = 0.4286 0.3868 0.3173 (  4930 PWs)   bands (ev):

   -10.1884  -8.9048  -8.5936  -7.6701  -1.9132  -0.7932  -0.4035   0.9008
     1.0962   2.2446   2.8639   3.3076   3.5893   4.5299   5.1363   6.4066
    11.2120  13.5315  14.1798  15.0560

     occupation numbers 
     1.0000   1.0000   1.0000   1.0000   1.0000   1.0000   1.0000   1.0000
     1.0000   1.0000   1.0000   1.0000   1.0000   1.0000   1.0000   1.0000
     0.0000   0.0000   0.0000   0.0000

          k = 0.4286 0.3868-0.6062 (  4927 PWs)   bands (ev):

    -9.7910  -9.3847  -8.4250  -7.9168  -1.9566  -0.6636   0.1096   0.7294
     1.0481   2.2457   2.6780   3.2461   3.5326   4.6054   5.2235   6.5313
    11.2799  13.2842  13.9601  15.1671

     occupation numbers 
     1.0000   1.0000   1.0000   1.0000   1.0000   1.0000   1.0000   1.0000
     1.0000   1.0000   1.0000   1.0000   1.0000   1.0000   1.0000   1.0000
     0.0000   0.0000   0.0000   0.0000

          k = 0.4286 0.3868-0.3753 (  4925 PWs)   bands (ev):

   -10.2825  -8.9781  -8.3869  -7.6295  -1.8888  -0.8866  -0.2949   0.6071
     1.3063   2.0234   2.3447   3.3677   3.4449   4.8193   5.5887   6.9068
    11.5262  12.6888  13.6214  15.5000

     occupation numbers 
     1.0000   1.0000   1.0000   1.0000   1.0000   1.0000   1.0000   1.0000
     1.0000   1.0000   1.0000   1.0000   1.0000   1.0000   1.0000   1.0000
     0.0000   0.0000   0.0000   0.0000

          k = 0.4286-0.9537 0.2167 (  4923 PWs)   bands (ev):

   -10.3152  -8.9696  -7.9020  -7.4692  -1.9613  -1.3240  -0.3385   0.3035
     1.2502   1.7950   1.9722   3.0853   3.6040   4.8042   5.3984   6.8902
    11.2976  12.5380  13.4802  15.7231

     occupation numbers 
     1.0000   1.0000   1.0000   1.0000   1.0000   1.0000   1.0000   1.0000
     1.0000   1.0000   1.0000   1.0000   1.0000   1.0000   1.0000   1.0000
     0.0000   0.0000   0.0000   0.0000

          k = 0.4286-0.9537 0.4475 (  4927 PWs)   bands (ev):

   -10.2346  -8.7924  -8.1153  -7.6680  -1.9958  -1.1290  -0.2340   0.2998
     1.2414   1.5902   2.2254   3.4202   3.7730   4.5947   5.0395   6.6744
    11.0792  12.9000  13.8529  15.4099

     occupation numbers 
     1.0000   1.0000   1.0000   1.0000   1.0000   1.0000   1.0000   1.0000
     1.0000   1.0000   1.0000   1.0000   1.0000   1.0000   1.0000   1.0000
     0.0000   0.0000   0.0000   0.0000

          k = 0.4286-0.9537 0.6784 (  4927 PWs)   bands (ev):

    -9.9394  -8.8880  -8.4320  -7.7439  -2.0545  -0.8227  -0.5291   0.9534
     0.9862   1.8803   2.7521   3.1712   3.5950   4.2951   4.9407   6.2815
    10.9595  13.3807  14.1446  15.1051

     occupation numbers 
     1.0000   1.0000   1.0000   1.0000   1.0000   1.0000   1.0000   1.0000
     1.0000   1.0000   1.0000   1.0000   1.0000   1.0000   1.0000   1.0000
     0.0000   0.0000   0.0000   0.0000

          k = 0.4286-0.9537-0.2451 (  4935 PWs)   bands (ev):

    -9.8103  -9.1891  -8.3692  -7.6155  -2.0779  -1.0226   0.0405   0.4483
     1.0042   2.2515   2.7095   3.1071   3.1684   4.3301   5.1734   6.2671
    11.0768  13.1690  14.2237  15.1829

     occupation numbers 
     1.0000   1.0000   1.0000   1.0000   1.0000   1.0000   1.0000   1.0000
     1.0000   1.0000   1.0000   1.0000   1.0000   1.0000   1.0000   1.0000
     0.0000   0.0000   0.0000   0.0000

          k = 0.4286-0.9537-0.0142 (  4929 PWs)   bands (ev):

   -10.1347  -9.0995  -8.0112  -7.5454  -1.9477  -1.0061  -0.5337   0.5412
     0.9532   1.9735   2.2460   3.0616   3.4808   4.6786   5.3817   6.5845
    11.3629  12.6279  13.7486  15.6650

     occupation numbers 
     1.0000   1.0000   1.0000   1.0000   1.0000   1.0000   1.0000   1.0000
     1.0000   1.0000   1.0000   1.0000   1.0000   1.0000   1.0000   1.0000
     0.0000   0.0000   0.0000   0.0000

          k = 0.4286-0.6856 0.1444 (  4930 PWs)   bands (ev):

   -10.2973  -9.5109  -7.7770  -7.4539  -1.8026  -0.8724  -0.5909   0.1406
     1.4289   2.0173   2.6148   3.1687   3.5989   4.5318   5.9156   6.7425
    11.6518  12.7391  13.3235  15.4710

     occupation numbers 
     1.0000   1.0000   1.0000   1.0000   1.0000   1.0000   1.0000   1.0000
     1.0000   1.0000   1.0000   1.0000   1.0000   1.0000   1.0000   1.0000
     0.0000   0.0000   0.0000   0.0000

          k = 0.4286-0.6856 0.3753 (  4934 PWs)   bands (ev):

   -10.0832  -9.1796  -8.3245  -7.8511  -1.5830  -0.9245  -0.0808   0.5059
     1.5081   2.0039   2.1938   3.1283   3.6017   4.7047   5.5915   6.7977
    11.3390  12.9373  13.4695  15.2165

     occupation numbers 
     1.0000   1.0000   1.0000   1.0000   1.0000   1.0000   1.0000   1.0000
     1.0000   1.0000   1.0000   1.0000   1.0000   1.0000   1.0000   1.0000
     0.0000   0.0000   0.0000   0.0000

          k = 0.4286-0.6856 0.6062 (  4951 PWs)   bands (ev):

    -9.7037  -9.0087  -8.6795  -8.3327  -1.4778  -0.6054  -0.0190   0.9096
     1.3738   1.8083   2.5643   2.8963   3.6597   4.7750   5.1846   6.4492
    11.2311  13.2764  13.8706  14.8748

     occupation numbers 
     1.0000   1.0000   1.0000   1.0000   1.0000   1.0000   1.0000   1.0000
     1.0000   1.0000   1.0000   1.0000   1.0000   1.0000   1.0000   1.0000
     0.0000   0.0000   0.0000   0.0000

          k = 0.4286-0.6856-0.3173 (  4942 PWs)   bands (ev):

    -9.8735  -9.2948  -8.5371  -7.8249  -1.5040  -0.9411   0.1797   0.6650
     1.2013   2.0752   2.6122   2.8458   3.7268   4.4370   5.4321   6.3825
    11.3813  13.0133  14.3483  14.8633

     occupation numbers 
     1.0000   1.0000   1.0000   1.0000   1.0000   1.0000   1.0000   1.0000
     1.0000   1.0000   1.0000   1.0000   1.0000   1.0000   1.0000   1.0000
     0.0000   0.0000   0.0000   0.0000

          k = 0.4286-0.6856-0.0864 (  4948 PWs)   bands (ev):

   -10.2178  -9.5456  -7.8745  -7.4748  -1.5993  -1.1231  -0.4822   0.4899
     1.2375   2.1599   2.4850   3.1330   3.5300   4.5459   5.7787   6.5809
    11.7527  12.6714  13.7585  15.3730

     occupation numbers 
     1.0000   1.0000   1.0000   1.0000   1.0000   1.0000   1.0000   1.0000
     1.0000   1.0000   1.0000   1.0000   1.0000   1.0000   1.0000   1.0000
     0.0000   0.0000   0.0000   0.0000

          k = 0.4286-0.4175 0.0722 (  4957 PWs)   bands (ev):

   -10.3443 -10.2091  -7.5965  -7.4974  -1.7088  -1.2756   0.0905   0.2519
     1.5979   2.5379   2.9217   3.6699   3.7758   4.9991   6.5555   6.7692
    11.8588  12.6843  13.5401  14.9544

     occupation numbers 
     1.0000   1.0000   1.0000   1.0000   1.0000   1.0000   1.0000   1.0000
     1.0000   1.0000   1.0000   1.0000   1.0000   1.0000   1.0000   1.0000
     0.0000   0.0000   0.0000   0.0000

          k = 0.4286-0.4175 0.3031 (  4973 PWs)   bands (ev):

   -10.1145  -9.8968  -8.2054  -7.9946  -1.2509  -0.6029   0.1309   0.5476
     1.7146   2.1076   3.0453   3.0971   3.4712   5.4766   6.4122   6.7222
    11.7067  12.8448  13.4310  14.9888

     occupation numbers 
     1.0000   1.0000   1.0000   1.0000   1.0000   1.0000   1.0000   1.0000
     1.0000   1.0000   1.0000   1.0000   1.0000   1.0000   1.0000   1.0000
     0.0000   0.0000   0.0000   0.0000

          k = 0.4286-0.4175 0.5340 (  4931 PWs)   bands (ev):

    -9.5958  -9.2551  -8.9924  -8.8719  -0.4971  -0.3863   0.6785   0.7714
     1.6105   2.1153   2.2963   2.8785   3.5437   5.7521   6.0924   6.3423
    11.7855  13.0876  13.7288  14.4676

     occupation numbers 
     1.0000   1.0000   1.0000   1.0000   1.0000   1.0000   1.0000   1.0000
     1.0000   1.0000   1.0000   1.0000   1.0000   1.0000   1.0000   1.0000
     0.0000   0.0000   0.0000   0.0000

          k = 0.4286-0.4175-0.3895 (  4956 PWs)   bands (ev):

    -9.8072  -9.6660  -8.6754  -8.3959  -0.6506  -0.5679   0.6277   0.9116
     1.3290   1.6513   2.7628   2.8872   4.5494   4.8761   6.0723   6.3947
    11.8665  13.2689  13.8441  14.2590

     occupation numbers 
     1.0000   1.0000   1.0000   1.0000   1.0000   1.0000   1.0000   1.0000
     1.0000   1.0000   1.0000   1.0000   1.0000   1.0000   1.0000   1.0000
     0.0000   0.0000   0.0000   0.0000

          k = 0.4286-0.4175-0.1587 (  4957 PWs)   bands (ev):

   -10.2287 -10.1354  -7.8577  -7.6700  -1.3771  -1.1779   0.1659   0.5824
     1.4731   2.1599   2.8866   3.5680   4.0854   4.8609   6.3469   6.6794
    12.2649  12.4897  13.7681  14.6622

     occupation numbers 
     1.0000   1.0000   1.0000   1.0000   1.0000   1.0000   1.0000   1.0000
     1.0000   1.0000   1.0000   1.0000   1.0000   1.0000   1.0000   1.0000
     0.0000   0.0000   0.0000   0.0000

     the Fermi energy is     9.2746 ev

!    total energy              =    -109.60919423 Ry
     estimated scf accuracy    <          8.3E-11 Ry
     smearing contrib. (-TS)   =      -0.00000000 Ry
     internal energy E=F+TS    =    -109.60919423 Ry

     The total energy is F=E-TS. E is the sum of the following terms:
     one-electron contribution =     -10.60471935 Ry
     hartree contribution      =      24.65928042 Ry
     xc contribution           =     -37.49397066 Ry
     ewald contribution        =     -86.16978464 Ry

     convergence has been achieved in  13 iterations

     Forces acting on atoms (cartesian axes, Ry/au):

     atom    1 type  1   force =     0.00093468   -0.00731913   -0.01560714
     atom    2 type  1   force =    -0.01500767    0.00519702   -0.01362302
     atom    3 type  1   force =     0.00048102    0.01178602   -0.01754453
     atom    4 type  1   force =     0.00693238    0.01525834   -0.02227741
     atom    5 type  2   force =    -0.01111057   -0.01231979    0.01938024
     atom    6 type  2   force =     0.00571226   -0.02199255    0.01781660
     atom    7 type  2   force =     0.01017807    0.00422630    0.01742020
     atom    8 type  2   force =     0.00187983    0.00516380    0.01443507
     The non-local contrib.  to forces
     atom    1 type  1   force =     0.01921622   -0.01567166   -0.04143656
     atom    2 type  1   force =    -0.03761466    0.00473603   -0.03636924
     atom    3 type  1   force =     0.01960058    0.04663513   -0.06319012
     atom    4 type  1   force =     0.01519247    0.04332444   -0.06877257
     atom    5 type  2   force =    -0.07313487    0.05666468    0.01821935
     atom    6 type  2   force =     0.09665715   -0.00718658    0.02000192
     atom    7 type  2   force =    -0.01182081    0.03976621   -0.05588128
     atom    8 type  2   force =     0.03799838    0.01486814   -0.05124540
     The ionic contribution  to forces
     atom    1 type  1   force =     0.09404442    0.02903122   -0.36057554
     atom    2 type  1   force =    -0.12035833    0.07122648   -0.32851700
     atom    3 type  1   force =     0.08773468    0.17182848   -0.18568667
     atom    4 type  1   force =     0.04957732    0.13746229   -0.21646429
     atom    5 type  2   force =     0.04687732   -0.15895404    0.05753252
     atom    6 type  2   force =    -0.12594752   -0.09849900    0.04425342
     atom    7 type  2   force =     0.06631406   -0.11098390    0.51178203
     atom    8 type  2   force =    -0.09824195   -0.04111153    0.47767552
     The local contribution  to forces
     atom    1 type  1   force =    -0.11077800   -0.02140006    0.38320197
     atom    2 type  1   force =     0.14053371   -0.07017863    0.34837860
     atom    3 type  1   force =    -0.10607681   -0.20336140    0.22721634
     atom    4 type  1   force =    -0.05631241   -0.16285376    0.25852611
     atom    5 type  2   force =     0.01194132    0.09023726   -0.05347529
     atom    6 type  2   force =     0.03794466    0.08160192   -0.04359713
     atom    7 type  2   force =    -0.04311546    0.07638734   -0.43738396
     atom    8 type  2   force =     0.06213231    0.03254487   -0.41099372
     The core correction contribution to forces
     atom    1 type  1   force =    -0.00154897    0.00071791    0.00320028
     atom    2 type  1   force =     0.00243165   -0.00059056    0.00288227
     atom    3 type  1   force =    -0.00077843   -0.00332005    0.00411289
     atom    4 type  1   force =    -0.00152532   -0.00267867    0.00443000
     atom    5 type  2   force =     0.00320232   -0.00027106   -0.00290036
     atom    6 type  2   force =    -0.00294009    0.00208591   -0.00284519
     atom    7 type  2   force =    -0.00120333   -0.00094529   -0.00109941
     atom    8 type  2   force =    -0.00000618   -0.00114187   -0.00100451
     The Hubbard contrib.    to forces
     atom    1 type  1   force =     0.00000000    0.00000000    0.00000000
     atom    2 type  1   force =     0.00000000    0.00000000    0.00000000
     atom    3 type  1   force =     0.00000000    0.00000000    0.00000000
     atom    4 type  1   force =     0.00000000    0.00000000    0.00000000
     atom    5 type  2   force =     0.00000000    0.00000000    0.00000000
     atom    6 type  2   force =     0.00000000    0.00000000    0.00000000
     atom    7 type  2   force =     0.00000000    0.00000000    0.00000000
     atom    8 type  2   force =     0.00000000    0.00000000    0.00000000
     The SCF correction term to forces
     atom    1 type  1   force =     0.00000043   -0.00000032   -0.00000026
     atom    2 type  1   force =    -0.00000061   -0.00000008   -0.00000062
     atom    3 type  1   force =     0.00000043    0.00000009    0.00000007
     atom    4 type  1   force =    -0.00000027    0.00000026    0.00000037
     atom    5 type  2   force =     0.00000277   -0.00000040    0.00000104
     atom    6 type  2   force =    -0.00000253    0.00000143    0.00000061
     atom    7 type  2   force =     0.00000303   -0.00000183   -0.00000015
     atom    8 type  2   force =    -0.00000331    0.00000044    0.00000021

     Total force =     0.064094     Total SCF correction =     0.000007


     Computing stress (Cartesian axis) and pressure

          total   stress  (Ry/bohr**3)                   (kbar)     P=      157.72
   0.00200517  -0.00047528  -0.00000407          294.97      -69.92       -0.60
  -0.00047528   0.00075538  -0.00003933          -69.92      111.12       -5.79
  -0.00000407  -0.00003933   0.00045588           -0.60       -5.79       67.06

     kinetic stress (kbar)  17680.79    277.92    -55.96
                              277.92  18395.36   -146.36
                              -55.96   -146.36  17289.63

     local   stress (kbar)  -9072.11   6774.10  -1086.54
                             6774.10   8149.49  -3028.24
                            -1086.54  -3028.24 -11735.28

     nonloc. stress (kbar)  -2284.74     -2.04      3.96
                               -2.04  -2291.39     10.80
                                3.96     10.80  -2228.07

     hartree stress (kbar)   4273.13  -1851.95    310.87
                            -1851.95   -425.09    884.59
                              310.87    884.59   5025.34

     exc-cor stress (kbar)   -939.07    -24.41      3.65
                              -24.41  -1001.24      9.73
                                3.65      9.73   -929.51

     corecor stress (kbar)  -2819.58     12.34     -1.58
                               12.34  -2788.10     -3.74
                               -1.58     -3.74  -2819.12

     ewald   stress (kbar)  -6543.44  -5255.88    825.01
                            -5255.88 -19927.90   2267.45
                              825.01   2267.45  -4535.93

     hubbard stress (kbar)      0.00      0.00      0.00
                                0.00      0.00      0.00
                                0.00      0.00      0.00

     DFT-D   stress (kbar)      0.00      0.00      0.00
                                0.00      0.00      0.00
                                0.00      0.00      0.00

     XDM     stress (kbar)      0.00      0.00      0.00
                                0.00      0.00      0.00
                                0.00      0.00      0.00

     dft-nl  stress (kbar)      0.00      0.00      0.00
                                0.00      0.00      0.00
                                0.00      0.00      0.00

     TS-vdW  stress (kbar)      0.00      0.00      0.00
                                0.00      0.00      0.00
                                0.00      0.00      0.00



     init_run     :      1.13s CPU      1.96s WALL (       1 calls)
     electrons    :     27.83s CPU     29.06s WALL (       1 calls)
     forces       :      0.37s CPU      0.38s WALL (       1 calls)
     stress       :      0.88s CPU      0.89s WALL (       1 calls)

     Called by init_run:
     wfcinit      :      0.85s CPU      1.26s WALL (       1 calls)
     wfcinit:atom :      0.01s CPU      0.01s WALL (     106 calls)
     wfcinit:wfcr :      0.75s CPU      1.16s WALL (     106 calls)
     potinit      :      0.09s CPU      0.11s WALL (       1 calls)
     hinit0       :      0.18s CPU      0.45s WALL (       1 calls)

     Called by electrons:
     c_bands      :     24.35s CPU     25.38s WALL (      13 calls)
     sum_band     :      3.24s CPU      3.37s WALL (      13 calls)
     v_of_rho     :      0.14s CPU      0.15s WALL (      14 calls)
     v_h          :      0.01s CPU      0.01s WALL (      14 calls)
     v_xc         :      0.15s CPU      0.16s WALL (      16 calls)
     newd         :      0.08s CPU      0.17s WALL (      14 calls)
     mix_rho      :      0.02s CPU      0.07s WALL (      13 calls)

     Called by c_bands:
     init_us_2    :      0.72s CPU      0.75s WALL (    3074 calls)
     cegterg      :     23.25s CPU     24.24s WALL (    1378 calls)

     Called by sum_band:
     sum_band:wei :      0.00s CPU      0.00s WALL (      13 calls)
     sum_band:loo :      3.16s CPU      3.26s WALL (      13 calls)
     sum_band:buf :      0.10s CPU      0.11s WALL (    1378 calls)
     sum_band:ini :      0.30s CPU      0.31s WALL (    1378 calls)
     sum_band:cal :      0.58s CPU      0.61s WALL (    1378 calls)
     sum_band:bec :      0.02s CPU      0.02s WALL (    1378 calls)
     addusdens    :      0.07s CPU      0.10s WALL (      13 calls)
     addusd:skk   :      0.00s CPU      0.00s WALL (      13 calls)
     addusd:dgemm :      0.03s CPU      0.06s WALL (      13 calls)
     addusd:qvan2 :      0.03s CPU      0.03s WALL (      13 calls)

     Called by *egterg:
     cdiaghg      :      2.06s CPU      2.70s WALL (    5720 calls)
     cegterg:over :      1.68s CPU      1.74s WALL (    4342 calls)
     cegterg:upda :      0.49s CPU      0.50s WALL (    4342 calls)
     cegterg:last :      0.91s CPU      0.93s WALL (    3220 calls)
     h_psi        :     17.26s CPU     17.91s WALL (    5826 calls)
     s_psi        :      0.67s CPU      0.68s WALL (    5826 calls)
     g_psi        :      0.08s CPU      0.08s WALL (    4342 calls)

     Called by h_psi:
     h_psi:calbec :      2.68s CPU      2.83s WALL (    5826 calls)
     vloc_psi     :     13.06s CPU     13.50s WALL (    5826 calls)
     add_vuspsi   :      1.31s CPU      1.36s WALL (    5826 calls)

     General routines
     calbec       :      3.36s CPU      3.55s WALL (    7734 calls)
     fft          :      0.07s CPU      0.31s WALL (     205 calls)
     ffts         :      0.00s CPU      0.00s WALL (      27 calls)
     fftw         :     13.54s CPU     14.00s WALL (  197008 calls)
     interpolate  :      0.01s CPU      0.01s WALL (      14 calls)

     Parallel routines
     fft_scatt_xy :      1.75s CPU      1.80s WALL (  197240 calls)
     fft_scatt_yz :      4.03s CPU      4.17s WALL (  197240 calls)

     PWSCF        :     30.31s CPU     33.03s WALL


   This run was terminated on:  21: 0:15  28Sep2022            

=------------------------------------------------------------------------------=
   JOB DONE.
=------------------------------------------------------------------------------=
Note: The following floating-point exceptions are signalling: IEEE_UNDERFLOW_FLAG IEEE_DENORMAL
