
     Program PWSCF v.6.7MaX starts on 28Sep2022 at 20:59:41 

     This program is part of the open-source Quantum ESPRESSO suite
     for quantum simulation of materials; please cite
         "P. Giannozzi et al., J. Phys.:Condens. Matter 21 395502 (2009);
         "P. Giannozzi et al., J. Phys.:Condens. Matter 29 465901 (2017);
          URL http://www.quantum-espresso.org", 
     in publications or presentations arising from this work. More details at
     http://www.quantum-espresso.org/quote

     Parallel version (MPI), running on    16 processors

     MPI processes distributed on     1 nodes
     R & G space division:  proc/nbgrp/npool/nimage =      16
     Reading input from scale_2dab-00.in

     Current dimensions of program PWSCF are:
     Max number of different atomic species (ntypx) = 10
     Max number of k-points (npk) =  40000
     Max angular momentum in pseudopotentials (lmaxx) =  3
     Message from routine read_pp_mesh:
     mesh size missing, using the one in header

     Subspace diagonalization in iterative solution of the eigenvalue problem:
     a serial algorithm will be used


     Parallelization info
     --------------------
     sticks:   dense  smooth     PW     G-vecs:    dense   smooth      PW
     Min         108      79     24                 3840     2384     393
     Max         109      80     25                 3845     2389     394
     Sum        1735    1269    387                61473    38173    6299



     bravais-lattice index     =            0
     lattice parameter (alat)  =       8.9651  a.u.
     unit-cell volume          =     394.8326 (a.u.)^3
     number of atoms/cell      =            8
     number of atomic types    =            2
     number of electrons       =        32.00
     number of Kohn-Sham states=           20
     kinetic-energy cutoff     =      80.0000  Ry
     charge density cutoff     =     440.0000  Ry
     scf convergence threshold =      2.0E-10
     mixing beta               =       0.4000
     number of iterations used =            8  plain     mixing
     Exchange-correlation= PBE
                           (   1   4   3   4   0   0   0)

     celldm(1)=   8.965069  celldm(2)=   0.000000  celldm(3)=   0.000000
     celldm(4)=   0.000000  celldm(5)=   0.000000  celldm(6)=   0.000000

     crystal axes: (cart. coord. in units of alat)
               a(1) = (   1.000000   0.000000   0.000000 )  
               a(2) = (   0.216706   0.621651   0.000000 )  
               a(3) = (   0.082772   0.237444   0.881466 )  

     reciprocal axes: (cart. coord. in units 2 pi/alat)
               b(1) = (  1.000000 -0.348597 -0.000000 )  
               b(2) = (  0.000000  1.608620 -0.433321 )  
               b(3) = (  0.000000  0.000000  1.134474 )  


     PseudoPot. # 1 for B  read from file:
     /opt/QEpot/SSSP_precision_pseudos/B_pbe_v1.01.uspp.F.UPF
     MD5 check sum: d081ebb89d0c768e112975f650467a00
     Pseudo is Ultrasoft + core correction, Zval =  3.0
     Generated by new atomic code, or converted to UPF format
     Using radial grid of  781 points,  4 beta functions with: 
                l(1) =   0
                l(2) =   0
                l(3) =   1
                l(4) =   1
     Q(r) pseudized with  8 coefficients,  rinner =    1.100   1.100   1.100


     PseudoPot. # 2 for N  read from file:
     /opt/QEpot/SSSP_precision_pseudos/N.oncvpsp.upf
     MD5 check sum: 563d65bfb082928f0c9eb97172f6c357
     Pseudo is Norm-conserving + core correction, Zval =  5.0
     Generated using ONCVPSP code by D. R. Hamann
     Using radial grid of 1058 points,  4 beta functions with: 
                l(1) =   0
                l(2) =   0
                l(3) =   1
                l(4) =   1

     atomic species   valence    mass     pseudopotential
        B              3.00    10.81000     B ( 1.00)
        N              5.00    14.00700     N ( 1.00)

     No symmetry found


                                    s                        frac. trans.

      isym =  1     identity                                     

 cryst.   s( 1) = (     1          0          0      )
                  (     0          1          0      )
                  (     0          0          1      )

 cart.    s( 1) = (  1.0000000 -0.0000000  0.0000000 )
                  (  0.0000000  1.0000000  0.0000000 )
                  (  0.0000000  0.0000000  1.0000000 )


   Cartesian axes

     site n.     atom                  positions (alat units)
         1           B   tau(   1) = (   0.2242185   0.2683234   0.0020161  )
         2           B   tau(   2) = (   0.0342375   0.4695251   0.4392398  )
         3           B   tau(   3) = (   0.4656943   0.2290225   0.4501384  )
         4           B   tau(   4) = (  -0.2621130   0.3514103   0.0058962  )
         5           N   tau(   5) = (   0.4874413   0.2759275   0.1425403  )
         6           N   tau(   6) = (  -0.1712921   0.6387092   0.5832732  )
         7           N   tau(   7) = (   0.2684750   0.3956982   0.6006293  )
         8           N   tau(   8) = (  -0.0080938   0.3589600   0.1598964  )

   Crystallographic axes

     site n.     atom                  positions (cryst. coord.)
         1           B   tau(   1) = (  0.1306818  0.4307567  0.0022872  )
         2           B   tau(   2) = ( -0.1294375  0.5649555  0.4983061  )
         3           B   tau(   3) = (  0.3858578  0.1733557  0.5106702  )
         4           B   tau(   4) = ( -0.3846135  0.5627305  0.0066891  )
         5           N   tau(   5) = (  0.3912538  0.3820967  0.1617082  )
         6           N   tau(   6) = ( -0.3939442  0.7746957  0.6617082  )
         7           N   tau(   7) = (  0.1305358  0.3762627  0.6813982  )
         8           N   tau(   8) = ( -0.1332262  0.5081437  0.1813982  )

     number of k points=   106  Marzari-Vanderbilt smearing, width (Ry)=  0.0220
                       cart. coord. in units 2pi/alat
        k(    1) = (   0.0000000   0.0000000   0.0000000), wk =   0.0095238
        k(    2) = (   0.0000000   0.0000000   0.2268948), wk =   0.0190476
        k(    3) = (   0.0000000   0.0000000   0.4537896), wk =   0.0190476
        k(    4) = (   0.0000000   0.2681033  -0.0722201), wk =   0.0190476
        k(    5) = (   0.0000000   0.2681033   0.1546746), wk =   0.0190476
        k(    6) = (   0.0000000   0.2681033   0.3815694), wk =   0.0190476
        k(    7) = (   0.0000000   0.2681033  -0.5260097), wk =   0.0190476
        k(    8) = (   0.0000000   0.2681033  -0.2991149), wk =   0.0190476
        k(    9) = (   0.0000000   0.5362065  -0.1444403), wk =   0.0190476
        k(   10) = (   0.0000000   0.5362065   0.0824545), wk =   0.0190476
        k(   11) = (   0.0000000   0.5362065   0.3093493), wk =   0.0190476
        k(   12) = (   0.0000000   0.5362065  -0.5982298), wk =   0.0190476
        k(   13) = (   0.0000000   0.5362065  -0.3713351), wk =   0.0190476
        k(   14) = (   0.0000000  -0.8043098   0.2166604), wk =   0.0095238
        k(   15) = (   0.0000000  -0.8043098   0.4435552), wk =   0.0190476
        k(   16) = (   0.0000000  -0.8043098   0.6704500), wk =   0.0190476
        k(   17) = (   0.1428571  -0.0497996  -0.0000000), wk =   0.0190476
        k(   18) = (   0.1428571  -0.0497996   0.2268948), wk =   0.0190476
        k(   19) = (   0.1428571  -0.0497996   0.4537896), wk =   0.0190476
        k(   20) = (   0.1428571  -0.0497996  -0.4537896), wk =   0.0190476
        k(   21) = (   0.1428571  -0.0497996  -0.2268948), wk =   0.0190476
        k(   22) = (   0.1428571   0.2183037  -0.0722201), wk =   0.0190476
        k(   23) = (   0.1428571   0.2183037   0.1546746), wk =   0.0190476
        k(   24) = (   0.1428571   0.2183037   0.3815694), wk =   0.0190476
        k(   25) = (   0.1428571   0.2183037  -0.5260097), wk =   0.0190476
        k(   26) = (   0.1428571   0.2183037  -0.2991149), wk =   0.0190476
        k(   27) = (   0.1428571   0.4864070  -0.1444403), wk =   0.0190476
        k(   28) = (   0.1428571   0.4864070   0.0824545), wk =   0.0190476
        k(   29) = (   0.1428571   0.4864070   0.3093493), wk =   0.0190476
        k(   30) = (   0.1428571   0.4864070  -0.5982298), wk =   0.0190476
        k(   31) = (   0.1428571   0.4864070  -0.3713351), wk =   0.0190476
        k(   32) = (   0.1428571  -0.8541094   0.2166604), wk =   0.0190476
        k(   33) = (   0.1428571  -0.8541094   0.4435552), wk =   0.0190476
        k(   34) = (   0.1428571  -0.8541094   0.6704500), wk =   0.0190476
        k(   35) = (   0.1428571  -0.8541094  -0.2371292), wk =   0.0190476
        k(   36) = (   0.1428571  -0.8541094  -0.0102344), wk =   0.0190476
        k(   37) = (   0.1428571  -0.5860061   0.1444403), wk =   0.0190476
        k(   38) = (   0.1428571  -0.5860061   0.3713351), wk =   0.0190476
        k(   39) = (   0.1428571  -0.5860061   0.5982298), wk =   0.0190476
        k(   40) = (   0.1428571  -0.5860061  -0.3093493), wk =   0.0190476
        k(   41) = (   0.1428571  -0.5860061  -0.0824545), wk =   0.0190476
        k(   42) = (   0.1428571  -0.3179028   0.0722201), wk =   0.0190476
        k(   43) = (   0.1428571  -0.3179028   0.2991149), wk =   0.0190476
        k(   44) = (   0.1428571  -0.3179028   0.5260097), wk =   0.0190476
        k(   45) = (   0.1428571  -0.3179028  -0.3815694), wk =   0.0190476
        k(   46) = (   0.1428571  -0.3179028  -0.1546746), wk =   0.0190476
        k(   47) = (   0.2857143  -0.0995991  -0.0000000), wk =   0.0190476
        k(   48) = (   0.2857143  -0.0995991   0.2268948), wk =   0.0190476
        k(   49) = (   0.2857143  -0.0995991   0.4537896), wk =   0.0190476
        k(   50) = (   0.2857143  -0.0995991  -0.4537896), wk =   0.0190476
        k(   51) = (   0.2857143  -0.0995991  -0.2268948), wk =   0.0190476
        k(   52) = (   0.2857143   0.1685041  -0.0722201), wk =   0.0190476
        k(   53) = (   0.2857143   0.1685041   0.1546746), wk =   0.0190476
        k(   54) = (   0.2857143   0.1685041   0.3815694), wk =   0.0190476
        k(   55) = (   0.2857143   0.1685041  -0.5260097), wk =   0.0190476
        k(   56) = (   0.2857143   0.1685041  -0.2991149), wk =   0.0190476
        k(   57) = (   0.2857143   0.4366074  -0.1444403), wk =   0.0190476
        k(   58) = (   0.2857143   0.4366074   0.0824545), wk =   0.0190476
        k(   59) = (   0.2857143   0.4366074   0.3093493), wk =   0.0190476
        k(   60) = (   0.2857143   0.4366074  -0.5982298), wk =   0.0190476
        k(   61) = (   0.2857143   0.4366074  -0.3713351), wk =   0.0190476
        k(   62) = (   0.2857143  -0.9039089   0.2166604), wk =   0.0190476
        k(   63) = (   0.2857143  -0.9039089   0.4435552), wk =   0.0190476
        k(   64) = (   0.2857143  -0.9039089   0.6704500), wk =   0.0190476
        k(   65) = (   0.2857143  -0.9039089  -0.2371292), wk =   0.0190476
        k(   66) = (   0.2857143  -0.9039089  -0.0102344), wk =   0.0190476
        k(   67) = (   0.2857143  -0.6358057   0.1444403), wk =   0.0190476
        k(   68) = (   0.2857143  -0.6358057   0.3713351), wk =   0.0190476
        k(   69) = (   0.2857143  -0.6358057   0.5982298), wk =   0.0190476
        k(   70) = (   0.2857143  -0.6358057  -0.3093493), wk =   0.0190476
        k(   71) = (   0.2857143  -0.6358057  -0.0824545), wk =   0.0190476
        k(   72) = (   0.2857143  -0.3677024   0.0722201), wk =   0.0190476
        k(   73) = (   0.2857143  -0.3677024   0.2991149), wk =   0.0190476
        k(   74) = (   0.2857143  -0.3677024   0.5260097), wk =   0.0190476
        k(   75) = (   0.2857143  -0.3677024  -0.3815694), wk =   0.0190476
        k(   76) = (   0.2857143  -0.3677024  -0.1546746), wk =   0.0190476
        k(   77) = (   0.4285714  -0.1493987  -0.0000000), wk =   0.0190476
        k(   78) = (   0.4285714  -0.1493987   0.2268948), wk =   0.0190476
        k(   79) = (   0.4285714  -0.1493987   0.4537896), wk =   0.0190476
        k(   80) = (   0.4285714  -0.1493987  -0.4537896), wk =   0.0190476
        k(   81) = (   0.4285714  -0.1493987  -0.2268948), wk =   0.0190476
        k(   82) = (   0.4285714   0.1187046  -0.0722201), wk =   0.0190476
        k(   83) = (   0.4285714   0.1187046   0.1546746), wk =   0.0190476
        k(   84) = (   0.4285714   0.1187046   0.3815694), wk =   0.0190476
        k(   85) = (   0.4285714   0.1187046  -0.5260097), wk =   0.0190476
        k(   86) = (   0.4285714   0.1187046  -0.2991149), wk =   0.0190476
        k(   87) = (   0.4285714   0.3868078  -0.1444403), wk =   0.0190476
        k(   88) = (   0.4285714   0.3868078   0.0824545), wk =   0.0190476
        k(   89) = (   0.4285714   0.3868078   0.3093493), wk =   0.0190476
        k(   90) = (   0.4285714   0.3868078  -0.5982298), wk =   0.0190476
        k(   91) = (   0.4285714   0.3868078  -0.3713351), wk =   0.0190476
        k(   92) = (   0.4285714  -0.9537085   0.2166604), wk =   0.0190476
        k(   93) = (   0.4285714  -0.9537085   0.4435552), wk =   0.0190476
        k(   94) = (   0.4285714  -0.9537085   0.6704500), wk =   0.0190476
        k(   95) = (   0.4285714  -0.9537085  -0.2371292), wk =   0.0190476
        k(   96) = (   0.4285714  -0.9537085  -0.0102344), wk =   0.0190476
        k(   97) = (   0.4285714  -0.6856052   0.1444403), wk =   0.0190476
        k(   98) = (   0.4285714  -0.6856052   0.3713351), wk =   0.0190476
        k(   99) = (   0.4285714  -0.6856052   0.5982298), wk =   0.0190476
        k(  100) = (   0.4285714  -0.6856052  -0.3093493), wk =   0.0190476
        k(  101) = (   0.4285714  -0.6856052  -0.0824545), wk =   0.0190476
        k(  102) = (   0.4285714  -0.4175020   0.0722201), wk =   0.0190476
        k(  103) = (   0.4285714  -0.4175020   0.2991149), wk =   0.0190476
        k(  104) = (   0.4285714  -0.4175020   0.5260097), wk =   0.0190476
        k(  105) = (   0.4285714  -0.4175020  -0.3815694), wk =   0.0190476
        k(  106) = (   0.4285714  -0.4175020  -0.1546746), wk =   0.0190476

                       cryst. coord.
        k(    1) = (   0.0000000   0.0000000   0.0000000), wk =   0.0095238
        k(    2) = (   0.0000000   0.0000000   0.2000000), wk =   0.0190476
        k(    3) = (   0.0000000   0.0000000   0.4000000), wk =   0.0190476
        k(    4) = (   0.0000000   0.1666667   0.0000000), wk =   0.0190476
        k(    5) = (   0.0000000   0.1666667   0.2000000), wk =   0.0190476
        k(    6) = (   0.0000000   0.1666667   0.4000000), wk =   0.0190476
        k(    7) = (   0.0000000   0.1666667  -0.4000000), wk =   0.0190476
        k(    8) = (   0.0000000   0.1666667  -0.2000000), wk =   0.0190476
        k(    9) = (   0.0000000   0.3333333   0.0000000), wk =   0.0190476
        k(   10) = (   0.0000000   0.3333333   0.2000000), wk =   0.0190476
        k(   11) = (   0.0000000   0.3333333   0.4000000), wk =   0.0190476
        k(   12) = (   0.0000000   0.3333333  -0.4000000), wk =   0.0190476
        k(   13) = (   0.0000000   0.3333333  -0.2000000), wk =   0.0190476
        k(   14) = (   0.0000000  -0.5000000   0.0000000), wk =   0.0095238
        k(   15) = (   0.0000000  -0.5000000   0.2000000), wk =   0.0190476
        k(   16) = (   0.0000000  -0.5000000   0.4000000), wk =   0.0190476
        k(   17) = (   0.1428571  -0.0000000  -0.0000000), wk =   0.0190476
        k(   18) = (   0.1428571  -0.0000000   0.2000000), wk =   0.0190476
        k(   19) = (   0.1428571  -0.0000000   0.4000000), wk =   0.0190476
        k(   20) = (   0.1428571  -0.0000000  -0.4000000), wk =   0.0190476
        k(   21) = (   0.1428571  -0.0000000  -0.2000000), wk =   0.0190476
        k(   22) = (   0.1428571   0.1666667   0.0000000), wk =   0.0190476
        k(   23) = (   0.1428571   0.1666667   0.2000000), wk =   0.0190476
        k(   24) = (   0.1428571   0.1666667   0.4000000), wk =   0.0190476
        k(   25) = (   0.1428571   0.1666667  -0.4000000), wk =   0.0190476
        k(   26) = (   0.1428571   0.1666667  -0.2000000), wk =   0.0190476
        k(   27) = (   0.1428571   0.3333333  -0.0000000), wk =   0.0190476
        k(   28) = (   0.1428571   0.3333333   0.2000000), wk =   0.0190476
        k(   29) = (   0.1428571   0.3333333   0.4000000), wk =   0.0190476
        k(   30) = (   0.1428571   0.3333333  -0.4000000), wk =   0.0190476
        k(   31) = (   0.1428571   0.3333333  -0.2000000), wk =   0.0190476
        k(   32) = (   0.1428571  -0.5000000   0.0000000), wk =   0.0190476
        k(   33) = (   0.1428571  -0.5000000   0.2000000), wk =   0.0190476
        k(   34) = (   0.1428571  -0.5000000   0.4000000), wk =   0.0190476
        k(   35) = (   0.1428571  -0.5000000  -0.4000000), wk =   0.0190476
        k(   36) = (   0.1428571  -0.5000000  -0.2000000), wk =   0.0190476
        k(   37) = (   0.1428571  -0.3333333   0.0000000), wk =   0.0190476
        k(   38) = (   0.1428571  -0.3333333   0.2000000), wk =   0.0190476
        k(   39) = (   0.1428571  -0.3333333   0.4000000), wk =   0.0190476
        k(   40) = (   0.1428571  -0.3333333  -0.4000000), wk =   0.0190476
        k(   41) = (   0.1428571  -0.3333333  -0.2000000), wk =   0.0190476
        k(   42) = (   0.1428571  -0.1666667   0.0000000), wk =   0.0190476
        k(   43) = (   0.1428571  -0.1666667   0.2000000), wk =   0.0190476
        k(   44) = (   0.1428571  -0.1666667   0.4000000), wk =   0.0190476
        k(   45) = (   0.1428571  -0.1666667  -0.4000000), wk =   0.0190476
        k(   46) = (   0.1428571  -0.1666667  -0.2000000), wk =   0.0190476
        k(   47) = (   0.2857143  -0.0000000  -0.0000000), wk =   0.0190476
        k(   48) = (   0.2857143  -0.0000000   0.2000000), wk =   0.0190476
        k(   49) = (   0.2857143  -0.0000000   0.4000000), wk =   0.0190476
        k(   50) = (   0.2857143  -0.0000000  -0.4000000), wk =   0.0190476
        k(   51) = (   0.2857143  -0.0000000  -0.2000000), wk =   0.0190476
        k(   52) = (   0.2857143   0.1666667  -0.0000000), wk =   0.0190476
        k(   53) = (   0.2857143   0.1666667   0.2000000), wk =   0.0190476
        k(   54) = (   0.2857143   0.1666667   0.4000000), wk =   0.0190476
        k(   55) = (   0.2857143   0.1666667  -0.4000000), wk =   0.0190476
        k(   56) = (   0.2857143   0.1666667  -0.2000000), wk =   0.0190476
        k(   57) = (   0.2857143   0.3333333   0.0000000), wk =   0.0190476
        k(   58) = (   0.2857143   0.3333333   0.2000000), wk =   0.0190476
        k(   59) = (   0.2857143   0.3333333   0.4000000), wk =   0.0190476
        k(   60) = (   0.2857143   0.3333333  -0.4000000), wk =   0.0190476
        k(   61) = (   0.2857143   0.3333333  -0.2000000), wk =   0.0190476
        k(   62) = (   0.2857143  -0.5000000   0.0000000), wk =   0.0190476
        k(   63) = (   0.2857143  -0.5000000   0.2000000), wk =   0.0190476
        k(   64) = (   0.2857143  -0.5000000   0.4000000), wk =   0.0190476
        k(   65) = (   0.2857143  -0.5000000  -0.4000000), wk =   0.0190476
        k(   66) = (   0.2857143  -0.5000000  -0.2000000), wk =   0.0190476
        k(   67) = (   0.2857143  -0.3333333  -0.0000000), wk =   0.0190476
        k(   68) = (   0.2857143  -0.3333333   0.2000000), wk =   0.0190476
        k(   69) = (   0.2857143  -0.3333333   0.4000000), wk =   0.0190476
        k(   70) = (   0.2857143  -0.3333333  -0.4000000), wk =   0.0190476
        k(   71) = (   0.2857143  -0.3333333  -0.2000000), wk =   0.0190476
        k(   72) = (   0.2857143  -0.1666667   0.0000000), wk =   0.0190476
        k(   73) = (   0.2857143  -0.1666667   0.2000000), wk =   0.0190476
        k(   74) = (   0.2857143  -0.1666667   0.4000000), wk =   0.0190476
        k(   75) = (   0.2857143  -0.1666667  -0.4000000), wk =   0.0190476
        k(   76) = (   0.2857143  -0.1666667  -0.2000000), wk =   0.0190476
        k(   77) = (   0.4285714  -0.0000000  -0.0000000), wk =   0.0190476
        k(   78) = (   0.4285714  -0.0000000   0.2000000), wk =   0.0190476
        k(   79) = (   0.4285714  -0.0000000   0.4000000), wk =   0.0190476
        k(   80) = (   0.4285714  -0.0000000  -0.4000000), wk =   0.0190476
        k(   81) = (   0.4285714  -0.0000000  -0.2000000), wk =   0.0190476
        k(   82) = (   0.4285714   0.1666667  -0.0000000), wk =   0.0190476
        k(   83) = (   0.4285714   0.1666667   0.2000000), wk =   0.0190476
        k(   84) = (   0.4285714   0.1666667   0.4000000), wk =   0.0190476
        k(   85) = (   0.4285714   0.1666667  -0.4000000), wk =   0.0190476
        k(   86) = (   0.4285714   0.1666667  -0.2000000), wk =   0.0190476
        k(   87) = (   0.4285714   0.3333333   0.0000000), wk =   0.0190476
        k(   88) = (   0.4285714   0.3333333   0.2000000), wk =   0.0190476
        k(   89) = (   0.4285714   0.3333333   0.4000000), wk =   0.0190476
        k(   90) = (   0.4285714   0.3333333  -0.4000000), wk =   0.0190476
        k(   91) = (   0.4285714   0.3333333  -0.2000000), wk =   0.0190476
        k(   92) = (   0.4285714  -0.5000000   0.0000000), wk =   0.0190476
        k(   93) = (   0.4285714  -0.5000000   0.2000000), wk =   0.0190476
        k(   94) = (   0.4285714  -0.5000000   0.4000000), wk =   0.0190476
        k(   95) = (   0.4285714  -0.5000000  -0.4000000), wk =   0.0190476
        k(   96) = (   0.4285714  -0.5000000  -0.2000000), wk =   0.0190476
        k(   97) = (   0.4285714  -0.3333333  -0.0000000), wk =   0.0190476
        k(   98) = (   0.4285714  -0.3333333   0.2000000), wk =   0.0190476
        k(   99) = (   0.4285714  -0.3333333   0.4000000), wk =   0.0190476
        k(  100) = (   0.4285714  -0.3333333  -0.4000000), wk =   0.0190476
        k(  101) = (   0.4285714  -0.3333333  -0.2000000), wk =   0.0190476
        k(  102) = (   0.4285714  -0.1666667  -0.0000000), wk =   0.0190476
        k(  103) = (   0.4285714  -0.1666667   0.2000000), wk =   0.0190476
        k(  104) = (   0.4285714  -0.1666667   0.4000000), wk =   0.0190476
        k(  105) = (   0.4285714  -0.1666667  -0.4000000), wk =   0.0190476
        k(  106) = (   0.4285714  -0.1666667  -0.2000000), wk =   0.0190476

     Dense  grid:    61473 G-vectors     FFT dimensions: (  60,  40,  60)

     Smooth grid:    38173 G-vectors     FFT dimensions: (  54,  36,  48)

     Dynamical RAM for                 wfc:       0.09 MB

     Dynamical RAM for     wfc (w. buffer):       9.73 MB

     Dynamical RAM for           str. fact:       0.12 MB

     Dynamical RAM for           local pot:       0.00 MB

     Dynamical RAM for          nlocal pot:       0.29 MB

     Dynamical RAM for                qrad:       0.96 MB

     Dynamical RAM for          rho,v,vnew:       0.40 MB

     Dynamical RAM for               rhoin:       0.13 MB

     Dynamical RAM for            rho*nmix:       0.94 MB

     Dynamical RAM for           G-vectors:       0.24 MB

     Dynamical RAM for          h,s,v(r/c):       0.07 MB

     Dynamical RAM for          <psi|beta>:       0.02 MB

     Dynamical RAM for                 psi:       0.18 MB

     Dynamical RAM for                hpsi:       0.18 MB

     Dynamical RAM for                spsi:       0.18 MB

     Dynamical RAM for      wfcinit/wfcrot:       0.31 MB

     Dynamical RAM for           addusdens:       2.76 MB

     Dynamical RAM for          addusforce:       3.14 MB

     Dynamical RAM for         addusstress:       2.93 MB

     Estimated static dynamical RAM per process >      13.35 MB

     Estimated max dynamical RAM per process >      16.49 MB

     Estimated total dynamical RAM >     263.84 MB

     Check: negative core charge=   -0.000011

     Initial potential from superposition of free atoms

     starting charge   31.99884, renormalised to   32.00000
     Starting wfcs are   32 randomized atomic wfcs

     total cpu time spent up to now is        1.5 secs

     Self-consistent Calculation

     iteration #  1     ecut=    80.00 Ry     beta= 0.40
     Davidson diagonalization with overlap
     ethr =  1.00E-02,  avg # of iterations =  2.1

     total cpu time spent up to now is        3.5 secs

     total energy              =    -109.39009743 Ry
     estimated scf accuracy    <       1.54064346 Ry

     iteration #  2     ecut=    80.00 Ry     beta= 0.40
     Davidson diagonalization with overlap
     ethr =  4.81E-03,  avg # of iterations =  2.0

     total cpu time spent up to now is        5.3 secs

     total energy              =    -109.56505710 Ry
     estimated scf accuracy    <       0.11451758 Ry

     iteration #  3     ecut=    80.00 Ry     beta= 0.40
     Davidson diagonalization with overlap
     ethr =  3.58E-04,  avg # of iterations =  2.8

     total cpu time spent up to now is        7.3 secs

     total energy              =    -109.57851702 Ry
     estimated scf accuracy    <       0.02893393 Ry

     iteration #  4     ecut=    80.00 Ry     beta= 0.40
     Davidson diagonalization with overlap
     ethr =  9.04E-05,  avg # of iterations =  3.5

     total cpu time spent up to now is        9.3 secs

     total energy              =    -109.58362957 Ry
     estimated scf accuracy    <       0.00151737 Ry

     iteration #  5     ecut=    80.00 Ry     beta= 0.40
     Davidson diagonalization with overlap
     ethr =  4.74E-06,  avg # of iterations =  5.6

     total cpu time spent up to now is       11.8 secs

     total energy              =    -109.58410290 Ry
     estimated scf accuracy    <       0.00037148 Ry

     iteration #  6     ecut=    80.00 Ry     beta= 0.40
     Davidson diagonalization with overlap
     ethr =  1.16E-06,  avg # of iterations =  2.6

     total cpu time spent up to now is       13.8 secs

     total energy              =    -109.58416211 Ry
     estimated scf accuracy    <       0.00008897 Ry

     iteration #  7     ecut=    80.00 Ry     beta= 0.40
     Davidson diagonalization with overlap
     ethr =  2.78E-07,  avg # of iterations =  3.3

     total cpu time spent up to now is       15.8 secs

     total energy              =    -109.58418335 Ry
     estimated scf accuracy    <       0.00000274 Ry

     iteration #  8     ecut=    80.00 Ry     beta= 0.40
     Davidson diagonalization with overlap
     ethr =  8.55E-09,  avg # of iterations =  5.4

     total cpu time spent up to now is       18.7 secs

     total energy              =    -109.58418654 Ry
     estimated scf accuracy    <       0.00000122 Ry

     iteration #  9     ecut=    80.00 Ry     beta= 0.40
     Davidson diagonalization with overlap
     ethr =  3.82E-09,  avg # of iterations =  2.0

     total cpu time spent up to now is       20.6 secs

     total energy              =    -109.58418679 Ry
     estimated scf accuracy    <       0.00000007 Ry

     iteration # 10     ecut=    80.00 Ry     beta= 0.40
     Davidson diagonalization with overlap
     ethr =  2.13E-10,  avg # of iterations =  2.5

     total cpu time spent up to now is       22.5 secs

     total energy              =    -109.58418680 Ry
     estimated scf accuracy    <          2.9E-09 Ry

     iteration # 11     ecut=    80.00 Ry     beta= 0.40
     Davidson diagonalization with overlap
     ethr =  8.97E-12,  avg # of iterations =  4.6

     total cpu time spent up to now is       25.0 secs

     total energy              =    -109.58418680 Ry
     estimated scf accuracy    <          3.3E-09 Ry

     iteration # 12     ecut=    80.00 Ry     beta= 0.40
     Davidson diagonalization with overlap
     ethr =  8.97E-12,  avg # of iterations =  2.1

     total cpu time spent up to now is       26.9 secs

     total energy              =    -109.58418680 Ry
     estimated scf accuracy    <          5.9E-10 Ry

     iteration # 13     ecut=    80.00 Ry     beta= 0.40
     Davidson diagonalization with overlap
     ethr =  1.84E-12,  avg # of iterations =  1.2

     total cpu time spent up to now is       28.3 secs

     End of self-consistent calculation

          k = 0.0000 0.0000 0.0000 (  4781 PWs)   bands (ev):

   -11.3202  -7.9446  -7.6125  -7.5430  -2.3195  -0.9075  -0.6965   0.8683
     1.3544   3.4583   4.4562   4.9168   5.5809   6.5865   6.8137   6.9998
    11.3728  12.7962  13.8864  14.1069

     occupation numbers 
     1.0000   1.0000   1.0000   1.0000   1.0000   1.0000   1.0000   1.0000
     1.0000   1.0000   1.0000   1.0000   1.0000   1.0000   1.0000   1.0000
     0.0000   0.0000   0.0000   0.0000

          k = 0.0000 0.0000 0.2269 (  4779 PWs)   bands (ev):

   -11.1108  -8.5015  -7.5722  -7.5049  -1.6465  -1.1949  -1.1591   1.4408
     1.8790   3.4193   4.5622   4.6609   4.8766   6.6259   6.8739   6.9483
    11.3711  12.6019  14.4271  14.5873

     occupation numbers 
     1.0000   1.0000   1.0000   1.0000   1.0000   1.0000   1.0000   1.0000
     1.0000   1.0000   1.0000   1.0000   1.0000   1.0000   1.0000   1.0000
     0.0000   0.0000   0.0000   0.0000

          k = 0.0000 0.0000 0.4538 (  4799 PWs)   bands (ev):

   -10.5004  -9.5596  -7.4892  -7.4498  -1.8810  -1.7902   0.5281   2.1943
     2.4092   2.6418   3.7857   4.0807   5.4320   6.1837   6.9231   6.9624
    11.6349  12.1120  15.2944  15.4029

     occupation numbers 
     1.0000   1.0000   1.0000   1.0000   1.0000   1.0000   1.0000   1.0000
     1.0000   1.0000   1.0000   1.0000   1.0000   1.0000   1.0000   1.0000
     0.0000   0.0000   0.0000   0.0000

          k = 0.0000 0.2681-0.0722 (  4776 PWs)   bands (ev):

   -11.0840  -8.0223  -7.8216  -7.2418  -2.1430  -1.0049  -0.4177   0.6789
     1.5690   3.0410   3.6891   4.2943   5.2894   5.8539   6.4511   7.3469
    12.0551  13.3026  13.9110  15.4442

     occupation numbers 
     1.0000   1.0000   1.0000   1.0000   1.0000   1.0000   1.0000   1.0000
     1.0000   1.0000   1.0000   1.0000   1.0000   1.0000   1.0000   1.0000
     0.0000   0.0000   0.0000   0.0000

          k = 0.0000 0.2681 0.1547 (  4775 PWs)   bands (ev):

   -10.9874  -8.1717  -7.9057  -7.2424  -1.7695  -1.2200  -0.7203   0.8478
     1.9654   3.1395   4.0117   4.4967   4.9835   5.6110   6.1529   7.0396
    11.6433  13.4152  14.7192  15.3230

     occupation numbers 
     1.0000   1.0000   1.0000   1.0000   1.0000   1.0000   1.0000   1.0000
     1.0000   1.0000   1.0000   1.0000   1.0000   1.0000   1.0000   1.0000
     0.0000   0.0000   0.0000   0.0000

          k = 0.0000 0.2681 0.3816 (  4780 PWs)   bands (ev):

   -10.4938  -9.1324  -7.7287  -7.3191  -1.7518  -1.4191  -0.0386   1.7583
     2.3521   2.6087   3.8380   3.9955   4.9480   5.4813   6.1177   7.0131
    11.6305  13.2712  15.2853  15.6230

     occupation numbers 
     1.0000   1.0000   1.0000   1.0000   1.0000   1.0000   1.0000   1.0000
     1.0000   1.0000   1.0000   1.0000   1.0000   1.0000   1.0000   1.0000
     0.0000   0.0000   0.0000   0.0000

          k = 0.0000 0.2681-0.5260 (  4773 PWs)   bands (ev):

   -10.0940  -9.6577  -7.6224  -7.4018  -1.8529  -1.4919   0.9252   1.6913
     2.1508   2.5226   3.3629   3.7361   4.6602   5.7261   6.6403   7.1523
    12.0119  12.9735  14.6810  16.0518

     occupation numbers 
     1.0000   1.0000   1.0000   1.0000   1.0000   1.0000   1.0000   1.0000
     1.0000   1.0000   1.0000   1.0000   1.0000   1.0000   1.0000   1.0000
     0.0000   0.0000   0.0000   0.0000

          k = 0.0000 0.2681-0.2991 (  4763 PWs)   bands (ev):

   -10.7757  -8.6521  -7.7975  -7.2925  -1.6653  -1.0332  -0.7631   1.4745
     2.0589   2.8227   3.6794   3.8825   4.4264   6.0048   6.9173   7.3277
    12.4499  12.8729  13.8687  15.8933

     occupation numbers 
     1.0000   1.0000   1.0000   1.0000   1.0000   1.0000   1.0000   1.0000
     1.0000   1.0000   1.0000   1.0000   1.0000   1.0000   1.0000   1.0000
     0.0000   0.0000   0.0000   0.0000

          k = 0.0000 0.5362-0.1444 (  4766 PWs)   bands (ev):

   -10.4891  -8.3665  -7.7045  -7.1242  -1.8513  -1.0233  -0.0863   0.6677
     1.7078   1.8874   2.8523   3.6749   4.5055   5.3759   5.8939   7.3680
    11.9861  13.2447  14.1379  16.2532

     occupation numbers 
     1.0000   1.0000   1.0000   1.0000   1.0000   1.0000   1.0000   1.0000
     1.0000   1.0000   1.0000   1.0000   1.0000   1.0000   1.0000   1.0000
     0.0000   0.0000   0.0000   0.0000

          k = 0.0000 0.5362 0.0825 (  4771 PWs)   bands (ev):

   -10.4703  -8.2626  -7.8456  -7.1577  -1.7630  -1.0268  -0.0774   0.3259
     1.8894   2.3133   2.8439   4.0907   4.4992   5.0361   5.5450   6.9790
    11.8278  13.7192  14.6258  16.0483

     occupation numbers 
     1.0000   1.0000   1.0000   1.0000   1.0000   1.0000   1.0000   1.0000
     1.0000   1.0000   1.0000   1.0000   1.0000   1.0000   1.0000   1.0000
     0.0000   0.0000   0.0000   0.0000

          k = 0.0000 0.5362 0.3093 (  4763 PWs)   bands (ev):

   -10.1032  -8.6390  -8.0566  -7.2505  -1.7050  -0.6387  -0.4957   1.3198
     1.7093   2.3548   3.4100   3.8111   4.0659   4.8955   5.3625   6.7368
    11.7696  13.9549  14.9906  15.5889

     occupation numbers 
     1.0000   1.0000   1.0000   1.0000   1.0000   1.0000   1.0000   1.0000
     1.0000   1.0000   1.0000   1.0000   1.0000   1.0000   1.0000   1.0000
     0.0000   0.0000   0.0000   0.0000

          k = 0.0000 0.5362-0.5982 (  4762 PWs)   bands (ev):

    -9.5921  -9.3384  -7.8973  -7.3629  -1.7956  -0.7708   0.6000   0.9541
     1.4441   2.5931   3.1316   3.6776   3.7205   5.0569   5.7330   6.8447
    11.9436  13.5388  14.5664  16.0028

     occupation numbers 
     1.0000   1.0000   1.0000   1.0000   1.0000   1.0000   1.0000   1.0000
     1.0000   1.0000   1.0000   1.0000   1.0000   1.0000   1.0000   1.0000
     0.0000   0.0000   0.0000   0.0000

          k = 0.0000 0.5362-0.3713 (  4758 PWs)   bands (ev):

   -10.1571  -8.6820  -7.9126  -7.2415  -1.6885  -0.6980  -0.2424   0.9477
     1.6747   2.3610   2.9851   3.4554   3.7642   5.3700   6.2106   7.1860
    12.2038  12.9441  14.1371  16.2925

     occupation numbers 
     1.0000   1.0000   1.0000   1.0000   1.0000   1.0000   1.0000   1.0000
     1.0000   1.0000   1.0000   1.0000   1.0000   1.0000   1.0000   1.0000
     0.0000   0.0000   0.0000   0.0000

          k = 0.0000-0.8043 0.2167 (  4766 PWs)   bands (ev):

   -10.0556  -8.6339  -7.6034  -7.1568  -1.7731  -1.0560   0.0366   0.6563
     1.7340   1.9722   2.2187   3.4063   4.0507   5.3079   5.6234   7.3076
    11.6596  12.8813  14.0974  16.3855

     occupation numbers 
     1.0000   1.0000   1.0000   1.0000   1.0000   1.0000   1.0000   1.0000
     1.0000   1.0000   1.0000   1.0000   1.0000   1.0000   1.0000   1.0000
     0.0000   0.0000   0.0000   0.0000

          k = 0.0000-0.8043 0.4436 (  4767 PWs)   bands (ev):

    -9.9296  -8.6278  -7.7898  -7.2474  -1.7413  -0.7779  -0.0761   0.8141
     1.3758   2.1824   2.4056   3.6958   3.9241   5.0783   5.4924   7.0477
    11.6234  13.1173  14.4214  16.1639

     occupation numbers 
     1.0000   1.0000   1.0000   1.0000   1.0000   1.0000   1.0000   1.0000
     1.0000   1.0000   1.0000   1.0000   1.0000   1.0000   1.0000   1.0000
     0.0000   0.0000   0.0000   0.0000

          k = 0.0000-0.8043 0.6704 (  4762 PWs)   bands (ev):

    -9.6241  -8.7517  -8.1215  -7.2902  -1.7928  -0.6015   0.1249   0.9743
     1.1944   2.4382   3.0403   3.5131   3.7794   4.6071   5.3230   6.7217
    11.4333  13.8875  14.6465  15.6682

     occupation numbers 
     1.0000   1.0000   1.0000   1.0000   1.0000   1.0000   1.0000   1.0000
     1.0000   1.0000   1.0000   1.0000   1.0000   1.0000   1.0000   1.0000
     0.0000   0.0000   0.0000   0.0000

          k = 0.1429-0.0498-0.0000 (  4786 PWs)   bands (ev):

   -11.2258  -8.3335  -7.8689  -7.0678  -2.2414  -1.0604  -0.0965   0.3102
     1.9599   3.1790   4.3237   4.8268   5.4326   6.5420   6.8371   6.9769
    11.4606  12.9002  13.7971  14.3800

     occupation numbers 
     1.0000   1.0000   1.0000   1.0000   1.0000   1.0000   1.0000   1.0000
     1.0000   1.0000   1.0000   1.0000   1.0000   1.0000   1.0000   1.0000
     0.0000   0.0000   0.0000   0.0000

          k = 0.1429-0.0498 0.2269 (  4779 PWs)   bands (ev):

   -11.0179  -8.4428  -8.1815  -7.1786  -1.6225  -1.2622  -0.5539   1.0479
     2.2963   3.1952   4.2302   4.6463   4.8886   6.5684   6.8361   6.9537
    11.4653  12.7273  14.2596  14.8364

     occupation numbers 
     1.0000   1.0000   1.0000   1.0000   1.0000   1.0000   1.0000   1.0000
     1.0000   1.0000   1.0000   1.0000   1.0000   1.0000   1.0000   1.0000
     0.0000   0.0000   0.0000   0.0000

          k = 0.1429-0.0498 0.4538 (  4767 PWs)   bands (ev):

   -10.4113  -9.4763  -7.8650  -7.4829  -1.7110  -1.3362   0.5496   2.0561
     2.4476   2.6199   3.6298   3.9385   5.3733   6.1068   6.8829   6.9426
    11.7298  12.2388  15.1337  15.5258

     occupation numbers 
     1.0000   1.0000   1.0000   1.0000   1.0000   1.0000   1.0000   1.0000
     1.0000   1.0000   1.0000   1.0000   1.0000   1.0000   1.0000   1.0000
     0.0000   0.0000   0.0000   0.0000

          k = 0.1429-0.0498-0.4538 (  4767 PWs)   bands (ev):

   -10.4100  -9.4769  -7.8854  -7.4614  -1.6931  -1.3596   0.5551   1.9812
     2.5124   2.6347   3.6229   3.9523   5.3696   6.1044   6.8745   6.9435
    11.7404  12.2245  15.0825  15.5759

     occupation numbers 
     1.0000   1.0000   1.0000   1.0000   1.0000   1.0000   1.0000   1.0000
     1.0000   1.0000   1.0000   1.0000   1.0000   1.0000   1.0000   1.0000
     0.0000   0.0000   0.0000   0.0000

          k = 0.1429-0.0498-0.2269 (  4779 PWs)   bands (ev):

   -11.0171  -8.4275  -8.2110  -7.1630  -1.5920  -1.2853  -0.5653   0.9994
     2.3625   3.1813   4.2378   4.6898   4.8543   6.5638   6.8141   6.9599
    11.4797  12.7014  14.2542  14.8518

     occupation numbers 
     1.0000   1.0000   1.0000   1.0000   1.0000   1.0000   1.0000   1.0000
     1.0000   1.0000   1.0000   1.0000   1.0000   1.0000   1.0000   1.0000
     0.0000   0.0000   0.0000   0.0000

          k = 0.1429 0.2183-0.0722 (  4780 PWs)   bands (ev):

   -11.0994  -7.9343  -7.8155  -7.3080  -2.1533  -0.9637  -0.5314   0.7818
     1.4525   3.0925   3.7275   4.2829   5.2854   5.8633   6.4800   7.3402
    12.0443  13.3259  13.8957  15.4267

     occupation numbers 
     1.0000   1.0000   1.0000   1.0000   1.0000   1.0000   1.0000   1.0000
     1.0000   1.0000   1.0000   1.0000   1.0000   1.0000   1.0000   1.0000
     0.0000   0.0000   0.0000   0.0000

          k = 0.1429 0.2183 0.1547 (  4780 PWs)   bands (ev):

   -11.0032  -8.1853  -7.7796  -7.3229  -1.7864  -1.1946  -0.8166   0.9467
     1.8510   3.2065   4.0244   4.4953   5.0088   5.5843   6.1954   7.0306
    11.6223  13.4195  14.7317  15.3128

     occupation numbers 
     1.0000   1.0000   1.0000   1.0000   1.0000   1.0000   1.0000   1.0000
     1.0000   1.0000   1.0000   1.0000   1.0000   1.0000   1.0000   1.0000
     0.0000   0.0000   0.0000   0.0000

          k = 0.1429 0.2183 0.3816 (  4779 PWs)   bands (ev):

   -10.5093  -9.1454  -7.6337  -7.3534  -1.7696  -1.4952  -0.0417   1.8220
     2.3161   2.6207   3.7812   4.0406   5.0039   5.4561   6.1715   6.9911
    11.6175  13.2603  15.2706  15.6631

     occupation numbers 
     1.0000   1.0000   1.0000   1.0000   1.0000   1.0000   1.0000   1.0000
     1.0000   1.0000   1.0000   1.0000   1.0000   1.0000   1.0000   1.0000
     0.0000   0.0000   0.0000   0.0000

          k = 0.1429 0.2183-0.5260 (  4776 PWs)   bands (ev):

   -10.1078  -9.6717  -7.5789  -7.3791  -1.8633  -1.5846   0.9321   1.7070
     2.1693   2.4989   3.3594   3.7578   4.6959   5.7382   6.6594   7.1380
    12.0184  12.9518  14.6886  16.0540

     occupation numbers 
     1.0000   1.0000   1.0000   1.0000   1.0000   1.0000   1.0000   1.0000
     1.0000   1.0000   1.0000   1.0000   1.0000   1.0000   1.0000   1.0000
     0.0000   0.0000   0.0000   0.0000

          k = 0.1429 0.2183-0.2991 (  4762 PWs)   bands (ev):

   -10.7904  -8.6590  -7.7221  -7.3220  -1.6348  -1.1198  -0.8018   1.5177
     2.0256   2.8506   3.7028   3.8836   4.4257   6.0350   6.9296   7.3157
    12.5023  12.8089  13.8800  15.8755

     occupation numbers 
     1.0000   1.0000   1.0000   1.0000   1.0000   1.0000   1.0000   1.0000
     1.0000   1.0000   1.0000   1.0000   1.0000   1.0000   1.0000   1.0000
     0.0000   0.0000   0.0000   0.0000

          k = 0.1429 0.4864-0.1444 (  4773 PWs)   bands (ev):

   -10.5892  -8.1090  -7.4988  -7.4223  -1.8931  -0.7958  -0.6188   0.8538
     1.3592   2.0757   3.2605   3.3223   4.6974   5.2487   6.1711   7.2699
    12.0026  13.5566  13.8451  16.2597

     occupation numbers 
     1.0000   1.0000   1.0000   1.0000   1.0000   1.0000   1.0000   1.0000
     1.0000   1.0000   1.0000   1.0000   1.0000   1.0000   1.0000   1.0000
     0.0000   0.0000   0.0000   0.0000

          k = 0.1429 0.4864 0.0825 (  4771 PWs)   bands (ev):

   -10.5767  -7.9380  -7.6562  -7.4926  -1.7744  -1.1155  -0.4397   0.6197
     1.3486   2.7931   3.1529   3.9553   4.6926   4.8284   5.6360   6.9081
    11.8585  13.8343  14.5334  16.1099

     occupation numbers 
     1.0000   1.0000   1.0000   1.0000   1.0000   1.0000   1.0000   1.0000
     1.0000   1.0000   1.0000   1.0000   1.0000   1.0000   1.0000   1.0000
     0.0000   0.0000   0.0000   0.0000

          k = 0.1429 0.4864 0.3093 (  4746 PWs)   bands (ev):

   -10.2054  -8.6963  -7.6870  -7.3341  -1.5790  -1.3049  -0.4867   1.4875
     2.0156   2.2437   3.3357   3.5707   4.5793   4.7155   5.5699   6.5658
    11.8966  13.7108  15.3383  15.4691

     occupation numbers 
     1.0000   1.0000   1.0000   1.0000   1.0000   1.0000   1.0000   1.0000
     1.0000   1.0000   1.0000   1.0000   1.0000   1.0000   1.0000   1.0000
     0.0000   0.0000   0.0000   0.0000

          k = 0.1429 0.4864-0.5982 (  4753 PWs)   bands (ev):

    -9.5787  -9.5267  -7.6875  -7.2402  -1.6737  -1.4344   0.7107   0.9384
     1.9786   2.1600   2.9966   3.5365   4.0592   5.1058   6.0261   6.6271
    12.2110  13.2641  14.5926  16.1999

     occupation numbers 
     1.0000   1.0000   1.0000   1.0000   1.0000   1.0000   1.0000   1.0000
     1.0000   1.0000   1.0000   1.0000   1.0000   1.0000   1.0000   1.0000
     0.0000   0.0000   0.0000   0.0000

          k = 0.1429 0.4864-0.3713 (  4743 PWs)   bands (ev):

   -10.2407  -8.7282  -7.6014  -7.3120  -1.5194  -1.0483  -0.5501   1.1324
     1.9402   2.1089   3.0776   3.1716   3.9933   5.4099   6.6553   6.8527
    12.4998  12.8508  13.9759  16.3509

     occupation numbers 
     1.0000   1.0000   1.0000   1.0000   1.0000   1.0000   1.0000   1.0000
     1.0000   1.0000   1.0000   1.0000   1.0000   1.0000   1.0000   1.0000
     0.0000   0.0000   0.0000   0.0000

          k = 0.1429-0.8541 0.2167 (  4761 PWs)   bands (ev):

   -10.0568  -8.6394  -7.5139  -7.2505  -1.7194  -0.8897  -0.1823   0.4696
     1.5420   2.1716   2.6084   3.3223   3.9930   4.9924   6.0240   7.1362
    11.6712  13.0713  13.8717  16.2977

     occupation numbers 
     1.0000   1.0000   1.0000   1.0000   1.0000   1.0000   1.0000   1.0000
     1.0000   1.0000   1.0000   1.0000   1.0000   1.0000   1.0000   1.0000
     0.0000   0.0000   0.0000   0.0000

          k = 0.1429-0.8541 0.4436 (  4773 PWs)   bands (ev):

   -10.0100  -8.3130  -7.8194  -7.4805  -1.6355  -0.9627   0.0820   0.5987
     1.3056   2.1495   2.7151   3.7858   4.2451   4.7394   5.4433   7.0283
    11.4797  13.4254  14.2290  15.9056

     occupation numbers 
     1.0000   1.0000   1.0000   1.0000   1.0000   1.0000   1.0000   1.0000
     1.0000   1.0000   1.0000   1.0000   1.0000   1.0000   1.0000   1.0000
     0.0000   0.0000   0.0000   0.0000

          k = 0.1429-0.8541 0.6704 (  4774 PWs)   bands (ev):

    -9.7182  -8.5206  -8.0926  -7.4821  -1.5911  -0.6632  -0.3942   1.2395
     1.7287   1.9573   3.0067   3.4656   4.1433   4.6170   5.2250   6.6301
    11.4866  13.7254  14.6698  15.6189

     occupation numbers 
     1.0000   1.0000   1.0000   1.0000   1.0000   1.0000   1.0000   1.0000
     1.0000   1.0000   1.0000   1.0000   1.0000   1.0000   1.0000   1.0000
     0.0000   0.0000   0.0000   0.0000

          k = 0.1429-0.8541-0.2371 (  4756 PWs)   bands (ev):

    -9.4586  -9.0655  -8.0222  -7.2324  -1.6238  -0.9223   0.2980   0.8085
     1.5041   2.4883   2.9534   3.2697   3.5476   4.7553   5.6012   6.5861
    11.7145  13.3750  14.8196  15.7381

     occupation numbers 
     1.0000   1.0000   1.0000   1.0000   1.0000   1.0000   1.0000   1.0000
     1.0000   1.0000   1.0000   1.0000   1.0000   1.0000   1.0000   1.0000
     0.0000   0.0000   0.0000   0.0000

          k = 0.1429-0.8541-0.0102 (  4751 PWs)   bands (ev):

    -9.8257  -8.9007  -7.6676  -7.1932  -1.5126  -0.7987  -0.3486   0.6844
     1.5156   2.1903   2.7729   3.3589   3.6670   4.9917   5.9846   6.8158
    12.0479  12.8414  14.1630  16.3548

     occupation numbers 
     1.0000   1.0000   1.0000   1.0000   1.0000   1.0000   1.0000   1.0000
     1.0000   1.0000   1.0000   1.0000   1.0000   1.0000   1.0000   1.0000
     0.0000   0.0000   0.0000   0.0000

          k = 0.1429-0.5860 0.1444 (  4769 PWs)   bands (ev):

   -10.2529  -8.8786  -7.6057  -7.0817  -1.7020  -0.8368  -0.1798   0.8594
     1.6228   2.2675   2.5616   3.7799   4.1752   5.2582   5.8615   7.3433
    12.0180  13.0774  14.1492  16.1621

     occupation numbers 
     1.0000   1.0000   1.0000   1.0000   1.0000   1.0000   1.0000   1.0000
     1.0000   1.0000   1.0000   1.0000   1.0000   1.0000   1.0000   1.0000
     0.0000   0.0000   0.0000   0.0000

          k = 0.1429-0.5860 0.3713 (  4774 PWs)   bands (ev):

    -9.9704  -8.7136  -8.1269  -7.3904  -1.5156  -0.6197   0.1270   1.0552
     1.6529   2.2950   2.5485   3.6807   3.9276   5.1481   5.9099   7.2998
    11.8844  13.1055  14.1759  16.0390

     occupation numbers 
     1.0000   1.0000   1.0000   1.0000   1.0000   1.0000   1.0000   1.0000
     1.0000   1.0000   1.0000   1.0000   1.0000   1.0000   1.0000   1.0000
     0.0000   0.0000   0.0000   0.0000

          k = 0.1429-0.5860 0.5982 (  4778 PWs)   bands (ev):

    -9.5127  -9.0140  -8.2265  -7.7102  -1.4839  -0.1973   0.3538   1.1338
     1.3464   2.4554   2.9322   3.5632   3.9225   5.0051   5.4780   6.9640
    11.7149  13.7746  14.4201  15.6517

     occupation numbers 
     1.0000   1.0000   1.0000   1.0000   1.0000   1.0000   1.0000   1.0000
     1.0000   1.0000   1.0000   1.0000   1.0000   1.0000   1.0000   1.0000
     0.0000   0.0000   0.0000   0.0000

          k = 0.1429-0.5860-0.3093 (  4767 PWs)   bands (ev):

    -9.8562  -8.7113  -8.3531  -7.3556  -1.4440  -0.5531   0.2122   1.1191
     1.3149   2.5908   3.0773   3.6386   3.9169   4.8075   5.5107   6.8574
    11.7196  13.9731  14.7281  15.5397

     occupation numbers 
     1.0000   1.0000   1.0000   1.0000   1.0000   1.0000   1.0000   1.0000
     1.0000   1.0000   1.0000   1.0000   1.0000   1.0000   1.0000   1.0000
     0.0000   0.0000   0.0000   0.0000

          k = 0.1429-0.5860-0.0825 (  4777 PWs)   bands (ev):

   -10.2129  -8.8700  -7.7190  -7.0795  -1.5517  -0.8402  -0.2230   0.9441
     1.4413   2.4681   2.8550   3.5964   4.1000   5.1658   5.7653   7.0384
    11.9384  13.4645  14.5113  15.9844

     occupation numbers 
     1.0000   1.0000   1.0000   1.0000   1.0000   1.0000   1.0000   1.0000
     1.0000   1.0000   1.0000   1.0000   1.0000   1.0000   1.0000   1.0000
     0.0000   0.0000   0.0000   0.0000

          k = 0.1429-0.3179 0.0722 (  4780 PWs)   bands (ev):

   -10.8876  -8.7061  -7.7525  -6.9744  -1.9823  -0.9542  -0.0858   0.5618
     2.2247   2.5277   3.4057   4.3572   4.9830   5.9104   6.2225   7.4283
    12.1312  13.2593  13.9882  15.6274

     occupation numbers 
     1.0000   1.0000   1.0000   1.0000   1.0000   1.0000   1.0000   1.0000
     1.0000   1.0000   1.0000   1.0000   1.0000   1.0000   1.0000   1.0000
     0.0000   0.0000   0.0000   0.0000

          k = 0.1429-0.3179 0.2991 (  4767 PWs)   bands (ev):

   -10.5863  -8.6107  -8.3433  -7.2374  -1.5111  -0.8143  -0.0955   1.0768
     2.2818   2.6235   3.3569   4.0194   4.3265   5.8207   6.6497   7.4525
    12.2491  13.2774  13.7063  15.9538

     occupation numbers 
     1.0000   1.0000   1.0000   1.0000   1.0000   1.0000   1.0000   1.0000
     1.0000   1.0000   1.0000   1.0000   1.0000   1.0000   1.0000   1.0000
     0.0000   0.0000   0.0000   0.0000

          k = 0.1429-0.3179 0.5260 (  4774 PWs)   bands (ev):

    -9.9224  -9.4753  -8.0639  -7.7035  -1.4734  -0.7237   0.8935   1.5768
     1.8844   2.7077   3.0818   3.7546   4.3446   5.7042   6.4338   7.2049
    12.0317  13.2440  14.4845  15.8509

     occupation numbers 
     1.0000   1.0000   1.0000   1.0000   1.0000   1.0000   1.0000   1.0000
     1.0000   1.0000   1.0000   1.0000   1.0000   1.0000   1.0000   1.0000
     0.0000   0.0000   0.0000   0.0000

          k = 0.1429-0.3179-0.3816 (  4773 PWs)   bands (ev):

   -10.3035  -8.9742  -8.2954  -7.4492  -1.4326  -0.6336   0.0021   1.5637
     2.0809   2.6681   3.5379   3.9566   4.6764   5.7050   5.8249   7.0815
    11.7941  13.4869  15.1637  15.3474

     occupation numbers 
     1.0000   1.0000   1.0000   1.0000   1.0000   1.0000   1.0000   1.0000
     1.0000   1.0000   1.0000   1.0000   1.0000   1.0000   1.0000   1.0000
     0.0000   0.0000   0.0000   0.0000

          k = 0.1429-0.3179-0.1547 (  4788 PWs)   bands (ev):

   -10.7905  -8.6286  -8.0340  -7.0536  -1.6051  -1.1340   0.0245   0.4638
     2.4043   2.6712   3.8409   4.1897   4.6728   5.8481   6.0676   7.1103
    11.8452  13.4957  14.5340  15.4443

     occupation numbers 
     1.0000   1.0000   1.0000   1.0000   1.0000   1.0000   1.0000   1.0000
     1.0000   1.0000   1.0000   1.0000   1.0000   1.0000   1.0000   1.0000
     0.0000   0.0000   0.0000   0.0000

          k = 0.2857-0.0996-0.0000 (  4778 PWs)   bands (ev):

   -10.9456  -9.1327  -7.6830  -6.9338  -2.0117  -0.8622  -0.2193   0.8615
     2.4014   2.7503   3.8880   4.6858   5.0124   6.3087   6.8593   7.0754
    11.7140  13.0632  13.8467  14.9974

     occupation numbers 
     1.0000   1.0000   1.0000   1.0000   1.0000   1.0000   1.0000   1.0000
     1.0000   1.0000   1.0000   1.0000   1.0000   1.0000   1.0000   1.0000
     0.0000   0.0000   0.0000   0.0000

          k = 0.2857-0.0996 0.2269 (  4772 PWs)   bands (ev):

   -10.7416  -8.9696  -8.2024  -7.2133  -1.3261  -1.0393   0.3886   0.6395
     2.4906   2.9112   3.6207   4.4280   4.8187   6.3258   6.8433   6.9964
    11.7705  12.9872  14.0668  15.3383

     occupation numbers 
     1.0000   1.0000   1.0000   1.0000   1.0000   1.0000   1.0000   1.0000
     1.0000   1.0000   1.0000   1.0000   1.0000   1.0000   1.0000   1.0000
     0.0000   0.0000   0.0000   0.0000

          k = 0.2857-0.0996 0.4538 (  4769 PWs)   bands (ev):

   -10.1466  -9.2360  -8.4834  -7.8464  -1.0333  -0.4574   0.6110   1.8076
     2.2942   2.5898   3.1997   3.5838   5.2522   5.9222   6.8395   6.9093
    12.0478  12.5908  14.7299  15.5321

     occupation numbers 
     1.0000   1.0000   1.0000   1.0000   1.0000   1.0000   1.0000   1.0000
     1.0000   1.0000   1.0000   1.0000   1.0000   1.0000   1.0000   1.0000
     0.0000   0.0000   0.0000   0.0000

          k = 0.2857-0.0996-0.4538 (  4769 PWs)   bands (ev):

   -10.1442  -9.2338  -8.5058  -7.8270  -1.0115  -0.4880   0.6179   1.7411
     2.2960   2.6731   3.2046   3.5754   5.2427   5.9296   6.8188   6.9171
    12.0631  12.5706  14.6927  15.5624

     occupation numbers 
     1.0000   1.0000   1.0000   1.0000   1.0000   1.0000   1.0000   1.0000
     1.0000   1.0000   1.0000   1.0000   1.0000   1.0000   1.0000   1.0000
     0.0000   0.0000   0.0000   0.0000

          k = 0.2857-0.0996-0.2269 (  4772 PWs)   bands (ev):

   -10.7400  -8.9699  -8.2161  -7.1984  -1.2930  -1.0570   0.3630   0.6009
     2.4919   2.9700   3.6505   4.4246   4.7933   6.3356   6.8098   7.0036
    11.7957  12.9434  14.0594  15.3646

     occupation numbers 
     1.0000   1.0000   1.0000   1.0000   1.0000   1.0000   1.0000   1.0000
     1.0000   1.0000   1.0000   1.0000   1.0000   1.0000   1.0000   1.0000
     0.0000   0.0000   0.0000   0.0000

          k = 0.2857 0.1685-0.0722 (  4779 PWs)   bands (ev):

   -10.9334  -8.5709  -7.7988  -6.9847  -2.0127  -0.9943  -0.0575   0.4553
     2.1525   2.5983   3.4664   4.4002   5.0097   5.9534   6.2304   7.4091
    12.0967  13.3072  13.9746  15.5922

     occupation numbers 
     1.0000   1.0000   1.0000   1.0000   1.0000   1.0000   1.0000   1.0000
     1.0000   1.0000   1.0000   1.0000   1.0000   1.0000   1.0000   1.0000
     0.0000   0.0000   0.0000   0.0000

          k = 0.2857 0.1685 0.1547 (  4787 PWs)   bands (ev):

   -10.8374  -8.5018  -8.0542  -7.0732  -1.6593  -1.1727  -0.0902   0.5464
     2.3288   2.7345   3.8581   4.2389   4.7203   5.9088   6.0817   7.0658
    11.7769  13.5247  14.5763  15.4223

     occupation numbers 
     1.0000   1.0000   1.0000   1.0000   1.0000   1.0000   1.0000   1.0000
     1.0000   1.0000   1.0000   1.0000   1.0000   1.0000   1.0000   1.0000
     0.0000   0.0000   0.0000   0.0000

          k = 0.2857 0.1685 0.3816 (  4773 PWs)   bands (ev):

   -10.3495  -9.0146  -8.1603  -7.4305  -1.5442  -0.7566  -0.0067   1.6612
     2.1257   2.5965   3.5295   4.0460   4.7263   5.6812   5.9053   7.0519
    11.7530  13.4586  15.1848  15.4132

     occupation numbers 
     1.0000   1.0000   1.0000   1.0000   1.0000   1.0000   1.0000   1.0000
     1.0000   1.0000   1.0000   1.0000   1.0000   1.0000   1.0000   1.0000
     0.0000   0.0000   0.0000   0.0000

          k = 0.2857 0.1685-0.5260 (  4774 PWs)   bands (ev):

    -9.9629  -9.5157  -7.9818  -7.6271  -1.5741  -0.8748   0.9086   1.6432
     1.8508   2.6800   3.1184   3.8520   4.4147   5.6940   6.4483   7.1990
    12.0347  13.1938  14.5090  15.8767

     occupation numbers 
     1.0000   1.0000   1.0000   1.0000   1.0000   1.0000   1.0000   1.0000
     1.0000   1.0000   1.0000   1.0000   1.0000   1.0000   1.0000   1.0000
     0.0000   0.0000   0.0000   0.0000

          k = 0.2857 0.1685-0.2991 (  4762 PWs)   bands (ev):

   -10.6298  -8.5509  -8.3384  -7.2028  -1.5396  -0.8694  -0.2475   1.0917
     2.3643   2.5779   3.4599   4.0992   4.2755   5.8754   6.6327   7.4551
    12.2883  13.1995  13.7370  15.9293

     occupation numbers 
     1.0000   1.0000   1.0000   1.0000   1.0000   1.0000   1.0000   1.0000
     1.0000   1.0000   1.0000   1.0000   1.0000   1.0000   1.0000   1.0000
     0.0000   0.0000   0.0000   0.0000

          k = 0.2857 0.4366-0.1444 (  4768 PWs)   bands (ev):

   -10.5404  -8.1923  -7.7540  -7.1653  -1.8607  -1.0118  -0.2431   0.6949
     1.6329   1.8882   3.0527   3.5872   4.5232   5.3579   6.0044   7.3395
    11.9908  13.4152  14.0003  16.2279

     occupation numbers 
     1.0000   1.0000   1.0000   1.0000   1.0000   1.0000   1.0000   1.0000
     1.0000   1.0000   1.0000   1.0000   1.0000   1.0000   1.0000   1.0000
     0.0000   0.0000   0.0000   0.0000

          k = 0.2857 0.4366 0.0825 (  4770 PWs)   bands (ev):

   -10.5249  -8.0458  -7.8827  -7.2475  -1.7827  -1.0803  -0.2157   0.4274
     1.6401   2.5425   2.9526   4.0790   4.6232   4.8967   5.6128   6.9409
    11.8441  13.8145  14.5605  16.0628

     occupation numbers 
     1.0000   1.0000   1.0000   1.0000   1.0000   1.0000   1.0000   1.0000
     1.0000   1.0000   1.0000   1.0000   1.0000   1.0000   1.0000   1.0000
     0.0000   0.0000   0.0000   0.0000

          k = 0.2857 0.4366 0.3093 (  4759 PWs)   bands (ev):

   -10.1555  -8.6760  -7.8651  -7.2918  -1.7285  -0.8838  -0.4830   1.4201
     1.8766   2.2027   3.3981   3.7226   4.2242   4.9309   5.4618   6.6382
    11.8304  13.8539  15.0942  15.5929

     occupation numbers 
     1.0000   1.0000   1.0000   1.0000   1.0000   1.0000   1.0000   1.0000
     1.0000   1.0000   1.0000   1.0000   1.0000   1.0000   1.0000   1.0000
     0.0000   0.0000   0.0000   0.0000

          k = 0.2857 0.4366-0.5982 (  4756 PWs)   bands (ev):

    -9.6046  -9.4150  -7.7852  -7.3096  -1.8143  -1.0207   0.6634   0.9765
     1.5335   2.5049   3.0736   3.6178   3.8774   5.1116   5.8468   6.7488
    12.0573  13.4486  14.5644  16.0760

     occupation numbers 
     1.0000   1.0000   1.0000   1.0000   1.0000   1.0000   1.0000   1.0000
     1.0000   1.0000   1.0000   1.0000   1.0000   1.0000   1.0000   1.0000
     0.0000   0.0000   0.0000   0.0000

          k = 0.2857 0.4366-0.3713 (  4755 PWs)   bands (ev):

   -10.2006  -8.6878  -7.8197  -7.2303  -1.6454  -0.7859  -0.4512   1.0181
     1.7596   2.3075   3.0570   3.3511   3.8181   5.4253   6.3165   7.1094
    12.3044  12.9717  14.0436  16.2888

     occupation numbers 
     1.0000   1.0000   1.0000   1.0000   1.0000   1.0000   1.0000   1.0000
     1.0000   1.0000   1.0000   1.0000   1.0000   1.0000   1.0000   1.0000
     0.0000   0.0000   0.0000   0.0000

          k = 0.2857-0.9039 0.2167 (  4766 PWs)   bands (ev):

   -10.0600  -8.6282  -7.4907  -7.2876  -1.6799  -0.7154  -0.4066   0.3592
     1.5829   2.1618   2.8813   3.1946   4.0207   4.8281   6.2278   7.0058
    11.6706  13.3683  13.5737  16.2323

     occupation numbers 
     1.0000   1.0000   1.0000   1.0000   1.0000   1.0000   1.0000   1.0000
     1.0000   1.0000   1.0000   1.0000   1.0000   1.0000   1.0000   1.0000
     0.0000   0.0000   0.0000   0.0000

          k = 0.2857-0.9039 0.4436 (  4774 PWs)   bands (ev):

   -10.0295  -8.1930  -7.8127  -7.5974  -1.5356  -1.0719   0.1015   0.6872
     0.9768   2.3564   2.9681   3.5660   4.3582   4.6046   5.5248   6.9723
    11.4763  13.6927  13.9458  15.8167

     occupation numbers 
     1.0000   1.0000   1.0000   1.0000   1.0000   1.0000   1.0000   1.0000
     1.0000   1.0000   1.0000   1.0000   1.0000   1.0000   1.0000   1.0000
     0.0000   0.0000   0.0000   0.0000

          k = 0.2857-0.9039 0.6704 (  4764 PWs)   bands (ev):

    -9.7381  -8.5038  -7.9725  -7.6073  -1.4369  -0.8926  -0.3970   1.3818
     1.5590   2.1744   3.0334   3.1973   4.3409   4.5499   5.3373   6.5263
    11.5692  13.5686  14.7049  15.6068

     occupation numbers 
     1.0000   1.0000   1.0000   1.0000   1.0000   1.0000   1.0000   1.0000
     1.0000   1.0000   1.0000   1.0000   1.0000   1.0000   1.0000   1.0000
     0.0000   0.0000   0.0000   0.0000

          k = 0.2857-0.9039-0.2371 (  4756 PWs)   bands (ev):

    -9.3562  -9.2054  -7.9748  -7.2422  -1.4343  -1.1632   0.2558   0.8501
     1.8210   2.2316   2.9010   3.1252   3.6599   4.7974   5.7412   6.4667
    11.9000  13.1221  14.8509  15.7601

     occupation numbers 
     1.0000   1.0000   1.0000   1.0000   1.0000   1.0000   1.0000   1.0000
     1.0000   1.0000   1.0000   1.0000   1.0000   1.0000   1.0000   1.0000
     0.0000   0.0000   0.0000   0.0000

          k = 0.2857-0.9039-0.0102 (  4744 PWs)   bands (ev):

    -9.7972  -8.9601  -7.6341  -7.1971  -1.2835  -0.9795  -0.4419   0.5992
     1.7644   2.2098   2.5569   3.3989   3.7238   4.8899   6.2023   6.6540
    12.2942  12.7020  14.0213  16.3738

     occupation numbers 
     1.0000   1.0000   1.0000   1.0000   1.0000   1.0000   1.0000   1.0000
     1.0000   1.0000   1.0000   1.0000   1.0000   1.0000   1.0000   1.0000
     0.0000   0.0000   0.0000   0.0000

          k = 0.2857-0.6358 0.1444 (  4762 PWs)   bands (ev):

    -9.9608  -9.3237  -7.4052  -7.2320  -1.5600  -0.4482  -0.2088   0.2596
     1.7760   2.6032   3.0275   3.4922   3.8516   4.7519   6.5267   6.9466
    12.0900  13.2786  13.7391  16.0790

     occupation numbers 
     1.0000   1.0000   1.0000   1.0000   1.0000   1.0000   1.0000   1.0000
     1.0000   1.0000   1.0000   1.0000   1.0000   1.0000   1.0000   1.0000
     0.0000   0.0000   0.0000   0.0000

          k = 0.2857-0.6358 0.3713 (  4768 PWs)   bands (ev):

    -9.7794  -8.9277  -7.9572  -7.6830  -1.2138  -0.6725   0.3502   0.7427
     1.9477   2.3258   2.6402   3.3607   3.9281   5.0143   6.0757   7.1158
    11.7574  13.4388  13.8623  15.7847

     occupation numbers 
     1.0000   1.0000   1.0000   1.0000   1.0000   1.0000   1.0000   1.0000
     1.0000   1.0000   1.0000   1.0000   1.0000   1.0000   1.0000   1.0000
     0.0000   0.0000   0.0000   0.0000

          k = 0.2857-0.6358 0.5982 (  4767 PWs)   bands (ev):

    -9.4168  -8.6188  -8.4514  -8.1555  -0.9755  -0.3919   0.3162   1.3059
     1.7961   2.1575   2.7621   3.1581   3.9864   5.0452   5.6649   6.8192
    11.7463  13.7142  14.2679  15.4433

     occupation numbers 
     1.0000   1.0000   1.0000   1.0000   1.0000   1.0000   1.0000   1.0000
     1.0000   1.0000   1.0000   1.0000   1.0000   1.0000   1.0000   1.0000
     0.0000   0.0000   0.0000   0.0000

          k = 0.2857-0.6358-0.3093 (  4774 PWs)   bands (ev):

    -9.4855  -9.1755  -8.2424  -7.5263  -0.9802  -0.7373   0.4997   0.9727
     1.7580   2.2681   2.9090   3.0835   4.0342   4.7503   5.8622   6.7680
    11.9573  13.3755  15.0062  15.3054

     occupation numbers 
     1.0000   1.0000   1.0000   1.0000   1.0000   1.0000   1.0000   1.0000
     1.0000   1.0000   1.0000   1.0000   1.0000   1.0000   1.0000   1.0000
     0.0000   0.0000   0.0000   0.0000

          k = 0.2857-0.6358-0.0825 (  4771 PWs)   bands (ev):

    -9.8457  -9.4099  -7.5838  -7.1497  -1.1910  -0.9267  -0.0982   0.6575
     1.9227   2.3914   2.7127   3.5885   3.7885   4.7940   6.2417   6.9343
    12.4421  12.9215  14.2737  15.9981

     occupation numbers 
     1.0000   1.0000   1.0000   1.0000   1.0000   1.0000   1.0000   1.0000
     1.0000   1.0000   1.0000   1.0000   1.0000   1.0000   1.0000   1.0000
     0.0000   0.0000   0.0000   0.0000

          k = 0.2857-0.3677 0.0722 (  4780 PWs)   bands (ev):

   -10.5186  -9.4354  -7.5238  -7.0405  -1.7066  -0.8175  -0.1442   1.3491
     1.6581   2.8349   3.3674   3.9745   4.5226   5.5731   6.5669   7.3989
    12.2797  13.2357  14.0650  15.6607

     occupation numbers 
     1.0000   1.0000   1.0000   1.0000   1.0000   1.0000   1.0000   1.0000
     1.0000   1.0000   1.0000   1.0000   1.0000   1.0000   1.0000   1.0000
     0.0000   0.0000   0.0000   0.0000

          k = 0.2857-0.3677 0.2991 (  4773 PWs)   bands (ev):

   -10.2338  -9.1823  -8.1696  -7.4919  -1.1347  -0.5044   0.3491   1.2517
     1.7626   2.8570   3.0644   3.7833   4.0165   5.8470   6.6260   7.3435
    12.1937  13.4679  13.7376  15.7681

     occupation numbers 
     1.0000   1.0000   1.0000   1.0000   1.0000   1.0000   1.0000   1.0000
     1.0000   1.0000   1.0000   1.0000   1.0000   1.0000   1.0000   1.0000
     0.0000   0.0000   0.0000   0.0000

          k = 0.2857-0.3677 0.5260 (  4773 PWs)   bands (ev):

    -9.6124  -9.1432  -8.6002  -8.2096  -0.7320   0.0461   0.8926   1.3271
     1.9054   2.5577   2.7702   3.4602   3.9341   6.0064   6.3193   7.0566
    12.2009  13.5784  14.1969  15.3798

     occupation numbers 
     1.0000   1.0000   1.0000   1.0000   1.0000   1.0000   1.0000   1.0000
     1.0000   1.0000   1.0000   1.0000   1.0000   1.0000   1.0000   1.0000
     0.0000   0.0000   0.0000   0.0000

          k = 0.2857-0.3677-0.3816 (  4781 PWs)   bands (ev):

    -9.9481  -8.9540  -8.6746  -7.8154  -0.7644  -0.0862   0.4227   1.4484
     1.6680   2.5465   3.0885   3.5027   4.7298   5.3865   6.1968   7.0210
    12.1572  13.7957  14.5790  15.0912

     occupation numbers 
     1.0000   1.0000   1.0000   1.0000   1.0000   1.0000   1.0000   1.0000
     1.0000   1.0000   1.0000   1.0000   1.0000   1.0000   1.0000   1.0000
     0.0000   0.0000   0.0000   0.0000

          k = 0.2857-0.3677-0.1547 (  4782 PWs)   bands (ev):

   -10.4199  -9.3525  -7.7998  -7.1789  -1.3168  -0.8807   0.1685   1.1788
     1.6674   3.0277   3.2558   4.0151   4.3383   5.4745   6.4891   7.1785
    12.3080  13.4077  14.3426  15.4195

     occupation numbers 
     1.0000   1.0000   1.0000   1.0000   1.0000   1.0000   1.0000   1.0000
     1.0000   1.0000   1.0000   1.0000   1.0000   1.0000   1.0000   1.0000
     0.0000   0.0000   0.0000   0.0000

          k = 0.4286-0.1494-0.0000 (  4788 PWs)   bands (ev):

   -10.4893  -9.8714  -7.4094  -7.1032  -1.6598  -1.1446   0.3191   1.3716
     1.8800   3.0913   3.4764   4.4538   4.6460   6.0873   6.9397   7.1171
    12.0897  12.8372  14.3441  15.6432

     occupation numbers 
     1.0000   1.0000   1.0000   1.0000   1.0000   1.0000   1.0000   1.0000
     1.0000   1.0000   1.0000   1.0000   1.0000   1.0000   1.0000   1.0000
     0.0000   0.0000   0.0000   0.0000

          k = 0.4286-0.1494 0.2269 (  4787 PWs)   bands (ev):

   -10.2926  -9.6842  -7.8839  -7.5126  -1.0295  -0.7682   0.6976   1.3090
     1.7392   2.7460   3.4621   4.0633   4.7458   6.1273   6.9153   6.9943
    12.2592  12.8345  14.2987  15.6062

     occupation numbers 
     1.0000   1.0000   1.0000   1.0000   1.0000   1.0000   1.0000   1.0000
     1.0000   1.0000   1.0000   1.0000   1.0000   1.0000   1.0000   1.0000
     0.0000   0.0000   0.0000   0.0000

          k = 0.4286-0.1494 0.4538 (  4773 PWs)   bands (ev):

    -9.7201  -9.1655  -8.8144  -8.3520  -0.1939   0.2872   0.8135   1.6247
     1.8727   2.1526   3.0226   3.2388   5.1606   5.7988   6.8320   6.8890
    12.5179  12.9123  14.3856  15.0644

     occupation numbers 
     1.0000   1.0000   1.0000   1.0000   1.0000   1.0000   1.0000   1.0000
     1.0000   1.0000   1.0000   1.0000   1.0000   1.0000   1.0000   1.0000
     0.0000   0.0000   0.0000   0.0000

          k = 0.4286-0.1494-0.4538 (  4773 PWs)   bands (ev):

    -9.7177  -9.1540  -8.8457  -8.3339  -0.1717   0.2684   0.7952   1.6046
     1.8557   2.2053   3.0698   3.1964   5.1544   5.8054   6.8166   6.8980
    12.5292  12.9001  14.3628  15.0820

     occupation numbers 
     1.0000   1.0000   1.0000   1.0000   1.0000   1.0000   1.0000   1.0000
     1.0000   1.0000   1.0000   1.0000   1.0000   1.0000   1.0000   1.0000
     0.0000   0.0000   0.0000   0.0000

          k = 0.4286-0.1494-0.2269 (  4787 PWs)   bands (ev):

   -10.2903  -9.6867  -7.8957  -7.4995  -1.0142  -0.7743   0.6602   1.3526
     1.6748   2.7972   3.5104   4.0252   4.7360   6.1335   6.8932   7.0059
    12.2874  12.7999  14.2872  15.6259

     occupation numbers 
     1.0000   1.0000   1.0000   1.0000   1.0000   1.0000   1.0000   1.0000
     1.0000   1.0000   1.0000   1.0000   1.0000   1.0000   1.0000   1.0000
     0.0000   0.0000   0.0000   0.0000

          k = 0.4286 0.1187-0.0722 (  4782 PWs)   bands (ev):

   -10.5927  -9.3141  -7.5790  -7.0031  -1.7501  -0.7830  -0.2420   1.2922
     1.7043   2.8535   3.3152   4.0105   4.6264   5.6815   6.4580   7.4140
    12.2302  13.2772  14.0782  15.6561

     occupation numbers 
     1.0000   1.0000   1.0000   1.0000   1.0000   1.0000   1.0000   1.0000
     1.0000   1.0000   1.0000   1.0000   1.0000   1.0000   1.0000   1.0000
     0.0000   0.0000   0.0000   0.0000

          k = 0.4286 0.1187 0.1547 (  4782 PWs)   bands (ev):

   -10.4960  -9.2308  -7.8361  -7.1546  -1.3827  -0.9029   0.1583   1.0313
     1.8335   2.9214   3.3657   3.9983   4.3706   5.6214   6.4351   7.1479
    12.1845  13.5144  14.3636  15.4333

     occupation numbers 
     1.0000   1.0000   1.0000   1.0000   1.0000   1.0000   1.0000   1.0000
     1.0000   1.0000   1.0000   1.0000   1.0000   1.0000   1.0000   1.0000
     0.0000   0.0000   0.0000   0.0000

          k = 0.4286 0.1187 0.3816 (  4779 PWs)   bands (ev):

   -10.0218  -8.8987  -8.6535  -7.7687  -0.9195  -0.0576   0.2976   1.4979
     1.7205   2.5468   3.1021   3.6058   4.7298   5.4541   6.1553   7.0179
    12.0921  13.7731  14.6377  15.1624

     occupation numbers 
     1.0000   1.0000   1.0000   1.0000   1.0000   1.0000   1.0000   1.0000
     1.0000   1.0000   1.0000   1.0000   1.0000   1.0000   1.0000   1.0000
     0.0000   0.0000   0.0000   0.0000

          k = 0.4286 0.1187-0.5260 (  4770 PWs)   bands (ev):

    -9.6747  -9.2000  -8.5258  -8.1098  -0.8845  -0.0033   0.8324   1.3854
     1.8712   2.5523   2.8622   3.5629   3.9956   5.9846   6.2765   7.0897
    12.1816  13.5440  14.2131  15.4306

     occupation numbers 
     1.0000   1.0000   1.0000   1.0000   1.0000   1.0000   1.0000   1.0000
     1.0000   1.0000   1.0000   1.0000   1.0000   1.0000   1.0000   1.0000
     0.0000   0.0000   0.0000   0.0000

          k = 0.4286 0.1187-0.2991 (  4775 PWs)   bands (ev):

   -10.3031  -9.0671  -8.2451  -7.4182  -1.1721  -0.5740   0.2864   1.1835
     1.7854   2.9701   3.0683   3.8599   4.0384   5.8891   6.5221   7.3934
    12.2032  13.4461  13.7358  15.7714

     occupation numbers 
     1.0000   1.0000   1.0000   1.0000   1.0000   1.0000   1.0000   1.0000
     1.0000   1.0000   1.0000   1.0000   1.0000   1.0000   1.0000   1.0000
     0.0000   0.0000   0.0000   0.0000

          k = 0.4286 0.3868-0.1444 (  4772 PWs)   bands (ev):

   -10.3488  -8.6743  -7.7082  -7.0398  -1.7353  -0.9753  -0.1116   0.8663
     1.5268   2.2790   2.5279   3.8650   4.2228   5.4710   5.6706   7.3962
    11.9902  13.1911  14.1500  16.1448

     occupation numbers 
     1.0000   1.0000   1.0000   1.0000   1.0000   1.0000   1.0000   1.0000
     1.0000   1.0000   1.0000   1.0000   1.0000   1.0000   1.0000   1.0000
     0.0000   0.0000   0.0000   0.0000

          k = 0.4286 0.3868 0.0825 (  4774 PWs)   bands (ev):

   -10.3182  -8.6543  -7.7735  -7.0850  -1.6517  -0.9130  -0.1396   0.6839
     1.7157   2.3848   2.7161   3.8296   4.1903   5.2814   5.6256   7.0099
    11.8800  13.6307  14.5350  15.9775

     occupation numbers 
     1.0000   1.0000   1.0000   1.0000   1.0000   1.0000   1.0000   1.0000
     1.0000   1.0000   1.0000   1.0000   1.0000   1.0000   1.0000   1.0000
     0.0000   0.0000   0.0000   0.0000

          k = 0.4286 0.3868 0.3093 (  4769 PWs)   bands (ev):

    -9.9568  -8.6647  -8.2479  -7.3300  -1.6010  -0.5205  -0.0085   1.2366
     1.3432   2.4750   3.2177   3.7439   3.9463   4.8992   5.4574   6.7973
    11.7227  14.0848  14.6819  15.6153

     occupation numbers 
     1.0000   1.0000   1.0000   1.0000   1.0000   1.0000   1.0000   1.0000
     1.0000   1.0000   1.0000   1.0000   1.0000   1.0000   1.0000   1.0000
     0.0000   0.0000   0.0000   0.0000

          k = 0.4286 0.3868-0.5982 (  4779 PWs)   bands (ev):

    -9.5526  -9.1367  -8.0876  -7.5939  -1.6491  -0.2996   0.4480   1.0540
     1.2682   2.5192   3.0491   3.5901   3.9416   5.0147   5.5161   6.9351
    11.7784  13.7665  14.4397  15.7339

     occupation numbers 
     1.0000   1.0000   1.0000   1.0000   1.0000   1.0000   1.0000   1.0000
     1.0000   1.0000   1.0000   1.0000   1.0000   1.0000   1.0000   1.0000
     0.0000   0.0000   0.0000   0.0000

          k = 0.4286 0.3868-0.3713 (  4770 PWs)   bands (ev):

   -10.0461  -8.6239  -8.1660  -7.2922  -1.5967  -0.6328   0.0302   0.9180
     1.6911   2.3358   2.7035   3.6552   3.8680   5.2792   5.8843   7.3170
    11.9635  13.1183  14.1543  16.0723

     occupation numbers 
     1.0000   1.0000   1.0000   1.0000   1.0000   1.0000   1.0000   1.0000
     1.0000   1.0000   1.0000   1.0000   1.0000   1.0000   1.0000   1.0000
     0.0000   0.0000   0.0000   0.0000

          k = 0.4286-0.9537 0.2167 (  4759 PWs)   bands (ev):

   -10.0630  -8.5936  -7.6672  -7.1291  -1.7238  -1.0542  -0.0543   0.6242
     1.5861   2.1382   2.3489   3.4265   3.9580   5.2438   5.7066   7.2847
    11.6476  13.0293  13.9854  16.2995

     occupation numbers 
     1.0000   1.0000   1.0000   1.0000   1.0000   1.0000   1.0000   1.0000
     1.0000   1.0000   1.0000   1.0000   1.0000   1.0000   1.0000   1.0000
     0.0000   0.0000   0.0000   0.0000

          k = 0.4286-0.9537 0.4436 (  4770 PWs)   bands (ev):

    -9.9821  -8.4178  -7.8871  -7.3200  -1.7176  -0.8639   0.0142   0.6380
     1.6040   1.9501   2.5066   3.8349   4.0986   4.9696   5.3679   7.0675
    11.5286  13.3296  14.3319  15.9805

     occupation numbers 
     1.0000   1.0000   1.0000   1.0000   1.0000   1.0000   1.0000   1.0000
     1.0000   1.0000   1.0000   1.0000   1.0000   1.0000   1.0000   1.0000
     0.0000   0.0000   0.0000   0.0000

          k = 0.4286-0.9537 0.6704 (  4773 PWs)   bands (ev):

    -9.6829  -8.6416  -8.0676  -7.4060  -1.7629  -0.5344  -0.1708   1.1796
     1.3486   2.1257   3.0491   3.5746   4.0020   4.6184   5.2626   6.6643
    11.4442  13.9040  14.5864  15.6416

     occupation numbers 
     1.0000   1.0000   1.0000   1.0000   1.0000   1.0000   1.0000   1.0000
     1.0000   1.0000   1.0000   1.0000   1.0000   1.0000   1.0000   1.0000
     0.0000   0.0000   0.0000   0.0000

          k = 0.4286-0.9537-0.2371 (  4758 PWs)   bands (ev):

    -9.5529  -8.9232  -8.0323  -7.2702  -1.7798  -0.7170   0.4170   0.7307
     1.2398   2.5163   3.0601   3.4399   3.5203   4.7622   5.4763   6.6366
    11.5535  13.6866  14.7099  15.7044

     occupation numbers 
     1.0000   1.0000   1.0000   1.0000   1.0000   1.0000   1.0000   1.0000
     1.0000   1.0000   1.0000   1.0000   1.0000   1.0000   1.0000   1.0000
     0.0000   0.0000   0.0000   0.0000

          k = 0.4286-0.9537-0.0102 (  4754 PWs)   bands (ev):

    -9.8840  -8.7551  -7.7606  -7.1874  -1.6631  -0.7359  -0.2703   0.8387
     1.3507   2.2284   2.6312   3.4319   3.7821   5.1363   5.6818   6.9614
    11.8033  13.0575  14.2806  16.2329

     occupation numbers 
     1.0000   1.0000   1.0000   1.0000   1.0000   1.0000   1.0000   1.0000
     1.0000   1.0000   1.0000   1.0000   1.0000   1.0000   1.0000   1.0000
     0.0000   0.0000   0.0000   0.0000

          k = 0.4286-0.6856 0.1444 (  4758 PWs)   bands (ev):

   -10.0541  -9.1919  -7.5067  -7.1457  -1.5805  -0.5288  -0.3377   0.5185
     1.7662   2.4252   2.9443   3.5897   3.9099   4.9235   6.2490   7.1396
    12.0621  13.2602  13.8392  16.0677

     occupation numbers 
     1.0000   1.0000   1.0000   1.0000   1.0000   1.0000   1.0000   1.0000
     1.0000   1.0000   1.0000   1.0000   1.0000   1.0000   1.0000   1.0000
     0.0000   0.0000   0.0000   0.0000

          k = 0.4286-0.6856 0.3713 (  4770 PWs)   bands (ev):

    -9.8351  -8.8423  -8.0772  -7.5596  -1.2912  -0.6480   0.2313   0.8877
     1.8760   2.3514   2.5035   3.5254   3.9436   5.0735   5.9406   7.2009
    11.7769  13.3852  13.9372  15.8054

     occupation numbers 
     1.0000   1.0000   1.0000   1.0000   1.0000   1.0000   1.0000   1.0000
     1.0000   1.0000   1.0000   1.0000   1.0000   1.0000   1.0000   1.0000
     0.0000   0.0000   0.0000   0.0000

          k = 0.4286-0.6856 0.5982 (  4769 PWs)   bands (ev):

    -9.4446  -8.7635  -8.3539  -8.0407  -1.1632  -0.2282   0.2989   1.2310
     1.7245   2.0792   2.8989   3.2789   4.0016   5.0683   5.5545   6.8675
    11.7358  13.7754  14.2687  15.4696

     occupation numbers 
     1.0000   1.0000   1.0000   1.0000   1.0000   1.0000   1.0000   1.0000
     1.0000   1.0000   1.0000   1.0000   1.0000   1.0000   1.0000   1.0000
     0.0000   0.0000   0.0000   0.0000

          k = 0.4286-0.6856-0.3093 (  4770 PWs)   bands (ev):

    -9.6233  -9.0227  -8.2538  -7.4960  -1.1714  -0.6265   0.5563   0.9299
     1.5386   2.4305   2.8849   3.2540   3.9831   4.8273   5.7739   6.7849
    11.8839  13.5406  14.8800  15.4175

     occupation numbers 
     1.0000   1.0000   1.0000   1.0000   1.0000   1.0000   1.0000   1.0000
     1.0000   1.0000   1.0000   1.0000   1.0000   1.0000   1.0000   1.0000
     0.0000   0.0000   0.0000   0.0000

          k = 0.4286-0.6856-0.0825 (  4765 PWs)   bands (ev):

    -9.9770  -9.2399  -7.6211  -7.1270  -1.3176  -0.8404  -0.2121   0.8613
     1.6687   2.4172   2.9112   3.4028   3.8665   4.9718   6.1113   6.9671
    12.2408  13.1702  14.3007  15.9864

     occupation numbers 
     1.0000   1.0000   1.0000   1.0000   1.0000   1.0000   1.0000   1.0000
     1.0000   1.0000   1.0000   1.0000   1.0000   1.0000   1.0000   1.0000
     0.0000   0.0000   0.0000   0.0000

          k = 0.4286-0.4175 0.0722 (  4773 PWs)   bands (ev):

   -10.1235  -9.9414  -7.3123  -7.2205  -1.5086  -1.0287   0.5133   0.6995
     1.9983   2.9604   3.2925   3.9737   4.1536   5.3819   6.9318   7.2042
    12.3617  13.2316  14.1244  15.5475

     occupation numbers 
     1.0000   1.0000   1.0000   1.0000   1.0000   1.0000   1.0000   1.0000
     1.0000   1.0000   1.0000   1.0000   1.0000   1.0000   1.0000   1.0000
     0.0000   0.0000   0.0000   0.0000

          k = 0.4286-0.4175 0.2991 (  4762 PWs)   bands (ev):

    -9.8893  -9.6227  -7.9190  -7.7581  -0.9858  -0.2976   0.5314   0.9653
     2.0888   2.5530   3.3618   3.4492   3.7779   5.8877   6.8538   7.1030
    12.2173  13.3752  13.9340  15.5847

     occupation numbers 
     1.0000   1.0000   1.0000   1.0000   1.0000   1.0000   1.0000   1.0000
     1.0000   1.0000   1.0000   1.0000   1.0000   1.0000   1.0000   1.0000
     0.0000   0.0000   0.0000   0.0000

          k = 0.4286-0.4175 0.5260 (  4773 PWs)   bands (ev):

    -9.3597  -8.9678  -8.7514  -8.6275  -0.1510   0.0241   1.0611   1.1987
     1.9766   2.3778   2.6282   3.2184   3.8223   6.1150   6.5434   6.7763
    12.3550  13.6321  14.1590  15.0810

     occupation numbers 
     1.0000   1.0000   1.0000   1.0000   1.0000   1.0000   1.0000   1.0000
     1.0000   1.0000   1.0000   1.0000   1.0000   1.0000   1.0000   1.0000
     0.0000   0.0000   0.0000   0.0000

          k = 0.4286-0.4175-0.3816 (  4779 PWs)   bands (ev):

    -9.5528  -9.4382  -8.4355  -8.0985  -0.3089  -0.1908   1.0246   1.2155
     1.7357   2.0571   3.0368   3.2209   4.8609   5.1958   6.5045   6.8507
    12.4282  13.8366  14.4320  14.8063

     occupation numbers 
     1.0000   1.0000   1.0000   1.0000   1.0000   1.0000   1.0000   1.0000
     1.0000   1.0000   1.0000   1.0000   1.0000   1.0000   1.0000   1.0000
     0.0000   0.0000   0.0000   0.0000

          k = 0.4286-0.4175-0.1547 (  4789 PWs)   bands (ev):

   -10.0018  -9.8795  -7.6169  -7.3479  -1.1061  -0.9462   0.5624   1.0007
     1.9251   2.6073   3.1873   3.8586   4.4179   5.2526   6.7362   7.1173
    12.7962  13.0419  14.3678  15.2621

     occupation numbers 
     1.0000   1.0000   1.0000   1.0000   1.0000   1.0000   1.0000   1.0000
     1.0000   1.0000   1.0000   1.0000   1.0000   1.0000   1.0000   1.0000
     0.0000   0.0000   0.0000   0.0000

     the Fermi energy is     9.7591 ev

!    total energy              =    -109.58418680 Ry
     estimated scf accuracy    <          6.7E-11 Ry
     smearing contrib. (-TS)   =      -0.00000000 Ry
     internal energy E=F+TS    =    -109.58418680 Ry

     The total energy is F=E-TS. E is the sum of the following terms:
     one-electron contribution =      -8.53423627 Ry
     hartree contribution      =      24.12156391 Ry
     xc contribution           =     -37.65743928 Ry
     ewald contribution        =     -87.51407517 Ry

     convergence has been achieved in  13 iterations

     Forces acting on atoms (cartesian axes, Ry/au):

     atom    1 type  1   force =     0.00770722   -0.01296739   -0.02670648
     atom    2 type  1   force =    -0.03500347    0.00674487   -0.00384737
     atom    3 type  1   force =     0.00088284    0.02239341   -0.03386627
     atom    4 type  1   force =    -0.02817329    0.00773402   -0.00464699
     atom    5 type  2   force =     0.00712851   -0.01235834    0.01628493
     atom    6 type  2   force =     0.01977326   -0.03281648    0.00993669
     atom    7 type  2   force =     0.01707141    0.00967011    0.02495401
     atom    8 type  2   force =     0.01061353    0.01159980    0.01789148
     The non-local contrib.  to forces
     atom    1 type  1   force =     0.01192229   -0.02555026   -0.06842389
     atom    2 type  1   force =    -0.04768785    0.01857246   -0.05007818
     atom    3 type  1   force =     0.01700604    0.05509244   -0.09033180
     atom    4 type  1   force =    -0.01634539    0.03806320   -0.05876886
     atom    5 type  2   force =    -0.08208854    0.05519621    0.00246870
     atom    6 type  2   force =     0.11612638    0.01142200    0.01482521
     atom    7 type  2   force =    -0.00455390    0.04982542   -0.08350496
     atom    8 type  2   force =     0.05698119    0.03363543   -0.08100529
     The ionic contribution  to forces
     atom    1 type  1   force =     0.09532142   -0.03030900   -0.48628470
     atom    2 type  1   force =    -0.11708717    0.19214293   -0.43300262
     atom    3 type  1   force =     0.09021514    0.22199291   -0.33608902
     atom    4 type  1   force =    -0.07403185    0.15874113   -0.22264995
     atom    5 type  2   force =     0.16960583   -0.16713833    0.13182119
     atom    6 type  2   force =    -0.10765569   -0.23225003    0.05302114
     atom    7 type  2   force =     0.06727578   -0.08951699    0.67235548
     atom    8 type  2   force =    -0.12364346   -0.05366262    0.62082848
     The local contribution  to forces
     atom    1 type  1   force =    -0.09835537    0.04151411    0.52305020
     atom    2 type  1   force =     0.12695543   -0.20242861    0.47520924
     atom    3 type  1   force =    -0.10566746   -0.25084974    0.38669707
     atom    4 type  1   force =     0.06189152   -0.18654079    0.27262555
     atom    5 type  2   force =    -0.08278003    0.09983811   -0.11510443
     atom    6 type  2   force =     0.01518301    0.18571463   -0.05515510
     atom    7 type  2   force =    -0.04410215    0.05084953   -0.56236753
     atom    8 type  2   force =     0.07789852    0.03341616   -0.52075194
     The core correction contribution to forces
     atom    1 type  1   force =    -0.00118279    0.00137874    0.00495072
     atom    2 type  1   force =     0.00281473   -0.00154110    0.00402296
     atom    3 type  1   force =    -0.00067260   -0.00384156    0.00585592
     atom    4 type  1   force =     0.00031098   -0.00252887    0.00414461
     atom    5 type  2   force =     0.00238789   -0.00025348   -0.00290236
     atom    6 type  2   force =    -0.00388108    0.00229693   -0.00275663
     atom    7 type  2   force =    -0.00155087   -0.00148616   -0.00153050
     atom    8 type  2   force =    -0.00062261   -0.00178851   -0.00118144
     The Hubbard contrib.    to forces
     atom    1 type  1   force =     0.00000000    0.00000000    0.00000000
     atom    2 type  1   force =     0.00000000    0.00000000    0.00000000
     atom    3 type  1   force =     0.00000000    0.00000000    0.00000000
     atom    4 type  1   force =     0.00000000    0.00000000    0.00000000
     atom    5 type  2   force =     0.00000000    0.00000000    0.00000000
     atom    6 type  2   force =     0.00000000    0.00000000    0.00000000
     atom    7 type  2   force =     0.00000000    0.00000000    0.00000000
     atom    8 type  2   force =     0.00000000    0.00000000    0.00000000
     The SCF correction term to forces
     atom    1 type  1   force =     0.00000010   -0.00000020   -0.00000037
     atom    2 type  1   force =    -0.00000018   -0.00000003   -0.00000030
     atom    3 type  1   force =     0.00000015    0.00000013    0.00000001
     atom    4 type  1   force =    -0.00000013    0.00000013    0.00000011
     atom    5 type  2   force =     0.00000179   -0.00000008    0.00000029
     atom    6 type  2   force =    -0.00000092    0.00000075    0.00000052
     atom    7 type  2   force =     0.00000100   -0.00000091   -0.00000004
     atom    8 type  2   force =    -0.00000168    0.00000012    0.00000012

     Total force =     0.091438     Total SCF correction =     0.000003


     Computing stress (Cartesian axis) and pressure

          total   stress  (Ry/bohr**3)                   (kbar)     P=      257.11
   0.00317750  -0.00082864   0.00009651          467.43     -121.90       14.20
  -0.00082864   0.00122422  -0.00005622         -121.90      180.09       -8.27
   0.00009651  -0.00005622   0.00084177           14.20       -8.27      123.83

     kinetic stress (kbar)  18549.79    256.95    -73.20
                              256.95  19187.11   -158.10
                              -73.20   -158.10  17957.03

     local   stress (kbar)  -9055.48   7024.73  -1237.39
                             7024.73   8501.53  -3081.93
                            -1237.39  -3081.93 -11862.93

     nonloc. stress (kbar)  -2408.51      4.48      5.35
                                4.48  -2397.20     11.96
                                5.35     11.96  -2321.92

     hartree stress (kbar)   4333.37  -1895.48    328.76
                            -1895.48   -407.02    886.79
                              328.76    886.79   5060.77

     exc-cor stress (kbar)   -989.35    -25.47      4.61
                              -25.47  -1053.21     10.13
                                4.61     10.13   -977.89

     corecor stress (kbar)  -2924.94     13.68     -2.54
                               13.68  -2890.40     -3.88
                               -2.54     -3.88  -2923.79

     ewald   stress (kbar)  -7037.46  -5500.80    988.61
                            -5500.80 -20760.72   2326.76
                              988.61   2326.76  -4807.45

     hubbard stress (kbar)      0.00      0.00      0.00
                                0.00      0.00      0.00
                                0.00      0.00      0.00

     DFT-D   stress (kbar)      0.00      0.00      0.00
                                0.00      0.00      0.00
                                0.00      0.00      0.00

     XDM     stress (kbar)      0.00      0.00      0.00
                                0.00      0.00      0.00
                                0.00      0.00      0.00

     dft-nl  stress (kbar)      0.00      0.00      0.00
                                0.00      0.00      0.00
                                0.00      0.00      0.00

     TS-vdW  stress (kbar)      0.00      0.00      0.00
                                0.00      0.00      0.00
                                0.00      0.00      0.00



     init_run     :      1.11s CPU      1.25s WALL (       1 calls)
     electrons    :     25.66s CPU     26.89s WALL (       1 calls)
     forces       :      0.37s CPU      0.38s WALL (       1 calls)
     stress       :      1.69s CPU      1.81s WALL (       1 calls)

     Called by init_run:
     wfcinit      :      0.79s CPU      0.88s WALL (       1 calls)
     wfcinit:atom :      0.01s CPU      0.01s WALL (     106 calls)
     wfcinit:wfcr :      0.70s CPU      0.79s WALL (     106 calls)
     potinit      :      0.11s CPU      0.11s WALL (       1 calls)
     hinit0       :      0.20s CPU      0.23s WALL (       1 calls)

     Called by electrons:
     c_bands      :     22.32s CPU     23.37s WALL (      13 calls)
     sum_band     :      3.08s CPU      3.25s WALL (      13 calls)
     v_of_rho     :      0.11s CPU      0.11s WALL (      14 calls)
     v_h          :      0.01s CPU      0.01s WALL (      14 calls)
     v_xc         :      0.12s CPU      0.12s WALL (      16 calls)
     newd         :      0.07s CPU      0.08s WALL (      14 calls)
     mix_rho      :      0.02s CPU      0.02s WALL (      13 calls)

     Called by c_bands:
     init_us_2    :      0.65s CPU      0.68s WALL (    3074 calls)
     cegterg      :     21.18s CPU     22.19s WALL (    1378 calls)

     Called by sum_band:
     sum_band:wei :      0.00s CPU      0.00s WALL (      13 calls)
     sum_band:loo :      3.00s CPU      3.16s WALL (      13 calls)
     sum_band:buf :      0.09s CPU      0.09s WALL (    1378 calls)
     sum_band:ini :      0.26s CPU      0.27s WALL (    1378 calls)
     sum_band:cal :      0.35s CPU      0.37s WALL (    1378 calls)
     sum_band:bec :      0.01s CPU      0.01s WALL (    1378 calls)
     addusdens    :      0.07s CPU      0.07s WALL (      13 calls)
     addusd:skk   :      0.00s CPU      0.00s WALL (      13 calls)
     addusd:dgemm :      0.03s CPU      0.03s WALL (      13 calls)
     addusd:qvan2 :      0.03s CPU      0.03s WALL (      13 calls)

     Called by *egterg:
     cdiaghg      :      2.04s CPU      2.32s WALL (    5584 calls)
     cegterg:over :      1.25s CPU      1.29s WALL (    4206 calls)
     cegterg:upda :      0.42s CPU      0.43s WALL (    4206 calls)
     cegterg:last :      0.72s CPU      0.73s WALL (    3159 calls)
     h_psi        :     16.02s CPU     16.74s WALL (    5690 calls)
     s_psi        :      0.55s CPU      0.57s WALL (    5690 calls)
     g_psi        :      0.07s CPU      0.07s WALL (    4206 calls)

     Called by h_psi:
     h_psi:calbec :      1.59s CPU      1.67s WALL (    5690 calls)
     vloc_psi     :     13.38s CPU     13.98s WALL (    5690 calls)
     add_vuspsi   :      0.84s CPU      0.88s WALL (    5690 calls)

     General routines
     calbec       :      2.72s CPU      2.93s WALL (    7598 calls)
     fft          :      0.07s CPU      0.09s WALL (     205 calls)
     ffts         :      0.00s CPU      0.01s WALL (      27 calls)
     fftw         :     13.76s CPU     14.40s WALL (  196128 calls)
     interpolate  :      0.01s CPU      0.01s WALL (      14 calls)

     Parallel routines
     fft_scatt_xy :      1.85s CPU      1.91s WALL (  196360 calls)
     fft_scatt_yz :      4.27s CPU      4.46s WALL (  196360 calls)

     PWSCF        :     28.93s CPU     30.56s WALL


   This run was terminated on:  21: 0:11  28Sep2022            

=------------------------------------------------------------------------------=
   JOB DONE.
=------------------------------------------------------------------------------=
Note: The following floating-point exceptions are signalling: IEEE_UNDERFLOW_FLAG IEEE_DENORMAL
