
     Program PWSCF v.6.7MaX starts on 19Dec2022 at  2: 1:27 

     This program is part of the open-source Quantum ESPRESSO suite
     for quantum simulation of materials; please cite
         "P. Giannozzi et al., J. Phys.:Condens. Matter 21 395502 (2009);
         "P. Giannozzi et al., J. Phys.:Condens. Matter 29 465901 (2017);
          URL http://www.quantum-espresso.org", 
     in publications or presentations arising from this work. More details at
     http://www.quantum-espresso.org/quote

     Parallel version (MPI), running on    24 processors

     MPI processes distributed on     1 nodes
     R & G space division:  proc/nbgrp/npool/nimage =      24
     Reading input from scale_2dab-01.in

     Current dimensions of program PWSCF are:
     Max number of different atomic species (ntypx) = 10
     Max number of k-points (npk) =  40000
     Max angular momentum in pseudopotentials (lmaxx) =  3
     Message from routine read_pp_mesh:
     mesh size missing, using the one in header
     file Fe.pbe-spn-kjpaw_psl.0.2.1.UPF: wavefunction(s)  3D renormalized
     file O.pbe-n-kjpaw_psl.0.1.UPF: wavefunction(s)  2P renormalized

     Subspace diagonalization in iterative solution of the eigenvalue problem:
     a serial algorithm will be used


     Parallelization info
     --------------------
     sticks:   dense  smooth     PW     G-vecs:    dense   smooth      PW
     Min         773     287     77                50417    11365    1601
     Max         774     288     78                50419    11367    1604
     Sum       18565    6893   1859              1210029   272791   38441



     bravais-lattice index     =            0
     lattice parameter (alat)  =      19.0096  a.u.
     unit-cell volume          =    2018.7343 (a.u.)^3
     number of atoms/cell      =           25
     number of atomic types    =            4
     number of electrons       =       189.00
     number of Kohn-Sham states=          114
     kinetic-energy cutoff     =     100.0000  Ry
     charge density cutoff     =    1080.0000  Ry
     scf convergence threshold =      2.0E-10
     mixing beta               =       0.4000
     number of iterations used =            8  plain     mixing
     Exchange-correlation= PBE
                           (   1   4   3   4   0   0   0)

     celldm(1)=  19.009555  celldm(2)=   0.000000  celldm(3)=   0.000000
     celldm(4)=   0.000000  celldm(5)=   0.000000  celldm(6)=   0.000000

     crystal axes: (cart. coord. in units of alat)
               a(1) = (   1.000000   0.000000   0.000000 )  
               a(2) = (   0.000000   0.597590   0.000000 )  
               a(3) = (   0.000000   0.000000   0.491768 )  

     reciprocal axes: (cart. coord. in units 2 pi/alat)
               b(1) = (  1.000000  0.000000  0.000000 )  
               b(2) = (  0.000000  1.673388  0.000000 )  
               b(3) = (  0.000000  0.000000  2.033480 )  


     PseudoPot. # 1 for Fe read from file:
     /opt/QEpot/SSSP_precision_pseudos/Fe.pbe-spn-kjpaw_psl.0.2.1.UPF
     MD5 check sum: e86618425769142926afa95317d90200
     Pseudo is Projector augmented-wave + core cor, Zval = 16.0
     Generated using "atomic" code by A. Dal Corso  v.5.0.99 svn rev. 10869
     Shape of augmentation charge: PSQ
     Using radial grid of 1191 points,  6 beta functions with: 
                l(1) =   0
                l(2) =   0
                l(3) =   1
                l(4) =   1
                l(5) =   2
                l(6) =   2
     Q(r) pseudized with 0 coefficients 


     PseudoPot. # 2 for Na read from file:
     /opt/QEpot/SSSP_precision_pseudos/Na_ONCV_PBE-1.0.oncvpsp.upf
     MD5 check sum: 24a298df0a6742ae313db96548fdb2a4
     Pseudo is Norm-conserving, Zval =  9.0
     Generated using ONCVPSP code by D. R. Hamann
     Using radial grid of 1992 points,  4 beta functions with: 
                l(1) =   0
                l(2) =   0
                l(3) =   1
                l(4) =   1

     PseudoPot. # 3 for O  read from file:
     /opt/QEpot/SSSP_precision_pseudos/O.pbe-n-kjpaw_psl.0.1.UPF
     MD5 check sum: 0234752ac141de4415c5fc33072bef88
     Pseudo is Projector augmented-wave + core cor, Zval =  6.0
     Generated using "atomic" code by A. Dal Corso  v.5.0.99 svn rev. 10869
     Shape of augmentation charge: BESSEL
     Using radial grid of 1095 points,  4 beta functions with: 
                l(1) =   0
                l(2) =   0
                l(3) =   1
                l(4) =   1
     Q(r) pseudized with 0 coefficients 


     PseudoPot. # 4 for P  read from file:
     /opt/QEpot/SSSP_precision_pseudos/P.pbe-n-rrkjus_psl.1.0.0.UPF
     MD5 check sum: 8b930f418f0a4573dca56cd030ffe088
     Pseudo is Ultrasoft + core correction, Zval =  5.0
     Generated using "atomic" code by A. Dal Corso  v.5.1
     Using radial grid of 1147 points,  6 beta functions with: 
                l(1) =   0
                l(2) =   0
                l(3) =   1
                l(4) =   1
                l(5) =   2
                l(6) =   2
     Q(r) pseudized with 0 coefficients 


     atomic species   valence    mass     pseudopotential
        Fe            16.00    55.84500     Fe( 1.00)
        Na             9.00    22.98977     Na( 1.00)
        O              6.00    15.99940     O ( 1.00)
        P              5.00    30.97376     P ( 1.00)

     Starting magnetic structure 
     atomic species   magnetization
        Fe           0.312
        Na           0.000
        O            0.000
        P            0.000

     No symmetry found


                                    s                        frac. trans.

      isym =  1     identity                                     

 cryst.   s( 1) = (     1          0          0      )
                  (     0          1          0      )
                  (     0          0          1      )

 cart.    s( 1) = (  1.0000000  0.0000000  0.0000000 )
                  (  0.0000000  1.0000000  0.0000000 )
                  (  0.0000000  0.0000000  1.0000000 )


   Cartesian axes

     site n.     atom                  positions (alat units)
         1           Na  tau(   1) = (   0.5426070   0.2128436   0.2293983  )
         2           Fe  tau(   2) = (   0.2774940   0.4470463   0.4879384  )
         3           Fe  tau(   3) = (   0.2102570   0.1474894   0.2412514  )
         4           Fe  tau(   4) = (   0.7280950   0.1429740   0.0019931  )
         5           Fe  tau(   5) = (   0.7825800   0.4492579   0.2517615  )
         6           P   tau(   6) = (   0.1059480   0.4466847   0.2183832  )
         7           P   tau(   7) = (   0.3878490   0.1453225   0.4639062  )
         8           P   tau(   8) = (   0.8915560   0.1489463   0.2739540  )
         9           P   tau(   9) = (   0.6054980   0.4477962   0.0294692  )
        10           O   tau(  10) = (   0.1317880   0.4455690   0.3693554  )
        11           O   tau(  11) = (   0.3634070   0.1482621   0.1233826  )
        12           O   tau(  12) = (   0.8709790   0.1483487   0.1223454  )
        13           O   tau(  13) = (   0.6302560   0.4446272   0.3699731  )
        14           O   tau(  14) = (   0.4595490   0.4446744   0.0596652  )
        15           O   tau(  15) = (   0.0359180   0.1497602   0.3079627  )
        16           O   tau(  16) = (   0.5363260   0.1462476   0.4407798  )
        17           O   tau(  17) = (   0.9593080   0.4466351   0.1918175  )
        18           O   tau(  18) = (   0.1746370   0.5639193   0.1481308  )
        19           O   tau(  19) = (   0.3201300   0.0290638   0.3937334  )
        20           O   tau(  20) = (   0.8159810   0.2631643   0.3421509  )
        21           O   tau(  21) = (   0.6759000   0.3315447   0.1014453  )
        22           O   tau(  22) = (   0.8190690   0.0322555   0.3425807  )
        23           O   tau(  23) = (   0.6753190   0.5647093   0.0998387  )
        24           O   tau(  24) = (   0.1755980   0.3306919   0.1468571  )
        25           O   tau(  25) = (   0.3240220   0.2622243   0.3890616  )

   Crystallographic axes

     site n.     atom                  positions (cryst. coord.)
         1           Na  tau(   1) = (  0.5426070  0.3561700  0.4664770  )
         2           Fe  tau(   2) = (  0.2774940  0.7480820  0.9922130  )
         3           Fe  tau(   3) = (  0.2102570  0.2468070  0.4905800  )
         4           Fe  tau(   4) = (  0.7280950  0.2392510  0.0040530  )
         5           Fe  tau(   5) = (  0.7825800  0.7517830  0.5119520  )
         6           P   tau(   6) = (  0.1059480  0.7474770  0.4440780  )
         7           P   tau(   7) = (  0.3878490  0.2431810  0.9433440  )
         8           P   tau(   8) = (  0.8915560  0.2492450  0.5570800  )
         9           P   tau(   9) = (  0.6054980  0.7493370  0.0599250  )
        10           O   tau(  10) = (  0.1317880  0.7456100  0.7510770  )
        11           O   tau(  11) = (  0.3634070  0.2481000  0.2508960  )
        12           O   tau(  12) = (  0.8709790  0.2482450  0.2487870  )
        13           O   tau(  13) = (  0.6302560  0.7440340  0.7523330  )
        14           O   tau(  14) = (  0.4595490  0.7441130  0.1213280  )
        15           O   tau(  15) = (  0.0359180  0.2506070  0.6262360  )
        16           O   tau(  16) = (  0.5363260  0.2447290  0.8963170  )
        17           O   tau(  17) = (  0.9593080  0.7473940  0.3900570  )
        18           O   tau(  18) = (  0.1746370  0.9436560  0.3012210  )
        19           O   tau(  19) = (  0.3201300  0.0486350  0.8006490  )
        20           O   tau(  20) = (  0.8159810  0.4403760  0.6957570  )
        21           O   tau(  21) = (  0.6759000  0.5548030  0.2062870  )
        22           O   tau(  22) = (  0.8190690  0.0539760  0.6966310  )
        23           O   tau(  23) = (  0.6753190  0.9449780  0.2030200  )
        24           O   tau(  24) = (  0.1755980  0.5533760  0.2986310  )
        25           O   tau(  25) = (  0.3240220  0.4388030  0.7911490  )

     number of k points=   158  Marzari-Vanderbilt smearing, width (Ry)=  0.0073
                       cart. coord. in units 2pi/alat
        k(    1) = (   0.0000000   0.0000000   0.0000000), wk =   0.0031746
        k(    2) = (   0.0000000   0.0000000   0.2259422), wk =   0.0063492
        k(    3) = (   0.0000000   0.0000000   0.4518845), wk =   0.0063492
        k(    4) = (   0.0000000   0.0000000   0.6778267), wk =   0.0063492
        k(    5) = (   0.0000000   0.0000000   0.9037690), wk =   0.0063492
        k(    6) = (   0.0000000   0.2390555   0.0000000), wk =   0.0063492
        k(    7) = (   0.0000000   0.2390555   0.2259422), wk =   0.0063492
        k(    8) = (   0.0000000   0.2390555   0.4518845), wk =   0.0063492
        k(    9) = (   0.0000000   0.2390555   0.6778267), wk =   0.0063492
        k(   10) = (   0.0000000   0.2390555   0.9037690), wk =   0.0063492
        k(   11) = (   0.0000000   0.4781110   0.0000000), wk =   0.0063492
        k(   12) = (   0.0000000   0.4781110   0.2259422), wk =   0.0063492
        k(   13) = (   0.0000000   0.4781110   0.4518845), wk =   0.0063492
        k(   14) = (   0.0000000   0.4781110   0.6778267), wk =   0.0063492
        k(   15) = (   0.0000000   0.4781110   0.9037690), wk =   0.0063492
        k(   16) = (   0.0000000   0.7171664   0.0000000), wk =   0.0063492
        k(   17) = (   0.0000000   0.7171664   0.2259422), wk =   0.0063492
        k(   18) = (   0.0000000   0.7171664   0.4518845), wk =   0.0063492
        k(   19) = (   0.0000000   0.7171664   0.6778267), wk =   0.0063492
        k(   20) = (   0.0000000   0.7171664   0.9037690), wk =   0.0063492
        k(   21) = (   0.2000000   0.0000000   0.0000000), wk =   0.0063492
        k(   22) = (   0.2000000   0.0000000   0.2259422), wk =   0.0063492
        k(   23) = (   0.2000000   0.0000000   0.4518845), wk =   0.0063492
        k(   24) = (   0.2000000   0.0000000   0.6778267), wk =   0.0063492
        k(   25) = (   0.2000000   0.0000000   0.9037690), wk =   0.0063492
        k(   26) = (   0.2000000   0.2390555   0.0000000), wk =   0.0063492
        k(   27) = (   0.2000000   0.2390555   0.2259422), wk =   0.0063492
        k(   28) = (   0.2000000   0.2390555   0.4518845), wk =   0.0063492
        k(   29) = (   0.2000000   0.2390555   0.6778267), wk =   0.0063492
        k(   30) = (   0.2000000   0.2390555   0.9037690), wk =   0.0063492
        k(   31) = (   0.2000000   0.4781110   0.0000000), wk =   0.0063492
        k(   32) = (   0.2000000   0.4781110   0.2259422), wk =   0.0063492
        k(   33) = (   0.2000000   0.4781110   0.4518845), wk =   0.0063492
        k(   34) = (   0.2000000   0.4781110   0.6778267), wk =   0.0063492
        k(   35) = (   0.2000000   0.4781110   0.9037690), wk =   0.0063492
        k(   36) = (   0.2000000   0.7171664   0.0000000), wk =   0.0063492
        k(   37) = (   0.2000000   0.7171664   0.2259422), wk =   0.0063492
        k(   38) = (   0.2000000   0.7171664   0.4518845), wk =   0.0063492
        k(   39) = (   0.2000000   0.7171664   0.6778267), wk =   0.0063492
        k(   40) = (   0.2000000   0.7171664   0.9037690), wk =   0.0063492
        k(   41) = (   0.4000000   0.0000000   0.0000000), wk =   0.0063492
        k(   42) = (   0.4000000   0.0000000   0.2259422), wk =   0.0063492
        k(   43) = (   0.4000000   0.0000000   0.4518845), wk =   0.0063492
        k(   44) = (   0.4000000   0.0000000   0.6778267), wk =   0.0063492
        k(   45) = (   0.4000000   0.0000000   0.9037690), wk =   0.0063492
        k(   46) = (   0.4000000   0.2390555   0.0000000), wk =   0.0063492
        k(   47) = (   0.4000000   0.2390555   0.2259422), wk =   0.0063492
        k(   48) = (   0.4000000   0.2390555   0.4518845), wk =   0.0063492
        k(   49) = (   0.4000000   0.2390555   0.6778267), wk =   0.0063492
        k(   50) = (   0.4000000   0.2390555   0.9037690), wk =   0.0063492
        k(   51) = (   0.4000000   0.4781110   0.0000000), wk =   0.0063492
        k(   52) = (   0.4000000   0.4781110   0.2259422), wk =   0.0063492
        k(   53) = (   0.4000000   0.4781110   0.4518845), wk =   0.0063492
        k(   54) = (   0.4000000   0.4781110   0.6778267), wk =   0.0063492
        k(   55) = (   0.4000000   0.4781110   0.9037690), wk =   0.0063492
        k(   56) = (   0.4000000   0.7171664   0.0000000), wk =   0.0063492
        k(   57) = (   0.4000000   0.7171664   0.2259422), wk =   0.0063492
        k(   58) = (   0.4000000   0.7171664   0.4518845), wk =   0.0063492
        k(   59) = (   0.4000000   0.7171664   0.6778267), wk =   0.0063492
        k(   60) = (   0.4000000   0.7171664   0.9037690), wk =   0.0063492
        k(   61) = (   0.0000000  -0.2390555   0.2259422), wk =   0.0063492
        k(   62) = (   0.0000000  -0.2390555   0.4518845), wk =   0.0063492
        k(   63) = (   0.0000000  -0.2390555   0.6778267), wk =   0.0063492
        k(   64) = (   0.0000000  -0.2390555   0.9037690), wk =   0.0063492
        k(   65) = (   0.0000000  -0.4781110   0.2259422), wk =   0.0063492
        k(   66) = (   0.0000000  -0.4781110   0.4518845), wk =   0.0063492
        k(   67) = (   0.0000000  -0.4781110   0.6778267), wk =   0.0063492
        k(   68) = (   0.0000000  -0.4781110   0.9037690), wk =   0.0063492
        k(   69) = (   0.0000000  -0.7171664   0.2259422), wk =   0.0063492
        k(   70) = (   0.0000000  -0.7171664   0.4518845), wk =   0.0063492
        k(   71) = (   0.0000000  -0.7171664   0.6778267), wk =   0.0063492
        k(   72) = (   0.0000000  -0.7171664   0.9037690), wk =   0.0063492
        k(   73) = (  -0.2000000   0.0000000   0.2259422), wk =   0.0063492
        k(   74) = (  -0.2000000   0.0000000   0.4518845), wk =   0.0063492
        k(   75) = (  -0.2000000   0.0000000   0.6778267), wk =   0.0063492
        k(   76) = (  -0.2000000   0.0000000   0.9037690), wk =   0.0063492
        k(   77) = (  -0.2000000   0.2390555   0.0000000), wk =   0.0063492
        k(   78) = (  -0.2000000  -0.2390555   0.2259422), wk =   0.0063492
        k(   79) = (  -0.2000000   0.2390555  -0.2259422), wk =   0.0063492
        k(   80) = (   0.2000000  -0.2390555  -0.2259422), wk =   0.0063492
        k(   81) = (  -0.2000000  -0.2390555   0.4518845), wk =   0.0063492
        k(   82) = (  -0.2000000   0.2390555  -0.4518845), wk =   0.0063492
        k(   83) = (   0.2000000  -0.2390555  -0.4518845), wk =   0.0063492
        k(   84) = (  -0.2000000  -0.2390555   0.6778267), wk =   0.0063492
        k(   85) = (  -0.2000000   0.2390555  -0.6778267), wk =   0.0063492
        k(   86) = (   0.2000000  -0.2390555  -0.6778267), wk =   0.0063492
        k(   87) = (  -0.2000000  -0.2390555   0.9037690), wk =   0.0063492
        k(   88) = (  -0.2000000   0.2390555  -0.9037690), wk =   0.0063492
        k(   89) = (   0.2000000  -0.2390555  -0.9037690), wk =   0.0063492
        k(   90) = (  -0.2000000   0.4781110   0.0000000), wk =   0.0063492
        k(   91) = (  -0.2000000  -0.4781110   0.2259422), wk =   0.0063492
        k(   92) = (  -0.2000000   0.4781110  -0.2259422), wk =   0.0063492
        k(   93) = (   0.2000000  -0.4781110  -0.2259422), wk =   0.0063492
        k(   94) = (  -0.2000000  -0.4781110   0.4518845), wk =   0.0063492
        k(   95) = (  -0.2000000   0.4781110  -0.4518845), wk =   0.0063492
        k(   96) = (   0.2000000  -0.4781110  -0.4518845), wk =   0.0063492
        k(   97) = (  -0.2000000  -0.4781110   0.6778267), wk =   0.0063492
        k(   98) = (  -0.2000000   0.4781110  -0.6778267), wk =   0.0063492
        k(   99) = (   0.2000000  -0.4781110  -0.6778267), wk =   0.0063492
        k(  100) = (  -0.2000000  -0.4781110   0.9037690), wk =   0.0063492
        k(  101) = (  -0.2000000   0.4781110  -0.9037690), wk =   0.0063492
        k(  102) = (   0.2000000  -0.4781110  -0.9037690), wk =   0.0063492
        k(  103) = (  -0.2000000   0.7171664   0.0000000), wk =   0.0063492
        k(  104) = (  -0.2000000  -0.7171664   0.2259422), wk =   0.0063492
        k(  105) = (  -0.2000000   0.7171664  -0.2259422), wk =   0.0063492
        k(  106) = (   0.2000000  -0.7171664  -0.2259422), wk =   0.0063492
        k(  107) = (  -0.2000000  -0.7171664   0.4518845), wk =   0.0063492
        k(  108) = (  -0.2000000   0.7171664  -0.4518845), wk =   0.0063492
        k(  109) = (   0.2000000  -0.7171664  -0.4518845), wk =   0.0063492
        k(  110) = (  -0.2000000  -0.7171664   0.6778267), wk =   0.0063492
        k(  111) = (  -0.2000000   0.7171664  -0.6778267), wk =   0.0063492
        k(  112) = (   0.2000000  -0.7171664  -0.6778267), wk =   0.0063492
        k(  113) = (  -0.2000000  -0.7171664   0.9037690), wk =   0.0063492
        k(  114) = (  -0.2000000   0.7171664  -0.9037690), wk =   0.0063492
        k(  115) = (   0.2000000  -0.7171664  -0.9037690), wk =   0.0063492
        k(  116) = (  -0.4000000   0.0000000   0.2259422), wk =   0.0063492
        k(  117) = (  -0.4000000   0.0000000   0.4518845), wk =   0.0063492
        k(  118) = (  -0.4000000   0.0000000   0.6778267), wk =   0.0063492
        k(  119) = (  -0.4000000   0.0000000   0.9037690), wk =   0.0063492
        k(  120) = (  -0.4000000   0.2390555   0.0000000), wk =   0.0063492
        k(  121) = (  -0.4000000  -0.2390555   0.2259422), wk =   0.0063492
        k(  122) = (  -0.4000000   0.2390555  -0.2259422), wk =   0.0063492
        k(  123) = (   0.4000000  -0.2390555  -0.2259422), wk =   0.0063492
        k(  124) = (  -0.4000000  -0.2390555   0.4518845), wk =   0.0063492
        k(  125) = (  -0.4000000   0.2390555  -0.4518845), wk =   0.0063492
        k(  126) = (   0.4000000  -0.2390555  -0.4518845), wk =   0.0063492
        k(  127) = (  -0.4000000  -0.2390555   0.6778267), wk =   0.0063492
        k(  128) = (  -0.4000000   0.2390555  -0.6778267), wk =   0.0063492
        k(  129) = (   0.4000000  -0.2390555  -0.6778267), wk =   0.0063492
        k(  130) = (  -0.4000000  -0.2390555   0.9037690), wk =   0.0063492
        k(  131) = (  -0.4000000   0.2390555  -0.9037690), wk =   0.0063492
        k(  132) = (   0.4000000  -0.2390555  -0.9037690), wk =   0.0063492
        k(  133) = (  -0.4000000   0.4781110   0.0000000), wk =   0.0063492
        k(  134) = (  -0.4000000  -0.4781110   0.2259422), wk =   0.0063492
        k(  135) = (  -0.4000000   0.4781110  -0.2259422), wk =   0.0063492
        k(  136) = (   0.4000000  -0.4781110  -0.2259422), wk =   0.0063492
        k(  137) = (  -0.4000000  -0.4781110   0.4518845), wk =   0.0063492
        k(  138) = (  -0.4000000   0.4781110  -0.4518845), wk =   0.0063492
        k(  139) = (   0.4000000  -0.4781110  -0.4518845), wk =   0.0063492
        k(  140) = (  -0.4000000  -0.4781110   0.6778267), wk =   0.0063492
        k(  141) = (  -0.4000000   0.4781110  -0.6778267), wk =   0.0063492
        k(  142) = (   0.4000000  -0.4781110  -0.6778267), wk =   0.0063492
        k(  143) = (  -0.4000000  -0.4781110   0.9037690), wk =   0.0063492
        k(  144) = (  -0.4000000   0.4781110  -0.9037690), wk =   0.0063492
        k(  145) = (   0.4000000  -0.4781110  -0.9037690), wk =   0.0063492
        k(  146) = (  -0.4000000   0.7171664   0.0000000), wk =   0.0063492
        k(  147) = (  -0.4000000  -0.7171664   0.2259422), wk =   0.0063492
        k(  148) = (  -0.4000000   0.7171664  -0.2259422), wk =   0.0063492
        k(  149) = (   0.4000000  -0.7171664  -0.2259422), wk =   0.0063492
        k(  150) = (  -0.4000000  -0.7171664   0.4518845), wk =   0.0063492
        k(  151) = (  -0.4000000   0.7171664  -0.4518845), wk =   0.0063492
        k(  152) = (   0.4000000  -0.7171664  -0.4518845), wk =   0.0063492
        k(  153) = (  -0.4000000  -0.7171664   0.6778267), wk =   0.0063492
        k(  154) = (  -0.4000000   0.7171664  -0.6778267), wk =   0.0063492
        k(  155) = (   0.4000000  -0.7171664  -0.6778267), wk =   0.0063492
        k(  156) = (  -0.4000000  -0.7171664   0.9037690), wk =   0.0063492
        k(  157) = (  -0.4000000   0.7171664  -0.9037690), wk =   0.0063492
        k(  158) = (   0.4000000  -0.7171664  -0.9037690), wk =   0.0063492

                       cryst. coord.
        k(    1) = (   0.0000000   0.0000000   0.0000000), wk =   0.0031746
        k(    2) = (   0.0000000   0.0000000   0.1111111), wk =   0.0063492
        k(    3) = (   0.0000000   0.0000000   0.2222222), wk =   0.0063492
        k(    4) = (   0.0000000   0.0000000   0.3333333), wk =   0.0063492
        k(    5) = (   0.0000000   0.0000000   0.4444444), wk =   0.0063492
        k(    6) = (   0.0000000   0.1428571   0.0000000), wk =   0.0063492
        k(    7) = (   0.0000000   0.1428571   0.1111111), wk =   0.0063492
        k(    8) = (   0.0000000   0.1428571   0.2222222), wk =   0.0063492
        k(    9) = (   0.0000000   0.1428571   0.3333333), wk =   0.0063492
        k(   10) = (   0.0000000   0.1428571   0.4444444), wk =   0.0063492
        k(   11) = (   0.0000000   0.2857143   0.0000000), wk =   0.0063492
        k(   12) = (   0.0000000   0.2857143   0.1111111), wk =   0.0063492
        k(   13) = (   0.0000000   0.2857143   0.2222222), wk =   0.0063492
        k(   14) = (   0.0000000   0.2857143   0.3333333), wk =   0.0063492
        k(   15) = (   0.0000000   0.2857143   0.4444444), wk =   0.0063492
        k(   16) = (   0.0000000   0.4285714   0.0000000), wk =   0.0063492
        k(   17) = (   0.0000000   0.4285714   0.1111111), wk =   0.0063492
        k(   18) = (   0.0000000   0.4285714   0.2222222), wk =   0.0063492
        k(   19) = (   0.0000000   0.4285714   0.3333333), wk =   0.0063492
        k(   20) = (   0.0000000   0.4285714   0.4444444), wk =   0.0063492
        k(   21) = (   0.2000000   0.0000000   0.0000000), wk =   0.0063492
        k(   22) = (   0.2000000   0.0000000   0.1111111), wk =   0.0063492
        k(   23) = (   0.2000000   0.0000000   0.2222222), wk =   0.0063492
        k(   24) = (   0.2000000   0.0000000   0.3333333), wk =   0.0063492
        k(   25) = (   0.2000000   0.0000000   0.4444444), wk =   0.0063492
        k(   26) = (   0.2000000   0.1428571   0.0000000), wk =   0.0063492
        k(   27) = (   0.2000000   0.1428571   0.1111111), wk =   0.0063492
        k(   28) = (   0.2000000   0.1428571   0.2222222), wk =   0.0063492
        k(   29) = (   0.2000000   0.1428571   0.3333333), wk =   0.0063492
        k(   30) = (   0.2000000   0.1428571   0.4444444), wk =   0.0063492
        k(   31) = (   0.2000000   0.2857143   0.0000000), wk =   0.0063492
        k(   32) = (   0.2000000   0.2857143   0.1111111), wk =   0.0063492
        k(   33) = (   0.2000000   0.2857143   0.2222222), wk =   0.0063492
        k(   34) = (   0.2000000   0.2857143   0.3333333), wk =   0.0063492
        k(   35) = (   0.2000000   0.2857143   0.4444444), wk =   0.0063492
        k(   36) = (   0.2000000   0.4285714   0.0000000), wk =   0.0063492
        k(   37) = (   0.2000000   0.4285714   0.1111111), wk =   0.0063492
        k(   38) = (   0.2000000   0.4285714   0.2222222), wk =   0.0063492
        k(   39) = (   0.2000000   0.4285714   0.3333333), wk =   0.0063492
        k(   40) = (   0.2000000   0.4285714   0.4444444), wk =   0.0063492
        k(   41) = (   0.4000000   0.0000000   0.0000000), wk =   0.0063492
        k(   42) = (   0.4000000   0.0000000   0.1111111), wk =   0.0063492
        k(   43) = (   0.4000000   0.0000000   0.2222222), wk =   0.0063492
        k(   44) = (   0.4000000   0.0000000   0.3333333), wk =   0.0063492
        k(   45) = (   0.4000000   0.0000000   0.4444444), wk =   0.0063492
        k(   46) = (   0.4000000   0.1428571   0.0000000), wk =   0.0063492
        k(   47) = (   0.4000000   0.1428571   0.1111111), wk =   0.0063492
        k(   48) = (   0.4000000   0.1428571   0.2222222), wk =   0.0063492
        k(   49) = (   0.4000000   0.1428571   0.3333333), wk =   0.0063492
        k(   50) = (   0.4000000   0.1428571   0.4444444), wk =   0.0063492
        k(   51) = (   0.4000000   0.2857143   0.0000000), wk =   0.0063492
        k(   52) = (   0.4000000   0.2857143   0.1111111), wk =   0.0063492
        k(   53) = (   0.4000000   0.2857143   0.2222222), wk =   0.0063492
        k(   54) = (   0.4000000   0.2857143   0.3333333), wk =   0.0063492
        k(   55) = (   0.4000000   0.2857143   0.4444444), wk =   0.0063492
        k(   56) = (   0.4000000   0.4285714   0.0000000), wk =   0.0063492
        k(   57) = (   0.4000000   0.4285714   0.1111111), wk =   0.0063492
        k(   58) = (   0.4000000   0.4285714   0.2222222), wk =   0.0063492
        k(   59) = (   0.4000000   0.4285714   0.3333333), wk =   0.0063492
        k(   60) = (   0.4000000   0.4285714   0.4444444), wk =   0.0063492
        k(   61) = (   0.0000000  -0.1428571   0.1111111), wk =   0.0063492
        k(   62) = (   0.0000000  -0.1428571   0.2222222), wk =   0.0063492
        k(   63) = (   0.0000000  -0.1428571   0.3333333), wk =   0.0063492
        k(   64) = (   0.0000000  -0.1428571   0.4444444), wk =   0.0063492
        k(   65) = (   0.0000000  -0.2857143   0.1111111), wk =   0.0063492
        k(   66) = (   0.0000000  -0.2857143   0.2222222), wk =   0.0063492
        k(   67) = (   0.0000000  -0.2857143   0.3333333), wk =   0.0063492
        k(   68) = (   0.0000000  -0.2857143   0.4444444), wk =   0.0063492
        k(   69) = (   0.0000000  -0.4285714   0.1111111), wk =   0.0063492
        k(   70) = (   0.0000000  -0.4285714   0.2222222), wk =   0.0063492
        k(   71) = (   0.0000000  -0.4285714   0.3333333), wk =   0.0063492
        k(   72) = (   0.0000000  -0.4285714   0.4444444), wk =   0.0063492
        k(   73) = (  -0.2000000   0.0000000   0.1111111), wk =   0.0063492
        k(   74) = (  -0.2000000   0.0000000   0.2222222), wk =   0.0063492
        k(   75) = (  -0.2000000   0.0000000   0.3333333), wk =   0.0063492
        k(   76) = (  -0.2000000   0.0000000   0.4444444), wk =   0.0063492
        k(   77) = (  -0.2000000   0.1428571   0.0000000), wk =   0.0063492
        k(   78) = (  -0.2000000  -0.1428571   0.1111111), wk =   0.0063492
        k(   79) = (  -0.2000000   0.1428571  -0.1111111), wk =   0.0063492
        k(   80) = (   0.2000000  -0.1428571  -0.1111111), wk =   0.0063492
        k(   81) = (  -0.2000000  -0.1428571   0.2222222), wk =   0.0063492
        k(   82) = (  -0.2000000   0.1428571  -0.2222222), wk =   0.0063492
        k(   83) = (   0.2000000  -0.1428571  -0.2222222), wk =   0.0063492
        k(   84) = (  -0.2000000  -0.1428571   0.3333333), wk =   0.0063492
        k(   85) = (  -0.2000000   0.1428571  -0.3333333), wk =   0.0063492
        k(   86) = (   0.2000000  -0.1428571  -0.3333333), wk =   0.0063492
        k(   87) = (  -0.2000000  -0.1428571   0.4444444), wk =   0.0063492
        k(   88) = (  -0.2000000   0.1428571  -0.4444444), wk =   0.0063492
        k(   89) = (   0.2000000  -0.1428571  -0.4444444), wk =   0.0063492
        k(   90) = (  -0.2000000   0.2857143   0.0000000), wk =   0.0063492
        k(   91) = (  -0.2000000  -0.2857143   0.1111111), wk =   0.0063492
        k(   92) = (  -0.2000000   0.2857143  -0.1111111), wk =   0.0063492
        k(   93) = (   0.2000000  -0.2857143  -0.1111111), wk =   0.0063492
        k(   94) = (  -0.2000000  -0.2857143   0.2222222), wk =   0.0063492
        k(   95) = (  -0.2000000   0.2857143  -0.2222222), wk =   0.0063492
        k(   96) = (   0.2000000  -0.2857143  -0.2222222), wk =   0.0063492
        k(   97) = (  -0.2000000  -0.2857143   0.3333333), wk =   0.0063492
        k(   98) = (  -0.2000000   0.2857143  -0.3333333), wk =   0.0063492
        k(   99) = (   0.2000000  -0.2857143  -0.3333333), wk =   0.0063492
        k(  100) = (  -0.2000000  -0.2857143   0.4444444), wk =   0.0063492
        k(  101) = (  -0.2000000   0.2857143  -0.4444444), wk =   0.0063492
        k(  102) = (   0.2000000  -0.2857143  -0.4444444), wk =   0.0063492
        k(  103) = (  -0.2000000   0.4285714   0.0000000), wk =   0.0063492
        k(  104) = (  -0.2000000  -0.4285714   0.1111111), wk =   0.0063492
        k(  105) = (  -0.2000000   0.4285714  -0.1111111), wk =   0.0063492
        k(  106) = (   0.2000000  -0.4285714  -0.1111111), wk =   0.0063492
        k(  107) = (  -0.2000000  -0.4285714   0.2222222), wk =   0.0063492
        k(  108) = (  -0.2000000   0.4285714  -0.2222222), wk =   0.0063492
        k(  109) = (   0.2000000  -0.4285714  -0.2222222), wk =   0.0063492
        k(  110) = (  -0.2000000  -0.4285714   0.3333333), wk =   0.0063492
        k(  111) = (  -0.2000000   0.4285714  -0.3333333), wk =   0.0063492
        k(  112) = (   0.2000000  -0.4285714  -0.3333333), wk =   0.0063492
        k(  113) = (  -0.2000000  -0.4285714   0.4444444), wk =   0.0063492
        k(  114) = (  -0.2000000   0.4285714  -0.4444444), wk =   0.0063492
        k(  115) = (   0.2000000  -0.4285714  -0.4444444), wk =   0.0063492
        k(  116) = (  -0.4000000   0.0000000   0.1111111), wk =   0.0063492
        k(  117) = (  -0.4000000   0.0000000   0.2222222), wk =   0.0063492
        k(  118) = (  -0.4000000   0.0000000   0.3333333), wk =   0.0063492
        k(  119) = (  -0.4000000   0.0000000   0.4444444), wk =   0.0063492
        k(  120) = (  -0.4000000   0.1428571   0.0000000), wk =   0.0063492
        k(  121) = (  -0.4000000  -0.1428571   0.1111111), wk =   0.0063492
        k(  122) = (  -0.4000000   0.1428571  -0.1111111), wk =   0.0063492
        k(  123) = (   0.4000000  -0.1428571  -0.1111111), wk =   0.0063492
        k(  124) = (  -0.4000000  -0.1428571   0.2222222), wk =   0.0063492
        k(  125) = (  -0.4000000   0.1428571  -0.2222222), wk =   0.0063492
        k(  126) = (   0.4000000  -0.1428571  -0.2222222), wk =   0.0063492
        k(  127) = (  -0.4000000  -0.1428571   0.3333333), wk =   0.0063492
        k(  128) = (  -0.4000000   0.1428571  -0.3333333), wk =   0.0063492
        k(  129) = (   0.4000000  -0.1428571  -0.3333333), wk =   0.0063492
        k(  130) = (  -0.4000000  -0.1428571   0.4444444), wk =   0.0063492
        k(  131) = (  -0.4000000   0.1428571  -0.4444444), wk =   0.0063492
        k(  132) = (   0.4000000  -0.1428571  -0.4444444), wk =   0.0063492
        k(  133) = (  -0.4000000   0.2857143   0.0000000), wk =   0.0063492
        k(  134) = (  -0.4000000  -0.2857143   0.1111111), wk =   0.0063492
        k(  135) = (  -0.4000000   0.2857143  -0.1111111), wk =   0.0063492
        k(  136) = (   0.4000000  -0.2857143  -0.1111111), wk =   0.0063492
        k(  137) = (  -0.4000000  -0.2857143   0.2222222), wk =   0.0063492
        k(  138) = (  -0.4000000   0.2857143  -0.2222222), wk =   0.0063492
        k(  139) = (   0.4000000  -0.2857143  -0.2222222), wk =   0.0063492
        k(  140) = (  -0.4000000  -0.2857143   0.3333333), wk =   0.0063492
        k(  141) = (  -0.4000000   0.2857143  -0.3333333), wk =   0.0063492
        k(  142) = (   0.4000000  -0.2857143  -0.3333333), wk =   0.0063492
        k(  143) = (  -0.4000000  -0.2857143   0.4444444), wk =   0.0063492
        k(  144) = (  -0.4000000   0.2857143  -0.4444444), wk =   0.0063492
        k(  145) = (   0.4000000  -0.2857143  -0.4444444), wk =   0.0063492
        k(  146) = (  -0.4000000   0.4285714   0.0000000), wk =   0.0063492
        k(  147) = (  -0.4000000  -0.4285714   0.1111111), wk =   0.0063492
        k(  148) = (  -0.4000000   0.4285714  -0.1111111), wk =   0.0063492
        k(  149) = (   0.4000000  -0.4285714  -0.1111111), wk =   0.0063492
        k(  150) = (  -0.4000000  -0.4285714   0.2222222), wk =   0.0063492
        k(  151) = (  -0.4000000   0.4285714  -0.2222222), wk =   0.0063492
        k(  152) = (   0.4000000  -0.4285714  -0.2222222), wk =   0.0063492
        k(  153) = (  -0.4000000  -0.4285714   0.3333333), wk =   0.0063492
        k(  154) = (  -0.4000000   0.4285714  -0.3333333), wk =   0.0063492
        k(  155) = (   0.4000000  -0.4285714  -0.3333333), wk =   0.0063492
        k(  156) = (  -0.4000000  -0.4285714   0.4444444), wk =   0.0063492
        k(  157) = (  -0.4000000   0.4285714  -0.4444444), wk =   0.0063492
        k(  158) = (   0.4000000  -0.4285714  -0.4444444), wk =   0.0063492

     Dense  grid:  1210029 G-vectors     FFT dimensions: ( 200, 120, 100)

     Smooth grid:   272791 G-vectors     FFT dimensions: ( 125,  75,  60)

     Dynamical RAM for                 wfc:       2.47 MB

     Dynamical RAM for     wfc (w. buffer):     783.02 MB

     Dynamical RAM for           str. fact:       3.08 MB

     Dynamical RAM for           local pot:       0.00 MB

     Dynamical RAM for          nlocal pot:       6.07 MB

     Dynamical RAM for                qrad:      10.54 MB

     Dynamical RAM for          rho,v,vnew:      10.11 MB

     Dynamical RAM for               rhoin:       3.37 MB

     Dynamical RAM for            rho*nmix:      24.62 MB

     Dynamical RAM for           G-vectors:       2.97 MB

     Dynamical RAM for          h,s,v(r/c):       2.38 MB

     Dynamical RAM for          <psi|beta>:       0.49 MB

     Dynamical RAM for                 psi:       4.94 MB

     Dynamical RAM for                hpsi:       4.94 MB

     Dynamical RAM for                spsi:       4.94 MB

     Dynamical RAM for      wfcinit/wfcrot:       6.37 MB

     Dynamical RAM for           addusdens:     156.17 MB

     Dynamical RAM for          addusforce:     179.38 MB

     Dynamical RAM for         addusstress:     155.79 MB

     Estimated static dynamical RAM per process >     853.12 MB

     Estimated max dynamical RAM per process >       1.01 GB

     Estimated total dynamical RAM >      24.20 GB

     Check: negative core charge=   -0.000003
     Generating pointlists ...
     new r_m :   0.0770 (alat units)  1.4635 (a.u.) for type    1
     new r_m :   0.0899 (alat units)  1.7094 (a.u.) for type    2
     new r_m :   0.0612 (alat units)  1.1630 (a.u.) for type    3
     new r_m :   0.0612 (alat units)  1.1630 (a.u.) for type    4

     Initial potential from superposition of free atoms

     starting charge  188.99132, renormalised to  189.00000
     Starting wfcs are  137 randomized atomic wfcs
     Checking if some PAW data can be deallocated... 
       PAW data deallocated on   20 nodes for type:  1
       PAW data deallocated on    8 nodes for type:  3

     total cpu time spent up to now is      195.2 secs

     Self-consistent Calculation

     iteration #  1     ecut=   100.00 Ry     beta= 0.40
     Davidson diagonalization with overlap
     ethr =  1.00E-02,  avg # of iterations =  3.2

     negative rho (up, down):  0.000E+00 8.577E-05

     total cpu time spent up to now is      846.6 secs

     total energy              =   -2123.95684672 Ry
     estimated scf accuracy    <       6.85950904 Ry

     total magnetization       =    19.00 Bohr mag/cell
     absolute magnetization    =    19.00 Bohr mag/cell

     iteration #  2     ecut=   100.00 Ry     beta= 0.40
     Davidson diagonalization with overlap
     ethr =  3.63E-03,  avg # of iterations =  2.0

     negative rho (up, down):  0.000E+00 2.836E-05

     total cpu time spent up to now is     1404.6 secs

     total energy              =   -2121.00035049 Ry
     estimated scf accuracy    <      41.29314695 Ry

     total magnetization       =     7.70 Bohr mag/cell
     absolute magnetization    =     9.34 Bohr mag/cell

     iteration #  3     ecut=   100.00 Ry     beta= 0.40
     Davidson diagonalization with overlap
     ethr =  3.63E-03,  avg # of iterations =  2.9

     negative rho (up, down):  0.000E+00 1.153E-05

     total cpu time spent up to now is     1901.5 secs

     total energy              =   -2123.29777079 Ry
     estimated scf accuracy    <      69.82442962 Ry

     total magnetization       =     1.69 Bohr mag/cell
     absolute magnetization    =     6.28 Bohr mag/cell

     iteration #  4     ecut=   100.00 Ry     beta= 0.40
     Davidson diagonalization with overlap
     ethr =  3.63E-03,  avg # of iterations =  1.5

     negative rho (up, down):  0.000E+00 1.345E-05

     total cpu time spent up to now is     2327.8 secs

     total energy              =   -2124.46081473 Ry
     estimated scf accuracy    <      29.28883633 Ry

     total magnetization       =     9.00 Bohr mag/cell
     absolute magnetization    =     9.52 Bohr mag/cell

     iteration #  5     ecut=   100.00 Ry     beta= 0.40
     Davidson diagonalization with overlap
     ethr =  3.63E-03,  avg # of iterations =  2.0

     negative rho (up, down):  0.000E+00 8.213E-05

     total cpu time spent up to now is     2952.7 secs

     total energy              =   -2125.92155224 Ry
     estimated scf accuracy    <       2.47929479 Ry

     total magnetization       =    18.14 Bohr mag/cell
     absolute magnetization    =    18.15 Bohr mag/cell

     iteration #  6     ecut=   100.00 Ry     beta= 0.40
     Davidson diagonalization with overlap
     ethr =  1.31E-03,  avg # of iterations =  1.8

     negative rho (up, down):  0.000E+00 2.391E-04

     total cpu time spent up to now is     3397.5 secs

     total energy              =   -2126.06160840 Ry
     estimated scf accuracy    <       0.39012522 Ry

     total magnetization       =    19.00 Bohr mag/cell
     absolute magnetization    =    19.00 Bohr mag/cell

     iteration #  7     ecut=   100.00 Ry     beta= 0.40
     Davidson diagonalization with overlap
     c_bands:  1 eigenvalues not converged
     c_bands:  1 eigenvalues not converged
     ethr =  2.06E-04,  avg # of iterations =  6.5

     negative rho (up, down):  0.000E+00 4.068E-04

     total cpu time spent up to now is     3959.9 secs

     total energy              =   -2126.07003583 Ry
     estimated scf accuracy    <       0.18156380 Ry

     total magnetization       =    19.00 Bohr mag/cell
     absolute magnetization    =    19.00 Bohr mag/cell

     iteration #  8     ecut=   100.00 Ry     beta= 0.40
     Davidson diagonalization with overlap
     c_bands:  1 eigenvalues not converged
     c_bands:  1 eigenvalues not converged
     ethr =  9.61E-05,  avg # of iterations =  9.1

     negative rho (up, down):  0.000E+00 5.336E-04

     total cpu time spent up to now is     4651.2 secs

     total energy              =   -2126.06573599 Ry
     estimated scf accuracy    <       0.62087905 Ry

     total magnetization       =    19.00 Bohr mag/cell
     absolute magnetization    =    19.01 Bohr mag/cell

     iteration #  9     ecut=   100.00 Ry     beta= 0.40
     Davidson diagonalization with overlap
     ethr =  9.61E-05,  avg # of iterations =  1.3

     negative rho (up, down):  0.000E+00 5.951E-04

     total cpu time spent up to now is     5057.9 secs

     total energy              =   -2126.08551269 Ry
     estimated scf accuracy    <       0.09108208 Ry

     total magnetization       =    19.00 Bohr mag/cell
     absolute magnetization    =    19.01 Bohr mag/cell

     iteration # 10     ecut=   100.00 Ry     beta= 0.40
     Davidson diagonalization with overlap
     c_bands:  1 eigenvalues not converged
     c_bands:  2 eigenvalues not converged
     ethr =  4.82E-05,  avg # of iterations =  2.1

     negative rho (up, down):  0.000E+00 8.737E-04

     total cpu time spent up to now is     5492.2 secs

     total energy              =   -2126.09202281 Ry
     estimated scf accuracy    <       0.02295494 Ry

     total magnetization       =    19.00 Bohr mag/cell
     absolute magnetization    =    19.01 Bohr mag/cell

     iteration # 11     ecut=   100.00 Ry     beta= 0.40
     Davidson diagonalization with overlap
     c_bands:  1 eigenvalues not converged
     c_bands:  1 eigenvalues not converged
     c_bands:  1 eigenvalues not converged
     c_bands:  1 eigenvalues not converged
     c_bands:  1 eigenvalues not converged
     c_bands:  1 eigenvalues not converged
     c_bands:  1 eigenvalues not converged
     c_bands:  1 eigenvalues not converged
     c_bands:  1 eigenvalues not converged
     c_bands:  2 eigenvalues not converged
     c_bands:  2 eigenvalues not converged
     ethr =  1.21E-05,  avg # of iterations = 10.8

     negative rho (up, down):  0.000E+00 9.414E-04

     total cpu time spent up to now is     6224.6 secs

     total energy              =   -2126.09376289 Ry
     estimated scf accuracy    <       0.10726742 Ry

     total magnetization       =    19.00 Bohr mag/cell
     absolute magnetization    =    19.03 Bohr mag/cell

     iteration # 12     ecut=   100.00 Ry     beta= 0.40
     Davidson diagonalization with overlap
     ethr =  1.21E-05,  avg # of iterations =  1.1

     negative rho (up, down):  0.000E+00 1.006E-03

     total cpu time spent up to now is     6621.5 secs

     total energy              =   -2126.09546808 Ry
     estimated scf accuracy    <       0.00522779 Ry

     total magnetization       =    19.00 Bohr mag/cell
     absolute magnetization    =    19.03 Bohr mag/cell

     iteration # 13     ecut=   100.00 Ry     beta= 0.40
     Davidson diagonalization with overlap
     c_bands:  1 eigenvalues not converged
     c_bands:  2 eigenvalues not converged
     c_bands:  1 eigenvalues not converged
     c_bands:  1 eigenvalues not converged
     c_bands:  1 eigenvalues not converged
     c_bands:  1 eigenvalues not converged
     c_bands:  1 eigenvalues not converged
     c_bands:  1 eigenvalues not converged
     c_bands:  1 eigenvalues not converged
     c_bands:  1 eigenvalues not converged
     c_bands:  1 eigenvalues not converged
     ethr =  2.77E-06,  avg # of iterations = 10.0

     negative rho (up, down):  0.000E+00 9.879E-04

     total cpu time spent up to now is     7362.1 secs

     total energy              =   -2126.09654587 Ry
     estimated scf accuracy    <       0.02465991 Ry

     total magnetization       =    19.00 Bohr mag/cell
     absolute magnetization    =    19.04 Bohr mag/cell

     iteration # 14     ecut=   100.00 Ry     beta= 0.40
     Davidson diagonalization with overlap
     ethr =  2.77E-06,  avg # of iterations =  1.0

     negative rho (up, down):  0.000E+00 9.868E-04

     total cpu time spent up to now is     7754.0 secs

     total energy              =   -2126.09666318 Ry
     estimated scf accuracy    <       0.00707518 Ry

     total magnetization       =    19.00 Bohr mag/cell
     absolute magnetization    =    19.04 Bohr mag/cell

     iteration # 15     ecut=   100.00 Ry     beta= 0.40
     Davidson diagonalization with overlap
     ethr =  2.77E-06,  avg # of iterations =  1.0

     negative rho (up, down):  0.000E+00 9.847E-04

     total cpu time spent up to now is     8145.3 secs

     total energy              =   -2126.09675164 Ry
     estimated scf accuracy    <       0.00153891 Ry

     total magnetization       =    19.00 Bohr mag/cell
     absolute magnetization    =    19.04 Bohr mag/cell

     iteration # 16     ecut=   100.00 Ry     beta= 0.40
     Davidson diagonalization with overlap
     ethr =  8.14E-07,  avg # of iterations =  1.4

     negative rho (up, down):  0.000E+00 9.772E-04

     total cpu time spent up to now is     8565.5 secs

     total energy              =   -2126.09681785 Ry
     estimated scf accuracy    <       0.00021268 Ry

     total magnetization       =    19.00 Bohr mag/cell
     absolute magnetization    =    19.04 Bohr mag/cell

     iteration # 17     ecut=   100.00 Ry     beta= 0.40
     Davidson diagonalization with overlap
     ethr =  1.13E-07,  avg # of iterations =  4.8

     negative rho (up, down):  0.000E+00 9.697E-04

     total cpu time spent up to now is     9332.7 secs

     total energy              =   -2126.09690925 Ry
     estimated scf accuracy    <       0.00015450 Ry

     total magnetization       =    19.00 Bohr mag/cell
     absolute magnetization    =    19.04 Bohr mag/cell

     iteration # 18     ecut=   100.00 Ry     beta= 0.40
     Davidson diagonalization with overlap
     ethr =  8.17E-08,  avg # of iterations =  1.0

     negative rho (up, down):  0.000E+00 9.675E-04

     total cpu time spent up to now is     9727.5 secs

     total energy              =   -2126.09691377 Ry
     estimated scf accuracy    <       0.00003105 Ry

     total magnetization       =    19.00 Bohr mag/cell
     absolute magnetization    =    19.04 Bohr mag/cell

     iteration # 19     ecut=   100.00 Ry     beta= 0.40
     Davidson diagonalization with overlap
     ethr =  1.64E-08,  avg # of iterations =  1.1

     negative rho (up, down):  0.000E+00 9.655E-04

     total cpu time spent up to now is    10122.4 secs

     total energy              =   -2126.09691543 Ry
     estimated scf accuracy    <       0.00000971 Ry

     total magnetization       =    19.00 Bohr mag/cell
     absolute magnetization    =    19.04 Bohr mag/cell

     iteration # 20     ecut=   100.00 Ry     beta= 0.40
     Davidson diagonalization with overlap
     ethr =  5.14E-09,  avg # of iterations =  1.4

     negative rho (up, down):  0.000E+00 9.635E-04

     total cpu time spent up to now is    10536.8 secs

     total energy              =   -2126.09691591 Ry
     estimated scf accuracy    <       0.00000590 Ry

     total magnetization       =    19.00 Bohr mag/cell
     absolute magnetization    =    19.04 Bohr mag/cell

     iteration # 21     ecut=   100.00 Ry     beta= 0.40
     Davidson diagonalization with overlap
     ethr =  3.12E-09,  avg # of iterations =  1.8

     negative rho (up, down):  0.000E+00 9.645E-04

     total cpu time spent up to now is    10987.8 secs

     total energy              =   -2126.09691668 Ry
     estimated scf accuracy    <       0.00000111 Ry

     total magnetization       =    19.00 Bohr mag/cell
     absolute magnetization    =    19.04 Bohr mag/cell

     iteration # 22     ecut=   100.00 Ry     beta= 0.40
     Davidson diagonalization with overlap
     ethr =  5.88E-10,  avg # of iterations =  4.4

     negative rho (up, down):  0.000E+00 9.643E-04

     total cpu time spent up to now is    11691.0 secs

     total energy              =   -2126.09691709 Ry
     estimated scf accuracy    <       0.00000059 Ry

     total magnetization       =    19.00 Bohr mag/cell
     absolute magnetization    =    19.04 Bohr mag/cell

     iteration # 23     ecut=   100.00 Ry     beta= 0.40
     Davidson diagonalization with overlap
     ethr =  3.14E-10,  avg # of iterations =  1.3

     negative rho (up, down):  0.000E+00 9.648E-04

     total cpu time spent up to now is    12102.8 secs

     total energy              =   -2126.09691715 Ry
     estimated scf accuracy    <       0.00000008 Ry

     total magnetization       =    19.00 Bohr mag/cell
     absolute magnetization    =    19.04 Bohr mag/cell

     iteration # 24     ecut=   100.00 Ry     beta= 0.40
     Davidson diagonalization with overlap
     ethr =  4.02E-11,  avg # of iterations =  4.5

     negative rho (up, down):  0.000E+00 9.652E-04

     total cpu time spent up to now is    12711.7 secs

     total energy              =   -2126.09691717 Ry
     estimated scf accuracy    <       0.00000004 Ry

     total magnetization       =    19.00 Bohr mag/cell
     absolute magnetization    =    19.04 Bohr mag/cell

     iteration # 25     ecut=   100.00 Ry     beta= 0.40
     Davidson diagonalization with overlap
     ethr =  2.00E-11,  avg # of iterations =  1.8

     negative rho (up, down):  0.000E+00 9.653E-04

     total cpu time spent up to now is    13151.4 secs

     total energy              =   -2126.09691718 Ry
     estimated scf accuracy    <       0.00000002 Ry

     total magnetization       =    19.00 Bohr mag/cell
     absolute magnetization    =    19.04 Bohr mag/cell

     iteration # 26     ecut=   100.00 Ry     beta= 0.40
     Davidson diagonalization with overlap
     ethr =  1.03E-11,  avg # of iterations =  1.3

     negative rho (up, down):  0.000E+00 9.652E-04

     total cpu time spent up to now is    13557.2 secs

     total energy              =   -2126.09691718 Ry
     estimated scf accuracy    <          3.9E-09 Ry

     total magnetization       =    19.00 Bohr mag/cell
     absolute magnetization    =    19.04 Bohr mag/cell

     iteration # 27     ecut=   100.00 Ry     beta= 0.40
     Davidson diagonalization with overlap
     ethr =  2.05E-12,  avg # of iterations =  3.5

     negative rho (up, down):  0.000E+00 9.652E-04

     total cpu time spent up to now is    14065.8 secs

     total energy              =   -2126.09691718 Ry
     estimated scf accuracy    <          1.2E-09 Ry

     total magnetization       =    19.00 Bohr mag/cell
     absolute magnetization    =    19.04 Bohr mag/cell

     iteration # 28     ecut=   100.00 Ry     beta= 0.40
     Davidson diagonalization with overlap
     ethr =  6.30E-13,  avg # of iterations =  3.0

     negative rho (up, down):  0.000E+00 9.652E-04

     total cpu time spent up to now is    14543.9 secs

     total energy              =   -2126.09691718 Ry
     estimated scf accuracy    <          1.1E-09 Ry

     total magnetization       =    19.00 Bohr mag/cell
     absolute magnetization    =    19.04 Bohr mag/cell

     iteration # 29     ecut=   100.00 Ry     beta= 0.40
     Davidson diagonalization with overlap
     ethr =  5.91E-13,  avg # of iterations =  1.4

     negative rho (up, down):  0.000E+00 9.652E-04

     total cpu time spent up to now is    14959.7 secs

     total energy              =   -2126.09691718 Ry
     estimated scf accuracy    <          3.8E-10 Ry

     total magnetization       =    19.00 Bohr mag/cell
     absolute magnetization    =    19.04 Bohr mag/cell

     iteration # 30     ecut=   100.00 Ry     beta= 0.40
     Davidson diagonalization with overlap
     ethr =  2.03E-13,  avg # of iterations =  2.2

     negative rho (up, down):  0.000E+00 9.652E-04

     Magnetic moment per site:
     atom:    1    charge:    7.8860    magn:    0.0006    constr:    0.0000
     atom:    2    charge:   12.7570    magn:    3.6283    constr:    0.0000
     atom:    3    charge:   12.7628    magn:    3.6161    constr:    0.0000
     atom:    4    charge:   12.7891    magn:    3.5463    constr:    0.0000
     atom:    5    charge:   12.7643    magn:    3.6165    constr:    0.0000
     atom:    6    charge:    0.7855    magn:    0.0109    constr:    0.0000
     atom:    7    charge:    0.7884    magn:    0.0087    constr:    0.0000
     atom:    8    charge:    0.7878    magn:    0.0115    constr:    0.0000
     atom:    9    charge:    0.7838    magn:    0.0091    constr:    0.0000
     atom:   10    charge:    4.1121    magn:    0.1347    constr:    0.0000
     atom:   11    charge:    4.1285    magn:    0.0881    constr:    0.0000
     atom:   12    charge:    4.1143    magn:    0.1279    constr:    0.0000
     atom:   13    charge:    4.1102    magn:    0.1025    constr:    0.0000
     atom:   14    charge:    4.1378    magn:    0.1028    constr:    0.0000
     atom:   15    charge:    4.1466    magn:    0.1251    constr:    0.0000
     atom:   16    charge:    4.1424    magn:    0.0802    constr:    0.0000
     atom:   17    charge:    4.1433    magn:    0.1332    constr:    0.0000
     atom:   18    charge:    4.1127    magn:    0.1491    constr:    0.0000
     atom:   19    charge:    4.1183    magn:    0.1303    constr:    0.0000
     atom:   20    charge:    4.1163    magn:    0.1383    constr:    0.0000
     atom:   21    charge:    4.1187    magn:    0.1180    constr:    0.0000
     atom:   22    charge:    4.1182    magn:    0.1487    constr:    0.0000
     atom:   23    charge:    4.1116    magn:    0.1316    constr:    0.0000
     atom:   24    charge:    4.1112    magn:    0.1466    constr:    0.0000
     atom:   25    charge:    4.1110    magn:    0.1259    constr:    0.0000

     total cpu time spent up to now is    15421.7 secs

     End of self-consistent calculation

 ------ SPIN UP ------------


          k = 0.0000 0.0000 0.0000 ( 34089 PWs)   bands (ev):

   -84.2566 -84.2534 -84.2370 -83.9636 -50.4126 -50.3646 -50.3520 -50.2321
   -50.2181 -50.2053 -50.1905 -50.1806 -50.1478 -50.1334 -49.9241 -49.7633
   -44.1910 -16.2861 -16.1944 -16.1821 -15.9581 -15.7338 -15.5612 -15.4381
   -13.4636 -13.3556 -13.2063 -13.1872 -13.0072 -12.9868 -12.9391 -12.9275
   -12.8070 -12.7921 -12.7072 -12.6836  -3.5463  -3.0421  -2.9068  -2.4382
    -1.8264  -1.4232  -1.3241  -1.1626  -1.1019  -0.9050  -0.7722  -0.7589
    -0.5961  -0.4296  -0.2507   0.0320   0.2352   0.2750   0.8463   0.9038
     0.9411   1.0732   1.1762   1.2221   1.3571   1.3738   1.6262   1.6978
     1.8759   2.0688   2.0955   2.1666   2.2332   2.2539   2.2776   2.3631
     2.4561   2.7152   2.8555   2.9250   2.9619   3.0542   3.1509   3.2093
     3.3334   3.4322   3.5976   3.6777   3.7266   3.8553   3.9751   4.0247
     4.0457   4.2244   4.2458   4.2676   4.3781   4.4598   4.5379   4.6571
     4.6969   4.9711   5.0383   5.2191   5.4267   5.5932   5.7602   5.8723
    10.3327  12.4126  12.6973  13.2599  13.5335  13.7986  14.4558  14.6246
    14.6528  14.8245

     occupation numbers 
     1.0000   1.0000   1.0000   1.0000   1.0000   1.0000   1.0000   1.0000
     1.0000   1.0000   1.0000   1.0000   1.0000   1.0000   1.0000   1.0000
     1.0000   1.0000   1.0000   1.0000   1.0000   1.0000   1.0000   1.0000
     1.0000   1.0000   1.0000   1.0000   1.0000   1.0000   1.0000   1.0000
     1.0000   1.0000   1.0000   1.0000   1.0000   1.0000   1.0000   1.0000
     1.0000   1.0000   1.0000   1.0000   1.0000   1.0000   1.0000   1.0000
     1.0000   1.0000   1.0000   1.0000   1.0000   1.0000   1.0000   1.0000
     1.0000   1.0000   1.0000   1.0000   1.0000   1.0000   1.0000   1.0000
     1.0000   1.0000   1.0000   1.0000   1.0000   1.0000   1.0000   1.0000
     1.0000   1.0000   1.0000   1.0000   1.0000   1.0000   1.0000   1.0000
     1.0000   1.0000   1.0000   1.0000   1.0000   1.0000   1.0000   1.0000
     1.0000   1.0000   1.0000   1.0000   1.0000   1.0000   1.0000   1.0000
     1.0000   1.0000   1.0000   1.0000   1.0000   1.0000   1.0000   1.0000
     0.0000   0.0000   0.0000   0.0000   0.0000   0.0000   0.0000   0.0000
     0.0000   0.0000

          k = 0.0000 0.0000 0.2259 ( 34083 PWs)   bands (ev):

   -84.2566 -84.2534 -84.2370 -83.9636 -50.4126 -50.3646 -50.3520 -50.2321
   -50.2181 -50.2053 -50.1905 -50.1806 -50.1478 -50.1334 -49.9241 -49.7633
   -44.1910 -16.2909 -16.2001 -16.1859 -15.9331 -15.7262 -15.5553 -15.4390
   -13.4659 -13.3576 -13.2216 -13.1816 -13.0044 -12.9943 -12.9398 -12.9258
   -12.8130 -12.8024 -12.7116 -12.6928  -3.5188  -3.0308  -2.9037  -2.4551
    -1.7734  -1.3993  -1.3287  -1.1533  -1.0937  -0.9288  -0.7931  -0.6753
    -0.5862  -0.3970  -0.2982   0.0596   0.2327   0.2522   0.8548   0.8948
     0.9547   1.0911   1.1729   1.2501   1.3432   1.3596   1.5941   1.7373
     1.8573   2.0452   2.0596   2.1297   2.2022   2.2293   2.2769   2.3206
     2.5873   2.6926   2.7851   2.8887   2.9816   3.0374   3.1219   3.2139
     3.3204   3.4104   3.6103   3.6832   3.8269   3.8558   3.8911   4.0118
     4.0331   4.1885   4.2261   4.2758   4.3831   4.4562   4.6075   4.6691
     4.7386   4.9596   5.0776   5.2119   5.4221   5.5743   5.7322   5.8470
    10.4863  12.4857  12.7731  13.2725  13.5741  13.7770  14.4047  14.5279
    14.6047  14.7770

     occupation numbers 
     1.0000   1.0000   1.0000   1.0000   1.0000   1.0000   1.0000   1.0000
     1.0000   1.0000   1.0000   1.0000   1.0000   1.0000   1.0000   1.0000
     1.0000   1.0000   1.0000   1.0000   1.0000   1.0000   1.0000   1.0000
     1.0000   1.0000   1.0000   1.0000   1.0000   1.0000   1.0000   1.0000
     1.0000   1.0000   1.0000   1.0000   1.0000   1.0000   1.0000   1.0000
     1.0000   1.0000   1.0000   1.0000   1.0000   1.0000   1.0000   1.0000
     1.0000   1.0000   1.0000   1.0000   1.0000   1.0000   1.0000   1.0000
     1.0000   1.0000   1.0000   1.0000   1.0000   1.0000   1.0000   1.0000
     1.0000   1.0000   1.0000   1.0000   1.0000   1.0000   1.0000   1.0000
     1.0000   1.0000   1.0000   1.0000   1.0000   1.0000   1.0000   1.0000
     1.0000   1.0000   1.0000   1.0000   1.0000   1.0000   1.0000   1.0000
     1.0000   1.0000   1.0000   1.0000   1.0000   1.0000   1.0000   1.0000
     1.0000   1.0000   1.0000   1.0000   1.0000   1.0000   1.0000   1.0000
     0.0000   0.0000   0.0000   0.0000   0.0000   0.0000   0.0000   0.0000
     0.0000   0.0000

          k = 0.0000 0.0000 0.4519 ( 34060 PWs)   bands (ev):

   -84.2566 -84.2534 -84.2370 -83.9636 -50.4126 -50.3646 -50.3520 -50.2321
   -50.2181 -50.2053 -50.1905 -50.1806 -50.1478 -50.1334 -49.9241 -49.7633
   -44.1910 -16.3072 -16.2111 -16.1853 -15.8779 -15.7048 -15.5405 -15.4430
   -13.4728 -13.3628 -13.2499 -13.1795 -13.0192 -12.9887 -12.9462 -12.9163
   -12.8361 -12.8207 -12.7253 -12.7139  -3.4407  -3.0116  -2.8905  -2.5127
    -1.6265  -1.3600  -1.3149  -1.1464  -1.0658  -0.9549  -0.7908  -0.5774
    -0.5027  -0.4194  -0.3102   0.1055   0.1522   0.3048   0.8599   0.9079
     0.9854   1.0980   1.2210   1.2675   1.3333   1.3536   1.5008   1.7953
     1.8426   1.9782   2.0121   2.0719   2.1171   2.1714   2.2439   2.2860
     2.4789   2.6349   2.8340   2.8589   2.9713   2.9822   3.0899   3.2381
     3.2857   3.4075   3.6378   3.6898   3.7310   3.8605   3.8947   3.9332
     4.0626   4.0988   4.2280   4.3640   4.4317   4.4880   4.6693   4.7270
     4.8571   4.9265   5.1473   5.2168   5.4081   5.5302   5.6476   5.7706
    10.9000  12.6776  12.9759  13.3292  13.6515  13.7725  14.1703  14.3294
    14.4979  14.5564

     occupation numbers 
     1.0000   1.0000   1.0000   1.0000   1.0000   1.0000   1.0000   1.0000
     1.0000   1.0000   1.0000   1.0000   1.0000   1.0000   1.0000   1.0000
     1.0000   1.0000   1.0000   1.0000   1.0000   1.0000   1.0000   1.0000
     1.0000   1.0000   1.0000   1.0000   1.0000   1.0000   1.0000   1.0000
     1.0000   1.0000   1.0000   1.0000   1.0000   1.0000   1.0000   1.0000
     1.0000   1.0000   1.0000   1.0000   1.0000   1.0000   1.0000   1.0000
     1.0000   1.0000   1.0000   1.0000   1.0000   1.0000   1.0000   1.0000
     1.0000   1.0000   1.0000   1.0000   1.0000   1.0000   1.0000   1.0000
     1.0000   1.0000   1.0000   1.0000   1.0000   1.0000   1.0000   1.0000
     1.0000   1.0000   1.0000   1.0000   1.0000   1.0000   1.0000   1.0000
     1.0000   1.0000   1.0000   1.0000   1.0000   1.0000   1.0000   1.0000
     1.0000   1.0000   1.0000   1.0000   1.0000   1.0000   1.0000   1.0000
     1.0000   1.0000   1.0000   1.0000   1.0000   1.0000   1.0000   1.0000
     0.0000   0.0000   0.0000   0.0000   0.0000   0.0000   0.0000   0.0000
     0.0000   0.0000

          k = 0.0000 0.0000 0.6778 ( 34088 PWs)   bands (ev):

   -84.2566 -84.2534 -84.2370 -83.9636 -50.4126 -50.3646 -50.3520 -50.2321
   -50.2180 -50.2053 -50.1905 -50.1806 -50.1478 -50.1334 -49.9241 -49.7633
   -44.1910 -16.3291 -16.2142 -16.1823 -15.8231 -15.6739 -15.5252 -15.4518
   -13.4827 -13.3689 -13.2789 -13.1834 -13.0400 -12.9776 -12.9502 -12.9039
   -12.8642 -12.8391 -12.7475 -12.7322  -3.3250  -3.0154  -2.8628  -2.6050
    -1.4618  -1.3430  -1.2478  -1.1490  -1.0098  -0.9599  -0.7788  -0.6227
    -0.4715  -0.3322  -0.1978  -0.0562   0.2884   0.4172   0.8351   0.9704
     1.0345   1.0761   1.2245   1.2717   1.3114   1.3683   1.4284   1.7485
     1.8509   1.8916   1.9317   2.0231   2.0992   2.1247   2.1660   2.2325
     2.2897   2.4907   2.7755   2.8408   2.8908   3.0835   3.1566   3.2348
     3.3446   3.4274   3.4892   3.5962   3.7376   3.7475   3.8706   3.9227
     4.0403   4.1068   4.3082   4.4333   4.5092   4.6334   4.7146   4.8062
     4.8729   5.0169   5.1889   5.2565   5.3894   5.4818   5.5140   5.6457
    11.4739  12.9230  13.1600  13.4189  13.5865  13.9282  13.9588  14.1839
    14.2124  14.2883

     occupation numbers 
     1.0000   1.0000   1.0000   1.0000   1.0000   1.0000   1.0000   1.0000
     1.0000   1.0000   1.0000   1.0000   1.0000   1.0000   1.0000   1.0000
     1.0000   1.0000   1.0000   1.0000   1.0000   1.0000   1.0000   1.0000
     1.0000   1.0000   1.0000   1.0000   1.0000   1.0000   1.0000   1.0000
     1.0000   1.0000   1.0000   1.0000   1.0000   1.0000   1.0000   1.0000
     1.0000   1.0000   1.0000   1.0000   1.0000   1.0000   1.0000   1.0000
     1.0000   1.0000   1.0000   1.0000   1.0000   1.0000   1.0000   1.0000
     1.0000   1.0000   1.0000   1.0000   1.0000   1.0000   1.0000   1.0000
     1.0000   1.0000   1.0000   1.0000   1.0000   1.0000   1.0000   1.0000
     1.0000   1.0000   1.0000   1.0000   1.0000   1.0000   1.0000   1.0000
     1.0000   1.0000   1.0000   1.0000   1.0000   1.0000   1.0000   1.0000
     1.0000   1.0000   1.0000   1.0000   1.0000   1.0000   1.0000   1.0000
     1.0000   1.0000   1.0000   1.0000   1.0000   1.0000   1.0000   1.0000
     0.0000   0.0000   0.0000   0.0000   0.0000   0.0000   0.0000   0.0000
     0.0000   0.0000

          k = 0.0000 0.0000 0.9038 ( 34082 PWs)   bands (ev):

   -84.2566 -84.2534 -84.2370 -83.9636 -50.4126 -50.3646 -50.3520 -50.2321
   -50.2180 -50.2053 -50.1905 -50.1806 -50.1478 -50.1334 -49.9241 -49.7633
   -44.1910 -16.3435 -16.2138 -16.1799 -15.7908 -15.6463 -15.5181 -15.4608
   -13.4906 -13.3725 -13.2979 -13.1884 -13.0524 -12.9794 -12.9410 -12.8973
   -12.8792 -12.8529 -12.7638 -12.7437  -3.2006  -3.0643  -2.8245  -2.6938
    -1.4003  -1.3161  -1.1836  -1.1295  -0.9471  -0.9104  -0.7921  -0.7719
    -0.3782  -0.2363  -0.2151  -0.1120   0.4795   0.6195   0.7772   0.8948
     1.0598   1.1000   1.1967   1.2239   1.2457   1.3354   1.4841   1.6379
     1.8054   1.8834   1.9051   1.9405   1.9771   2.1053   2.1560   2.2399
     2.3376   2.4609   2.6069   2.6704   2.9403   3.0933   3.2334   3.3085
     3.3951   3.4242   3.4643   3.5290   3.6226   3.6424   3.8797   3.9220
     4.0364   4.1088   4.3997   4.4859   4.5491   4.6374   4.8135   4.8397
     4.9782   5.1810   5.2026   5.2757   5.3056   5.4109   5.4554   5.5051
    12.1126  12.7323  13.2007  13.5721  13.6824  13.8590  13.9687  14.0726
    14.1709  14.2494

     occupation numbers 
     1.0000   1.0000   1.0000   1.0000   1.0000   1.0000   1.0000   1.0000
     1.0000   1.0000   1.0000   1.0000   1.0000   1.0000   1.0000   1.0000
     1.0000   1.0000   1.0000   1.0000   1.0000   1.0000   1.0000   1.0000
     1.0000   1.0000   1.0000   1.0000   1.0000   1.0000   1.0000   1.0000
     1.0000   1.0000   1.0000   1.0000   1.0000   1.0000   1.0000   1.0000
     1.0000   1.0000   1.0000   1.0000   1.0000   1.0000   1.0000   1.0000
     1.0000   1.0000   1.0000   1.0000   1.0000   1.0000   1.0000   1.0000
     1.0000   1.0000   1.0000   1.0000   1.0000   1.0000   1.0000   1.0000
     1.0000   1.0000   1.0000   1.0000   1.0000   1.0000   1.0000   1.0000
     1.0000   1.0000   1.0000   1.0000   1.0000   1.0000   1.0000   1.0000
     1.0000   1.0000   1.0000   1.0000   1.0000   1.0000   1.0000   1.0000
     1.0000   1.0000   1.0000   1.0000   1.0000   1.0000   1.0000   1.0000
     1.0000   1.0000   1.0000   1.0000   1.0000   1.0000   1.0000   1.0000
     0.0000   0.0000   0.0000   0.0000   0.0000   0.0000   0.0000   0.0000
     0.0000   0.0000

          k = 0.0000 0.2391 0.0000 ( 34090 PWs)   bands (ev):

   -84.2566 -84.2534 -84.2370 -83.9636 -50.4126 -50.3646 -50.3520 -50.2321
   -50.2181 -50.2053 -50.1905 -50.1806 -50.1478 -50.1334 -49.9241 -49.7633
   -44.1910 -16.2872 -16.1956 -16.1823 -15.9362 -15.7303 -15.5577 -15.4597
   -13.4672 -13.3554 -13.2248 -13.1883 -13.0451 -12.9817 -12.9317 -12.9030
   -12.8211 -12.7675 -12.7172 -12.6735  -3.5209  -3.0642  -2.8770  -2.4450
    -1.7988  -1.4329  -1.3258  -1.1732  -1.0539  -0.9038  -0.7660  -0.7457
    -0.5414  -0.4311  -0.2124   0.0576   0.1708   0.3215   0.8670   0.8913
     0.9606   1.0078   1.0829   1.1802   1.2425   1.4826   1.6640   1.7421
     1.9246   2.0511   2.0917   2.1422   2.1825   2.1963   2.2656   2.2863
     2.5005   2.7150   2.8675   2.9345   2.9918   3.0760   3.1541   3.1845
     3.3881   3.4253   3.5036   3.6147   3.6935   3.8455   3.9627   3.9925
     4.0600   4.1237   4.2088   4.3586   4.4267   4.4697   4.5549   4.6746
     4.7047   4.9365   5.1114   5.1673   5.3973   5.5192   5.8500   5.8990
    10.4900  12.4992  12.7799  13.1950  13.5833  13.8898  14.4136  14.5270
    14.6932  14.7811

     occupation numbers 
     1.0000   1.0000   1.0000   1.0000   1.0000   1.0000   1.0000   1.0000
     1.0000   1.0000   1.0000   1.0000   1.0000   1.0000   1.0000   1.0000
     1.0000   1.0000   1.0000   1.0000   1.0000   1.0000   1.0000   1.0000
     1.0000   1.0000   1.0000   1.0000   1.0000   1.0000   1.0000   1.0000
     1.0000   1.0000   1.0000   1.0000   1.0000   1.0000   1.0000   1.0000
     1.0000   1.0000   1.0000   1.0000   1.0000   1.0000   1.0000   1.0000
     1.0000   1.0000   1.0000   1.0000   1.0000   1.0000   1.0000   1.0000
     1.0000   1.0000   1.0000   1.0000   1.0000   1.0000   1.0000   1.0000
     1.0000   1.0000   1.0000   1.0000   1.0000   1.0000   1.0000   1.0000
     1.0000   1.0000   1.0000   1.0000   1.0000   1.0000   1.0000   1.0000
     1.0000   1.0000   1.0000   1.0000   1.0000   1.0000   1.0000   1.0000
     1.0000   1.0000   1.0000   1.0000   1.0000   1.0000   1.0000   1.0000
     1.0000   1.0000   1.0000   1.0000   1.0000   1.0000   1.0000   1.0000
     0.0000   0.0000   0.0000   0.0000   0.0000   0.0000   0.0000   0.0000
     0.0000   0.0000

          k = 0.0000 0.2391 0.2259 ( 34083 PWs)   bands (ev):

   -84.2566 -84.2534 -84.2370 -83.9636 -50.4126 -50.3646 -50.3520 -50.2321
   -50.2181 -50.2053 -50.1905 -50.1806 -50.1478 -50.1334 -49.9241 -49.7633
   -44.1910 -16.2882 -16.1983 -16.1885 -15.9184 -15.7242 -15.5515 -15.4559
   -13.4691 -13.3573 -13.2334 -13.1852 -13.0507 -12.9887 -12.9288 -12.9063
   -12.8251 -12.7771 -12.7205 -12.6824  -3.4938  -3.0517  -2.8737  -2.4615
    -1.7485  -1.4095  -1.3253  -1.1635  -1.0446  -0.9247  -0.7774  -0.6745
    -0.5286  -0.4033  -0.2568   0.0534   0.1696   0.3234   0.8445   0.9003
     0.9761   1.0035   1.1176   1.1916   1.2268   1.4637   1.6788   1.7379
     1.8657   2.0219   2.0703   2.1114   2.1784   2.2025   2.2495   2.2770
     2.6227   2.6889   2.8087   2.9164   2.9879   3.0687   3.1084   3.1805
     3.3492   3.4400   3.5240   3.6682   3.6903   3.8423   3.8990   3.9952
     4.0214   4.1240   4.2267   4.3098   4.4506   4.4588   4.6172   4.6816
     4.7427   4.9311   5.1346   5.1541   5.3764   5.5240   5.8329   5.8816
    10.6392  12.5741  12.8511  13.2322  13.6019  13.8644  14.3490  14.4869
    14.6124  14.7193

     occupation numbers 
     1.0000   1.0000   1.0000   1.0000   1.0000   1.0000   1.0000   1.0000
     1.0000   1.0000   1.0000   1.0000   1.0000   1.0000   1.0000   1.0000
     1.0000   1.0000   1.0000   1.0000   1.0000   1.0000   1.0000   1.0000
     1.0000   1.0000   1.0000   1.0000   1.0000   1.0000   1.0000   1.0000
     1.0000   1.0000   1.0000   1.0000   1.0000   1.0000   1.0000   1.0000
     1.0000   1.0000   1.0000   1.0000   1.0000   1.0000   1.0000   1.0000
     1.0000   1.0000   1.0000   1.0000   1.0000   1.0000   1.0000   1.0000
     1.0000   1.0000   1.0000   1.0000   1.0000   1.0000   1.0000   1.0000
     1.0000   1.0000   1.0000   1.0000   1.0000   1.0000   1.0000   1.0000
     1.0000   1.0000   1.0000   1.0000   1.0000   1.0000   1.0000   1.0000
     1.0000   1.0000   1.0000   1.0000   1.0000   1.0000   1.0000   1.0000
     1.0000   1.0000   1.0000   1.0000   1.0000   1.0000   1.0000   1.0000
     1.0000   1.0000   1.0000   1.0000   1.0000   1.0000   1.0000   1.0000
     0.0000   0.0000   0.0000   0.0000   0.0000   0.0000   0.0000   0.0000
     0.0000   0.0000

          k = 0.0000 0.2391 0.4519 ( 34077 PWs)   bands (ev):

   -84.2566 -84.2534 -84.2370 -83.9636 -50.4126 -50.3646 -50.3520 -50.2321
   -50.2181 -50.2053 -50.1905 -50.1806 -50.1478 -50.1334 -49.9241 -49.7633
   -44.1910 -16.3014 -16.2107 -16.1873 -15.8679 -15.7060 -15.5357 -15.4544
   -13.4756 -13.3631 -13.2571 -13.1804 -13.0653 -12.9937 -12.9371 -12.9126
   -12.8346 -12.7947 -12.7310 -12.7006  -3.4167  -3.0272  -2.8635  -2.5172
    -1.6088  -1.3616  -1.3085  -1.1517  -1.0168  -0.9465  -0.7743  -0.5550
    -0.4817  -0.3774  -0.3150   0.0067   0.2028   0.3384   0.8116   0.9236
     0.9493   1.0286   1.1906   1.2165   1.2686   1.4247   1.6332   1.7657
     1.7985   1.9534   2.0173   2.0803   2.1265   2.1916   2.2218   2.2505
     2.5098   2.6531   2.8406   2.8914   2.9488   2.9911   3.1029   3.2065
     3.2552   3.4581   3.6071   3.6413   3.7000   3.7687   3.8864   3.9202
     4.0024   4.1291   4.2461   4.3283   4.4583   4.5076   4.6771   4.7292
     4.8359   4.9138   5.1035   5.2159   5.3395   5.5221   5.7776   5.8290
    11.0410  12.7642  13.0464  13.3498  13.6552  13.8412  14.1551  14.3295
    14.4252  14.5954

     occupation numbers 
     1.0000   1.0000   1.0000   1.0000   1.0000   1.0000   1.0000   1.0000
     1.0000   1.0000   1.0000   1.0000   1.0000   1.0000   1.0000   1.0000
     1.0000   1.0000   1.0000   1.0000   1.0000   1.0000   1.0000   1.0000
     1.0000   1.0000   1.0000   1.0000   1.0000   1.0000   1.0000   1.0000
     1.0000   1.0000   1.0000   1.0000   1.0000   1.0000   1.0000   1.0000
     1.0000   1.0000   1.0000   1.0000   1.0000   1.0000   1.0000   1.0000
     1.0000   1.0000   1.0000   1.0000   1.0000   1.0000   1.0000   1.0000
     1.0000   1.0000   1.0000   1.0000   1.0000   1.0000   1.0000   1.0000
     1.0000   1.0000   1.0000   1.0000   1.0000   1.0000   1.0000   1.0000
     1.0000   1.0000   1.0000   1.0000   1.0000   1.0000   1.0000   1.0000
     1.0000   1.0000   1.0000   1.0000   1.0000   1.0000   1.0000   1.0000
     1.0000   1.0000   1.0000   1.0000   1.0000   1.0000   1.0000   1.0000
     1.0000   1.0000   1.0000   1.0000   1.0000   1.0000   1.0000   1.0000
     0.0000   0.0000   0.0000   0.0000   0.0000   0.0000   0.0000   0.0000
     0.0000   0.0000

          k = 0.0000 0.2391 0.6778 ( 34083 PWs)   bands (ev):

   -84.2566 -84.2534 -84.2370 -83.9636 -50.4126 -50.3646 -50.3520 -50.2321
   -50.2180 -50.2053 -50.1905 -50.1806 -50.1478 -50.1334 -49.9241 -49.7633
   -44.1910 -16.3230 -16.2145 -16.1838 -15.8135 -15.6801 -15.5179 -15.4593
   -13.4856 -13.3701 -13.2840 -13.1806 -13.0807 -12.9955 -12.9611 -12.9103
   -12.8421 -12.8119 -12.7426 -12.7200  -3.3036  -3.0205  -2.8427  -2.6077
    -1.4476  -1.3339  -1.2412  -1.1502  -0.9704  -0.9387  -0.7634  -0.5901
    -0.4364  -0.3371  -0.1999  -0.1022   0.3019   0.4002   0.7509   0.9014
     0.9710   1.0908   1.1910   1.2827   1.3448   1.4330   1.5390   1.7094
     1.7965   1.8835   1.9546   2.0277   2.0879   2.1490   2.1773   2.2415
     2.2659   2.4958   2.7553   2.8455   2.9184   3.0844   3.1445   3.2279
     3.2497   3.4485   3.5336   3.6346   3.6621   3.7220   3.8019   3.9352
     3.9989   4.1038   4.3306   4.4308   4.4988   4.5911   4.6922   4.7965
     4.8669   4.9686   5.0762   5.2092   5.3737   5.5182   5.6896   5.7503
    11.6018  13.0030  13.2316  13.5012  13.6443  13.9073  14.0041  14.1475
    14.1953  14.2772

     occupation numbers 
     1.0000   1.0000   1.0000   1.0000   1.0000   1.0000   1.0000   1.0000
     1.0000   1.0000   1.0000   1.0000   1.0000   1.0000   1.0000   1.0000
     1.0000   1.0000   1.0000   1.0000   1.0000   1.0000   1.0000   1.0000
     1.0000   1.0000   1.0000   1.0000   1.0000   1.0000   1.0000   1.0000
     1.0000   1.0000   1.0000   1.0000   1.0000   1.0000   1.0000   1.0000
     1.0000   1.0000   1.0000   1.0000   1.0000   1.0000   1.0000   1.0000
     1.0000   1.0000   1.0000   1.0000   1.0000   1.0000   1.0000   1.0000
     1.0000   1.0000   1.0000   1.0000   1.0000   1.0000   1.0000   1.0000
     1.0000   1.0000   1.0000   1.0000   1.0000   1.0000   1.0000   1.0000
     1.0000   1.0000   1.0000   1.0000   1.0000   1.0000   1.0000   1.0000
     1.0000   1.0000   1.0000   1.0000   1.0000   1.0000   1.0000   1.0000
     1.0000   1.0000   1.0000   1.0000   1.0000   1.0000   1.0000   1.0000
     1.0000   1.0000   1.0000   1.0000   1.0000   1.0000   1.0000   1.0000
     0.0000   0.0000   0.0000   0.0000   0.0000   0.0000   0.0000   0.0000
     0.0000   0.0000

          k = 0.0000 0.2391 0.9038 ( 34099 PWs)   bands (ev):

   -84.2566 -84.2534 -84.2370 -83.9636 -50.4126 -50.3646 -50.3520 -50.2321
   -50.2180 -50.2053 -50.1905 -50.1806 -50.1478 -50.1334 -49.9241 -49.7633
   -44.1910 -16.3390 -16.2140 -16.1809 -15.7807 -15.6502 -15.5130 -15.4667
   -13.4936 -13.3744 -13.3022 -13.1849 -13.0888 -13.0009 -12.9744 -12.9069
   -12.8483 -12.8202 -12.7475 -12.7335  -3.1848  -3.0556  -2.8157  -2.6918
    -1.3794  -1.3050  -1.1779  -1.1326  -0.9336  -0.8658  -0.7769  -0.7292
    -0.3651  -0.2805  -0.1988  -0.0993   0.4343   0.5539   0.6606   0.7578
     1.0620   1.1702   1.2138   1.3029   1.3721   1.3857   1.5160   1.6176
     1.7705   1.8601   1.9171   1.9371   2.0151   2.1055   2.1206   2.1991
     2.3165   2.4480   2.5826   2.7085   2.9548   3.0914   3.2032   3.2465
     3.3547   3.4340   3.4777   3.5521   3.6243   3.6720   3.7936   3.9461
     4.0053   4.0859   4.4143   4.4715   4.5582   4.6422   4.7590   4.8309
     4.8491   5.0027   5.0968   5.1890   5.4296   5.5103   5.5977   5.6803
    12.2290  12.8252  13.2852  13.6563  13.7629  13.8741  13.9849  14.0488
    14.1292  14.2674

     occupation numbers 
     1.0000   1.0000   1.0000   1.0000   1.0000   1.0000   1.0000   1.0000
     1.0000   1.0000   1.0000   1.0000   1.0000   1.0000   1.0000   1.0000
     1.0000   1.0000   1.0000   1.0000   1.0000   1.0000   1.0000   1.0000
     1.0000   1.0000   1.0000   1.0000   1.0000   1.0000   1.0000   1.0000
     1.0000   1.0000   1.0000   1.0000   1.0000   1.0000   1.0000   1.0000
     1.0000   1.0000   1.0000   1.0000   1.0000   1.0000   1.0000   1.0000
     1.0000   1.0000   1.0000   1.0000   1.0000   1.0000   1.0000   1.0000
     1.0000   1.0000   1.0000   1.0000   1.0000   1.0000   1.0000   1.0000
     1.0000   1.0000   1.0000   1.0000   1.0000   1.0000   1.0000   1.0000
     1.0000   1.0000   1.0000   1.0000   1.0000   1.0000   1.0000   1.0000
     1.0000   1.0000   1.0000   1.0000   1.0000   1.0000   1.0000   1.0000
     1.0000   1.0000   1.0000   1.0000   1.0000   1.0000   1.0000   1.0000
     1.0000   1.0000   1.0000   1.0000   1.0000   1.0000   1.0000   1.0000
     0.0000   0.0000   0.0000   0.0000   0.0000   0.0000   0.0000   0.0000
     0.0000   0.0000

          k = 0.0000 0.4781 0.0000 ( 34064 PWs)   bands (ev):

   -84.2566 -84.2534 -84.2370 -83.9636 -50.4126 -50.3646 -50.3520 -50.2321
   -50.2181 -50.2053 -50.1905 -50.1806 -50.1478 -50.1334 -49.9241 -49.7633
   -44.1910 -16.2894 -16.1979 -16.1825 -15.8787 -15.7222 -15.5534 -15.5135
   -13.4737 -13.3525 -13.2779 -13.1914 -13.0669 -12.9752 -12.9241 -12.9111
   -12.8103 -12.7489 -12.7110 -12.6638  -3.4512  -3.1266  -2.7969  -2.4778
    -1.7250  -1.4593  -1.3254  -1.1932  -0.9769  -0.8859  -0.7389  -0.6673
    -0.4959  -0.3607  -0.1569   0.0430   0.1506   0.4077   0.7575   0.8238
     0.9775   0.9971   1.0202   1.0997   1.1765   1.5402   1.6373   1.8292
     1.8557   1.8925   1.9775   2.0617   2.1870   2.2074   2.3199   2.3629
     2.6097   2.6843   2.8702   2.9129   2.9791   3.0396   3.1064   3.1943
     3.3762   3.4155   3.4589   3.5560   3.6934   3.7854   3.8768   3.9122
     3.9772   4.0531   4.3604   4.4050   4.4635   4.5109   4.5678   4.7114
     4.7341   4.8868   4.9850   5.1313   5.3302   5.6533   5.8999   5.9353
    10.9171  12.6979  12.8556  13.0029  13.7419  14.0971  14.2623  14.3824
    14.6735  14.8410

     occupation numbers 
     1.0000   1.0000   1.0000   1.0000   1.0000   1.0000   1.0000   1.0000
     1.0000   1.0000   1.0000   1.0000   1.0000   1.0000   1.0000   1.0000
     1.0000   1.0000   1.0000   1.0000   1.0000   1.0000   1.0000   1.0000
     1.0000   1.0000   1.0000   1.0000   1.0000   1.0000   1.0000   1.0000
     1.0000   1.0000   1.0000   1.0000   1.0000   1.0000   1.0000   1.0000
     1.0000   1.0000   1.0000   1.0000   1.0000   1.0000   1.0000   1.0000
     1.0000   1.0000   1.0000   1.0000   1.0000   1.0000   1.0000   1.0000
     1.0000   1.0000   1.0000   1.0000   1.0000   1.0000   1.0000   1.0000
     1.0000   1.0000   1.0000   1.0000   1.0000   1.0000   1.0000   1.0000
     1.0000   1.0000   1.0000   1.0000   1.0000   1.0000   1.0000   1.0000
     1.0000   1.0000   1.0000   1.0000   1.0000   1.0000   1.0000   1.0000
     1.0000   1.0000   1.0000   1.0000   1.0000   1.0000   1.0000   1.0000
     1.0000   1.0000   1.0000   1.0000   1.0000   1.0000   1.0000   1.0000
     0.0000   0.0000   0.0000   0.0000   0.0000   0.0000   0.0000   0.0000
     0.0000   0.0000

          k = 0.0000 0.4781 0.2259 ( 34091 PWs)   bands (ev):

   -84.2566 -84.2534 -84.2370 -83.9636 -50.4126 -50.3646 -50.3520 -50.2321
   -50.2181 -50.2053 -50.1905 -50.1806 -50.1478 -50.1334 -49.9241 -49.7633
   -44.1910 -16.2886 -16.1979 -16.1901 -15.8680 -15.7167 -15.5453 -15.5064
   -13.4750 -13.3542 -13.2787 -13.1922 -13.0788 -12.9826 -12.9408 -12.9062
   -12.8079 -12.7551 -12.7131 -12.6706  -3.4254  -3.1106  -2.7956  -2.4920
    -1.6813  -1.4335  -1.3165  -1.1820  -0.9693  -0.8956  -0.7094  -0.6463
    -0.4555  -0.3665  -0.1969  -0.0125   0.1885   0.4075   0.7195   0.8058
     0.9450   1.0286   1.0656   1.1033   1.2084   1.5558   1.6202   1.7804
     1.8294   1.8619   1.9936   2.0537   2.1747   2.1987   2.3238   2.3891
     2.6331   2.7133   2.8215   2.9302   2.9790   3.0362   3.0863   3.1629
     3.3336   3.4138   3.4813   3.5489   3.6432   3.7870   3.8713   3.8891
     3.9397   4.0694   4.3279   4.4143   4.4702   4.5232   4.6172   4.7301
     4.7428   4.8860   4.9527   5.1143   5.3591   5.6580   5.8953   5.9274
    11.0524  12.7525  12.9191  13.0940  13.7582  14.0490  14.2705  14.3403
    14.5784  14.7407

     occupation numbers 
     1.0000   1.0000   1.0000   1.0000   1.0000   1.0000   1.0000   1.0000
     1.0000   1.0000   1.0000   1.0000   1.0000   1.0000   1.0000   1.0000
     1.0000   1.0000   1.0000   1.0000   1.0000   1.0000   1.0000   1.0000
     1.0000   1.0000   1.0000   1.0000   1.0000   1.0000   1.0000   1.0000
     1.0000   1.0000   1.0000   1.0000   1.0000   1.0000   1.0000   1.0000
     1.0000   1.0000   1.0000   1.0000   1.0000   1.0000   1.0000   1.0000
[...]
     atom   24 type  3   force =     0.02374128   -0.05170035   -0.02002103
     atom   25 type  3   force =    -0.02159125    0.05488023   -0.02159188
     The non-local contrib.  to forces
     atom    1 type  2   force =     0.07548391   -0.03971679    0.01473232
     atom    2 type  1   force =     0.05122986   -0.03013531    0.15454643
     atom    3 type  1   force =     0.06953948    0.00128436    0.13182867
     atom    4 type  1   force =    -0.14227202    0.06290596   -0.12647218
     atom    5 type  1   force =    -0.05999840   -0.01549356   -0.12669606
     atom    6 type  4   force =     0.00145885   -0.00122140    0.02167024
     atom    7 type  4   force =     0.01820429    0.00563205    0.04901173
     atom    8 type  4   force =    -0.01738803   -0.00833675   -0.02199111
     atom    9 type  4   force =     0.02395948    0.00030910   -0.02024451
     atom   10 type  3   force =     0.29393972    0.01850444   -1.46378622
     atom   11 type  3   force =    -0.10459216    0.01590139   -1.39014315
     atom   12 type  3   force =    -0.37486898   -0.01852672    1.46930807
     atom   13 type  3   force =     0.22971318    0.00890129    1.45873066
     atom   14 type  3   force =     1.20574527    0.01832252   -0.63946865
     atom   15 type  3   force =    -1.17379002   -0.01752807   -0.77638151
     atom   16 type  3   force =    -1.19181419    0.03362065    0.34061690
     atom   17 type  3   force =     1.15481245    0.00757017    0.63998129
     atom   18 type  3   force =    -0.52874241   -1.04790643    0.81141592
     atom   19 type  3   force =     0.56642800    1.08825611    0.86460119
     atom   20 type  3   force =     0.59294750   -1.07086228   -0.75114431
     atom   21 type  3   force =    -0.64576279    1.00750672   -0.65853989
     atom   22 type  3   force =     0.52793650    1.04738946   -0.71707235
     atom   23 type  3   force =    -0.53324063   -1.02653286   -0.79523212
     atom   24 type  3   force =    -0.53589573    1.05830507    0.80300998
     atom   25 type  3   force =     0.52025588   -1.13007639    0.81745992
     The ionic contribution  to forces
     atom    1 type  2   force =    -2.57326522   -0.51651370    1.50594333
     atom    2 type  1   force =    -1.41964029    0.20932232   -0.31833834
     atom    3 type  1   force =    -7.83754370   -0.72598050   -0.38397694
     atom    4 type  1   force =     4.26561379   -0.78194044   -0.05821784
     atom    5 type  1   force =     7.92020701    1.15900298    0.70022762
     atom    6 type  4   force =    -3.20170416    0.03061111    0.80160289
     atom    7 type  4   force =     0.37207337   -0.74303097    1.07308620
     atom    8 type  4   force =     4.65613323    0.00946616   -0.96847224
     atom    9 type  4   force =    -2.16136594    0.88897159   -1.32017195
     atom   10 type  3   force =   -10.62852824   -0.06988037    2.57240011
     atom   11 type  3   force =     4.27996092   -1.44106974    0.93754534
     atom   12 type  3   force =    12.32318326    0.18741350   -2.71838166
     atom   13 type  3   force =    -8.34579117    1.14585645   -1.99518780
     atom   14 type  3   force =     0.42820741    1.09602247    5.74269226
     atom   15 type  3   force =    -2.15878687    0.12684917    7.48515525
     atom   16 type  3   force =    -1.67479990   -1.72950253   -2.82444561
     atom   17 type  3   force =     3.68298675   -0.11869997   -6.62966363
     atom   18 type  3   force =    -4.03472222    2.63920909   -3.44431816
     atom   19 type  3   force =     0.96253194   -3.56957243   -3.34628763
     atom   20 type  3   force =     5.25376961    3.94720119    3.10135671
     atom   21 type  3   force =     0.75989234   -1.20499323    0.33033801
     atom   22 type  3   force =     5.14070452   -3.83569784    2.69590808
     atom   23 type  3   force =    -1.91007429    1.88495053    2.79396886
     atom   24 type  3   force =    -4.29187822   -2.79735183   -3.36957885
     atom   25 type  3   force =     0.19283605    4.20935700   -2.36318399
     The local contribution  to forces
     atom    1 type  2   force =     2.49859221    0.56511089   -1.51172402
     atom    2 type  1   force =     1.35852060   -0.18313562    0.16259610
     atom    3 type  1   force =     7.78311285    0.72462325    0.24920949
     atom    4 type  1   force =    -4.12394978    0.72417854    0.18787229
     atom    5 type  1   force =    -7.87494914   -1.14487066   -0.57203915
     atom    6 type  4   force =     3.23057307   -0.03096779   -0.77195326
     atom    7 type  4   force =    -0.40777526    0.74046599   -1.06681516
     atom    8 type  4   force =    -4.67012520   -0.00363999    0.93462139
     atom    9 type  4   force =     2.16880681   -0.88946070    1.28822376
     atom   10 type  3   force =    10.32079852    0.05041763   -1.12899934
     atom   11 type  3   force =    -4.16827819    1.42301124    0.43389003
     atom   12 type  3   force =   -11.93444164   -0.16931724    1.27115971
     atom   13 type  3   force =     8.10146099   -1.15514638    0.55322810
     atom   14 type  3   force =    -1.69662106   -1.11692172   -5.08707088
     atom   15 type  3   force =     3.39341574   -0.10844161   -6.69003326
     atom   16 type  3   force =     2.92719224    1.69478166    2.47179567
     atom   17 type  3   force =    -4.89452015    0.11042520    5.97360135
     atom   18 type  3   force =     4.58304029   -1.54812486    2.61966299
     atom   19 type  3   force =    -1.54922709    2.43393410    2.46662534
     atom   20 type  3   force =    -5.86813836   -2.83055911   -2.34005603
     atom   21 type  3   force =    -0.09156938    0.15589161    0.33751457
     atom   22 type  3   force =    -5.68656807    2.74258225   -1.96882827
     atom   23 type  3   force =     2.46030460   -0.81508467   -1.98478687
     atom   24 type  3   force =     4.84723452    1.69573063    2.55342082
     atom   25 type  3   force =    -0.73057512   -3.03343448    1.53114963
     The core correction contribution to forces
     atom    1 type  2   force =     0.00000000    0.00000000    0.00000000
     atom    2 type  1   force =    -0.00076284    0.00035928   -0.00030857
     atom    3 type  1   force =    -0.00032320   -0.00008257    0.00059281
     atom    4 type  1   force =     0.00287264   -0.00073436   -0.00030519
     atom    5 type  1   force =     0.00044373    0.00023254   -0.00023416
     atom    6 type  4   force =    -0.00041005    0.00012559   -0.00331396
     atom    7 type  4   force =    -0.00049282   -0.00021227   -0.00538487
     atom    8 type  4   force =     0.00108625    0.00050137    0.00352529
     atom    9 type  4   force =    -0.00201609   -0.00051364    0.00359204
     atom   10 type  3   force =    -0.00301371   -0.00016093    0.01277385
     atom   11 type  3   force =     0.00149200   -0.00010269    0.01200790
     atom   12 type  3   force =     0.00373727    0.00018558   -0.01279997
     atom   13 type  3   force =    -0.00245118   -0.00007241   -0.01266067
     atom   14 type  3   force =    -0.00906449   -0.00015571    0.00573540
     atom   15 type  3   force =     0.00885966    0.00014401    0.00683574
     atom   16 type  3   force =     0.00891053   -0.00024578   -0.00313951
     atom   17 type  3   force =    -0.00877841   -0.00005664   -0.00569520
     atom   18 type  3   force =     0.00420885    0.00826808   -0.00696802
     atom   19 type  3   force =    -0.00449494   -0.00853941   -0.00743321
     atom   20 type  3   force =    -0.00478967    0.00846995    0.00642077
     atom   21 type  3   force =     0.00517289   -0.00803036    0.00569156
     atom   22 type  3   force =    -0.00423433   -0.00827248    0.00610297
     atom   23 type  3   force =     0.00425510    0.00810613    0.00687258
     atom   24 type  3   force =     0.00428217   -0.00838130   -0.00687504
     atom   25 type  3   force =    -0.00410733    0.00903778   -0.00701397
     The Hubbard contrib.    to forces
     atom    1 type  2   force =     0.00000000    0.00000000    0.00000000
     atom    2 type  1   force =     0.00000000    0.00000000    0.00000000
     atom    3 type  1   force =     0.00000000    0.00000000    0.00000000
     atom    4 type  1   force =     0.00000000    0.00000000    0.00000000
     atom    5 type  1   force =     0.00000000    0.00000000    0.00000000
     atom    6 type  4   force =     0.00000000    0.00000000    0.00000000
     atom    7 type  4   force =     0.00000000    0.00000000    0.00000000
     atom    8 type  4   force =     0.00000000    0.00000000    0.00000000
     atom    9 type  4   force =     0.00000000    0.00000000    0.00000000
     atom   10 type  3   force =     0.00000000    0.00000000    0.00000000
     atom   11 type  3   force =     0.00000000    0.00000000    0.00000000
     atom   12 type  3   force =     0.00000000    0.00000000    0.00000000
     atom   13 type  3   force =     0.00000000    0.00000000    0.00000000
     atom   14 type  3   force =     0.00000000    0.00000000    0.00000000
     atom   15 type  3   force =     0.00000000    0.00000000    0.00000000
     atom   16 type  3   force =     0.00000000    0.00000000    0.00000000
     atom   17 type  3   force =     0.00000000    0.00000000    0.00000000
     atom   18 type  3   force =     0.00000000    0.00000000    0.00000000
     atom   19 type  3   force =     0.00000000    0.00000000    0.00000000
     atom   20 type  3   force =     0.00000000    0.00000000    0.00000000
     atom   21 type  3   force =     0.00000000    0.00000000    0.00000000
     atom   22 type  3   force =     0.00000000    0.00000000    0.00000000
     atom   23 type  3   force =     0.00000000    0.00000000    0.00000000
     atom   24 type  3   force =     0.00000000    0.00000000    0.00000000
     atom   25 type  3   force =     0.00000000    0.00000000    0.00000000
     The SCF correction term to forces
     atom    1 type  2   force =    -0.00000235    0.00000126    0.00000031
     atom    2 type  1   force =    -0.00000195    0.00000016   -0.00000094
     atom    3 type  1   force =    -0.00000352    0.00000009   -0.00000012
     atom    4 type  1   force =     0.00000401   -0.00000055    0.00000102
     atom    5 type  1   force =     0.00000243   -0.00000055    0.00000092
     atom    6 type  4   force =    -0.00000165    0.00000001    0.00000050
     atom    7 type  4   force =    -0.00000155    0.00000010   -0.00000033
     atom    8 type  4   force =     0.00000205    0.00000011   -0.00000091
     atom    9 type  4   force =     0.00000093   -0.00000016    0.00000036
     atom   10 type  3   force =    -0.00000411   -0.00000007   -0.00000335
     atom   11 type  3   force =    -0.00000300    0.00000011    0.00000146
     atom   12 type  3   force =     0.00000548    0.00000015    0.00000417
     atom   13 type  3   force =     0.00000294    0.00000002   -0.00000184
     atom   14 type  3   force =     0.00000317   -0.00000006    0.00000151
     atom   15 type  3   force =     0.00000296   -0.00000008   -0.00000148
     atom   16 type  3   force =    -0.00000521    0.00000016   -0.00000117
     atom   17 type  3   force =    -0.00000139   -0.00000006    0.00000167
     atom   18 type  3   force =    -0.00000205    0.00000330    0.00000313
     atom   19 type  3   force =    -0.00000127    0.00000435   -0.00000248
     atom   20 type  3   force =     0.00000273    0.00000453   -0.00000400
     atom   21 type  3   force =     0.00000095    0.00000518    0.00000288
     atom   22 type  3   force =     0.00000294   -0.00000460   -0.00000420
     atom   23 type  3   force =     0.00000082   -0.00000565    0.00000308
     atom   24 type  3   force =    -0.00000206   -0.00000328    0.00000309
     atom   25 type  3   force =    -0.00000133   -0.00000404   -0.00000244

     Total force =     0.256531     Total SCF correction =     0.000022


     Computing stress (Cartesian axis) and pressure


     negative rho (up, down):  0.000E+00 9.652E-04
          total   stress  (Ry/bohr**3)                   (kbar)     P=       94.70
   0.00086477   0.00003373  -0.00003505          127.21        4.96       -5.16
   0.00003373   0.00071719  -0.00003175            4.96      105.50       -4.67
  -0.00003505  -0.00003175   0.00034924           -5.16       -4.67       51.38

     kinetic stress (kbar)  28539.42     -5.60     -9.49
                               -5.60  28759.79     -5.72
                               -9.49     -5.72  28472.12

     local   stress (kbar)  -4166.28  -1904.56   1167.26
                            -1904.56 -14586.71    697.70
                             1167.26    697.70  -7784.91

     nonloc. stress (kbar)  -7295.30     -2.01      2.72
                               -2.01  -7230.28      1.30
                                2.72      1.30  -7247.15

     hartree stress (kbar)  13152.53    765.07   -465.22
                              765.07  18887.65   -273.52
                             -465.22   -273.52  15478.50

     exc-cor stress (kbar)  -3016.14      1.15     -0.84
                                1.15  -3024.07     -0.47
                               -0.84     -0.47  -3021.51

     corecor stress (kbar)  -3337.45     -0.40      0.79
                               -0.40  -3335.69      0.04
                                0.79      0.04  -3336.27

     ewald   stress (kbar) -23749.56   1151.31   -700.37
                             1151.31 -19365.18   -424.01
                             -700.37   -424.01 -22509.41

     hubbard stress (kbar)      0.00      0.00      0.00
                                0.00      0.00      0.00
                                0.00      0.00      0.00

     DFT-D   stress (kbar)      0.00      0.00      0.00
                                0.00      0.00      0.00
                                0.00      0.00      0.00

     XDM     stress (kbar)      0.00      0.00      0.00
                                0.00      0.00      0.00
                                0.00      0.00      0.00

     dft-nl  stress (kbar)      0.00      0.00      0.00
                                0.00      0.00      0.00
                                0.00      0.00      0.00

     TS-vdW  stress (kbar)      0.00      0.00      0.00
                                0.00      0.00      0.00
                                0.00      0.00      0.00



     init_run     :    190.38s CPU    194.41s WALL (       1 calls)
     electrons    :  15007.80s CPU  15226.56s WALL (       1 calls)
     forces       :    118.10s CPU    120.45s WALL (       1 calls)
     stress       :    741.46s CPU    747.20s WALL (       1 calls)

     Called by init_run:
     wfcinit      :    180.33s CPU    183.45s WALL (       1 calls)
     wfcinit:atom :      3.21s CPU      3.29s WALL (     316 calls)
     wfcinit:wfcr :    167.73s CPU    170.58s WALL (     316 calls)
     potinit      :      3.88s CPU      4.06s WALL (       1 calls)
     hinit0       :      3.22s CPU      3.36s WALL (       1 calls)

     Called by electrons:
     c_bands      :  13359.17s CPU  13516.90s WALL (      30 calls)
     sum_band     :   1561.46s CPU   1604.61s WALL (      30 calls)
     v_of_rho     :     24.90s CPU     26.18s WALL (      31 calls)
     v_h          :      1.14s CPU      1.21s WALL (      31 calls)
     v_xc         :     26.32s CPU     27.63s WALL (      33 calls)
     newd         :     42.57s CPU     59.37s WALL (      31 calls)
     PAW_pot      :     14.54s CPU     14.60s WALL (      31 calls)
     mix_rho      :      5.78s CPU      6.01s WALL (      30 calls)

     Called by c_bands:
     init_us_2    :    261.87s CPU    268.52s WALL (   19908 calls)
     cegterg      :  12952.88s CPU  13101.59s WALL (    9480 calls)

     Called by sum_band:
     sum_band:wei :      0.51s CPU      0.51s WALL (      30 calls)
     sum_band:loo :   1432.92s CPU   1451.53s WALL (      30 calls)
     sum_band:buf :     66.00s CPU     67.54s WALL (    9480 calls)
     sum_band:ini :    127.94s CPU    130.94s WALL (    9480 calls)
     sum_band:cal :    647.71s CPU    654.82s WALL (    9480 calls)
     sum_band:bec :      5.00s CPU      5.08s WALL (    9480 calls)
     addusdens    :    125.39s CPU    149.75s WALL (      30 calls)
     addusd:skk   :      1.04s CPU      1.09s WALL (      90 calls)
     addusd:dgemm :     61.14s CPU     81.45s WALL (     180 calls)
     addusd:qvan2 :     61.28s CPU     61.81s WALL (     180 calls)

     Called by *egterg:
     cdiaghg      :    888.66s CPU    912.84s WALL (   38292 calls)
     cegterg:over :   1236.26s CPU   1258.00s WALL (   28812 calls)
     cegterg:upda :    733.47s CPU    737.84s WALL (   28812 calls)
     cegterg:last :   1428.41s CPU   1436.98s WALL (   15959 calls)
     h_psi        :   6326.01s CPU   6397.50s WALL (   38608 calls)
     s_psi        :   1646.85s CPU   1655.93s WALL (   38608 calls)
     g_psi        :     13.24s CPU     13.42s WALL (   28812 calls)

     Called by h_psi:
     h_psi:calbec :   1733.74s CPU   1754.18s WALL (   38608 calls)
     vloc_psi     :   2680.46s CPU   2716.91s WALL (   38608 calls)
     add_vuspsi   :   1765.67s CPU   1775.96s WALL (   38608 calls)

     General routines
     calbec       :   2489.45s CPU   2518.62s WALL (   49668 calls)
     fft          :     21.42s CPU     23.01s WALL (     813 calls)
     ffts         :      0.37s CPU      0.41s WALL (     122 calls)
     fftw         :   3038.00s CPU   3078.21s WALL ( 5910632 calls)
     interpolate  :      1.50s CPU      1.61s WALL (      62 calls)

     Parallel routines
     fft_scatt_xy :    277.67s CPU    280.63s WALL ( 5911567 calls)
     fft_scatt_yz :    924.24s CPU    943.81s WALL ( 5911567 calls)

     PAW routines
     PAW_pot      :     14.54s CPU     14.60s WALL (      31 calls)

     PWSCF        :      4h27m CPU      4h31m WALL


   This run was terminated on:   6:32:57  19Dec2022            

=------------------------------------------------------------------------------=
   JOB DONE.
=------------------------------------------------------------------------------=
Note: The following floating-point exceptions are signalling: IEEE_UNDERFLOW_FLAG IEEE_DENORMAL
Note: The following floating-point exceptions are signalling: IEEE_DENORMAL
Note: The following floating-point exceptions are signalling: IEEE_DENORMAL
Note: The following floating-point exceptions are signalling: IEEE_DENORMAL
Note: The following floating-point exceptions are signalling: IEEE_DENORMAL
Note: The following floating-point exceptions are signalling: IEEE_DENORMAL
Note: The following floating-point exceptions are signalling: IEEE_DENORMAL
Note: The following floating-point exceptions are signalling: IEEE_DENORMAL
Note: The following floating-point exceptions are signalling: IEEE_DENORMAL
Note: The following floating-point exceptions are signalling: IEEE_INVALID_FLAG IEEE_DENORMAL
Note: The following floating-point exceptions are signalling: IEEE_DENORMAL
Note: The following floating-point exceptions are signalling: IEEE_DENORMAL
Note: The following floating-point exceptions are signalling: IEEE_DENORMAL
Note: The following floating-point exceptions are signalling: IEEE_DENORMAL
Note: The following floating-point exceptions are signalling: IEEE_DENORMAL
Note: The following floating-point exceptions are signalling: IEEE_INVALID_FLAG IEEE_DENORMAL
Note: The following floating-point exceptions are signalling: IEEE_DENORMAL
Note: The following floating-point exceptions are signalling: IEEE_DENORMAL
Note: The following floating-point exceptions are signalling: IEEE_DENORMAL
Note: The following floating-point exceptions are signalling: IEEE_DENORMAL
Note: The following floating-point exceptions are signalling: IEEE_DENORMAL
Note: The following floating-point exceptions are signalling: IEEE_INVALID_FLAG IEEE_DENORMAL
Note: The following floating-point exceptions are signalling: IEEE_INVALID_FLAG IEEE_DENORMAL
Note: The following floating-point exceptions are signalling: IEEE_DENORMAL
