
     Program PWSCF v.6.7MaX starts on 18Dec2022 at 22:10: 0 

     This program is part of the open-source Quantum ESPRESSO suite
     for quantum simulation of materials; please cite
         "P. Giannozzi et al., J. Phys.:Condens. Matter 21 395502 (2009);
         "P. Giannozzi et al., J. Phys.:Condens. Matter 29 465901 (2017);
          URL http://www.quantum-espresso.org", 
     in publications or presentations arising from this work. More details at
     http://www.quantum-espresso.org/quote

     Parallel version (MPI), running on    24 processors

     MPI processes distributed on     1 nodes
     R & G space division:  proc/nbgrp/npool/nimage =      24
     Reading input from scale_1da-04.in

     Current dimensions of program PWSCF are:
     Max number of different atomic species (ntypx) = 10
     Max number of k-points (npk) =  40000
     Max angular momentum in pseudopotentials (lmaxx) =  3
     Message from routine read_pp_mesh:
     mesh size missing, using the one in header
     file Fe.pbe-spn-kjpaw_psl.0.2.1.UPF: wavefunction(s)  3D renormalized
     file O.pbe-n-kjpaw_psl.0.1.UPF: wavefunction(s)  2P renormalized

     Subspace diagonalization in iterative solution of the eigenvalue problem:
     a serial algorithm will be used


     Parallelization info
     --------------------
     sticks:   dense  smooth     PW     G-vecs:    dense   smooth      PW
     Min         855     316     85                55751    12570    1765
     Max         856     317     87                55754    12573    1766
     Sum       20531    7599   2057              1338043   301725   42371



     bravais-lattice index     =            0
     lattice parameter (alat)  =      20.3206  a.u.
     unit-cell volume          =    2232.3697 (a.u.)^3
     number of atoms/cell      =           25
     number of atomic types    =            4
     number of electrons       =       189.00
     number of Kohn-Sham states=          114
     kinetic-energy cutoff     =     100.0000  Ry
     charge density cutoff     =    1080.0000  Ry
     scf convergence threshold =      2.0E-10
     mixing beta               =       0.4000
     number of iterations used =            8  plain     mixing
     Exchange-correlation= PBE
                           (   1   4   3   4   0   0   0)

     celldm(1)=  20.320559  celldm(2)=   0.000000  celldm(3)=   0.000000
     celldm(4)=   0.000000  celldm(5)=   0.000000  celldm(6)=   0.000000

     crystal axes: (cart. coord. in units of alat)
               a(1) = (   1.000000   0.000000   0.000000 )  
               a(2) = (   0.000000   0.578313   0.000000 )  
               a(3) = (   0.000000   0.000000   0.460041 )  

     reciprocal axes: (cart. coord. in units 2 pi/alat)
               b(1) = (  1.000000  0.000000  0.000000 )  
               b(2) = (  0.000000  1.729168  0.000000 )  
               b(3) = (  0.000000  0.000000  2.173720 )  


     PseudoPot. # 1 for Fe read from file:
     /opt/QEpot/SSSP_precision_pseudos/Fe.pbe-spn-kjpaw_psl.0.2.1.UPF
     MD5 check sum: e86618425769142926afa95317d90200
     Pseudo is Projector augmented-wave + core cor, Zval = 16.0
     Generated using "atomic" code by A. Dal Corso  v.5.0.99 svn rev. 10869
     Shape of augmentation charge: PSQ
     Using radial grid of 1191 points,  6 beta functions with: 
                l(1) =   0
                l(2) =   0
                l(3) =   1
                l(4) =   1
                l(5) =   2
                l(6) =   2
     Q(r) pseudized with 0 coefficients 


     PseudoPot. # 2 for Na read from file:
     /opt/QEpot/SSSP_precision_pseudos/Na_ONCV_PBE-1.0.oncvpsp.upf
     MD5 check sum: 24a298df0a6742ae313db96548fdb2a4
     Pseudo is Norm-conserving, Zval =  9.0
     Generated using ONCVPSP code by D. R. Hamann
     Using radial grid of 1992 points,  4 beta functions with: 
                l(1) =   0
                l(2) =   0
                l(3) =   1
                l(4) =   1

     PseudoPot. # 3 for O  read from file:
     /opt/QEpot/SSSP_precision_pseudos/O.pbe-n-kjpaw_psl.0.1.UPF
     MD5 check sum: 0234752ac141de4415c5fc33072bef88
     Pseudo is Projector augmented-wave + core cor, Zval =  6.0
     Generated using "atomic" code by A. Dal Corso  v.5.0.99 svn rev. 10869
     Shape of augmentation charge: BESSEL
     Using radial grid of 1095 points,  4 beta functions with: 
                l(1) =   0
                l(2) =   0
                l(3) =   1
                l(4) =   1
     Q(r) pseudized with 0 coefficients 


     PseudoPot. # 4 for P  read from file:
     /opt/QEpot/SSSP_precision_pseudos/P.pbe-n-rrkjus_psl.1.0.0.UPF
     MD5 check sum: 8b930f418f0a4573dca56cd030ffe088
     Pseudo is Ultrasoft + core correction, Zval =  5.0
     Generated using "atomic" code by A. Dal Corso  v.5.1
     Using radial grid of 1147 points,  6 beta functions with: 
                l(1) =   0
                l(2) =   0
                l(3) =   1
                l(4) =   1
                l(5) =   2
                l(6) =   2
     Q(r) pseudized with 0 coefficients 


     atomic species   valence    mass     pseudopotential
        Fe            16.00    55.84500     Fe( 1.00)
        Na             9.00    22.98977     Na( 1.00)
        O              6.00    15.99940     O ( 1.00)
        P              5.00    30.97376     P ( 1.00)

     Starting magnetic structure 
     atomic species   magnetization
        Fe           0.312
        Na           0.000
        O            0.000
        P            0.000

     No symmetry found


                                    s                        frac. trans.

      isym =  1     identity                                     

 cryst.   s( 1) = (     1          0          0      )
                  (     0          1          0      )
                  (     0          0          1      )

 cart.    s( 1) = (  1.0000000  0.0000000  0.0000000 )
                  (  0.0000000  1.0000000  0.0000000 )
                  (  0.0000000  0.0000000  1.0000000 )


   Cartesian axes

     site n.     atom                  positions (alat units)
         1           Na  tau(   1) = (   0.5426070   0.2059777   0.2145985  )
         2           Fe  tau(   2) = (   0.2774940   0.4326254   0.4564585  )
         3           Fe  tau(   3) = (   0.2102570   0.1427317   0.2256868  )
         4           Fe  tau(   4) = (   0.7280950   0.1383619   0.0018645  )
         5           Fe  tau(   5) = (   0.7825800   0.4347658   0.2355188  )
         6           P   tau(   6) = (   0.1059480   0.4322755   0.2042940  )
         7           P   tau(   7) = (   0.3878490   0.1406347   0.4339767  )
         8           P   tau(   8) = (   0.8915560   0.1441416   0.2562795  )
         9           P   tau(   9) = (   0.6054980   0.4333512   0.0275679  )
        10           O   tau(  10) = (   0.1317880   0.4311958   0.3455261  )
        11           O   tau(  11) = (   0.3634070   0.1434794   0.1154224  )
        12           O   tau(  12) = (   0.8709790   0.1435633   0.1144522  )
        13           O   tau(  13) = (   0.6302560   0.4302844   0.3461039  )
        14           O   tau(  14) = (   0.4595490   0.4303301   0.0558158  )
        15           O   tau(  15) = (   0.0359180   0.1449292   0.2880941  )
        16           O   tau(  16) = (   0.5363260   0.1415299   0.4123424  )
        17           O   tau(  17) = (   0.9593080   0.4322275   0.1794421  )
        18           O   tau(  18) = (   0.1746370   0.5457284   0.1385739  )
        19           O   tau(  19) = (   0.3201300   0.0281262   0.3683312  )
        20           O   tau(  20) = (   0.8159810   0.2546751   0.3200766  )
        21           O   tau(  21) = (   0.6759000   0.3208497   0.0949004  )
        22           O   tau(  22) = (   0.8190690   0.0312150   0.3204787  )
        23           O   tau(  23) = (   0.6753190   0.5464929   0.0933975  )
        24           O   tau(  24) = (   0.1755980   0.3200244   0.1373824  )
        25           O   tau(  25) = (   0.3240220   0.2537654   0.3639608  )

   Crystallographic axes

     site n.     atom                  positions (cryst. coord.)
         1           Na  tau(   1) = (  0.5426070  0.3561700  0.4664770  )
         2           Fe  tau(   2) = (  0.2774940  0.7480820  0.9922130  )
         3           Fe  tau(   3) = (  0.2102570  0.2468070  0.4905800  )
         4           Fe  tau(   4) = (  0.7280950  0.2392510  0.0040530  )
         5           Fe  tau(   5) = (  0.7825800  0.7517830  0.5119520  )
         6           P   tau(   6) = (  0.1059480  0.7474770  0.4440780  )
         7           P   tau(   7) = (  0.3878490  0.2431810  0.9433440  )
         8           P   tau(   8) = (  0.8915560  0.2492450  0.5570800  )
         9           P   tau(   9) = (  0.6054980  0.7493370  0.0599250  )
        10           O   tau(  10) = (  0.1317880  0.7456100  0.7510770  )
        11           O   tau(  11) = (  0.3634070  0.2481000  0.2508960  )
        12           O   tau(  12) = (  0.8709790  0.2482450  0.2487870  )
        13           O   tau(  13) = (  0.6302560  0.7440340  0.7523330  )
        14           O   tau(  14) = (  0.4595490  0.7441130  0.1213280  )
        15           O   tau(  15) = (  0.0359180  0.2506070  0.6262360  )
        16           O   tau(  16) = (  0.5363260  0.2447290  0.8963170  )
        17           O   tau(  17) = (  0.9593080  0.7473940  0.3900570  )
        18           O   tau(  18) = (  0.1746370  0.9436560  0.3012210  )
        19           O   tau(  19) = (  0.3201300  0.0486350  0.8006490  )
        20           O   tau(  20) = (  0.8159810  0.4403760  0.6957570  )
        21           O   tau(  21) = (  0.6759000  0.5548030  0.2062870  )
        22           O   tau(  22) = (  0.8190690  0.0539760  0.6966310  )
        23           O   tau(  23) = (  0.6753190  0.9449780  0.2030200  )
        24           O   tau(  24) = (  0.1755980  0.5533760  0.2986310  )
        25           O   tau(  25) = (  0.3240220  0.4388030  0.7911490  )

     number of k points=   158  Marzari-Vanderbilt smearing, width (Ry)=  0.0073
                       cart. coord. in units 2pi/alat
        k(    1) = (   0.0000000   0.0000000   0.0000000), wk =   0.0031746
        k(    2) = (   0.0000000   0.0000000   0.2415245), wk =   0.0063492
        k(    3) = (   0.0000000   0.0000000   0.4830489), wk =   0.0063492
        k(    4) = (   0.0000000   0.0000000   0.7245734), wk =   0.0063492
        k(    5) = (   0.0000000   0.0000000   0.9660979), wk =   0.0063492
        k(    6) = (   0.0000000   0.2470240   0.0000000), wk =   0.0063492
        k(    7) = (   0.0000000   0.2470240   0.2415245), wk =   0.0063492
        k(    8) = (   0.0000000   0.2470240   0.4830489), wk =   0.0063492
        k(    9) = (   0.0000000   0.2470240   0.7245734), wk =   0.0063492
        k(   10) = (   0.0000000   0.2470240   0.9660979), wk =   0.0063492
        k(   11) = (   0.0000000   0.4940480   0.0000000), wk =   0.0063492
        k(   12) = (   0.0000000   0.4940480   0.2415245), wk =   0.0063492
        k(   13) = (   0.0000000   0.4940480   0.4830489), wk =   0.0063492
        k(   14) = (   0.0000000   0.4940480   0.7245734), wk =   0.0063492
        k(   15) = (   0.0000000   0.4940480   0.9660979), wk =   0.0063492
        k(   16) = (   0.0000000   0.7410720   0.0000000), wk =   0.0063492
        k(   17) = (   0.0000000   0.7410720   0.2415245), wk =   0.0063492
        k(   18) = (   0.0000000   0.7410720   0.4830489), wk =   0.0063492
        k(   19) = (   0.0000000   0.7410720   0.7245734), wk =   0.0063492
        k(   20) = (   0.0000000   0.7410720   0.9660979), wk =   0.0063492
        k(   21) = (   0.2000000   0.0000000   0.0000000), wk =   0.0063492
        k(   22) = (   0.2000000   0.0000000   0.2415245), wk =   0.0063492
        k(   23) = (   0.2000000   0.0000000   0.4830489), wk =   0.0063492
        k(   24) = (   0.2000000   0.0000000   0.7245734), wk =   0.0063492
        k(   25) = (   0.2000000   0.0000000   0.9660979), wk =   0.0063492
        k(   26) = (   0.2000000   0.2470240   0.0000000), wk =   0.0063492
        k(   27) = (   0.2000000   0.2470240   0.2415245), wk =   0.0063492
        k(   28) = (   0.2000000   0.2470240   0.4830489), wk =   0.0063492
        k(   29) = (   0.2000000   0.2470240   0.7245734), wk =   0.0063492
        k(   30) = (   0.2000000   0.2470240   0.9660979), wk =   0.0063492
        k(   31) = (   0.2000000   0.4940480   0.0000000), wk =   0.0063492
        k(   32) = (   0.2000000   0.4940480   0.2415245), wk =   0.0063492
        k(   33) = (   0.2000000   0.4940480   0.4830489), wk =   0.0063492
        k(   34) = (   0.2000000   0.4940480   0.7245734), wk =   0.0063492
        k(   35) = (   0.2000000   0.4940480   0.9660979), wk =   0.0063492
        k(   36) = (   0.2000000   0.7410720   0.0000000), wk =   0.0063492
        k(   37) = (   0.2000000   0.7410720   0.2415245), wk =   0.0063492
        k(   38) = (   0.2000000   0.7410720   0.4830489), wk =   0.0063492
        k(   39) = (   0.2000000   0.7410720   0.7245734), wk =   0.0063492
        k(   40) = (   0.2000000   0.7410720   0.9660979), wk =   0.0063492
        k(   41) = (   0.4000000   0.0000000   0.0000000), wk =   0.0063492
        k(   42) = (   0.4000000   0.0000000   0.2415245), wk =   0.0063492
        k(   43) = (   0.4000000   0.0000000   0.4830489), wk =   0.0063492
        k(   44) = (   0.4000000   0.0000000   0.7245734), wk =   0.0063492
        k(   45) = (   0.4000000   0.0000000   0.9660979), wk =   0.0063492
        k(   46) = (   0.4000000   0.2470240   0.0000000), wk =   0.0063492
        k(   47) = (   0.4000000   0.2470240   0.2415245), wk =   0.0063492
        k(   48) = (   0.4000000   0.2470240   0.4830489), wk =   0.0063492
        k(   49) = (   0.4000000   0.2470240   0.7245734), wk =   0.0063492
        k(   50) = (   0.4000000   0.2470240   0.9660979), wk =   0.0063492
        k(   51) = (   0.4000000   0.4940480   0.0000000), wk =   0.0063492
        k(   52) = (   0.4000000   0.4940480   0.2415245), wk =   0.0063492
        k(   53) = (   0.4000000   0.4940480   0.4830489), wk =   0.0063492
        k(   54) = (   0.4000000   0.4940480   0.7245734), wk =   0.0063492
        k(   55) = (   0.4000000   0.4940480   0.9660979), wk =   0.0063492
        k(   56) = (   0.4000000   0.7410720   0.0000000), wk =   0.0063492
        k(   57) = (   0.4000000   0.7410720   0.2415245), wk =   0.0063492
        k(   58) = (   0.4000000   0.7410720   0.4830489), wk =   0.0063492
        k(   59) = (   0.4000000   0.7410720   0.7245734), wk =   0.0063492
        k(   60) = (   0.4000000   0.7410720   0.9660979), wk =   0.0063492
        k(   61) = (   0.0000000  -0.2470240   0.2415245), wk =   0.0063492
        k(   62) = (   0.0000000  -0.2470240   0.4830489), wk =   0.0063492
        k(   63) = (   0.0000000  -0.2470240   0.7245734), wk =   0.0063492
        k(   64) = (   0.0000000  -0.2470240   0.9660979), wk =   0.0063492
        k(   65) = (   0.0000000  -0.4940480   0.2415245), wk =   0.0063492
        k(   66) = (   0.0000000  -0.4940480   0.4830489), wk =   0.0063492
        k(   67) = (   0.0000000  -0.4940480   0.7245734), wk =   0.0063492
        k(   68) = (   0.0000000  -0.4940480   0.9660979), wk =   0.0063492
        k(   69) = (   0.0000000  -0.7410720   0.2415245), wk =   0.0063492
        k(   70) = (   0.0000000  -0.7410720   0.4830489), wk =   0.0063492
        k(   71) = (   0.0000000  -0.7410720   0.7245734), wk =   0.0063492
        k(   72) = (   0.0000000  -0.7410720   0.9660979), wk =   0.0063492
        k(   73) = (  -0.2000000   0.0000000   0.2415245), wk =   0.0063492
        k(   74) = (  -0.2000000   0.0000000   0.4830489), wk =   0.0063492
        k(   75) = (  -0.2000000   0.0000000   0.7245734), wk =   0.0063492
        k(   76) = (  -0.2000000   0.0000000   0.9660979), wk =   0.0063492
        k(   77) = (  -0.2000000   0.2470240   0.0000000), wk =   0.0063492
        k(   78) = (  -0.2000000  -0.2470240   0.2415245), wk =   0.0063492
        k(   79) = (  -0.2000000   0.2470240  -0.2415245), wk =   0.0063492
        k(   80) = (   0.2000000  -0.2470240  -0.2415245), wk =   0.0063492
        k(   81) = (  -0.2000000  -0.2470240   0.4830489), wk =   0.0063492
        k(   82) = (  -0.2000000   0.2470240  -0.4830489), wk =   0.0063492
        k(   83) = (   0.2000000  -0.2470240  -0.4830489), wk =   0.0063492
        k(   84) = (  -0.2000000  -0.2470240   0.7245734), wk =   0.0063492
        k(   85) = (  -0.2000000   0.2470240  -0.7245734), wk =   0.0063492
        k(   86) = (   0.2000000  -0.2470240  -0.7245734), wk =   0.0063492
        k(   87) = (  -0.2000000  -0.2470240   0.9660979), wk =   0.0063492
        k(   88) = (  -0.2000000   0.2470240  -0.9660979), wk =   0.0063492
        k(   89) = (   0.2000000  -0.2470240  -0.9660979), wk =   0.0063492
        k(   90) = (  -0.2000000   0.4940480   0.0000000), wk =   0.0063492
        k(   91) = (  -0.2000000  -0.4940480   0.2415245), wk =   0.0063492
        k(   92) = (  -0.2000000   0.4940480  -0.2415245), wk =   0.0063492
        k(   93) = (   0.2000000  -0.4940480  -0.2415245), wk =   0.0063492
        k(   94) = (  -0.2000000  -0.4940480   0.4830489), wk =   0.0063492
        k(   95) = (  -0.2000000   0.4940480  -0.4830489), wk =   0.0063492
        k(   96) = (   0.2000000  -0.4940480  -0.4830489), wk =   0.0063492
        k(   97) = (  -0.2000000  -0.4940480   0.7245734), wk =   0.0063492
        k(   98) = (  -0.2000000   0.4940480  -0.7245734), wk =   0.0063492
        k(   99) = (   0.2000000  -0.4940480  -0.7245734), wk =   0.0063492
        k(  100) = (  -0.2000000  -0.4940480   0.9660979), wk =   0.0063492
        k(  101) = (  -0.2000000   0.4940480  -0.9660979), wk =   0.0063492
        k(  102) = (   0.2000000  -0.4940480  -0.9660979), wk =   0.0063492
        k(  103) = (  -0.2000000   0.7410720   0.0000000), wk =   0.0063492
        k(  104) = (  -0.2000000  -0.7410720   0.2415245), wk =   0.0063492
        k(  105) = (  -0.2000000   0.7410720  -0.2415245), wk =   0.0063492
        k(  106) = (   0.2000000  -0.7410720  -0.2415245), wk =   0.0063492
        k(  107) = (  -0.2000000  -0.7410720   0.4830489), wk =   0.0063492
        k(  108) = (  -0.2000000   0.7410720  -0.4830489), wk =   0.0063492
        k(  109) = (   0.2000000  -0.7410720  -0.4830489), wk =   0.0063492
        k(  110) = (  -0.2000000  -0.7410720   0.7245734), wk =   0.0063492
        k(  111) = (  -0.2000000   0.7410720  -0.7245734), wk =   0.0063492
        k(  112) = (   0.2000000  -0.7410720  -0.7245734), wk =   0.0063492
        k(  113) = (  -0.2000000  -0.7410720   0.9660979), wk =   0.0063492
        k(  114) = (  -0.2000000   0.7410720  -0.9660979), wk =   0.0063492
        k(  115) = (   0.2000000  -0.7410720  -0.9660979), wk =   0.0063492
        k(  116) = (  -0.4000000   0.0000000   0.2415245), wk =   0.0063492
        k(  117) = (  -0.4000000   0.0000000   0.4830489), wk =   0.0063492
        k(  118) = (  -0.4000000   0.0000000   0.7245734), wk =   0.0063492
        k(  119) = (  -0.4000000   0.0000000   0.9660979), wk =   0.0063492
        k(  120) = (  -0.4000000   0.2470240   0.0000000), wk =   0.0063492
        k(  121) = (  -0.4000000  -0.2470240   0.2415245), wk =   0.0063492
        k(  122) = (  -0.4000000   0.2470240  -0.2415245), wk =   0.0063492
        k(  123) = (   0.4000000  -0.2470240  -0.2415245), wk =   0.0063492
        k(  124) = (  -0.4000000  -0.2470240   0.4830489), wk =   0.0063492
        k(  125) = (  -0.4000000   0.2470240  -0.4830489), wk =   0.0063492
        k(  126) = (   0.4000000  -0.2470240  -0.4830489), wk =   0.0063492
        k(  127) = (  -0.4000000  -0.2470240   0.7245734), wk =   0.0063492
        k(  128) = (  -0.4000000   0.2470240  -0.7245734), wk =   0.0063492
        k(  129) = (   0.4000000  -0.2470240  -0.7245734), wk =   0.0063492
        k(  130) = (  -0.4000000  -0.2470240   0.9660979), wk =   0.0063492
        k(  131) = (  -0.4000000   0.2470240  -0.9660979), wk =   0.0063492
        k(  132) = (   0.4000000  -0.2470240  -0.9660979), wk =   0.0063492
        k(  133) = (  -0.4000000   0.4940480   0.0000000), wk =   0.0063492
        k(  134) = (  -0.4000000  -0.4940480   0.2415245), wk =   0.0063492
        k(  135) = (  -0.4000000   0.4940480  -0.2415245), wk =   0.0063492
        k(  136) = (   0.4000000  -0.4940480  -0.2415245), wk =   0.0063492
        k(  137) = (  -0.4000000  -0.4940480   0.4830489), wk =   0.0063492
        k(  138) = (  -0.4000000   0.4940480  -0.4830489), wk =   0.0063492
        k(  139) = (   0.4000000  -0.4940480  -0.4830489), wk =   0.0063492
        k(  140) = (  -0.4000000  -0.4940480   0.7245734), wk =   0.0063492
        k(  141) = (  -0.4000000   0.4940480  -0.7245734), wk =   0.0063492
        k(  142) = (   0.4000000  -0.4940480  -0.7245734), wk =   0.0063492
        k(  143) = (  -0.4000000  -0.4940480   0.9660979), wk =   0.0063492
        k(  144) = (  -0.4000000   0.4940480  -0.9660979), wk =   0.0063492
        k(  145) = (   0.4000000  -0.4940480  -0.9660979), wk =   0.0063492
        k(  146) = (  -0.4000000   0.7410720   0.0000000), wk =   0.0063492
        k(  147) = (  -0.4000000  -0.7410720   0.2415245), wk =   0.0063492
        k(  148) = (  -0.4000000   0.7410720  -0.2415245), wk =   0.0063492
        k(  149) = (   0.4000000  -0.7410720  -0.2415245), wk =   0.0063492
        k(  150) = (  -0.4000000  -0.7410720   0.4830489), wk =   0.0063492
        k(  151) = (  -0.4000000   0.7410720  -0.4830489), wk =   0.0063492
        k(  152) = (   0.4000000  -0.7410720  -0.4830489), wk =   0.0063492
        k(  153) = (  -0.4000000  -0.7410720   0.7245734), wk =   0.0063492
        k(  154) = (  -0.4000000   0.7410720  -0.7245734), wk =   0.0063492
        k(  155) = (   0.4000000  -0.7410720  -0.7245734), wk =   0.0063492
        k(  156) = (  -0.4000000  -0.7410720   0.9660979), wk =   0.0063492
        k(  157) = (  -0.4000000   0.7410720  -0.9660979), wk =   0.0063492
        k(  158) = (   0.4000000  -0.7410720  -0.9660979), wk =   0.0063492

                       cryst. coord.
        k(    1) = (   0.0000000   0.0000000   0.0000000), wk =   0.0031746
        k(    2) = (   0.0000000   0.0000000   0.1111111), wk =   0.0063492
        k(    3) = (   0.0000000   0.0000000   0.2222222), wk =   0.0063492
        k(    4) = (   0.0000000   0.0000000   0.3333333), wk =   0.0063492
        k(    5) = (   0.0000000   0.0000000   0.4444444), wk =   0.0063492
        k(    6) = (   0.0000000   0.1428571   0.0000000), wk =   0.0063492
        k(    7) = (   0.0000000   0.1428571   0.1111111), wk =   0.0063492
        k(    8) = (   0.0000000   0.1428571   0.2222222), wk =   0.0063492
        k(    9) = (   0.0000000   0.1428571   0.3333333), wk =   0.0063492
        k(   10) = (   0.0000000   0.1428571   0.4444444), wk =   0.0063492
        k(   11) = (   0.0000000   0.2857143   0.0000000), wk =   0.0063492
        k(   12) = (   0.0000000   0.2857143   0.1111111), wk =   0.0063492
        k(   13) = (   0.0000000   0.2857143   0.2222222), wk =   0.0063492
        k(   14) = (   0.0000000   0.2857143   0.3333333), wk =   0.0063492
        k(   15) = (   0.0000000   0.2857143   0.4444444), wk =   0.0063492
        k(   16) = (   0.0000000   0.4285714   0.0000000), wk =   0.0063492
        k(   17) = (   0.0000000   0.4285714   0.1111111), wk =   0.0063492
        k(   18) = (   0.0000000   0.4285714   0.2222222), wk =   0.0063492
        k(   19) = (   0.0000000   0.4285714   0.3333333), wk =   0.0063492
        k(   20) = (   0.0000000   0.4285714   0.4444444), wk =   0.0063492
        k(   21) = (   0.2000000   0.0000000   0.0000000), wk =   0.0063492
        k(   22) = (   0.2000000   0.0000000   0.1111111), wk =   0.0063492
        k(   23) = (   0.2000000   0.0000000   0.2222222), wk =   0.0063492
        k(   24) = (   0.2000000   0.0000000   0.3333333), wk =   0.0063492
        k(   25) = (   0.2000000   0.0000000   0.4444444), wk =   0.0063492
        k(   26) = (   0.2000000   0.1428571   0.0000000), wk =   0.0063492
        k(   27) = (   0.2000000   0.1428571   0.1111111), wk =   0.0063492
        k(   28) = (   0.2000000   0.1428571   0.2222222), wk =   0.0063492
        k(   29) = (   0.2000000   0.1428571   0.3333333), wk =   0.0063492
        k(   30) = (   0.2000000   0.1428571   0.4444444), wk =   0.0063492
        k(   31) = (   0.2000000   0.2857143   0.0000000), wk =   0.0063492
        k(   32) = (   0.2000000   0.2857143   0.1111111), wk =   0.0063492
        k(   33) = (   0.2000000   0.2857143   0.2222222), wk =   0.0063492
        k(   34) = (   0.2000000   0.2857143   0.3333333), wk =   0.0063492
        k(   35) = (   0.2000000   0.2857143   0.4444444), wk =   0.0063492
        k(   36) = (   0.2000000   0.4285714   0.0000000), wk =   0.0063492
        k(   37) = (   0.2000000   0.4285714   0.1111111), wk =   0.0063492
        k(   38) = (   0.2000000   0.4285714   0.2222222), wk =   0.0063492
        k(   39) = (   0.2000000   0.4285714   0.3333333), wk =   0.0063492
        k(   40) = (   0.2000000   0.4285714   0.4444444), wk =   0.0063492
        k(   41) = (   0.4000000   0.0000000   0.0000000), wk =   0.0063492
        k(   42) = (   0.4000000   0.0000000   0.1111111), wk =   0.0063492
        k(   43) = (   0.4000000   0.0000000   0.2222222), wk =   0.0063492
        k(   44) = (   0.4000000   0.0000000   0.3333333), wk =   0.0063492
        k(   45) = (   0.4000000   0.0000000   0.4444444), wk =   0.0063492
        k(   46) = (   0.4000000   0.1428571   0.0000000), wk =   0.0063492
        k(   47) = (   0.4000000   0.1428571   0.1111111), wk =   0.0063492
        k(   48) = (   0.4000000   0.1428571   0.2222222), wk =   0.0063492
        k(   49) = (   0.4000000   0.1428571   0.3333333), wk =   0.0063492
        k(   50) = (   0.4000000   0.1428571   0.4444444), wk =   0.0063492
        k(   51) = (   0.4000000   0.2857143   0.0000000), wk =   0.0063492
        k(   52) = (   0.4000000   0.2857143   0.1111111), wk =   0.0063492
        k(   53) = (   0.4000000   0.2857143   0.2222222), wk =   0.0063492
        k(   54) = (   0.4000000   0.2857143   0.3333333), wk =   0.0063492
        k(   55) = (   0.4000000   0.2857143   0.4444444), wk =   0.0063492
        k(   56) = (   0.4000000   0.4285714   0.0000000), wk =   0.0063492
        k(   57) = (   0.4000000   0.4285714   0.1111111), wk =   0.0063492
        k(   58) = (   0.4000000   0.4285714   0.2222222), wk =   0.0063492
        k(   59) = (   0.4000000   0.4285714   0.3333333), wk =   0.0063492
        k(   60) = (   0.4000000   0.4285714   0.4444444), wk =   0.0063492
        k(   61) = (   0.0000000  -0.1428571   0.1111111), wk =   0.0063492
        k(   62) = (   0.0000000  -0.1428571   0.2222222), wk =   0.0063492
        k(   63) = (   0.0000000  -0.1428571   0.3333333), wk =   0.0063492
        k(   64) = (   0.0000000  -0.1428571   0.4444444), wk =   0.0063492
        k(   65) = (   0.0000000  -0.2857143   0.1111111), wk =   0.0063492
        k(   66) = (   0.0000000  -0.2857143   0.2222222), wk =   0.0063492
        k(   67) = (   0.0000000  -0.2857143   0.3333333), wk =   0.0063492
        k(   68) = (   0.0000000  -0.2857143   0.4444444), wk =   0.0063492
        k(   69) = (   0.0000000  -0.4285714   0.1111111), wk =   0.0063492
        k(   70) = (   0.0000000  -0.4285714   0.2222222), wk =   0.0063492
        k(   71) = (   0.0000000  -0.4285714   0.3333333), wk =   0.0063492
        k(   72) = (   0.0000000  -0.4285714   0.4444444), wk =   0.0063492
        k(   73) = (  -0.2000000   0.0000000   0.1111111), wk =   0.0063492
        k(   74) = (  -0.2000000   0.0000000   0.2222222), wk =   0.0063492
        k(   75) = (  -0.2000000   0.0000000   0.3333333), wk =   0.0063492
        k(   76) = (  -0.2000000   0.0000000   0.4444444), wk =   0.0063492
        k(   77) = (  -0.2000000   0.1428571   0.0000000), wk =   0.0063492
        k(   78) = (  -0.2000000  -0.1428571   0.1111111), wk =   0.0063492
        k(   79) = (  -0.2000000   0.1428571  -0.1111111), wk =   0.0063492
        k(   80) = (   0.2000000  -0.1428571  -0.1111111), wk =   0.0063492
        k(   81) = (  -0.2000000  -0.1428571   0.2222222), wk =   0.0063492
        k(   82) = (  -0.2000000   0.1428571  -0.2222222), wk =   0.0063492
        k(   83) = (   0.2000000  -0.1428571  -0.2222222), wk =   0.0063492
        k(   84) = (  -0.2000000  -0.1428571   0.3333333), wk =   0.0063492
        k(   85) = (  -0.2000000   0.1428571  -0.3333333), wk =   0.0063492
        k(   86) = (   0.2000000  -0.1428571  -0.3333333), wk =   0.0063492
        k(   87) = (  -0.2000000  -0.1428571   0.4444444), wk =   0.0063492
        k(   88) = (  -0.2000000   0.1428571  -0.4444444), wk =   0.0063492
        k(   89) = (   0.2000000  -0.1428571  -0.4444444), wk =   0.0063492
        k(   90) = (  -0.2000000   0.2857143   0.0000000), wk =   0.0063492
        k(   91) = (  -0.2000000  -0.2857143   0.1111111), wk =   0.0063492
        k(   92) = (  -0.2000000   0.2857143  -0.1111111), wk =   0.0063492
        k(   93) = (   0.2000000  -0.2857143  -0.1111111), wk =   0.0063492
        k(   94) = (  -0.2000000  -0.2857143   0.2222222), wk =   0.0063492
        k(   95) = (  -0.2000000   0.2857143  -0.2222222), wk =   0.0063492
        k(   96) = (   0.2000000  -0.2857143  -0.2222222), wk =   0.0063492
        k(   97) = (  -0.2000000  -0.2857143   0.3333333), wk =   0.0063492
        k(   98) = (  -0.2000000   0.2857143  -0.3333333), wk =   0.0063492
        k(   99) = (   0.2000000  -0.2857143  -0.3333333), wk =   0.0063492
        k(  100) = (  -0.2000000  -0.2857143   0.4444444), wk =   0.0063492
        k(  101) = (  -0.2000000   0.2857143  -0.4444444), wk =   0.0063492
        k(  102) = (   0.2000000  -0.2857143  -0.4444444), wk =   0.0063492
        k(  103) = (  -0.2000000   0.4285714   0.0000000), wk =   0.0063492
        k(  104) = (  -0.2000000  -0.4285714   0.1111111), wk =   0.0063492
        k(  105) = (  -0.2000000   0.4285714  -0.1111111), wk =   0.0063492
        k(  106) = (   0.2000000  -0.4285714  -0.1111111), wk =   0.0063492
        k(  107) = (  -0.2000000  -0.4285714   0.2222222), wk =   0.0063492
        k(  108) = (  -0.2000000   0.4285714  -0.2222222), wk =   0.0063492
        k(  109) = (   0.2000000  -0.4285714  -0.2222222), wk =   0.0063492
        k(  110) = (  -0.2000000  -0.4285714   0.3333333), wk =   0.0063492
        k(  111) = (  -0.2000000   0.4285714  -0.3333333), wk =   0.0063492
        k(  112) = (   0.2000000  -0.4285714  -0.3333333), wk =   0.0063492
        k(  113) = (  -0.2000000  -0.4285714   0.4444444), wk =   0.0063492
        k(  114) = (  -0.2000000   0.4285714  -0.4444444), wk =   0.0063492
        k(  115) = (   0.2000000  -0.4285714  -0.4444444), wk =   0.0063492
        k(  116) = (  -0.4000000   0.0000000   0.1111111), wk =   0.0063492
        k(  117) = (  -0.4000000   0.0000000   0.2222222), wk =   0.0063492
        k(  118) = (  -0.4000000   0.0000000   0.3333333), wk =   0.0063492
        k(  119) = (  -0.4000000   0.0000000   0.4444444), wk =   0.0063492
        k(  120) = (  -0.4000000   0.1428571   0.0000000), wk =   0.0063492
        k(  121) = (  -0.4000000  -0.1428571   0.1111111), wk =   0.0063492
        k(  122) = (  -0.4000000   0.1428571  -0.1111111), wk =   0.0063492
        k(  123) = (   0.4000000  -0.1428571  -0.1111111), wk =   0.0063492
        k(  124) = (  -0.4000000  -0.1428571   0.2222222), wk =   0.0063492
        k(  125) = (  -0.4000000   0.1428571  -0.2222222), wk =   0.0063492
        k(  126) = (   0.4000000  -0.1428571  -0.2222222), wk =   0.0063492
        k(  127) = (  -0.4000000  -0.1428571   0.3333333), wk =   0.0063492
        k(  128) = (  -0.4000000   0.1428571  -0.3333333), wk =   0.0063492
        k(  129) = (   0.4000000  -0.1428571  -0.3333333), wk =   0.0063492
        k(  130) = (  -0.4000000  -0.1428571   0.4444444), wk =   0.0063492
        k(  131) = (  -0.4000000   0.1428571  -0.4444444), wk =   0.0063492
        k(  132) = (   0.4000000  -0.1428571  -0.4444444), wk =   0.0063492
        k(  133) = (  -0.4000000   0.2857143   0.0000000), wk =   0.0063492
        k(  134) = (  -0.4000000  -0.2857143   0.1111111), wk =   0.0063492
        k(  135) = (  -0.4000000   0.2857143  -0.1111111), wk =   0.0063492
        k(  136) = (   0.4000000  -0.2857143  -0.1111111), wk =   0.0063492
        k(  137) = (  -0.4000000  -0.2857143   0.2222222), wk =   0.0063492
        k(  138) = (  -0.4000000   0.2857143  -0.2222222), wk =   0.0063492
        k(  139) = (   0.4000000  -0.2857143  -0.2222222), wk =   0.0063492
        k(  140) = (  -0.4000000  -0.2857143   0.3333333), wk =   0.0063492
        k(  141) = (  -0.4000000   0.2857143  -0.3333333), wk =   0.0063492
        k(  142) = (   0.4000000  -0.2857143  -0.3333333), wk =   0.0063492
        k(  143) = (  -0.4000000  -0.2857143   0.4444444), wk =   0.0063492
        k(  144) = (  -0.4000000   0.2857143  -0.4444444), wk =   0.0063492
        k(  145) = (   0.4000000  -0.2857143  -0.4444444), wk =   0.0063492
        k(  146) = (  -0.4000000   0.4285714   0.0000000), wk =   0.0063492
        k(  147) = (  -0.4000000  -0.4285714   0.1111111), wk =   0.0063492
        k(  148) = (  -0.4000000   0.4285714  -0.1111111), wk =   0.0063492
        k(  149) = (   0.4000000  -0.4285714  -0.1111111), wk =   0.0063492
        k(  150) = (  -0.4000000  -0.4285714   0.2222222), wk =   0.0063492
        k(  151) = (  -0.4000000   0.4285714  -0.2222222), wk =   0.0063492
        k(  152) = (   0.4000000  -0.4285714  -0.2222222), wk =   0.0063492
        k(  153) = (  -0.4000000  -0.4285714   0.3333333), wk =   0.0063492
        k(  154) = (  -0.4000000   0.4285714  -0.3333333), wk =   0.0063492
        k(  155) = (   0.4000000  -0.4285714  -0.3333333), wk =   0.0063492
        k(  156) = (  -0.4000000  -0.4285714   0.4444444), wk =   0.0063492
        k(  157) = (  -0.4000000   0.4285714  -0.4444444), wk =   0.0063492
        k(  158) = (   0.4000000  -0.4285714  -0.4444444), wk =   0.0063492

     Dense  grid:  1338043 G-vectors     FFT dimensions: ( 216, 125, 100)

     Smooth grid:   301725 G-vectors     FFT dimensions: ( 135,  75,  60)

     Dynamical RAM for                 wfc:       2.73 MB

     Dynamical RAM for     wfc (w. buffer):     865.73 MB

     Dynamical RAM for           str. fact:       3.40 MB

     Dynamical RAM for           local pot:       0.00 MB

     Dynamical RAM for          nlocal pot:       6.71 MB

     Dynamical RAM for                qrad:      10.54 MB

     Dynamical RAM for          rho,v,vnew:      11.28 MB

     Dynamical RAM for               rhoin:       3.76 MB

     Dynamical RAM for            rho*nmix:      27.22 MB

     Dynamical RAM for           G-vectors:       3.29 MB

     Dynamical RAM for          h,s,v(r/c):       2.38 MB

     Dynamical RAM for          <psi|beta>:       0.49 MB

     Dynamical RAM for                 psi:       5.46 MB

     Dynamical RAM for                hpsi:       5.46 MB

     Dynamical RAM for                spsi:       5.46 MB

     Dynamical RAM for      wfcinit/wfcrot:       6.99 MB

     Dynamical RAM for           addusdens:     172.70 MB

     Dynamical RAM for          addusforce:     198.34 MB

     Dynamical RAM for         addusstress:     172.27 MB

     Estimated static dynamical RAM per process >     942.37 MB

     Estimated max dynamical RAM per process >       1.11 GB

     Estimated total dynamical RAM >      26.74 GB

     Check: negative core charge=   -0.000003
     Generating pointlists ...
     new r_m :   0.0751 (alat units)  1.5254 (a.u.) for type    1
     new r_m :   0.0858 (alat units)  1.7441 (a.u.) for type    2
     new r_m :   0.0591 (alat units)  1.2013 (a.u.) for type    3
     new r_m :   0.0591 (alat units)  1.2013 (a.u.) for type    4

     Initial potential from superposition of free atoms

     starting charge  188.99132, renormalised to  189.00000
     Starting wfcs are  137 randomized atomic wfcs
     Checking if some PAW data can be deallocated... 
       PAW data deallocated on   20 nodes for type:  1
       PAW data deallocated on    8 nodes for type:  3

     total cpu time spent up to now is      224.4 secs

     Self-consistent Calculation

     iteration #  1     ecut=   100.00 Ry     beta= 0.40
     Davidson diagonalization with overlap
     ethr =  1.00E-02,  avg # of iterations =  3.0

     negative rho (up, down):  0.000E+00 1.240E-04

     total cpu time spent up to now is      923.2 secs

     total energy              =   -2123.78194993 Ry
     estimated scf accuracy    <       7.10200515 Ry

     total magnetization       =    19.00 Bohr mag/cell
     absolute magnetization    =    19.00 Bohr mag/cell

     iteration #  2     ecut=   100.00 Ry     beta= 0.40
     Davidson diagonalization with overlap
     ethr =  3.76E-03,  avg # of iterations =  2.0

     negative rho (up, down):  0.000E+00 5.435E-05

     total cpu time spent up to now is     1571.1 secs

     total energy              =   -2120.30458650 Ry
     estimated scf accuracy    <      51.20298258 Ry

     total magnetization       =     6.54 Bohr mag/cell
     absolute magnetization    =     8.20 Bohr mag/cell

     iteration #  3     ecut=   100.00 Ry     beta= 0.40
     Davidson diagonalization with overlap
     ethr =  3.76E-03,  avg # of iterations =  3.0

     negative rho (up, down):  0.000E+00 2.645E-05

     total cpu time spent up to now is     2151.8 secs

     total energy              =   -2123.09478481 Ry
     estimated scf accuracy    <      65.53632121 Ry

     total magnetization       =     3.05 Bohr mag/cell
     absolute magnetization    =     7.33 Bohr mag/cell

     iteration #  4     ecut=   100.00 Ry     beta= 0.40
     Davidson diagonalization with overlap
     ethr =  3.76E-03,  avg # of iterations =  1.5

     negative rho (up, down):  0.000E+00 3.374E-05

     total cpu time spent up to now is     2646.8 secs

     total energy              =   -2124.46329949 Ry
     estimated scf accuracy    <      30.90657923 Ry

     total magnetization       =     9.00 Bohr mag/cell
     absolute magnetization    =     9.38 Bohr mag/cell

     iteration #  5     ecut=   100.00 Ry     beta= 0.40
     Davidson diagonalization with overlap
     ethr =  3.76E-03,  avg # of iterations =  1.9

     negative rho (up, down):  0.000E+00 8.756E-05

     total cpu time spent up to now is     3429.2 secs

     total energy              =   -2125.74941737 Ry
     estimated scf accuracy    <       4.23739319 Ry

     total magnetization       =    17.21 Bohr mag/cell
     absolute magnetization    =    17.24 Bohr mag/cell

     iteration #  6     ecut=   100.00 Ry     beta= 0.40
     Davidson diagonalization with overlap
     ethr =  2.24E-03,  avg # of iterations =  1.5

     negative rho (up, down):  0.000E+00 1.483E-04

     total cpu time spent up to now is     3924.9 secs

     total energy              =   -2125.90510712 Ry
     estimated scf accuracy    <       1.76471790 Ry

     total magnetization       =    17.91 Bohr mag/cell
     absolute magnetization    =    17.93 Bohr mag/cell

     iteration #  7     ecut=   100.00 Ry     beta= 0.40
     Davidson diagonalization with overlap
     ethr =  9.34E-04,  avg # of iterations =  1.5

     negative rho (up, down):  0.000E+00 2.793E-04

     total cpu time spent up to now is     4430.5 secs

     total energy              =   -2126.06247644 Ry
     estimated scf accuracy    <       0.80990491 Ry

     total magnetization       =    19.05 Bohr mag/cell
     absolute magnetization    =    19.05 Bohr mag/cell

     iteration #  8     ecut=   100.00 Ry     beta= 0.40
     Davidson diagonalization with overlap
     ethr =  4.29E-04,  avg # of iterations =  1.1

     negative rho (up, down):  0.000E+00 4.272E-04

     total cpu time spent up to now is     5164.0 secs

     total energy              =   -2126.06312900 Ry
     estimated scf accuracy    <       0.25964688 Ry

     total magnetization       =    19.00 Bohr mag/cell
     absolute magnetization    =    19.00 Bohr mag/cell

     iteration #  9     ecut=   100.00 Ry     beta= 0.40
     Davidson diagonalization with overlap
     ethr =  1.37E-04,  avg # of iterations =  7.1

     negative rho (up, down):  0.000E+00 7.660E-04

     total cpu time spent up to now is     5817.5 secs

     total energy              =   -2126.06793315 Ry
     estimated scf accuracy    <       0.11404935 Ry

     total magnetization       =    19.00 Bohr mag/cell
     absolute magnetization    =    19.01 Bohr mag/cell

     iteration # 10     ecut=   100.00 Ry     beta= 0.40
     Davidson diagonalization with overlap
     c_bands:  1 eigenvalues not converged
     c_bands:  1 eigenvalues not converged
     c_bands:  1 eigenvalues not converged
     c_bands:  1 eigenvalues not converged
     c_bands:  1 eigenvalues not converged
     ethr =  6.03E-05,  avg # of iterations = 11.0

     negative rho (up, down):  0.000E+00 8.068E-04

     total cpu time spent up to now is     6699.3 secs

     total energy              =   -2126.07912178 Ry
     estimated scf accuracy    <       0.30312427 Ry

     total magnetization       =    19.00 Bohr mag/cell
     absolute magnetization    =    19.02 Bohr mag/cell

     iteration # 11     ecut=   100.00 Ry     beta= 0.40
     Davidson diagonalization with overlap
     ethr =  6.03E-05,  avg # of iterations =  1.1

     negative rho (up, down):  0.000E+00 8.807E-04

     total cpu time spent up to now is     7161.1 secs

     total energy              =   -2126.08097170 Ry
     estimated scf accuracy    <       0.19302583 Ry

     total magnetization       =    19.00 Bohr mag/cell
     absolute magnetization    =    19.03 Bohr mag/cell

     iteration # 12     ecut=   100.00 Ry     beta= 0.40
     Davidson diagonalization with overlap
     ethr =  6.03E-05,  avg # of iterations =  1.0

     negative rho (up, down):  0.000E+00 8.488E-04

     total cpu time spent up to now is     7619.7 secs

     total energy              =   -2126.07558983 Ry
     estimated scf accuracy    <       0.22592215 Ry

     total magnetization       =    19.00 Bohr mag/cell
     absolute magnetization    =    19.03 Bohr mag/cell

     iteration # 13     ecut=   100.00 Ry     beta= 0.40
     Davidson diagonalization with overlap
     ethr =  6.03E-05,  avg # of iterations =  1.0

     negative rho (up, down):  0.000E+00 9.210E-04

     total cpu time spent up to now is     8076.5 secs

     total energy              =   -2126.08114312 Ry
     estimated scf accuracy    <       0.06601075 Ry

     total magnetization       =    19.00 Bohr mag/cell
     absolute magnetization    =    19.04 Bohr mag/cell

     iteration # 14     ecut=   100.00 Ry     beta= 0.40
     Davidson diagonalization with overlap
     ethr =  3.49E-05,  avg # of iterations =  1.1

     negative rho (up, down):  0.000E+00 9.428E-04

     total cpu time spent up to now is     8537.6 secs

     total energy              =   -2126.08228698 Ry
     estimated scf accuracy    <       0.00485912 Ry

     total magnetization       =    19.00 Bohr mag/cell
     absolute magnetization    =    19.04 Bohr mag/cell

     iteration # 15     ecut=   100.00 Ry     beta= 0.40
     Davidson diagonalization with overlap
     c_bands:  1 eigenvalues not converged
     c_bands:  1 eigenvalues not converged
     c_bands:  1 eigenvalues not converged
     c_bands:  1 eigenvalues not converged
     c_bands:  1 eigenvalues not converged
     c_bands:  1 eigenvalues not converged
     c_bands:  1 eigenvalues not converged
     c_bands:  1 eigenvalues not converged
     c_bands:  1 eigenvalues not converged
     c_bands:  1 eigenvalues not converged
     c_bands:  1 eigenvalues not converged
     c_bands:  2 eigenvalues not converged
     c_bands:  1 eigenvalues not converged
     c_bands:  1 eigenvalues not converged
     c_bands:  1 eigenvalues not converged
     c_bands:  1 eigenvalues not converged
     c_bands:  1 eigenvalues not converged
     c_bands:  1 eigenvalues not converged
     c_bands:  1 eigenvalues not converged
     c_bands:  1 eigenvalues not converged
     c_bands:  1 eigenvalues not converged
     c_bands:  1 eigenvalues not converged
     c_bands:  1 eigenvalues not converged
     c_bands:  1 eigenvalues not converged
     c_bands:  1 eigenvalues not converged
     c_bands:  1 eigenvalues not converged
     c_bands:  1 eigenvalues not converged
     c_bands:  1 eigenvalues not converged
     c_bands:  1 eigenvalues not converged
     c_bands:  1 eigenvalues not converged
     c_bands:  1 eigenvalues not converged
     c_bands:  1 eigenvalues not converged
     c_bands:  1 eigenvalues not converged
     c_bands:  1 eigenvalues not converged
     c_bands:  1 eigenvalues not converged
     c_bands:  1 eigenvalues not converged
     c_bands:  1 eigenvalues not converged
     c_bands:  1 eigenvalues not converged
     c_bands:  1 eigenvalues not converged
     c_bands:  1 eigenvalues not converged
     ethr =  2.57E-06,  avg # of iterations = 14.9

     negative rho (up, down):  0.000E+00 9.314E-04

     total cpu time spent up to now is     9591.4 secs

     total energy              =   -2126.08306027 Ry
     estimated scf accuracy    <       0.00558094 Ry

     total magnetization       =    19.00 Bohr mag/cell
     absolute magnetization    =    19.05 Bohr mag/cell

     iteration # 16     ecut=   100.00 Ry     beta= 0.40
     Davidson diagonalization with overlap
     ethr =  2.57E-06,  avg # of iterations =  1.3

     negative rho (up, down):  0.000E+00 9.326E-04

     total cpu time spent up to now is    10056.8 secs

     total energy              =   -2126.08298590 Ry
     estimated scf accuracy    <       0.00941610 Ry

     total magnetization       =    19.00 Bohr mag/cell
     absolute magnetization    =    19.05 Bohr mag/cell

     iteration # 17     ecut=   100.00 Ry     beta= 0.40
     Davidson diagonalization with overlap
     ethr =  2.57E-06,  avg # of iterations =  1.0

     negative rho (up, down):  0.000E+00 9.314E-04

     total cpu time spent up to now is    10516.0 secs

     total energy              =   -2126.08305149 Ry
     estimated scf accuracy    <       0.00269283 Ry

     total magnetization       =    19.00 Bohr mag/cell
     absolute magnetization    =    19.05 Bohr mag/cell

     iteration # 18     ecut=   100.00 Ry     beta= 0.40
     Davidson diagonalization with overlap
     ethr =  1.42E-06,  avg # of iterations =  1.0

     negative rho (up, down):  0.000E+00 9.283E-04

     total cpu time spent up to now is    10973.8 secs

     total energy              =   -2126.08309914 Ry
     estimated scf accuracy    <       0.00069838 Ry

     total magnetization       =    19.00 Bohr mag/cell
     absolute magnetization    =    19.05 Bohr mag/cell

     iteration # 19     ecut=   100.00 Ry     beta= 0.40
     Davidson diagonalization with overlap
     ethr =  3.70E-07,  avg # of iterations =  2.0

     negative rho (up, down):  0.000E+00 9.230E-04

     total cpu time spent up to now is    11496.5 secs

     total energy              =   -2126.08314121 Ry
     estimated scf accuracy    <       0.00016140 Ry

     total magnetization       =    19.00 Bohr mag/cell
     absolute magnetization    =    19.05 Bohr mag/cell

     iteration # 20     ecut=   100.00 Ry     beta= 0.40
     Davidson diagonalization with overlap
     ethr =  8.54E-08,  avg # of iterations =  4.8

     negative rho (up, down):  0.000E+00 9.211E-04

     total cpu time spent up to now is    12275.0 secs

     total energy              =   -2126.08320014 Ry
     estimated scf accuracy    <       0.00002461 Ry

     total magnetization       =    19.00 Bohr mag/cell
     absolute magnetization    =    19.05 Bohr mag/cell

     iteration # 21     ecut=   100.00 Ry     beta= 0.40
     Davidson diagonalization with overlap
     ethr =  1.30E-08,  avg # of iterations =  1.4

     negative rho (up, down):  0.000E+00 9.189E-04

     total cpu time spent up to now is    12764.5 secs

     total energy              =   -2126.08320139 Ry
     estimated scf accuracy    <       0.00001287 Ry

     total magnetization       =    19.00 Bohr mag/cell
     absolute magnetization    =    19.05 Bohr mag/cell

     iteration # 22     ecut=   100.00 Ry     beta= 0.40
     Davidson diagonalization with overlap
     ethr =  6.81E-09,  avg # of iterations =  2.0

     negative rho (up, down):  0.000E+00 9.191E-04

     total cpu time spent up to now is    13320.7 secs

     total energy              =   -2126.08320665 Ry
     estimated scf accuracy    <       0.00001059 Ry

     total magnetization       =    19.00 Bohr mag/cell
     absolute magnetization    =    19.05 Bohr mag/cell

     iteration # 23     ecut=   100.00 Ry     beta= 0.40
     Davidson diagonalization with overlap
     ethr =  5.60E-09,  avg # of iterations =  1.0

     negative rho (up, down):  0.000E+00 9.197E-04

     total cpu time spent up to now is    13777.6 secs

     total energy              =   -2126.08320735 Ry
     estimated scf accuracy    <       0.00000204 Ry

     total magnetization       =    19.00 Bohr mag/cell
     absolute magnetization    =    19.05 Bohr mag/cell

     iteration # 24     ecut=   100.00 Ry     beta= 0.40
     Davidson diagonalization with overlap
     ethr =  1.08E-09,  avg # of iterations =  2.3

     negative rho (up, down):  0.000E+00 9.203E-04

     total cpu time spent up to now is    14328.1 secs

     total energy              =   -2126.08320770 Ry
     estimated scf accuracy    <       0.00000093 Ry

     total magnetization       =    19.00 Bohr mag/cell
     absolute magnetization    =    19.05 Bohr mag/cell

     iteration # 25     ecut=   100.00 Ry     beta= 0.40
     Davidson diagonalization with overlap
     ethr =  4.91E-10,  avg # of iterations =  1.7

     negative rho (up, down):  0.000E+00 9.206E-04

     total cpu time spent up to now is    14829.1 secs

     total energy              =   -2126.08320781 Ry
     estimated scf accuracy    <       0.00000105 Ry

     total magnetization       =    19.00 Bohr mag/cell
     absolute magnetization    =    19.05 Bohr mag/cell

     iteration # 26     ecut=   100.00 Ry     beta= 0.40
     Davidson diagonalization with overlap
     ethr =  4.91E-10,  avg # of iterations =  1.0

     negative rho (up, down):  0.000E+00 9.210E-04

     total cpu time spent up to now is    15284.8 secs

     total energy              =   -2126.08320787 Ry
     estimated scf accuracy    <       0.00000040 Ry

     total magnetization       =    19.00 Bohr mag/cell
     absolute magnetization    =    19.05 Bohr mag/cell

     iteration # 27     ecut=   100.00 Ry     beta= 0.40
     Davidson diagonalization with overlap
     ethr =  2.13E-10,  avg # of iterations =  1.2

     negative rho (up, down):  0.000E+00 9.211E-04

     total cpu time spent up to now is    15753.5 secs

     total energy              =   -2126.08320792 Ry
     estimated scf accuracy    <       0.00000003 Ry

     total magnetization       =    19.00 Bohr mag/cell
     absolute magnetization    =    19.05 Bohr mag/cell

     iteration # 28     ecut=   100.00 Ry     beta= 0.40
     Davidson diagonalization with overlap
     ethr =  1.40E-11,  avg # of iterations =  4.8

     negative rho (up, down):  0.000E+00 9.211E-04

     total cpu time spent up to now is    16628.7 secs

     total energy              =   -2126.08320794 Ry
     estimated scf accuracy    <       0.00000002 Ry

     total magnetization       =    19.00 Bohr mag/cell
     absolute magnetization    =    19.05 Bohr mag/cell

     iteration # 29     ecut=   100.00 Ry     beta= 0.40
     Davidson diagonalization with overlap
     ethr =  1.06E-11,  avg # of iterations =  2.0

     negative rho (up, down):  0.000E+00 9.211E-04

     total cpu time spent up to now is    17185.9 secs

     total energy              =   -2126.08320795 Ry
     estimated scf accuracy    <       0.00000001 Ry

     total magnetization       =    19.00 Bohr mag/cell
     absolute magnetization    =    19.05 Bohr mag/cell

     iteration # 30     ecut=   100.00 Ry     beta= 0.40
     Davidson diagonalization with overlap
     ethr =  7.48E-12,  avg # of iterations =  2.0

     negative rho (up, down):  0.000E+00 9.210E-04

     total cpu time spent up to now is    17748.8 secs

     total energy              =   -2126.08320796 Ry
     estimated scf accuracy    <          4.9E-09 Ry

     total magnetization       =    19.00 Bohr mag/cell
     absolute magnetization    =    19.05 Bohr mag/cell

     iteration # 31     ecut=   100.00 Ry     beta= 0.40
     Davidson diagonalization with overlap
     ethr =  2.62E-12,  avg # of iterations =  2.0

     negative rho (up, down):  0.000E+00 9.209E-04

     total cpu time spent up to now is    18332.9 secs

     total energy              =   -2126.08320796 Ry
     estimated scf accuracy    <          3.6E-09 Ry

     total magnetization       =    19.00 Bohr mag/cell
     absolute magnetization    =    19.05 Bohr mag/cell

     iteration # 32     ecut=   100.00 Ry     beta= 0.40
     Davidson diagonalization with overlap
     ethr =  1.93E-12,  avg # of iterations =  2.0

     negative rho (up, down):  0.000E+00 9.210E-04

     total cpu time spent up to now is    18900.1 secs

     total energy              =   -2126.08320796 Ry
     estimated scf accuracy    <       0.00000002 Ry

     total magnetization       =    19.00 Bohr mag/cell
     absolute magnetization    =    19.05 Bohr mag/cell

     iteration # 33     ecut=   100.00 Ry     beta= 0.40
     Davidson diagonalization with overlap
     ethr =  1.93E-12,  avg # of iterations =  1.8

     negative rho (up, down):  0.000E+00 9.210E-04

     total cpu time spent up to now is    19411.0 secs

     total energy              =   -2126.08320796 Ry
     estimated scf accuracy    <          4.4E-09 Ry

     total magnetization       =    19.00 Bohr mag/cell
     absolute magnetization    =    19.05 Bohr mag/cell

     iteration # 34     ecut=   100.00 Ry     beta= 0.40
     Davidson diagonalization with overlap
     ethr =  1.93E-12,  avg # of iterations =  1.0

     negative rho (up, down):  0.000E+00 9.209E-04

     total cpu time spent up to now is    19869.5 secs

     total energy              =   -2126.08320796 Ry
     estimated scf accuracy    <          1.4E-09 Ry

     total magnetization       =    19.00 Bohr mag/cell
     absolute magnetization    =    19.05 Bohr mag/cell

     iteration # 35     ecut=   100.00 Ry     beta= 0.40
     Davidson diagonalization with overlap
     ethr =  7.32E-13,  avg # of iterations =  2.0

     negative rho (up, down):  0.000E+00 9.209E-04

     total cpu time spent up to now is    20414.9 secs

     total energy              =   -2126.08320796 Ry
     estimated scf accuracy    <          5.9E-10 Ry

     total magnetization       =    19.00 Bohr mag/cell
     absolute magnetization    =    19.05 Bohr mag/cell

     iteration # 36     ecut=   100.00 Ry     beta= 0.40
     Davidson diagonalization with overlap
     ethr =  3.14E-13,  avg # of iterations =  2.4

     negative rho (up, down):  0.000E+00 9.209E-04

     total cpu time spent up to now is    21004.1 secs

     total energy              =   -2126.08320796 Ry
     estimated scf accuracy    <          1.6E-09 Ry

     total magnetization       =    19.00 Bohr mag/cell
     absolute magnetization    =    19.05 Bohr mag/cell

     iteration # 37     ecut=   100.00 Ry     beta= 0.40
     Davidson diagonalization with overlap
     ethr =  3.14E-13,  avg # of iterations =  2.0

     negative rho (up, down):  0.000E+00 9.209E-04

     Magnetic moment per site:
     atom:    1    charge:    7.8994    magn:    0.0004    constr:    0.0000
     atom:    2    charge:   12.9323    magn:    3.6956    constr:    0.0000
     atom:    3    charge:   12.9399    magn:    3.6770    constr:    0.0000
     atom:    4    charge:   12.9669    magn:    3.6154    constr:    0.0000
     atom:    5    charge:   12.9411    magn:    3.6786    constr:    0.0000
     atom:    6    charge:    0.8358    magn:    0.0099    constr:    0.0000
     atom:    7    charge:    0.8407    magn:    0.0080    constr:    0.0000
     atom:    8    charge:    0.8373    magn:    0.0104    constr:    0.0000
     atom:    9    charge:    0.8344    magn:    0.0083    constr:    0.0000
     atom:   10    charge:    4.2645    magn:    0.1352    constr:    0.0000
     atom:   11    charge:    4.2793    magn:    0.0836    constr:    0.0000
     atom:   12    charge:    4.2677    magn:    0.1275    constr:    0.0000
     atom:   13    charge:    4.2640    magn:    0.0997    constr:    0.0000
     atom:   14    charge:    4.2224    magn:    0.1124    constr:    0.0000
     atom:   15    charge:    4.2294    magn:    0.1366    constr:    0.0000
     atom:   16    charge:    4.2333    magn:    0.0803    constr:    0.0000
     atom:   17    charge:    4.2248    magn:    0.1475    constr:    0.0000
     atom:   18    charge:    4.2364    magn:    0.1517    constr:    0.0000
     atom:   19    charge:    4.2417    magn:    0.1322    constr:    0.0000
     atom:   20    charge:    4.2386    magn:    0.1406    constr:    0.0000
     atom:   21    charge:    4.2429    magn:    0.1174    constr:    0.0000
     atom:   22    charge:    4.2419    magn:    0.1512    constr:    0.0000
     atom:   23    charge:    4.2359    magn:    0.1332    constr:    0.0000
     atom:   24    charge:    4.2355    magn:    0.1490    constr:    0.0000
     atom:   25    charge:    4.2367    magn:    0.1268    constr:    0.0000

     total cpu time spent up to now is    21539.8 secs

     End of self-consistent calculation

 ------ SPIN UP ------------


          k = 0.0000 0.0000 0.0000 ( 37701 PWs)   bands (ev):

   -85.7335 -85.6513 -85.6474 -85.4463 -51.8236 -51.7800 -51.7667 -51.7098
   -51.6856 -51.6407 -51.6016 -51.5810 -51.5679 -51.5221 -51.4071 -51.2179
   -45.3344 -17.3495 -17.3032 -17.2905 -16.3544 -16.2095 -16.0516 -15.9498
   -14.0307 -14.0076 -13.8541 -13.7916 -13.7753 -13.7270 -13.6382 -13.6121
   -13.5656 -13.5257 -13.4838 -13.4303  -4.3985  -3.9369  -3.8693  -3.4982
    -2.4377  -2.1697  -2.0628  -1.9712  -1.7510  -1.6001  -1.5203  -1.4682
    -1.4143  -1.1469  -0.9961  -0.7632  -0.6360  -0.6242  -0.1509  -0.0894
     0.0540   0.0931   0.1938   0.4048   0.4832   0.5022   0.6261   0.7245
     0.7999   0.9372   0.9593   1.1151   1.2970   1.3301   1.3862   1.4011
     1.5439   1.6262   1.7301   1.8251   1.9200   1.9930   2.0268   2.1311
     2.2733   2.3195   2.3596   2.4743   2.5678   2.6053   2.6381   2.7941
     2.9023   2.9214   3.0015   3.0616   3.0761   3.3065   3.3464   3.4807
     3.5663   3.6045   3.7102   3.7647   3.8677   3.9820   4.3143   4.4272
     8.3450  10.3905  10.8692  11.1780  11.5021  12.1875  12.3335  12.6420
    12.8315  13.0043

     occupation numbers 
     1.0000   1.0000   1.0000   1.0000   1.0000   1.0000   1.0000   1.0000
     1.0000   1.0000   1.0000   1.0000   1.0000   1.0000   1.0000   1.0000
     1.0000   1.0000   1.0000   1.0000   1.0000   1.0000   1.0000   1.0000
     1.0000   1.0000   1.0000   1.0000   1.0000   1.0000   1.0000   1.0000
     1.0000   1.0000   1.0000   1.0000   1.0000   1.0000   1.0000   1.0000
     1.0000   1.0000   1.0000   1.0000   1.0000   1.0000   1.0000   1.0000
     1.0000   1.0000   1.0000   1.0000   1.0000   1.0000   1.0000   1.0000
     1.0000   1.0000   1.0000   1.0000   1.0000   1.0000   1.0000   1.0000
     1.0000   1.0000   1.0000   1.0000   1.0000   1.0000   1.0000   1.0000
     1.0000   1.0000   1.0000   1.0000   1.0000   1.0000   1.0000   1.0000
     1.0000   1.0000   1.0000   1.0000   1.0000   1.0000   1.0000   1.0000
     1.0000   1.0000   1.0000   1.0000   1.0000   1.0000   1.0000   1.0000
     1.0000   1.0000   1.0000   1.0000   1.0000   1.0000   1.0000   1.0000
     0.0000   0.0000   0.0000   0.0000   0.0000   0.0000   0.0000   0.0000
     0.0000   0.0000

          k = 0.0000 0.0000 0.2415 ( 37675 PWs)   bands (ev):

   -85.7335 -85.6513 -85.6474 -85.4463 -51.8236 -51.7800 -51.7667 -51.7098
   -51.6856 -51.6407 -51.6016 -51.5810 -51.5679 -51.5221 -51.4071 -51.2179
   -45.3344 -17.3497 -17.3048 -17.2918 -16.3388 -16.2004 -16.0458 -15.9471
   -14.0441 -14.0202 -13.8694 -13.7963 -13.7811 -13.7240 -13.6370 -13.6167
   -13.5645 -13.5290 -13.4815 -13.4314  -4.3770  -3.9335  -3.8644  -3.5078
    -2.3929  -2.1657  -2.0291  -1.9532  -1.7464  -1.6133  -1.5500  -1.4249
    -1.3703  -1.1159  -1.0406  -0.7405  -0.6813  -0.6059  -0.1365  -0.0701
     0.0556   0.1215   0.1952   0.3953   0.4697   0.5000   0.5988   0.7316
     0.7968   0.9338   0.9474   1.1061   1.2505   1.2934   1.3460   1.3914
     1.5815   1.6282   1.6726   1.8136   1.9111   1.9520   2.0292   2.1942
     2.2338   2.3404   2.3722   2.4434   2.5603   2.6310   2.6463   2.7458
     2.8789   2.9188   3.0156   3.0380   3.0649   3.3441   3.3600   3.4842
     3.5826   3.6205   3.7362   3.7618   3.8597   3.9866   4.2901   4.4047
     8.4906  10.4641  10.9052  11.1882  11.5566  12.0879  12.3770  12.5941
    12.7483  12.9470

     occupation numbers 
     1.0000   1.0000   1.0000   1.0000   1.0000   1.0000   1.0000   1.0000
     1.0000   1.0000   1.0000   1.0000   1.0000   1.0000   1.0000   1.0000
     1.0000   1.0000   1.0000   1.0000   1.0000   1.0000   1.0000   1.0000
     1.0000   1.0000   1.0000   1.0000   1.0000   1.0000   1.0000   1.0000
     1.0000   1.0000   1.0000   1.0000   1.0000   1.0000   1.0000   1.0000
     1.0000   1.0000   1.0000   1.0000   1.0000   1.0000   1.0000   1.0000
     1.0000   1.0000   1.0000   1.0000   1.0000   1.0000   1.0000   1.0000
     1.0000   1.0000   1.0000   1.0000   1.0000   1.0000   1.0000   1.0000
     1.0000   1.0000   1.0000   1.0000   1.0000   1.0000   1.0000   1.0000
     1.0000   1.0000   1.0000   1.0000   1.0000   1.0000   1.0000   1.0000
     1.0000   1.0000   1.0000   1.0000   1.0000   1.0000   1.0000   1.0000
     1.0000   1.0000   1.0000   1.0000   1.0000   1.0000   1.0000   1.0000
     1.0000   1.0000   1.0000   1.0000   1.0000   1.0000   1.0000   1.0000
     0.0000   0.0000   0.0000   0.0000   0.0000   0.0000   0.0000   0.0000
     0.0000   0.0000

          k = 0.0000 0.0000 0.4830 ( 37730 PWs)   bands (ev):

   -85.7335 -85.6513 -85.6474 -85.4463 -51.8236 -51.7800 -51.7667 -51.7098
   -51.6856 -51.6407 -51.6016 -51.5810 -51.5679 -51.5221 -51.4071 -51.2179
   -45.3343 -17.3506 -17.3108 -17.2924 -16.2970 -16.1772 -16.0310 -15.9417
   -14.0780 -14.0522 -13.9096 -13.8309 -13.7722 -13.7145 -13.6353 -13.6282
   -13.5621 -13.5372 -13.4758 -13.4343  -4.3144  -3.9209  -3.8605  -3.5461
    -2.2705  -2.1422  -1.9470  -1.9245  -1.7279  -1.6367  -1.5555  -1.4023
    -1.2189  -1.1557  -1.0273  -0.8094  -0.6622  -0.5494  -0.0911  -0.0259
     0.0730   0.1679   0.2066   0.3898   0.4244   0.4945   0.5169   0.7467
     0.7986   0.9012   0.9513   1.0702   1.1382   1.2025   1.3014   1.3767
     1.4071   1.5354   1.7784   1.8034   1.8504   1.8982   2.0808   2.1401
     2.2683   2.3200   2.3691   2.4331   2.4585   2.5746   2.6639   2.7422
     2.7883   2.9798   3.0377   3.0837   3.1142   3.3624   3.4061   3.4941
     3.6302   3.6785   3.7515   3.7847   3.8527   3.9977   4.2158   4.3367
     8.8783  10.6605  10.9700  11.2359  11.6984  11.9688  12.2413  12.5135
    12.5871  12.7106

     occupation numbers 
     1.0000   1.0000   1.0000   1.0000   1.0000   1.0000   1.0000   1.0000
     1.0000   1.0000   1.0000   1.0000   1.0000   1.0000   1.0000   1.0000
     1.0000   1.0000   1.0000   1.0000   1.0000   1.0000   1.0000   1.0000
     1.0000   1.0000   1.0000   1.0000   1.0000   1.0000   1.0000   1.0000
     1.0000   1.0000   1.0000   1.0000   1.0000   1.0000   1.0000   1.0000
     1.0000   1.0000   1.0000   1.0000   1.0000   1.0000   1.0000   1.0000
     1.0000   1.0000   1.0000   1.0000   1.0000   1.0000   1.0000   1.0000
     1.0000   1.0000   1.0000   1.0000   1.0000   1.0000   1.0000   1.0000
     1.0000   1.0000   1.0000   1.0000   1.0000   1.0000   1.0000   1.0000
     1.0000   1.0000   1.0000   1.0000   1.0000   1.0000   1.0000   1.0000
     1.0000   1.0000   1.0000   1.0000   1.0000   1.0000   1.0000   1.0000
     1.0000   1.0000   1.0000   1.0000   1.0000   1.0000   1.0000   1.0000
     1.0000   1.0000   1.0000   1.0000   1.0000   1.0000   1.0000   1.0000
     0.0000   0.0000   0.0000   0.0000   0.0000   0.0000   0.0000   0.0000
     0.0000   0.0000

          k = 0.0000 0.0000 0.7246 ( 37724 PWs)   bands (ev):

   -85.7335 -85.6513 -85.6474 -85.4463 -51.8236 -51.7800 -51.7667 -51.7098
   -51.6856 -51.6407 -51.6016 -51.5810 -51.5679 -51.5221 -51.4071 -51.2179
   -45.3343 -17.3530 -17.3179 -17.2912 -16.2434 -16.1523 -16.0126 -15.9396
   -14.1164 -14.0883 -13.9566 -13.8760 -13.7537 -13.7012 -13.6503 -13.6286
   -13.5626 -13.5444 -13.4695 -13.4379  -4.2180  -3.9160  -3.8595  -3.6185
    -2.1632  -2.0409  -1.9363  -1.8413  -1.6877  -1.6480  -1.5414  -1.3805
    -1.2837  -1.0345  -0.9684  -0.8983  -0.5386  -0.4433  -0.0228   0.0285
     0.0712   0.1631   0.2530   0.3436   0.3909   0.4193   0.5270   0.7333
     0.8066   0.8324   0.9627   0.9980   1.0270   1.0671   1.1435   1.2666
     1.4114   1.4469   1.7156   1.7546   1.8834   1.9807   2.0242   2.1873
     2.2162   2.2663   2.3040   2.3477   2.4548   2.4633   2.5717   2.6763
     2.8459   3.0086   3.1081   3.2284   3.3213   3.3841   3.4159   3.5069
     3.6812   3.7187   3.7638   3.8187   3.8884   4.0052   4.0892   4.2246
     9.4062  10.8429  10.9845  11.3632  11.7525  11.9360  12.0823  12.3580
    12.4717  12.5567

     occupation numbers 
     1.0000   1.0000   1.0000   1.0000   1.0000   1.0000   1.0000   1.0000
     1.0000   1.0000   1.0000   1.0000   1.0000   1.0000   1.0000   1.0000
     1.0000   1.0000   1.0000   1.0000   1.0000   1.0000   1.0000   1.0000
     1.0000   1.0000   1.0000   1.0000   1.0000   1.0000   1.0000   1.0000
     1.0000   1.0000   1.0000   1.0000   1.0000   1.0000   1.0000   1.0000
     1.0000   1.0000   1.0000   1.0000   1.0000   1.0000   1.0000   1.0000
     1.0000   1.0000   1.0000   1.0000   1.0000   1.0000   1.0000   1.0000
     1.0000   1.0000   1.0000   1.0000   1.0000   1.0000   1.0000   1.0000
     1.0000   1.0000   1.0000   1.0000   1.0000   1.0000   1.0000   1.0000
     1.0000   1.0000   1.0000   1.0000   1.0000   1.0000   1.0000   1.0000
     1.0000   1.0000   1.0000   1.0000   1.0000   1.0000   1.0000   1.0000
     1.0000   1.0000   1.0000   1.0000   1.0000   1.0000   1.0000   1.0000
     1.0000   1.0000   1.0000   1.0000   1.0000   1.0000   1.0000   1.0000
     0.0000   0.0000   0.0000   0.0000   0.0000   0.0000   0.0000   0.0000
     0.0000   0.0000

          k = 0.0000 0.0000 0.9661 ( 37764 PWs)   bands (ev):

   -85.7335 -85.6513 -85.6474 -85.4463 -51.8236 -51.7800 -51.7667 -51.7098
   -51.6856 -51.6407 -51.6016 -51.5810 -51.5679 -51.5221 -51.4071 -51.2179
   -45.3343 -17.3555 -17.3217 -17.2900 -16.2008 -16.1409 -15.9971 -15.9432
   -14.1412 -14.1114 -13.9882 -13.9069 -13.7358 -13.6908 -13.6681 -13.6267
   -13.5682 -13.5449 -13.4652 -13.4407  -4.1084  -3.9734  -3.8195  -3.6991
    -2.1140  -1.9917  -1.8827  -1.7778  -1.6649  -1.6000  -1.5410  -1.4755
    -1.2473  -1.1240  -0.9095  -0.7951  -0.3627  -0.2571  -0.0570  -0.0034
     0.0828   0.1188   0.2384   0.2709   0.3778   0.4744   0.5802   0.6318
     0.7574   0.7828   0.8549   0.9349   0.9693   1.0308   1.0533   1.2471
     1.4304   1.4868   1.5985   1.6857   1.9005   1.9914   2.0901   2.1225
     2.1873   2.2479   2.2737   2.3068   2.3825   2.4010   2.5300   2.6599
     2.8759   3.0084   3.1673   3.3515   3.3819   3.4296   3.5117   3.6054
     3.6767   3.7020   3.8296   3.8528   3.9152   3.9530   4.0018   4.0893
     9.9724  10.5238  11.2480  11.5307  11.6377  11.7833  12.1104  12.3023
    12.4670  12.5289

     occupation numbers 
     1.0000   1.0000   1.0000   1.0000   1.0000   1.0000   1.0000   1.0000
     1.0000   1.0000   1.0000   1.0000   1.0000   1.0000   1.0000   1.0000
     1.0000   1.0000   1.0000   1.0000   1.0000   1.0000   1.0000   1.0000
     1.0000   1.0000   1.0000   1.0000   1.0000   1.0000   1.0000   1.0000
     1.0000   1.0000   1.0000   1.0000   1.0000   1.0000   1.0000   1.0000
     1.0000   1.0000   1.0000   1.0000   1.0000   1.0000   1.0000   1.0000
     1.0000   1.0000   1.0000   1.0000   1.0000   1.0000   1.0000   1.0000
     1.0000   1.0000   1.0000   1.0000   1.0000   1.0000   1.0000   1.0000
     1.0000   1.0000   1.0000   1.0000   1.0000   1.0000   1.0000   1.0000
     1.0000   1.0000   1.0000   1.0000   1.0000   1.0000   1.0000   1.0000
     1.0000   1.0000   1.0000   1.0000   1.0000   1.0000   1.0000   1.0000
     1.0000   1.0000   1.0000   1.0000   1.0000   1.0000   1.0000   1.0000
     1.0000   1.0000   1.0000   1.0000   1.0000   1.0000   1.0000   1.0000
     0.0000   0.0000   0.0000   0.0000   0.0000   0.0000   0.0000   0.0000
     0.0000   0.0000

          k = 0.0000 0.2470 0.0000 ( 37673 PWs)   bands (ev):

   -85.7335 -85.6513 -85.6474 -85.4463 -51.8236 -51.7800 -51.7667 -51.7098
   -51.6856 -51.6407 -51.6016 -51.5810 -51.5679 -51.5221 -51.4071 -51.2179
   -45.3344 -17.3494 -17.3036 -17.2904 -16.3387 -16.2064 -16.0507 -15.9648
   -14.0276 -14.0058 -13.8576 -13.7983 -13.7805 -13.7342 -13.6858 -13.6021
   -13.5559 -13.5120 -13.4638 -13.4298  -4.3709  -3.9128  -3.8896  -3.5083
    -2.4082  -2.1573  -2.0682  -1.9756  -1.7351  -1.5943  -1.5004  -1.4621
    -1.3687  -1.1533  -0.9838  -0.7491  -0.6822  -0.5833  -0.1067  -0.0481
     0.0347   0.0789   0.1409   0.2605   0.3861   0.6029   0.6994   0.7481
     0.8659   0.9327   0.9528   1.0850   1.1548   1.1660   1.3228   1.3997
     1.5430   1.7559   1.8192   1.8723   1.9159   1.9693   2.0174   2.0745
     2.2763   2.2886   2.3383   2.4155   2.5042   2.6417   2.7456   2.8314
     2.8781   2.8892   2.9438   3.0908   3.1401   3.3078   3.3435   3.4769
     3.5248   3.5977   3.7154   3.7741   3.8240   4.0142   4.3239   4.4031
     8.5045  10.4820  10.9394  11.0988  11.5855  12.1496  12.3910  12.7094
    12.7650  12.9790

     occupation numbers 
     1.0000   1.0000   1.0000   1.0000   1.0000   1.0000   1.0000   1.0000
     1.0000   1.0000   1.0000   1.0000   1.0000   1.0000   1.0000   1.0000
     1.0000   1.0000   1.0000   1.0000   1.0000   1.0000   1.0000   1.0000
     1.0000   1.0000   1.0000   1.0000   1.0000   1.0000   1.0000   1.0000
     1.0000   1.0000   1.0000   1.0000   1.0000   1.0000   1.0000   1.0000
     1.0000   1.0000   1.0000   1.0000   1.0000   1.0000   1.0000   1.0000
     1.0000   1.0000   1.0000   1.0000   1.0000   1.0000   1.0000   1.0000
     1.0000   1.0000   1.0000   1.0000   1.0000   1.0000   1.0000   1.0000
     1.0000   1.0000   1.0000   1.0000   1.0000   1.0000   1.0000   1.0000
     1.0000   1.0000   1.0000   1.0000   1.0000   1.0000   1.0000   1.0000
     1.0000   1.0000   1.0000   1.0000   1.0000   1.0000   1.0000   1.0000
     1.0000   1.0000   1.0000   1.0000   1.0000   1.0000   1.0000   1.0000
     1.0000   1.0000   1.0000   1.0000   1.0000   1.0000   1.0000   1.0000
     0.0000   0.0000   0.0000   0.0000   0.0000   0.0000   0.0000   0.0000
     0.0000   0.0000

          k = 0.0000 0.2470 0.2415 ( 37679 PWs)   bands (ev):

   -85.7335 -85.6513 -85.6474 -85.4463 -51.8236 -51.7800 -51.7667 -51.7098
   -51.6856 -51.6407 -51.6016 -51.5810 -51.5679 -51.5221 -51.4071 -51.2179
   -45.3344 -17.3495 -17.3048 -17.2919 -16.3250 -16.1973 -16.0450 -15.9602
   -14.0431 -14.0178 -13.8730 -13.8055 -13.7863 -13.7269 -13.6817 -13.6042
   -13.5566 -13.5176 -13.4627 -13.4310  -4.3497  -3.9119  -3.8804  -3.5180
    -2.3645  -2.1505  -2.0345  -1.9590  -1.7290  -1.6136  -1.5221  -1.4012
    -1.3435  -1.1215  -1.0273  -0.7675  -0.6800  -0.5747  -0.0971  -0.0443
     0.0386   0.0939   0.1475   0.2696   0.3751   0.5962   0.6588   0.7503
     0.8654   0.9005   0.9615   1.0715   1.1286   1.1615   1.2947   1.3888
     1.6361   1.6804   1.8045   1.8566   1.8948   1.9388   2.0034   2.1344
     2.2307   2.3056   2.3604   2.4151   2.4981   2.6018   2.7073   2.8204
     2.8468   2.8955   2.9743   3.0669   3.1121   3.3359   3.3727   3.4841
     3.5289   3.6231   3.7298   3.7734   3.8244   4.0207   4.3086   4.3883
     8.6438  10.5555  10.9645  11.1385  11.6257  12.0865  12.4064  12.5965
    12.7598  12.9401

     occupation numbers 
     1.0000   1.0000   1.0000   1.0000   1.0000   1.0000   1.0000   1.0000
     1.0000   1.0000   1.0000   1.0000   1.0000   1.0000   1.0000   1.0000
     1.0000   1.0000   1.0000   1.0000   1.0000   1.0000   1.0000   1.0000
     1.0000   1.0000   1.0000   1.0000   1.0000   1.0000   1.0000   1.0000
     1.0000   1.0000   1.0000   1.0000   1.0000   1.0000   1.0000   1.0000
     1.0000   1.0000   1.0000   1.0000   1.0000   1.0000   1.0000   1.0000
     1.0000   1.0000   1.0000   1.0000   1.0000   1.0000   1.0000   1.0000
     1.0000   1.0000   1.0000   1.0000   1.0000   1.0000   1.0000   1.0000
     1.0000   1.0000   1.0000   1.0000   1.0000   1.0000   1.0000   1.0000
     1.0000   1.0000   1.0000   1.0000   1.0000   1.0000   1.0000   1.0000
     1.0000   1.0000   1.0000   1.0000   1.0000   1.0000   1.0000   1.0000
     1.0000   1.0000   1.0000   1.0000   1.0000   1.0000   1.0000   1.0000
     1.0000   1.0000   1.0000   1.0000   1.0000   1.0000   1.0000   1.0000
     0.0000   0.0000   0.0000   0.0000   0.0000   0.0000   0.0000   0.0000
     0.0000   0.0000

          k = 0.0000 0.2470 0.4830 ( 37698 PWs)   bands (ev):

   -85.7335 -85.6513 -85.6474 -85.4463 -51.8236 -51.7800 -51.7667 -51.7098
   -51.6856 -51.6407 -51.6016 -51.5810 -51.5679 -51.5221 -51.4071 -51.2179
   -45.3343 -17.3503 -17.3105 -17.2927 -16.2856 -16.1748 -16.0295 -15.9516
   -14.0799 -14.0505 -13.9176 -13.8387 -13.7753 -13.7167 -13.6756 -13.6132
   -13.5556 -13.5264 -13.4593 -13.4338  -4.2885  -3.9067  -3.8653  -3.5546
    -2.2463  -2.1225  -1.9523  -1.9297  -1.7090  -1.6384  -1.5254  -1.3620
    -1.2154  -1.1393  -1.0303  -0.8526  -0.6369  -0.5410  -0.0688  -0.0261
     0.0414   0.0926   0.1862   0.3105   0.3812   0.5588   0.5939   0.7489
     0.8227   0.8933   0.9587   1.0293   1.0737   1.1487   1.2326   1.3869
     1.4715   1.6463   1.7744   1.8112   1.8620   1.8976   2.0794   2.1200
     2.1978   2.3261   2.3716   2.3855   2.4622   2.5321   2.6340   2.7310
     2.8309   2.9331   3.0116   3.1002   3.1424   3.3633   3.4023   3.5042
     3.5810   3.6689   3.7298   3.7803   3.8618   4.0268   4.2627   4.3377
     9.0172  10.7483  11.0272  11.2319  11.7490  11.9956  12.2727  12.4806
    12.6273  12.7527

     occupation numbers 
     1.0000   1.0000   1.0000   1.0000   1.0000   1.0000   1.0000   1.0000
     1.0000   1.0000   1.0000   1.0000   1.0000   1.0000   1.0000   1.0000
     1.0000   1.0000   1.0000   1.0000   1.0000   1.0000   1.0000   1.0000
     1.0000   1.0000   1.0000   1.0000   1.0000   1.0000   1.0000   1.0000
     1.0000   1.0000   1.0000   1.0000   1.0000   1.0000   1.0000   1.0000
     1.0000   1.0000   1.0000   1.0000   1.0000   1.0000   1.0000   1.0000
     1.0000   1.0000   1.0000   1.0000   1.0000   1.0000   1.0000   1.0000
     1.0000   1.0000   1.0000   1.0000   1.0000   1.0000   1.0000   1.0000
     1.0000   1.0000   1.0000   1.0000   1.0000   1.0000   1.0000   1.0000
     1.0000   1.0000   1.0000   1.0000   1.0000   1.0000   1.0000   1.0000
     1.0000   1.0000   1.0000   1.0000   1.0000   1.0000   1.0000   1.0000
     1.0000   1.0000   1.0000   1.0000   1.0000   1.0000   1.0000   1.0000
     1.0000   1.0000   1.0000   1.0000   1.0000   1.0000   1.0000   1.0000
     0.0000   0.0000   0.0000   0.0000   0.0000   0.0000   0.0000   0.0000
     0.0000   0.0000

          k = 0.0000 0.2470 0.7246 ( 37707 PWs)   bands (ev):

   -85.7335 -85.6513 -85.6474 -85.4463 -51.8236 -51.7800 -51.7667 -51.7098
   -51.6856 -51.6407 -51.6016 -51.5810 -51.5679 -51.5221 -51.4071 -51.2179
   -45.3343 -17.3525 -17.3176 -17.2914 -16.2344 -16.1506 -16.0105 -15.9457
   -14.1206 -14.0881 -13.9675 -13.8833 -13.7562 -13.7029 -13.6747 -13.6258
   -13.5537 -13.5342 -13.4551 -13.4373  -4.1953  -3.9149  -3.8454  -3.6231
    -2.1401  -2.0250  -1.9353  -1.8457  -1.6738  -1.6440  -1.5139  -1.3497
    -1.2598  -1.0397  -0.9836  -0.8990  -0.5438  -0.4659  -0.0965   0.0104
     0.0369   0.0984   0.2569   0.3831   0.4111   0.4854   0.5518   0.7355
     0.7813   0.8771   0.9334   0.9841   1.0152   1.0982   1.1181   1.2311
     1.3884   1.5212   1.6748   1.7902   1.8952   1.9587   2.0060   2.1421
     2.1769   2.3076   2.3330   2.3663   2.4035   2.4414   2.5677   2.6594
     2.8359   2.9432   3.0906   3.2199   3.2829   3.3787   3.4174   3.5195
     3.6114   3.6955   3.7548   3.7997   3.9288   4.0271   4.1892   4.2539
     9.5302  10.9358  11.0471  11.3913  11.8074  11.9955  12.1001  12.3751
    12.4549  12.5448

     occupation numbers 
     1.0000   1.0000   1.0000   1.0000   1.0000   1.0000   1.0000   1.0000
     1.0000   1.0000   1.0000   1.0000   1.0000   1.0000   1.0000   1.0000
     1.0000   1.0000   1.0000   1.0000   1.0000   1.0000   1.0000   1.0000
     1.0000   1.0000   1.0000   1.0000   1.0000   1.0000   1.0000   1.0000
     1.0000   1.0000   1.0000   1.0000   1.0000   1.0000   1.0000   1.0000
     1.0000   1.0000   1.0000   1.0000   1.0000   1.0000   1.0000   1.0000
     1.0000   1.0000   1.0000   1.0000   1.0000   1.0000   1.0000   1.0000
     1.0000   1.0000   1.0000   1.0000   1.0000   1.0000   1.0000   1.0000
     1.0000   1.0000   1.0000   1.0000   1.0000   1.0000   1.0000   1.0000
     1.0000   1.0000   1.0000   1.0000   1.0000   1.0000   1.0000   1.0000
     1.0000   1.0000   1.0000   1.0000   1.0000   1.0000   1.0000   1.0000
     1.0000   1.0000   1.0000   1.0000   1.0000   1.0000   1.0000   1.0000
     1.0000   1.0000   1.0000   1.0000   1.0000   1.0000   1.0000   1.0000
     0.0000   0.0000   0.0000   0.0000   0.0000   0.0000   0.0000   0.0000
     0.0000   0.0000

          k = 0.0000 0.2470 0.9661 ( 37706 PWs)   bands (ev):

   -85.7335 -85.6513 -85.6474 -85.4463 -51.8236 -51.7800 -51.7667 -51.7098
   -51.6856 -51.6407 -51.6016 -51.5810 -51.5679 -51.5221 -51.4071 -51.2179
   -45.3343 -17.3550 -17.3216 -17.2902 -16.1941 -16.1372 -15.9973 -15.9454
   -14.1468 -14.1124 -14.0002 -13.9139 -13.7391 -13.6947 -13.6805 -13.6344
   -13.5568 -13.5327 -13.4519 -13.4399  -4.0925  -3.9639  -3.8098  -3.6962
    -2.0931  -1.9789  -1.8779  -1.7792  -1.6645  -1.5957  -1.5081  -1.4432
    -1.2261  -1.1270  -0.9134  -0.7924  -0.4180  -0.3192  -0.1992  -0.1184
     0.1302   0.1876   0.3019   0.3607   0.3985   0.5112   0.6155   0.6323
     0.7689   0.7873   0.8685   0.9275   0.9714   0.9987   1.0507   1.1760
     1.4026   1.5068   1.5787   1.6997   1.8986   1.9813   2.0213   2.0901
     2.2078   2.2353   2.2904   2.3366   2.3893   2.4219   2.5225   2.6377
     2.8424   2.9410   3.1476   3.3356   3.3805   3.4053   3.4735   3.5223
     3.5967   3.6836   3.7921   3.8604   3.9743   4.0215   4.1022   4.1719
    10.0854  10.6217  11.3167  11.5845  11.6955  11.8432  12.1572  12.3427
    12.3761  12.4815

     occupation numbers 
     1.0000   1.0000   1.0000   1.0000   1.0000   1.0000   1.0000   1.0000
     1.0000   1.0000   1.0000   1.0000   1.0000   1.0000   1.0000   1.0000
     1.0000   1.0000   1.0000   1.0000   1.0000   1.0000   1.0000   1.0000
     1.0000   1.0000   1.0000   1.0000   1.0000   1.0000   1.0000   1.0000
     1.0000   1.0000   1.0000   1.0000   1.0000   1.0000   1.0000   1.0000
     1.0000   1.0000   1.0000   1.0000   1.0000   1.0000   1.0000   1.0000
     1.0000   1.0000   1.0000   1.0000   1.0000   1.0000   1.0000   1.0000
     1.0000   1.0000   1.0000   1.0000   1.0000   1.0000   1.0000   1.0000
     1.0000   1.0000   1.0000   1.0000   1.0000   1.0000   1.0000   1.0000
     1.0000   1.0000   1.0000   1.0000   1.0000   1.0000   1.0000   1.0000
     1.0000   1.0000   1.0000   1.0000   1.0000   1.0000   1.0000   1.0000
[...]
     atom   24 type  3   force =    -0.00571414    0.00496491    0.00307923
     atom   25 type  3   force =     0.00595869   -0.00359724    0.00325882
     The non-local contrib.  to forces
     atom    1 type  2   force =     0.06641175   -0.02908320   -0.02656561
     atom    2 type  1   force =     0.08655830   -0.03345062    0.13236010
     atom    3 type  1   force =     0.03478154    0.00226313    0.11437046
     atom    4 type  1   force =    -0.19375907    0.06677304   -0.09059906
     atom    5 type  1   force =    -0.02205153   -0.01383863   -0.10682825
     atom    6 type  4   force =    -0.07055071   -0.00064019   -0.06181034
     atom    7 type  4   force =     0.08578906   -0.00040720   -0.03467561
     atom    8 type  4   force =     0.04938720   -0.00626366    0.06922746
     atom    9 type  4   force =    -0.04709055    0.00135043    0.06614203
     atom   10 type  3   force =     0.29823974    0.02098308   -1.52527357
     atom   11 type  3   force =    -0.08979311    0.01244240   -1.45969724
     atom   12 type  3   force =    -0.38708153   -0.01870685    1.52811079
     atom   13 type  3   force =     0.23035060    0.01178833    1.52546942
     atom   14 type  3   force =     1.26216813    0.01343480   -0.59223743
     atom   15 type  3   force =    -1.22962509   -0.01903652   -0.73396260
     atom   16 type  3   force =    -1.23869553    0.04799617    0.28581140
     atom   17 type  3   force =     1.20436337    0.00856523    0.60302193
     atom   18 type  3   force =    -0.55126984   -1.06157025    0.77059959
     atom   19 type  3   force =     0.58663447    1.09280465    0.82902352
     atom   20 type  3   force =     0.62193350   -1.07937515   -0.69146359
     atom   21 type  3   force =    -0.68037846    1.01251586   -0.61221994
     atom   22 type  3   force =     0.54726348    1.05776926   -0.66483365
     atom   23 type  3   force =    -0.55119882   -1.03603207   -0.75825831
     atom   24 type  3   force =    -0.55831564    1.07329087    0.75947590
     atom   25 type  3   force =     0.53691642   -1.14511711    0.79088641
     The ionic contribution  to forces
     atom    1 type  2   force =    -2.87324714   -0.37455658    1.07366477
     atom    2 type  1   force =     0.45292224    0.16702456   -0.21182210
     atom    3 type  1   force =    -9.33463841   -0.55220147   -0.19603227
     atom    4 type  1   force =     2.50236894   -0.72172160    0.10601890
     atom    5 type  1   force =     9.74229649    0.88310870    0.48953536
     atom    6 type  4   force =    -4.43335308    0.02463241    0.09919097
     atom    7 type  4   force =     1.49756997   -0.78179813    0.35445658
     atom    8 type  4   force =     5.73705639    0.05291996   -0.20344827
     atom    9 type  4   force =    -3.32853607    0.91342125   -0.53584979
     atom   10 type  3   force =   -10.30566982   -0.07503362    3.08889852
     atom   11 type  3   force =     4.21170974   -1.27695145    1.81507692
     atom   12 type  3   force =    11.96663488    0.19403226   -3.18393794
     atom   13 type  3   force =    -7.98748738    1.10764477   -2.63643043
     atom   14 type  3   force =     0.36020452    1.12557059    4.79411187
     atom   15 type  3   force =    -2.09888843    0.10870356    6.28011231
     atom   16 type  3   force =    -1.66853139   -1.86592915   -2.02483123
     atom   17 type  3   force =     3.53367594   -0.11092035   -5.55012371
     atom   18 type  3   force =    -4.45267478    2.56786248   -3.05275088
     atom   19 type  3   force =     1.38080838   -3.39855819   -3.05140479
     atom   20 type  3   force =     5.57029336    3.79396105    2.60327962
     atom   21 type  3   force =     0.27961572   -1.21745269    0.34129324
     atom   22 type  3   force =     5.57197194   -3.67215918    2.27553428
     atom   23 type  3   force =    -2.32128789    1.83468438    2.52881439
     atom   24 type  3   force =    -4.64039986   -2.73427975   -2.97175040
     atom   25 type  3   force =     0.63758571    4.00799621   -2.23160591
     The local contribution  to forces
     atom    1 type  2   force =     2.80108339    0.41360234   -1.05018852
     atom    2 type  1   force =    -0.53672374   -0.13438236    0.07515152
     atom    3 type  1   force =     9.28939664    0.55029809    0.08204941
     atom    4 type  1   force =    -2.30684119    0.65519946   -0.00877540
     atom    5 type  1   force =    -9.70789607   -0.87101911   -0.38369478
     atom    6 type  4   force =     4.45489072   -0.02448872   -0.05287581
     atom    7 type  4   force =    -1.53601265    0.78142296   -0.32925665
     atom    8 type  4   force =    -5.74040318   -0.04622034    0.15339529
     atom    9 type  4   force =     3.33032444   -0.91444249    0.48433874
     atom   10 type  3   force =    10.01969686    0.05393138   -1.57334295
     atom   11 type  3   force =    -4.12522834    1.26508239   -0.36443268
     atom   12 type  3   force =   -11.59335750   -0.17665990    1.66439129
     atom   13 type  3   force =     7.76471777   -1.11987198    1.12210238
     atom   14 type  3   force =    -1.55535347   -1.13990902   -4.21792314
     atom   15 type  3   force =     3.26604203   -0.09036774   -5.57044445
     atom   16 type  3   force =     2.83730613    1.81789774    1.74913783
     atom   17 type  3   force =    -4.67647777    0.10247362    4.96545213
     atom   18 type  3   force =     4.99329199   -1.52051910    2.29278022
     atom   19 type  3   force =    -1.95622829    2.31658850    2.23418009
     atom   20 type  3   force =    -6.17811948   -2.72942347   -1.92173791
     atom   21 type  3   force =     0.38661081    0.21759519    0.26406984
     atom   22 type  3   force =    -6.10674541    2.62683453   -1.61981314
     atom   23 type  3   force =     2.86042576   -0.81098557   -1.78055855
     atom   24 type  3   force =     5.18801510    1.67535426    2.22233476
     atom   25 type  3   force =    -1.16384094   -2.87654402    1.45127361
     The core correction contribution to forces
     atom    1 type  2   force =     0.00000000    0.00000000    0.00000000
     atom    2 type  1   force =    -0.00138174    0.00028611   -0.00058544
     atom    3 type  1   force =    -0.00014147   -0.00004508   -0.00033884
     atom    4 type  1   force =     0.00342345   -0.00070761    0.00001073
     atom    5 type  1   force =    -0.00018044    0.00023519    0.00036582
     atom    6 type  4   force =     0.00671077    0.00006496    0.00497166
     atom    7 type  4   force =    -0.00755988    0.00022977    0.00286971
     atom    8 type  4   force =    -0.00529625    0.00033498   -0.00553887
     atom    9 type  4   force =     0.00495340   -0.00050225   -0.00501782
     atom   10 type  3   force =    -0.00341406   -0.00019620    0.01336446
     atom   11 type  3   force =     0.00152084   -0.00010589    0.01264371
     atom   12 type  3   force =     0.00422358    0.00020144   -0.01332765
     atom   13 type  3   force =    -0.00278189   -0.00010533   -0.01333111
     atom   14 type  3   force =    -0.01162240   -0.00015082    0.00597938
     atom   15 type  3   force =     0.01133795    0.00018675    0.00731088
     atom   16 type  3   force =     0.01137548   -0.00038951   -0.00302747
     atom   17 type  3   force =    -0.01117507   -0.00008131   -0.00606645
     atom   18 type  3   force =     0.00491427    0.00927357   -0.00710557
     atom   19 type  3   force =    -0.00519403   -0.00947140   -0.00766742
     atom   20 type  3   force =    -0.00563978    0.00945804    0.00633488
     atom   21 type  3   force =     0.00609311   -0.00889328    0.00565296
     atom   22 type  3   force =    -0.00492757   -0.00925022    0.00607554
     atom   23 type  3   force =     0.00491191    0.00906054    0.00704770
     atom   24 type  3   force =     0.00498769   -0.00940372   -0.00697789
     atom   25 type  3   force =    -0.00470953    0.01006559   -0.00729601
     The Hubbard contrib.    to forces
     atom    1 type  2   force =     0.00000000    0.00000000    0.00000000
     atom    2 type  1   force =     0.00000000    0.00000000    0.00000000
     atom    3 type  1   force =     0.00000000    0.00000000    0.00000000
     atom    4 type  1   force =     0.00000000    0.00000000    0.00000000
     atom    5 type  1   force =     0.00000000    0.00000000    0.00000000
     atom    6 type  4   force =     0.00000000    0.00000000    0.00000000
     atom    7 type  4   force =     0.00000000    0.00000000    0.00000000
     atom    8 type  4   force =     0.00000000    0.00000000    0.00000000
     atom    9 type  4   force =     0.00000000    0.00000000    0.00000000
     atom   10 type  3   force =     0.00000000    0.00000000    0.00000000
     atom   11 type  3   force =     0.00000000    0.00000000    0.00000000
     atom   12 type  3   force =     0.00000000    0.00000000    0.00000000
     atom   13 type  3   force =     0.00000000    0.00000000    0.00000000
     atom   14 type  3   force =     0.00000000    0.00000000    0.00000000
     atom   15 type  3   force =     0.00000000    0.00000000    0.00000000
     atom   16 type  3   force =     0.00000000    0.00000000    0.00000000
     atom   17 type  3   force =     0.00000000    0.00000000    0.00000000
     atom   18 type  3   force =     0.00000000    0.00000000    0.00000000
     atom   19 type  3   force =     0.00000000    0.00000000    0.00000000
     atom   20 type  3   force =     0.00000000    0.00000000    0.00000000
     atom   21 type  3   force =     0.00000000    0.00000000    0.00000000
     atom   22 type  3   force =     0.00000000    0.00000000    0.00000000
     atom   23 type  3   force =     0.00000000    0.00000000    0.00000000
     atom   24 type  3   force =     0.00000000    0.00000000    0.00000000
     atom   25 type  3   force =     0.00000000    0.00000000    0.00000000
     The SCF correction term to forces
     atom    1 type  2   force =     0.00001004   -0.00000063   -0.00000104
     atom    2 type  1   force =     0.00001213   -0.00000027    0.00000178
     atom    3 type  1   force =     0.00000467    0.00000032   -0.00000091
     atom    4 type  1   force =    -0.00000394   -0.00000142   -0.00000092
     atom    5 type  1   force =    -0.00000692    0.00000159   -0.00000095
     atom    6 type  4   force =    -0.00000510   -0.00000001   -0.00000130
     atom    7 type  4   force =     0.00000711    0.00000010    0.00000084
     atom    8 type  4   force =    -0.00000781   -0.00000048    0.00000117
     atom    9 type  4   force =     0.00000328    0.00000044    0.00000056
     atom   10 type  3   force =    -0.00000283   -0.00000000    0.00000134
     atom   11 type  3   force =     0.00001036   -0.00000001   -0.00000291
     atom   12 type  3   force =    -0.00001020   -0.00000046   -0.00000344
     atom   13 type  3   force =     0.00000289    0.00000027    0.00000036
     atom   14 type  3   force =     0.00000687    0.00000010   -0.00000023
     atom   15 type  3   force =    -0.00001094    0.00000001    0.00000146
     atom   16 type  3   force =     0.00000954   -0.00000025    0.00000189
     atom   17 type  3   force =    -0.00000776    0.00000020   -0.00000032
     atom   18 type  3   force =    -0.00000146   -0.00000335   -0.00000183
     atom   19 type  3   force =     0.00000692   -0.00000188    0.00000191
     atom   20 type  3   force =    -0.00000625   -0.00000165    0.00000235
     atom   21 type  3   force =     0.00000157   -0.00000248   -0.00000122
     atom   22 type  3   force =    -0.00000665    0.00000135    0.00000242
     atom   23 type  3   force =     0.00000188    0.00000317   -0.00000145
     atom   24 type  3   force =    -0.00000131    0.00000311   -0.00000178
     atom   25 type  3   force =     0.00000714    0.00000196    0.00000207

     Total force =     0.143817     Total SCF correction =     0.000037


     Computing stress (Cartesian axis) and pressure


     negative rho (up, down):  0.000E+00 9.209E-04
          total   stress  (Ry/bohr**3)                   (kbar)     P=      -74.22
  -0.00100403   0.00000607  -0.00002750         -147.70        0.89       -4.05
   0.00000607  -0.00034084  -0.00002115            0.89      -50.14       -3.11
  -0.00002750  -0.00002115  -0.00016873           -4.05       -3.11      -24.82

     kinetic stress (kbar)  25360.45     -7.21     -9.79
                               -7.21  25654.46     -4.65
                               -9.79     -4.65  25478.17

     local   stress (kbar)  -3346.21  -1641.80   1056.63
                            -1641.80 -14958.36    643.27
                             1056.63    643.27  -8723.40

     nonloc. stress (kbar)  -6449.60     -1.92     -2.39
                               -1.92  -6409.38      1.12
                               -2.39      1.12  -6397.57

     hartree stress (kbar)  11675.38    665.10   -426.31
                              665.10  17744.93   -255.34
                             -426.31   -255.34  14623.94

     exc-cor stress (kbar)  -2697.82      0.93     -0.89
                                0.93  -2704.11     -0.43
                               -0.89     -0.43  -2701.94

     corecor stress (kbar)  -3012.61     -0.25      1.11
                               -0.25  -3012.83      0.04
                                1.11      0.04  -3015.17

     ewald   stress (kbar) -21677.29    986.04   -622.39
                              986.04 -16364.84   -387.12
                             -622.39   -387.12 -19288.85

     hubbard stress (kbar)      0.00      0.00      0.00
                                0.00      0.00      0.00
                                0.00      0.00      0.00

     DFT-D   stress (kbar)      0.00      0.00      0.00
                                0.00      0.00      0.00
                                0.00      0.00      0.00

     XDM     stress (kbar)      0.00      0.00      0.00
                                0.00      0.00      0.00
                                0.00      0.00      0.00

     dft-nl  stress (kbar)      0.00      0.00      0.00
                                0.00      0.00      0.00
                                0.00      0.00      0.00

     TS-vdW  stress (kbar)      0.00      0.00      0.00
                                0.00      0.00      0.00
                                0.00      0.00      0.00



     init_run     :    218.50s CPU    223.24s WALL (       1 calls)
     electrons    :  21004.31s CPU  21315.45s WALL (       1 calls)
     forces       :    136.97s CPU    139.60s WALL (       1 calls)
     stress       :   1139.81s CPU   1149.09s WALL (       1 calls)

     Called by init_run:
     wfcinit      :    207.37s CPU    211.16s WALL (       1 calls)
     wfcinit:atom :      4.39s CPU      4.50s WALL (     316 calls)
     wfcinit:wfcr :    191.75s CPU    195.21s WALL (     316 calls)
     potinit      :      3.83s CPU      4.00s WALL (       1 calls)
     hinit0       :      3.75s CPU      3.88s WALL (       1 calls)

     Called by electrons:
     c_bands      :  18618.89s CPU  18840.10s WALL (      37 calls)
     sum_band     :   2257.78s CPU   2319.80s WALL (      37 calls)
     v_of_rho     :     37.56s CPU     39.25s WALL (      38 calls)
     v_h          :      2.15s CPU      2.27s WALL (      38 calls)
     v_xc         :     37.73s CPU     39.36s WALL (      40 calls)
     newd         :     62.84s CPU     88.93s WALL (      38 calls)
     PAW_pot      :     17.67s CPU     17.77s WALL (      38 calls)
     mix_rho      :      8.62s CPU      9.01s WALL (      37 calls)

     Called by c_bands:
     init_us_2    :    361.15s CPU    369.61s WALL (   24332 calls)
     cegterg      :  18025.71s CPU  18234.51s WALL (   11692 calls)

     Called by sum_band:
     sum_band:wei :      0.66s CPU      0.66s WALL (      37 calls)
     sum_band:loo :   2071.86s CPU   2098.49s WALL (      37 calls)
     sum_band:buf :     89.26s CPU     91.26s WALL (   11692 calls)
     sum_band:ini :    174.63s CPU    178.32s WALL (   11692 calls)
     sum_band:cal :    924.82s CPU    935.68s WALL (   11692 calls)
     sum_band:bec :      9.24s CPU      9.41s WALL (   11692 calls)
     addusdens    :    174.69s CPU    209.78s WALL (      37 calls)
     addusd:skk   :      1.03s CPU      1.07s WALL (     111 calls)
     addusd:dgemm :     73.28s CPU    101.32s WALL (     222 calls)
     addusd:qvan2 :     97.30s CPU     98.24s WALL (     222 calls)

     Called by *egterg:
     cdiaghg      :   1017.26s CPU   1045.76s WALL (   41738 calls)
     cegterg:over :   1690.28s CPU   1722.61s WALL (   30046 calls)
     cegterg:upda :    973.72s CPU    979.55s WALL (   30046 calls)
     cegterg:last :   1909.08s CPU   1919.88s WALL (   18869 calls)
     h_psi        :   9180.79s CPU   9283.44s WALL (   42054 calls)
     s_psi        :   2212.61s CPU   2225.29s WALL (   42054 calls)
     g_psi        :     20.36s CPU     20.63s WALL (   30046 calls)

     Called by h_psi:
     h_psi:calbec :   2346.40s CPU   2375.65s WALL (   42054 calls)
     vloc_psi     :   4287.08s CPU   4340.67s WALL (   42054 calls)
     add_vuspsi   :   2340.55s CPU   2354.41s WALL (   42054 calls)

     General routines
     calbec       :   3412.39s CPU   3454.38s WALL (   55326 calls)
     fft          :     37.62s CPU     39.82s WALL (     988 calls)
     ffts         :      0.56s CPU      0.64s WALL (     150 calls)
     fftw         :   4843.99s CPU   4903.53s WALL ( 7154870 calls)
     interpolate  :      2.71s CPU      2.92s WALL (      76 calls)

     Parallel routines
     fft_scatt_xy :    369.74s CPU    373.42s WALL ( 7156008 calls)
     fft_scatt_yz :   2020.74s CPU   2054.87s WALL ( 7156008 calls)

     PAW routines
     PAW_pot      :     17.67s CPU     17.77s WALL (      38 calls)

     PWSCF        :      6h15m CPU      6h20m WALL


   This run was terminated on:   4:30:29  19Dec2022            

=------------------------------------------------------------------------------=
   JOB DONE.
=------------------------------------------------------------------------------=
Note: The following floating-point exceptions are signalling: IEEE_INVALID_FLAG IEEE_DENORMAL
Note: The following floating-point exceptions are signalling: IEEE_UNDERFLOW_FLAG IEEE_DENORMAL
Note: The following floating-point exceptions are signalling: IEEE_INVALID_FLAG IEEE_DENORMAL
Note: The following floating-point exceptions are signalling: IEEE_DENORMAL
Note: The following floating-point exceptions are signalling: IEEE_INVALID_FLAG IEEE_DENORMAL
Note: The following floating-point exceptions are signalling: IEEE_DENORMAL
Note: The following floating-point exceptions are signalling: IEEE_DENORMAL
Note: The following floating-point exceptions are signalling: IEEE_DENORMAL
Note: The following floating-point exceptions are signalling: IEEE_DENORMAL
Note: The following floating-point exceptions are signalling: IEEE_DENORMAL
Note: The following floating-point exceptions are signalling: IEEE_DENORMAL
Note: The following floating-point exceptions are signalling: IEEE_INVALID_FLAG IEEE_DENORMAL
Note: The following floating-point exceptions are signalling: IEEE_INVALID_FLAG IEEE_DENORMAL
Note: The following floating-point exceptions are signalling: IEEE_DENORMAL
Note: The following floating-point exceptions are signalling: IEEE_DENORMAL
Note: The following floating-point exceptions are signalling: IEEE_DENORMAL
Note: The following floating-point exceptions are signalling: IEEE_DENORMAL
Note: The following floating-point exceptions are signalling: IEEE_DENORMAL
Note: The following floating-point exceptions are signalling: IEEE_DENORMAL
Note: The following floating-point exceptions are signalling: IEEE_DENORMAL
Note: The following floating-point exceptions are signalling: IEEE_DENORMAL
Note: The following floating-point exceptions are signalling: IEEE_DENORMAL
Note: The following floating-point exceptions are signalling: IEEE_DENORMAL
