
     Program PWSCF v.6.7MaX starts on 19Dec2022 at  4:30:58 

     This program is part of the open-source Quantum ESPRESSO suite
     for quantum simulation of materials; please cite
         "P. Giannozzi et al., J. Phys.:Condens. Matter 21 395502 (2009);
         "P. Giannozzi et al., J. Phys.:Condens. Matter 29 465901 (2017);
          URL http://www.quantum-espresso.org", 
     in publications or presentations arising from this work. More details at
     http://www.quantum-espresso.org/quote

     Parallel version (MPI), running on    24 processors

     MPI processes distributed on     1 nodes
     R & G space division:  proc/nbgrp/npool/nimage =      24
     Reading input from scale_2dab-03.in

     Current dimensions of program PWSCF are:
     Max number of different atomic species (ntypx) = 10
     Max number of k-points (npk) =  40000
     Max angular momentum in pseudopotentials (lmaxx) =  3
     Message from routine read_pp_mesh:
     mesh size missing, using the one in header
     file Fe.pbe-spn-kjpaw_psl.0.2.1.UPF: wavefunction(s)  3D renormalized
     file O.pbe-n-kjpaw_psl.0.1.UPF: wavefunction(s)  2P renormalized

     Subspace diagonalization in iterative solution of the eigenvalue problem:
     a serial algorithm will be used


     Parallelization info
     --------------------
     sticks:   dense  smooth     PW     G-vecs:    dense   smooth      PW
     Min         855     316     85                55763    12569    1765
     Max         856     318     86                55765    12571    1768
     Sum       20521    7599   2049              1338317   301689   42399



     bravais-lattice index     =            0
     lattice parameter (alat)  =      19.9928  a.u.
     unit-cell volume          =    2232.9698 (a.u.)^3
     number of atoms/cell      =           25
     number of atomic types    =            4
     number of electrons       =       189.00
     number of Kohn-Sham states=          114
     kinetic-energy cutoff     =     100.0000  Ry
     charge density cutoff     =    1080.0000  Ry
     scf convergence threshold =      2.0E-10
     mixing beta               =       0.4000
     number of iterations used =            8  plain     mixing
     Exchange-correlation= PBE
                           (   1   4   3   4   0   0   0)

     celldm(1)=  19.992808  celldm(2)=   0.000000  celldm(3)=   0.000000
     celldm(4)=   0.000000  celldm(5)=   0.000000  celldm(6)=   0.000000

     crystal axes: (cart. coord. in units of alat)
               a(1) = (   1.000000   0.000000   0.000000 )  
               a(2) = (   0.000000   0.597590   0.000000 )  
               a(3) = (   0.000000   0.000000   0.467582 )  

     reciprocal axes: (cart. coord. in units 2 pi/alat)
               b(1) = (  1.000000  0.000000  0.000000 )  
               b(2) = (  0.000000  1.673388  0.000000 )  
               b(3) = (  0.000000  0.000000  2.138660 )  


     PseudoPot. # 1 for Fe read from file:
     /opt/QEpot/SSSP_precision_pseudos/Fe.pbe-spn-kjpaw_psl.0.2.1.UPF
     MD5 check sum: e86618425769142926afa95317d90200
     Pseudo is Projector augmented-wave + core cor, Zval = 16.0
     Generated using "atomic" code by A. Dal Corso  v.5.0.99 svn rev. 10869
     Shape of augmentation charge: PSQ
     Using radial grid of 1191 points,  6 beta functions with: 
                l(1) =   0
                l(2) =   0
                l(3) =   1
                l(4) =   1
                l(5) =   2
                l(6) =   2
     Q(r) pseudized with 0 coefficients 


     PseudoPot. # 2 for Na read from file:
     /opt/QEpot/SSSP_precision_pseudos/Na_ONCV_PBE-1.0.oncvpsp.upf
     MD5 check sum: 24a298df0a6742ae313db96548fdb2a4
     Pseudo is Norm-conserving, Zval =  9.0
     Generated using ONCVPSP code by D. R. Hamann
     Using radial grid of 1992 points,  4 beta functions with: 
                l(1) =   0
                l(2) =   0
                l(3) =   1
                l(4) =   1

     PseudoPot. # 3 for O  read from file:
     /opt/QEpot/SSSP_precision_pseudos/O.pbe-n-kjpaw_psl.0.1.UPF
     MD5 check sum: 0234752ac141de4415c5fc33072bef88
     Pseudo is Projector augmented-wave + core cor, Zval =  6.0
     Generated using "atomic" code by A. Dal Corso  v.5.0.99 svn rev. 10869
     Shape of augmentation charge: BESSEL
     Using radial grid of 1095 points,  4 beta functions with: 
                l(1) =   0
                l(2) =   0
                l(3) =   1
                l(4) =   1
     Q(r) pseudized with 0 coefficients 


     PseudoPot. # 4 for P  read from file:
     /opt/QEpot/SSSP_precision_pseudos/P.pbe-n-rrkjus_psl.1.0.0.UPF
     MD5 check sum: 8b930f418f0a4573dca56cd030ffe088
     Pseudo is Ultrasoft + core correction, Zval =  5.0
     Generated using "atomic" code by A. Dal Corso  v.5.1
     Using radial grid of 1147 points,  6 beta functions with: 
                l(1) =   0
                l(2) =   0
                l(3) =   1
                l(4) =   1
                l(5) =   2
                l(6) =   2
     Q(r) pseudized with 0 coefficients 


     atomic species   valence    mass     pseudopotential
        Fe            16.00    55.84500     Fe( 1.00)
        Na             9.00    22.98977     Na( 1.00)
        O              6.00    15.99940     O ( 1.00)
        P              5.00    30.97376     P ( 1.00)

     Starting magnetic structure 
     atomic species   magnetization
        Fe           0.312
        Na           0.000
        O            0.000
        P            0.000

     No symmetry found


                                    s                        frac. trans.

      isym =  1     identity                                     

 cryst.   s( 1) = (     1          0          0      )
                  (     0          1          0      )
                  (     0          0          1      )

 cart.    s( 1) = (  1.0000000  0.0000000  0.0000000 )
                  (  0.0000000  1.0000000  0.0000000 )
                  (  0.0000000  0.0000000  1.0000000 )


   Cartesian axes

     site n.     atom                  positions (alat units)
         1           Na  tau(   1) = (   0.5426070   0.2128436   0.2181165  )
         2           Fe  tau(   2) = (   0.2774940   0.4470463   0.4639414  )
         3           Fe  tau(   3) = (   0.2102570   0.1474894   0.2293866  )
         4           Fe  tau(   4) = (   0.7280950   0.1429740   0.0018951  )
         5           Fe  tau(   5) = (   0.7825800   0.4492579   0.2393798  )
         6           P   tau(   6) = (   0.1059480   0.4466847   0.2076431  )
         7           P   tau(   7) = (   0.3878490   0.1453225   0.4410911  )
         8           P   tau(   8) = (   0.8915560   0.1489463   0.2604808  )
         9           P   tau(   9) = (   0.6054980   0.4477962   0.0280199  )
        10           O   tau(  10) = (   0.1317880   0.4455690   0.3511904  )
        11           O   tau(  11) = (   0.3634070   0.1482621   0.1173146  )
        12           O   tau(  12) = (   0.8709790   0.1483487   0.1163284  )
        13           O   tau(  13) = (   0.6302560   0.4446272   0.3517777  )
        14           O   tau(  14) = (   0.4595490   0.4446744   0.0567308  )
        15           O   tau(  15) = (   0.0359180   0.1497602   0.2928170  )
        16           O   tau(  16) = (   0.5363260   0.1462476   0.4191021  )
        17           O   tau(  17) = (   0.9593080   0.4466351   0.1823838  )
        18           O   tau(  18) = (   0.1746370   0.5639193   0.1408457  )
        19           O   tau(  19) = (   0.3201300   0.0290638   0.3743694  )
        20           O   tau(  20) = (   0.8159810   0.2631643   0.3253238  )
        21           O   tau(  21) = (   0.6759000   0.3315447   0.0964562  )
        22           O   tau(  22) = (   0.8190690   0.0322555   0.3257324  )
        23           O   tau(  23) = (   0.6753190   0.5647093   0.0949286  )
        24           O   tau(  24) = (   0.1755980   0.3306919   0.1396346  )
        25           O   tau(  25) = (   0.3240220   0.2622243   0.3699274  )

   Crystallographic axes

     site n.     atom                  positions (cryst. coord.)
         1           Na  tau(   1) = (  0.5426070  0.3561700  0.4664770  )
         2           Fe  tau(   2) = (  0.2774940  0.7480820  0.9922130  )
         3           Fe  tau(   3) = (  0.2102570  0.2468070  0.4905800  )
         4           Fe  tau(   4) = (  0.7280950  0.2392510  0.0040530  )
         5           Fe  tau(   5) = (  0.7825800  0.7517830  0.5119520  )
         6           P   tau(   6) = (  0.1059480  0.7474770  0.4440780  )
         7           P   tau(   7) = (  0.3878490  0.2431810  0.9433440  )
         8           P   tau(   8) = (  0.8915560  0.2492450  0.5570800  )
         9           P   tau(   9) = (  0.6054980  0.7493370  0.0599250  )
        10           O   tau(  10) = (  0.1317880  0.7456100  0.7510770  )
        11           O   tau(  11) = (  0.3634070  0.2481000  0.2508960  )
        12           O   tau(  12) = (  0.8709790  0.2482450  0.2487870  )
        13           O   tau(  13) = (  0.6302560  0.7440340  0.7523330  )
        14           O   tau(  14) = (  0.4595490  0.7441130  0.1213280  )
        15           O   tau(  15) = (  0.0359180  0.2506070  0.6262360  )
        16           O   tau(  16) = (  0.5363260  0.2447290  0.8963170  )
        17           O   tau(  17) = (  0.9593080  0.7473940  0.3900570  )
        18           O   tau(  18) = (  0.1746370  0.9436560  0.3012210  )
        19           O   tau(  19) = (  0.3201300  0.0486350  0.8006490  )
        20           O   tau(  20) = (  0.8159810  0.4403760  0.6957570  )
        21           O   tau(  21) = (  0.6759000  0.5548030  0.2062870  )
        22           O   tau(  22) = (  0.8190690  0.0539760  0.6966310  )
        23           O   tau(  23) = (  0.6753190  0.9449780  0.2030200  )
        24           O   tau(  24) = (  0.1755980  0.5533760  0.2986310  )
        25           O   tau(  25) = (  0.3240220  0.4388030  0.7911490  )

     number of k points=   158  Marzari-Vanderbilt smearing, width (Ry)=  0.0073
                       cart. coord. in units 2pi/alat
        k(    1) = (   0.0000000   0.0000000   0.0000000), wk =   0.0031746
        k(    2) = (   0.0000000   0.0000000   0.2376289), wk =   0.0063492
        k(    3) = (   0.0000000   0.0000000   0.4752578), wk =   0.0063492
        k(    4) = (   0.0000000   0.0000000   0.7128867), wk =   0.0063492
        k(    5) = (   0.0000000   0.0000000   0.9505157), wk =   0.0063492
        k(    6) = (   0.0000000   0.2390555   0.0000000), wk =   0.0063492
        k(    7) = (   0.0000000   0.2390555   0.2376289), wk =   0.0063492
        k(    8) = (   0.0000000   0.2390555   0.4752578), wk =   0.0063492
        k(    9) = (   0.0000000   0.2390555   0.7128867), wk =   0.0063492
        k(   10) = (   0.0000000   0.2390555   0.9505157), wk =   0.0063492
        k(   11) = (   0.0000000   0.4781110   0.0000000), wk =   0.0063492
        k(   12) = (   0.0000000   0.4781110   0.2376289), wk =   0.0063492
        k(   13) = (   0.0000000   0.4781110   0.4752578), wk =   0.0063492
        k(   14) = (   0.0000000   0.4781110   0.7128867), wk =   0.0063492
        k(   15) = (   0.0000000   0.4781110   0.9505157), wk =   0.0063492
        k(   16) = (   0.0000000   0.7171664   0.0000000), wk =   0.0063492
        k(   17) = (   0.0000000   0.7171664   0.2376289), wk =   0.0063492
        k(   18) = (   0.0000000   0.7171664   0.4752578), wk =   0.0063492
        k(   19) = (   0.0000000   0.7171664   0.7128867), wk =   0.0063492
        k(   20) = (   0.0000000   0.7171664   0.9505157), wk =   0.0063492
        k(   21) = (   0.2000000   0.0000000   0.0000000), wk =   0.0063492
        k(   22) = (   0.2000000   0.0000000   0.2376289), wk =   0.0063492
        k(   23) = (   0.2000000   0.0000000   0.4752578), wk =   0.0063492
        k(   24) = (   0.2000000   0.0000000   0.7128867), wk =   0.0063492
        k(   25) = (   0.2000000   0.0000000   0.9505157), wk =   0.0063492
        k(   26) = (   0.2000000   0.2390555   0.0000000), wk =   0.0063492
        k(   27) = (   0.2000000   0.2390555   0.2376289), wk =   0.0063492
        k(   28) = (   0.2000000   0.2390555   0.4752578), wk =   0.0063492
        k(   29) = (   0.2000000   0.2390555   0.7128867), wk =   0.0063492
        k(   30) = (   0.2000000   0.2390555   0.9505157), wk =   0.0063492
        k(   31) = (   0.2000000   0.4781110   0.0000000), wk =   0.0063492
        k(   32) = (   0.2000000   0.4781110   0.2376289), wk =   0.0063492
        k(   33) = (   0.2000000   0.4781110   0.4752578), wk =   0.0063492
        k(   34) = (   0.2000000   0.4781110   0.7128867), wk =   0.0063492
        k(   35) = (   0.2000000   0.4781110   0.9505157), wk =   0.0063492
        k(   36) = (   0.2000000   0.7171664   0.0000000), wk =   0.0063492
        k(   37) = (   0.2000000   0.7171664   0.2376289), wk =   0.0063492
        k(   38) = (   0.2000000   0.7171664   0.4752578), wk =   0.0063492
        k(   39) = (   0.2000000   0.7171664   0.7128867), wk =   0.0063492
        k(   40) = (   0.2000000   0.7171664   0.9505157), wk =   0.0063492
        k(   41) = (   0.4000000   0.0000000   0.0000000), wk =   0.0063492
        k(   42) = (   0.4000000   0.0000000   0.2376289), wk =   0.0063492
        k(   43) = (   0.4000000   0.0000000   0.4752578), wk =   0.0063492
        k(   44) = (   0.4000000   0.0000000   0.7128867), wk =   0.0063492
        k(   45) = (   0.4000000   0.0000000   0.9505157), wk =   0.0063492
        k(   46) = (   0.4000000   0.2390555   0.0000000), wk =   0.0063492
        k(   47) = (   0.4000000   0.2390555   0.2376289), wk =   0.0063492
        k(   48) = (   0.4000000   0.2390555   0.4752578), wk =   0.0063492
        k(   49) = (   0.4000000   0.2390555   0.7128867), wk =   0.0063492
        k(   50) = (   0.4000000   0.2390555   0.9505157), wk =   0.0063492
        k(   51) = (   0.4000000   0.4781110   0.0000000), wk =   0.0063492
        k(   52) = (   0.4000000   0.4781110   0.2376289), wk =   0.0063492
        k(   53) = (   0.4000000   0.4781110   0.4752578), wk =   0.0063492
        k(   54) = (   0.4000000   0.4781110   0.7128867), wk =   0.0063492
        k(   55) = (   0.4000000   0.4781110   0.9505157), wk =   0.0063492
        k(   56) = (   0.4000000   0.7171664   0.0000000), wk =   0.0063492
        k(   57) = (   0.4000000   0.7171664   0.2376289), wk =   0.0063492
        k(   58) = (   0.4000000   0.7171664   0.4752578), wk =   0.0063492
        k(   59) = (   0.4000000   0.7171664   0.7128867), wk =   0.0063492
        k(   60) = (   0.4000000   0.7171664   0.9505157), wk =   0.0063492
        k(   61) = (   0.0000000  -0.2390555   0.2376289), wk =   0.0063492
        k(   62) = (   0.0000000  -0.2390555   0.4752578), wk =   0.0063492
        k(   63) = (   0.0000000  -0.2390555   0.7128867), wk =   0.0063492
        k(   64) = (   0.0000000  -0.2390555   0.9505157), wk =   0.0063492
        k(   65) = (   0.0000000  -0.4781110   0.2376289), wk =   0.0063492
        k(   66) = (   0.0000000  -0.4781110   0.4752578), wk =   0.0063492
        k(   67) = (   0.0000000  -0.4781110   0.7128867), wk =   0.0063492
        k(   68) = (   0.0000000  -0.4781110   0.9505157), wk =   0.0063492
        k(   69) = (   0.0000000  -0.7171664   0.2376289), wk =   0.0063492
        k(   70) = (   0.0000000  -0.7171664   0.4752578), wk =   0.0063492
        k(   71) = (   0.0000000  -0.7171664   0.7128867), wk =   0.0063492
        k(   72) = (   0.0000000  -0.7171664   0.9505157), wk =   0.0063492
        k(   73) = (  -0.2000000   0.0000000   0.2376289), wk =   0.0063492
        k(   74) = (  -0.2000000   0.0000000   0.4752578), wk =   0.0063492
        k(   75) = (  -0.2000000   0.0000000   0.7128867), wk =   0.0063492
        k(   76) = (  -0.2000000   0.0000000   0.9505157), wk =   0.0063492
        k(   77) = (  -0.2000000   0.2390555   0.0000000), wk =   0.0063492
        k(   78) = (  -0.2000000  -0.2390555   0.2376289), wk =   0.0063492
        k(   79) = (  -0.2000000   0.2390555  -0.2376289), wk =   0.0063492
        k(   80) = (   0.2000000  -0.2390555  -0.2376289), wk =   0.0063492
        k(   81) = (  -0.2000000  -0.2390555   0.4752578), wk =   0.0063492
        k(   82) = (  -0.2000000   0.2390555  -0.4752578), wk =   0.0063492
        k(   83) = (   0.2000000  -0.2390555  -0.4752578), wk =   0.0063492
        k(   84) = (  -0.2000000  -0.2390555   0.7128867), wk =   0.0063492
        k(   85) = (  -0.2000000   0.2390555  -0.7128867), wk =   0.0063492
        k(   86) = (   0.2000000  -0.2390555  -0.7128867), wk =   0.0063492
        k(   87) = (  -0.2000000  -0.2390555   0.9505157), wk =   0.0063492
        k(   88) = (  -0.2000000   0.2390555  -0.9505157), wk =   0.0063492
        k(   89) = (   0.2000000  -0.2390555  -0.9505157), wk =   0.0063492
        k(   90) = (  -0.2000000   0.4781110   0.0000000), wk =   0.0063492
        k(   91) = (  -0.2000000  -0.4781110   0.2376289), wk =   0.0063492
        k(   92) = (  -0.2000000   0.4781110  -0.2376289), wk =   0.0063492
        k(   93) = (   0.2000000  -0.4781110  -0.2376289), wk =   0.0063492
        k(   94) = (  -0.2000000  -0.4781110   0.4752578), wk =   0.0063492
        k(   95) = (  -0.2000000   0.4781110  -0.4752578), wk =   0.0063492
        k(   96) = (   0.2000000  -0.4781110  -0.4752578), wk =   0.0063492
        k(   97) = (  -0.2000000  -0.4781110   0.7128867), wk =   0.0063492
        k(   98) = (  -0.2000000   0.4781110  -0.7128867), wk =   0.0063492
        k(   99) = (   0.2000000  -0.4781110  -0.7128867), wk =   0.0063492
        k(  100) = (  -0.2000000  -0.4781110   0.9505157), wk =   0.0063492
        k(  101) = (  -0.2000000   0.4781110  -0.9505157), wk =   0.0063492
        k(  102) = (   0.2000000  -0.4781110  -0.9505157), wk =   0.0063492
        k(  103) = (  -0.2000000   0.7171664   0.0000000), wk =   0.0063492
        k(  104) = (  -0.2000000  -0.7171664   0.2376289), wk =   0.0063492
        k(  105) = (  -0.2000000   0.7171664  -0.2376289), wk =   0.0063492
        k(  106) = (   0.2000000  -0.7171664  -0.2376289), wk =   0.0063492
        k(  107) = (  -0.2000000  -0.7171664   0.4752578), wk =   0.0063492
        k(  108) = (  -0.2000000   0.7171664  -0.4752578), wk =   0.0063492
        k(  109) = (   0.2000000  -0.7171664  -0.4752578), wk =   0.0063492
        k(  110) = (  -0.2000000  -0.7171664   0.7128867), wk =   0.0063492
        k(  111) = (  -0.2000000   0.7171664  -0.7128867), wk =   0.0063492
        k(  112) = (   0.2000000  -0.7171664  -0.7128867), wk =   0.0063492
        k(  113) = (  -0.2000000  -0.7171664   0.9505157), wk =   0.0063492
        k(  114) = (  -0.2000000   0.7171664  -0.9505157), wk =   0.0063492
        k(  115) = (   0.2000000  -0.7171664  -0.9505157), wk =   0.0063492
        k(  116) = (  -0.4000000   0.0000000   0.2376289), wk =   0.0063492
        k(  117) = (  -0.4000000   0.0000000   0.4752578), wk =   0.0063492
        k(  118) = (  -0.4000000   0.0000000   0.7128867), wk =   0.0063492
        k(  119) = (  -0.4000000   0.0000000   0.9505157), wk =   0.0063492
        k(  120) = (  -0.4000000   0.2390555   0.0000000), wk =   0.0063492
        k(  121) = (  -0.4000000  -0.2390555   0.2376289), wk =   0.0063492
        k(  122) = (  -0.4000000   0.2390555  -0.2376289), wk =   0.0063492
        k(  123) = (   0.4000000  -0.2390555  -0.2376289), wk =   0.0063492
        k(  124) = (  -0.4000000  -0.2390555   0.4752578), wk =   0.0063492
        k(  125) = (  -0.4000000   0.2390555  -0.4752578), wk =   0.0063492
        k(  126) = (   0.4000000  -0.2390555  -0.4752578), wk =   0.0063492
        k(  127) = (  -0.4000000  -0.2390555   0.7128867), wk =   0.0063492
        k(  128) = (  -0.4000000   0.2390555  -0.7128867), wk =   0.0063492
        k(  129) = (   0.4000000  -0.2390555  -0.7128867), wk =   0.0063492
        k(  130) = (  -0.4000000  -0.2390555   0.9505157), wk =   0.0063492
        k(  131) = (  -0.4000000   0.2390555  -0.9505157), wk =   0.0063492
        k(  132) = (   0.4000000  -0.2390555  -0.9505157), wk =   0.0063492
        k(  133) = (  -0.4000000   0.4781110   0.0000000), wk =   0.0063492
        k(  134) = (  -0.4000000  -0.4781110   0.2376289), wk =   0.0063492
        k(  135) = (  -0.4000000   0.4781110  -0.2376289), wk =   0.0063492
        k(  136) = (   0.4000000  -0.4781110  -0.2376289), wk =   0.0063492
        k(  137) = (  -0.4000000  -0.4781110   0.4752578), wk =   0.0063492
        k(  138) = (  -0.4000000   0.4781110  -0.4752578), wk =   0.0063492
        k(  139) = (   0.4000000  -0.4781110  -0.4752578), wk =   0.0063492
        k(  140) = (  -0.4000000  -0.4781110   0.7128867), wk =   0.0063492
        k(  141) = (  -0.4000000   0.4781110  -0.7128867), wk =   0.0063492
        k(  142) = (   0.4000000  -0.4781110  -0.7128867), wk =   0.0063492
        k(  143) = (  -0.4000000  -0.4781110   0.9505157), wk =   0.0063492
        k(  144) = (  -0.4000000   0.4781110  -0.9505157), wk =   0.0063492
        k(  145) = (   0.4000000  -0.4781110  -0.9505157), wk =   0.0063492
        k(  146) = (  -0.4000000   0.7171664   0.0000000), wk =   0.0063492
        k(  147) = (  -0.4000000  -0.7171664   0.2376289), wk =   0.0063492
        k(  148) = (  -0.4000000   0.7171664  -0.2376289), wk =   0.0063492
        k(  149) = (   0.4000000  -0.7171664  -0.2376289), wk =   0.0063492
        k(  150) = (  -0.4000000  -0.7171664   0.4752578), wk =   0.0063492
        k(  151) = (  -0.4000000   0.7171664  -0.4752578), wk =   0.0063492
        k(  152) = (   0.4000000  -0.7171664  -0.4752578), wk =   0.0063492
        k(  153) = (  -0.4000000  -0.7171664   0.7128867), wk =   0.0063492
        k(  154) = (  -0.4000000   0.7171664  -0.7128867), wk =   0.0063492
        k(  155) = (   0.4000000  -0.7171664  -0.7128867), wk =   0.0063492
        k(  156) = (  -0.4000000  -0.7171664   0.9505157), wk =   0.0063492
        k(  157) = (  -0.4000000   0.7171664  -0.9505157), wk =   0.0063492
        k(  158) = (   0.4000000  -0.7171664  -0.9505157), wk =   0.0063492

                       cryst. coord.
        k(    1) = (   0.0000000   0.0000000   0.0000000), wk =   0.0031746
        k(    2) = (   0.0000000   0.0000000   0.1111111), wk =   0.0063492
        k(    3) = (   0.0000000   0.0000000   0.2222222), wk =   0.0063492
        k(    4) = (   0.0000000   0.0000000   0.3333333), wk =   0.0063492
        k(    5) = (   0.0000000   0.0000000   0.4444444), wk =   0.0063492
        k(    6) = (   0.0000000   0.1428571   0.0000000), wk =   0.0063492
        k(    7) = (   0.0000000   0.1428571   0.1111111), wk =   0.0063492
        k(    8) = (   0.0000000   0.1428571   0.2222222), wk =   0.0063492
        k(    9) = (   0.0000000   0.1428571   0.3333333), wk =   0.0063492
        k(   10) = (   0.0000000   0.1428571   0.4444444), wk =   0.0063492
        k(   11) = (   0.0000000   0.2857143   0.0000000), wk =   0.0063492
        k(   12) = (   0.0000000   0.2857143   0.1111111), wk =   0.0063492
        k(   13) = (   0.0000000   0.2857143   0.2222222), wk =   0.0063492
        k(   14) = (   0.0000000   0.2857143   0.3333333), wk =   0.0063492
        k(   15) = (   0.0000000   0.2857143   0.4444444), wk =   0.0063492
        k(   16) = (   0.0000000   0.4285714   0.0000000), wk =   0.0063492
        k(   17) = (   0.0000000   0.4285714   0.1111111), wk =   0.0063492
        k(   18) = (   0.0000000   0.4285714   0.2222222), wk =   0.0063492
        k(   19) = (   0.0000000   0.4285714   0.3333333), wk =   0.0063492
        k(   20) = (   0.0000000   0.4285714   0.4444444), wk =   0.0063492
        k(   21) = (   0.2000000   0.0000000   0.0000000), wk =   0.0063492
        k(   22) = (   0.2000000   0.0000000   0.1111111), wk =   0.0063492
        k(   23) = (   0.2000000   0.0000000   0.2222222), wk =   0.0063492
        k(   24) = (   0.2000000   0.0000000   0.3333333), wk =   0.0063492
        k(   25) = (   0.2000000   0.0000000   0.4444444), wk =   0.0063492
        k(   26) = (   0.2000000   0.1428571   0.0000000), wk =   0.0063492
        k(   27) = (   0.2000000   0.1428571   0.1111111), wk =   0.0063492
        k(   28) = (   0.2000000   0.1428571   0.2222222), wk =   0.0063492
        k(   29) = (   0.2000000   0.1428571   0.3333333), wk =   0.0063492
        k(   30) = (   0.2000000   0.1428571   0.4444444), wk =   0.0063492
        k(   31) = (   0.2000000   0.2857143   0.0000000), wk =   0.0063492
        k(   32) = (   0.2000000   0.2857143   0.1111111), wk =   0.0063492
        k(   33) = (   0.2000000   0.2857143   0.2222222), wk =   0.0063492
        k(   34) = (   0.2000000   0.2857143   0.3333333), wk =   0.0063492
        k(   35) = (   0.2000000   0.2857143   0.4444444), wk =   0.0063492
        k(   36) = (   0.2000000   0.4285714   0.0000000), wk =   0.0063492
        k(   37) = (   0.2000000   0.4285714   0.1111111), wk =   0.0063492
        k(   38) = (   0.2000000   0.4285714   0.2222222), wk =   0.0063492
        k(   39) = (   0.2000000   0.4285714   0.3333333), wk =   0.0063492
        k(   40) = (   0.2000000   0.4285714   0.4444444), wk =   0.0063492
        k(   41) = (   0.4000000   0.0000000   0.0000000), wk =   0.0063492
        k(   42) = (   0.4000000   0.0000000   0.1111111), wk =   0.0063492
        k(   43) = (   0.4000000   0.0000000   0.2222222), wk =   0.0063492
        k(   44) = (   0.4000000   0.0000000   0.3333333), wk =   0.0063492
        k(   45) = (   0.4000000   0.0000000   0.4444444), wk =   0.0063492
        k(   46) = (   0.4000000   0.1428571   0.0000000), wk =   0.0063492
        k(   47) = (   0.4000000   0.1428571   0.1111111), wk =   0.0063492
        k(   48) = (   0.4000000   0.1428571   0.2222222), wk =   0.0063492
        k(   49) = (   0.4000000   0.1428571   0.3333333), wk =   0.0063492
        k(   50) = (   0.4000000   0.1428571   0.4444444), wk =   0.0063492
        k(   51) = (   0.4000000   0.2857143   0.0000000), wk =   0.0063492
        k(   52) = (   0.4000000   0.2857143   0.1111111), wk =   0.0063492
        k(   53) = (   0.4000000   0.2857143   0.2222222), wk =   0.0063492
        k(   54) = (   0.4000000   0.2857143   0.3333333), wk =   0.0063492
        k(   55) = (   0.4000000   0.2857143   0.4444444), wk =   0.0063492
        k(   56) = (   0.4000000   0.4285714   0.0000000), wk =   0.0063492
        k(   57) = (   0.4000000   0.4285714   0.1111111), wk =   0.0063492
        k(   58) = (   0.4000000   0.4285714   0.2222222), wk =   0.0063492
        k(   59) = (   0.4000000   0.4285714   0.3333333), wk =   0.0063492
        k(   60) = (   0.4000000   0.4285714   0.4444444), wk =   0.0063492
        k(   61) = (   0.0000000  -0.1428571   0.1111111), wk =   0.0063492
        k(   62) = (   0.0000000  -0.1428571   0.2222222), wk =   0.0063492
        k(   63) = (   0.0000000  -0.1428571   0.3333333), wk =   0.0063492
        k(   64) = (   0.0000000  -0.1428571   0.4444444), wk =   0.0063492
        k(   65) = (   0.0000000  -0.2857143   0.1111111), wk =   0.0063492
        k(   66) = (   0.0000000  -0.2857143   0.2222222), wk =   0.0063492
        k(   67) = (   0.0000000  -0.2857143   0.3333333), wk =   0.0063492
        k(   68) = (   0.0000000  -0.2857143   0.4444444), wk =   0.0063492
        k(   69) = (   0.0000000  -0.4285714   0.1111111), wk =   0.0063492
        k(   70) = (   0.0000000  -0.4285714   0.2222222), wk =   0.0063492
        k(   71) = (   0.0000000  -0.4285714   0.3333333), wk =   0.0063492
        k(   72) = (   0.0000000  -0.4285714   0.4444444), wk =   0.0063492
        k(   73) = (  -0.2000000   0.0000000   0.1111111), wk =   0.0063492
        k(   74) = (  -0.2000000   0.0000000   0.2222222), wk =   0.0063492
        k(   75) = (  -0.2000000   0.0000000   0.3333333), wk =   0.0063492
        k(   76) = (  -0.2000000   0.0000000   0.4444444), wk =   0.0063492
        k(   77) = (  -0.2000000   0.1428571   0.0000000), wk =   0.0063492
        k(   78) = (  -0.2000000  -0.1428571   0.1111111), wk =   0.0063492
        k(   79) = (  -0.2000000   0.1428571  -0.1111111), wk =   0.0063492
        k(   80) = (   0.2000000  -0.1428571  -0.1111111), wk =   0.0063492
        k(   81) = (  -0.2000000  -0.1428571   0.2222222), wk =   0.0063492
        k(   82) = (  -0.2000000   0.1428571  -0.2222222), wk =   0.0063492
        k(   83) = (   0.2000000  -0.1428571  -0.2222222), wk =   0.0063492
        k(   84) = (  -0.2000000  -0.1428571   0.3333333), wk =   0.0063492
        k(   85) = (  -0.2000000   0.1428571  -0.3333333), wk =   0.0063492
        k(   86) = (   0.2000000  -0.1428571  -0.3333333), wk =   0.0063492
        k(   87) = (  -0.2000000  -0.1428571   0.4444444), wk =   0.0063492
        k(   88) = (  -0.2000000   0.1428571  -0.4444444), wk =   0.0063492
        k(   89) = (   0.2000000  -0.1428571  -0.4444444), wk =   0.0063492
        k(   90) = (  -0.2000000   0.2857143   0.0000000), wk =   0.0063492
        k(   91) = (  -0.2000000  -0.2857143   0.1111111), wk =   0.0063492
        k(   92) = (  -0.2000000   0.2857143  -0.1111111), wk =   0.0063492
        k(   93) = (   0.2000000  -0.2857143  -0.1111111), wk =   0.0063492
        k(   94) = (  -0.2000000  -0.2857143   0.2222222), wk =   0.0063492
        k(   95) = (  -0.2000000   0.2857143  -0.2222222), wk =   0.0063492
        k(   96) = (   0.2000000  -0.2857143  -0.2222222), wk =   0.0063492
        k(   97) = (  -0.2000000  -0.2857143   0.3333333), wk =   0.0063492
        k(   98) = (  -0.2000000   0.2857143  -0.3333333), wk =   0.0063492
        k(   99) = (   0.2000000  -0.2857143  -0.3333333), wk =   0.0063492
        k(  100) = (  -0.2000000  -0.2857143   0.4444444), wk =   0.0063492
        k(  101) = (  -0.2000000   0.2857143  -0.4444444), wk =   0.0063492
        k(  102) = (   0.2000000  -0.2857143  -0.4444444), wk =   0.0063492
        k(  103) = (  -0.2000000   0.4285714   0.0000000), wk =   0.0063492
        k(  104) = (  -0.2000000  -0.4285714   0.1111111), wk =   0.0063492
        k(  105) = (  -0.2000000   0.4285714  -0.1111111), wk =   0.0063492
        k(  106) = (   0.2000000  -0.4285714  -0.1111111), wk =   0.0063492
        k(  107) = (  -0.2000000  -0.4285714   0.2222222), wk =   0.0063492
        k(  108) = (  -0.2000000   0.4285714  -0.2222222), wk =   0.0063492
        k(  109) = (   0.2000000  -0.4285714  -0.2222222), wk =   0.0063492
        k(  110) = (  -0.2000000  -0.4285714   0.3333333), wk =   0.0063492
        k(  111) = (  -0.2000000   0.4285714  -0.3333333), wk =   0.0063492
        k(  112) = (   0.2000000  -0.4285714  -0.3333333), wk =   0.0063492
        k(  113) = (  -0.2000000  -0.4285714   0.4444444), wk =   0.0063492
        k(  114) = (  -0.2000000   0.4285714  -0.4444444), wk =   0.0063492
        k(  115) = (   0.2000000  -0.4285714  -0.4444444), wk =   0.0063492
        k(  116) = (  -0.4000000   0.0000000   0.1111111), wk =   0.0063492
        k(  117) = (  -0.4000000   0.0000000   0.2222222), wk =   0.0063492
        k(  118) = (  -0.4000000   0.0000000   0.3333333), wk =   0.0063492
        k(  119) = (  -0.4000000   0.0000000   0.4444444), wk =   0.0063492
        k(  120) = (  -0.4000000   0.1428571   0.0000000), wk =   0.0063492
        k(  121) = (  -0.4000000  -0.1428571   0.1111111), wk =   0.0063492
        k(  122) = (  -0.4000000   0.1428571  -0.1111111), wk =   0.0063492
        k(  123) = (   0.4000000  -0.1428571  -0.1111111), wk =   0.0063492
        k(  124) = (  -0.4000000  -0.1428571   0.2222222), wk =   0.0063492
        k(  125) = (  -0.4000000   0.1428571  -0.2222222), wk =   0.0063492
        k(  126) = (   0.4000000  -0.1428571  -0.2222222), wk =   0.0063492
        k(  127) = (  -0.4000000  -0.1428571   0.3333333), wk =   0.0063492
        k(  128) = (  -0.4000000   0.1428571  -0.3333333), wk =   0.0063492
        k(  129) = (   0.4000000  -0.1428571  -0.3333333), wk =   0.0063492
        k(  130) = (  -0.4000000  -0.1428571   0.4444444), wk =   0.0063492
        k(  131) = (  -0.4000000   0.1428571  -0.4444444), wk =   0.0063492
        k(  132) = (   0.4000000  -0.1428571  -0.4444444), wk =   0.0063492
        k(  133) = (  -0.4000000   0.2857143   0.0000000), wk =   0.0063492
        k(  134) = (  -0.4000000  -0.2857143   0.1111111), wk =   0.0063492
        k(  135) = (  -0.4000000   0.2857143  -0.1111111), wk =   0.0063492
        k(  136) = (   0.4000000  -0.2857143  -0.1111111), wk =   0.0063492
        k(  137) = (  -0.4000000  -0.2857143   0.2222222), wk =   0.0063492
        k(  138) = (  -0.4000000   0.2857143  -0.2222222), wk =   0.0063492
        k(  139) = (   0.4000000  -0.2857143  -0.2222222), wk =   0.0063492
        k(  140) = (  -0.4000000  -0.2857143   0.3333333), wk =   0.0063492
        k(  141) = (  -0.4000000   0.2857143  -0.3333333), wk =   0.0063492
        k(  142) = (   0.4000000  -0.2857143  -0.3333333), wk =   0.0063492
        k(  143) = (  -0.4000000  -0.2857143   0.4444444), wk =   0.0063492
        k(  144) = (  -0.4000000   0.2857143  -0.4444444), wk =   0.0063492
        k(  145) = (   0.4000000  -0.2857143  -0.4444444), wk =   0.0063492
        k(  146) = (  -0.4000000   0.4285714   0.0000000), wk =   0.0063492
        k(  147) = (  -0.4000000  -0.4285714   0.1111111), wk =   0.0063492
        k(  148) = (  -0.4000000   0.4285714  -0.1111111), wk =   0.0063492
        k(  149) = (   0.4000000  -0.4285714  -0.1111111), wk =   0.0063492
        k(  150) = (  -0.4000000  -0.4285714   0.2222222), wk =   0.0063492
        k(  151) = (  -0.4000000   0.4285714  -0.2222222), wk =   0.0063492
        k(  152) = (   0.4000000  -0.4285714  -0.2222222), wk =   0.0063492
        k(  153) = (  -0.4000000  -0.4285714   0.3333333), wk =   0.0063492
        k(  154) = (  -0.4000000   0.4285714  -0.3333333), wk =   0.0063492
        k(  155) = (   0.4000000  -0.4285714  -0.3333333), wk =   0.0063492
        k(  156) = (  -0.4000000  -0.4285714   0.4444444), wk =   0.0063492
        k(  157) = (  -0.4000000   0.4285714  -0.4444444), wk =   0.0063492
        k(  158) = (   0.4000000  -0.4285714  -0.4444444), wk =   0.0063492

     Dense  grid:  1338317 G-vectors     FFT dimensions: ( 216, 125, 100)

     Smooth grid:   301689 G-vectors     FFT dimensions: ( 128,  80,  60)

     Dynamical RAM for                 wfc:       2.73 MB

     Dynamical RAM for     wfc (w. buffer):     866.28 MB

     Dynamical RAM for           str. fact:       3.40 MB

     Dynamical RAM for           local pot:       0.00 MB

     Dynamical RAM for          nlocal pot:       6.71 MB

     Dynamical RAM for                qrad:      10.54 MB

     Dynamical RAM for          rho,v,vnew:      11.29 MB

     Dynamical RAM for               rhoin:       3.76 MB

     Dynamical RAM for            rho*nmix:      27.23 MB

     Dynamical RAM for           G-vectors:       3.29 MB

     Dynamical RAM for          h,s,v(r/c):       2.38 MB

     Dynamical RAM for          <psi|beta>:       0.49 MB

     Dynamical RAM for                 psi:       5.47 MB

     Dynamical RAM for                hpsi:       5.47 MB

     Dynamical RAM for                spsi:       5.47 MB

     Dynamical RAM for      wfcinit/wfcrot:       7.00 MB

     Dynamical RAM for           addusdens:     172.73 MB

     Dynamical RAM for          addusforce:     198.39 MB

     Dynamical RAM for         addusstress:     172.31 MB

     Estimated static dynamical RAM per process >     942.94 MB

     Estimated max dynamical RAM per process >       1.11 GB

     Estimated total dynamical RAM >      26.75 GB

     Check: negative core charge=   -0.000003
     Generating pointlists ...
     new r_m :   0.0755 (alat units)  1.5103 (a.u.) for type    1
     new r_m :   0.0874 (alat units)  1.7469 (a.u.) for type    2
     new r_m :   0.0601 (alat units)  1.2009 (a.u.) for type    3
     new r_m :   0.0601 (alat units)  1.2009 (a.u.) for type    4

     Initial potential from superposition of free atoms

     starting charge  188.99132, renormalised to  189.00000
     Starting wfcs are  137 randomized atomic wfcs
     Checking if some PAW data can be deallocated... 
       PAW data deallocated on   20 nodes for type:  1
       PAW data deallocated on    8 nodes for type:  3

     total cpu time spent up to now is      215.9 secs

     Self-consistent Calculation

     iteration #  1     ecut=   100.00 Ry     beta= 0.40
     Davidson diagonalization with overlap
     ethr =  1.00E-02,  avg # of iterations =  3.0

     negative rho (up, down):  0.000E+00 1.238E-04

     total cpu time spent up to now is      893.8 secs

     total energy              =   -2123.79869746 Ry
     estimated scf accuracy    <       7.09498396 Ry

     total magnetization       =    19.00 Bohr mag/cell
     absolute magnetization    =    19.00 Bohr mag/cell

     iteration #  2     ecut=   100.00 Ry     beta= 0.40
     Davidson diagonalization with overlap
     ethr =  3.75E-03,  avg # of iterations =  2.0

     negative rho (up, down):  0.000E+00 5.504E-05

     total cpu time spent up to now is     1517.4 secs

     total energy              =   -2120.33927615 Ry
     estimated scf accuracy    <      50.92683721 Ry

     total magnetization       =     6.61 Bohr mag/cell
     absolute magnetization    =     8.23 Bohr mag/cell

     iteration #  3     ecut=   100.00 Ry     beta= 0.40
     Davidson diagonalization with overlap
     ethr =  3.75E-03,  avg # of iterations =  3.0

     negative rho (up, down):  0.000E+00 2.724E-05

     total cpu time spent up to now is     2081.9 secs

     total energy              =   -2123.26847705 Ry
     estimated scf accuracy    <      59.89616044 Ry

     total magnetization       =     3.85 Bohr mag/cell
     absolute magnetization    =     7.84 Bohr mag/cell

     iteration #  4     ecut=   100.00 Ry     beta= 0.40
     Davidson diagonalization with overlap
     ethr =  3.75E-03,  avg # of iterations =  1.5

     negative rho (up, down):  0.000E+00 3.537E-05

     total cpu time spent up to now is     2561.6 secs

     total energy              =   -2124.47498134 Ry
     estimated scf accuracy    <      30.75053812 Ry

     total magnetization       =     9.00 Bohr mag/cell
     absolute magnetization    =     9.39 Bohr mag/cell

     iteration #  5     ecut=   100.00 Ry     beta= 0.40
     Davidson diagonalization with overlap
     ethr =  3.75E-03,  avg # of iterations =  1.8

     negative rho (up, down):  0.000E+00 1.144E-04

     total cpu time spent up to now is     3065.7 secs

     total energy              =   -2125.89395567 Ry
     estimated scf accuracy    <       2.76651175 Ry

     total magnetization       =    17.89 Bohr mag/cell
     absolute magnetization    =    17.90 Bohr mag/cell

     iteration #  6     ecut=   100.00 Ry     beta= 0.40
     Davidson diagonalization with overlap
     ethr =  1.46E-03,  avg # of iterations =  1.9

     negative rho (up, down):  0.000E+00 2.582E-04

     total cpu time spent up to now is     3583.5 secs

     total energy              =   -2126.04886820 Ry
     estimated scf accuracy    <       0.64033203 Ry

     total magnetization       =    19.00 Bohr mag/cell
     absolute magnetization    =    19.00 Bohr mag/cell

     iteration #  7     ecut=   100.00 Ry     beta= 0.40
     Davidson diagonalization with overlap
     ethr =  3.39E-04,  avg # of iterations =  2.1

     negative rho (up, down):  0.000E+00 3.254E-04

     total cpu time spent up to now is     4101.1 secs

     total energy              =   -2126.05018745 Ry
     estimated scf accuracy    <       0.57198486 Ry

     total magnetization       =    19.00 Bohr mag/cell
     absolute magnetization    =    19.00 Bohr mag/cell

     iteration #  8     ecut=   100.00 Ry     beta= 0.40
     Davidson diagonalization with overlap
     ethr =  3.03E-04,  avg # of iterations =  1.1

     negative rho (up, down):  0.000E+00 3.902E-04

     total cpu time spent up to now is     4550.5 secs

     total energy              =   -2126.08613934 Ry
     estimated scf accuracy    <       0.37758579 Ry

     total magnetization       =    19.00 Bohr mag/cell
     absolute magnetization    =    19.01 Bohr mag/cell

     iteration #  9     ecut=   100.00 Ry     beta= 0.40
     Davidson diagonalization with overlap
     ethr =  2.00E-04,  avg # of iterations =  2.1

     negative rho (up, down):  0.000E+00 6.529E-04

     total cpu time spent up to now is     5042.7 secs

     total energy              =   -2126.08217156 Ry
     estimated scf accuracy    <       0.14478852 Ry

     total magnetization       =    19.00 Bohr mag/cell
     absolute magnetization    =    19.01 Bohr mag/cell

     iteration # 10     ecut=   100.00 Ry     beta= 0.40
     Davidson diagonalization with overlap
     c_bands:  1 eigenvalues not converged
     c_bands:  1 eigenvalues not converged
     c_bands:  1 eigenvalues not converged
     c_bands:  1 eigenvalues not converged
     c_bands:  1 eigenvalues not converged
     c_bands:  1 eigenvalues not converged
     ethr =  7.66E-05,  avg # of iterations = 12.8

     negative rho (up, down):  0.000E+00 8.052E-04

     total cpu time spent up to now is     6000.6 secs

     total energy              =   -2126.08961201 Ry
     estimated scf accuracy    <       0.33144606 Ry

     total magnetization       =    19.00 Bohr mag/cell
     absolute magnetization    =    19.02 Bohr mag/cell

     iteration # 11     ecut=   100.00 Ry     beta= 0.40
     Davidson diagonalization with overlap
     ethr =  7.66E-05,  avg # of iterations =  1.0

     negative rho (up, down):  0.000E+00 9.030E-04

     total cpu time spent up to now is     6443.6 secs

     total energy              =   -2126.10083966 Ry
     estimated scf accuracy    <       0.20701022 Ry

     total magnetization       =    19.00 Bohr mag/cell
     absolute magnetization    =    19.03 Bohr mag/cell

     iteration # 12     ecut=   100.00 Ry     beta= 0.40
     Davidson diagonalization with overlap
     ethr =  7.66E-05,  avg # of iterations =  1.0

     negative rho (up, down):  0.000E+00 8.622E-04

     total cpu time spent up to now is     6884.2 secs

     total energy              =   -2126.10222182 Ry
     estimated scf accuracy    <       0.29484562 Ry

     total magnetization       =    19.00 Bohr mag/cell
     absolute magnetization    =    19.03 Bohr mag/cell

     iteration # 13     ecut=   100.00 Ry     beta= 0.40
     Davidson diagonalization with overlap
     ethr =  7.66E-05,  avg # of iterations =  1.0

     negative rho (up, down):  0.000E+00 9.009E-04

     total cpu time spent up to now is     7324.4 secs

     total energy              =   -2126.09933351 Ry
     estimated scf accuracy    <       0.28025296 Ry

     total magnetization       =    19.00 Bohr mag/cell
     absolute magnetization    =    19.03 Bohr mag/cell

     iteration # 14     ecut=   100.00 Ry     beta= 0.40
     Davidson diagonalization with overlap
     ethr =  7.66E-05,  avg # of iterations =  1.0

     negative rho (up, down):  0.000E+00 9.577E-04

     total cpu time spent up to now is     7764.5 secs

     total energy              =   -2126.09372664 Ry
     estimated scf accuracy    <       0.23834893 Ry

     total magnetization       =    19.00 Bohr mag/cell
     absolute magnetization    =    19.03 Bohr mag/cell

     iteration # 15     ecut=   100.00 Ry     beta= 0.40
     Davidson diagonalization with overlap
     ethr =  7.66E-05,  avg # of iterations =  1.0

     negative rho (up, down):  0.000E+00 9.465E-04

     total cpu time spent up to now is     8203.4 secs

     total energy              =   -2126.09609931 Ry
     estimated scf accuracy    <       0.03001475 Ry

     total magnetization       =    19.00 Bohr mag/cell
     absolute magnetization    =    19.04 Bohr mag/cell

     iteration # 16     ecut=   100.00 Ry     beta= 0.40
     Davidson diagonalization with overlap
     c_bands:  1 eigenvalues not converged
     c_bands:  1 eigenvalues not converged
     c_bands:  1 eigenvalues not converged
     c_bands:  1 eigenvalues not converged
     c_bands:  1 eigenvalues not converged
     c_bands:  1 eigenvalues not converged
     c_bands:  1 eigenvalues not converged
     c_bands:  1 eigenvalues not converged
     c_bands:  1 eigenvalues not converged
     c_bands:  1 eigenvalues not converged
     c_bands:  2 eigenvalues not converged
     ethr =  1.59E-05,  avg # of iterations =  2.4

     negative rho (up, down):  0.000E+00 9.629E-04

     total cpu time spent up to now is     8690.3 secs

     total energy              =   -2126.09858714 Ry
     estimated scf accuracy    <       0.09697334 Ry

     total magnetization       =    19.00 Bohr mag/cell
     absolute magnetization    =    19.04 Bohr mag/cell

     iteration # 17     ecut=   100.00 Ry     beta= 0.40
     Davidson diagonalization with overlap
     c_bands:  1 eigenvalues not converged
     ethr =  1.59E-05,  avg # of iterations =  1.2

     negative rho (up, down):  0.000E+00 9.531E-04

     total cpu time spent up to now is     9139.0 secs

     total energy              =   -2126.09850489 Ry
     estimated scf accuracy    <       0.03064451 Ry

     total magnetization       =    19.00 Bohr mag/cell
     absolute magnetization    =    19.04 Bohr mag/cell

     iteration # 18     ecut=   100.00 Ry     beta= 0.40
     Davidson diagonalization with overlap
     ethr =  1.59E-05,  avg # of iterations =  1.0

     negative rho (up, down):  0.000E+00 9.282E-04

     total cpu time spent up to now is     9578.9 secs

     total energy              =   -2126.09870315 Ry
     estimated scf accuracy    <       0.00487306 Ry

     total magnetization       =    19.00 Bohr mag/cell
     absolute magnetization    =    19.05 Bohr mag/cell

     iteration # 19     ecut=   100.00 Ry     beta= 0.40
     Davidson diagonalization with overlap
     c_bands:  1 eigenvalues not converged
     c_bands:  1 eigenvalues not converged
     c_bands:  1 eigenvalues not converged
     c_bands:  1 eigenvalues not converged
     c_bands:  1 eigenvalues not converged
     c_bands:  1 eigenvalues not converged
     c_bands:  1 eigenvalues not converged
     c_bands:  1 eigenvalues not converged
     c_bands:  1 eigenvalues not converged
     c_bands:  1 eigenvalues not converged
     c_bands:  1 eigenvalues not converged
     c_bands:  1 eigenvalues not converged
     c_bands:  1 eigenvalues not converged
     c_bands:  1 eigenvalues not converged
     c_bands:  1 eigenvalues not converged
     c_bands:  1 eigenvalues not converged
     c_bands:  1 eigenvalues not converged
     c_bands:  1 eigenvalues not converged
     c_bands:  1 eigenvalues not converged
     c_bands:  1 eigenvalues not converged
     c_bands:  1 eigenvalues not converged
     c_bands:  1 eigenvalues not converged
     c_bands:  1 eigenvalues not converged
     c_bands:  1 eigenvalues not converged
     c_bands:  1 eigenvalues not converged
     c_bands:  1 eigenvalues not converged
     c_bands:  1 eigenvalues not converged
     c_bands:  1 eigenvalues not converged
     c_bands:  1 eigenvalues not converged
     c_bands:  1 eigenvalues not converged
     c_bands:  2 eigenvalues not converged
     c_bands:  1 eigenvalues not converged
     c_bands:  1 eigenvalues not converged
     c_bands:  1 eigenvalues not converged
     c_bands:  1 eigenvalues not converged
     c_bands:  1 eigenvalues not converged
     c_bands:  1 eigenvalues not converged
     c_bands:  1 eigenvalues not converged
     c_bands:  1 eigenvalues not converged
     c_bands:  1 eigenvalues not converged
     c_bands:  1 eigenvalues not converged
     c_bands:  1 eigenvalues not converged
     c_bands:  1 eigenvalues not converged
     c_bands:  1 eigenvalues not converged
     c_bands:  1 eigenvalues not converged
     c_bands:  1 eigenvalues not converged
     c_bands:  1 eigenvalues not converged
     c_bands:  1 eigenvalues not converged
     c_bands:  1 eigenvalues not converged
     c_bands:  1 eigenvalues not converged
     c_bands:  1 eigenvalues not converged
     c_bands:  1 eigenvalues not converged
     c_bands:  2 eigenvalues not converged
     c_bands:  1 eigenvalues not converged
     c_bands:  1 eigenvalues not converged
     c_bands:  1 eigenvalues not converged
     c_bands:  1 eigenvalues not converged
     ethr =  2.58E-06,  avg # of iterations = 14.0

     negative rho (up, down):  0.000E+00 9.216E-04

     total cpu time spent up to now is    10433.8 secs

     total energy              =   -2126.09887492 Ry
     estimated scf accuracy    <       0.00033299 Ry

     total magnetization       =    19.00 Bohr mag/cell
     absolute magnetization    =    19.05 Bohr mag/cell

     iteration # 20     ecut=   100.00 Ry     beta= 0.40
     Davidson diagonalization with overlap
     c_bands:  1 eigenvalues not converged
     c_bands:  1 eigenvalues not converged
     ethr =  1.76E-07,  avg # of iterations =  4.8

     negative rho (up, down):  0.000E+00 9.109E-04

     total cpu time spent up to now is    11161.4 secs

     total energy              =   -2126.09898310 Ry
     estimated scf accuracy    <       0.00050376 Ry

     total magnetization       =    19.00 Bohr mag/cell
     absolute magnetization    =    19.05 Bohr mag/cell

     iteration # 21     ecut=   100.00 Ry     beta= 0.40
     Davidson diagonalization with overlap
     ethr =  1.76E-07,  avg # of iterations =  1.1

     negative rho (up, down):  0.000E+00 9.115E-04

     total cpu time spent up to now is    11608.2 secs

     total energy              =   -2126.09898379 Ry
     estimated scf accuracy    <       0.00046986 Ry

     total magnetization       =    19.00 Bohr mag/cell
     absolute magnetization    =    19.05 Bohr mag/cell

     iteration # 22     ecut=   100.00 Ry     beta= 0.40
     Davidson diagonalization with overlap
     ethr =  1.76E-07,  avg # of iterations =  1.0

     negative rho (up, down):  0.000E+00 9.092E-04

     total cpu time spent up to now is    12050.1 secs

     total energy              =   -2126.09899777 Ry
     estimated scf accuracy    <       0.00006465 Ry

     total magnetization       =    19.00 Bohr mag/cell
     absolute magnetization    =    19.05 Bohr mag/cell

     iteration # 23     ecut=   100.00 Ry     beta= 0.40
     Davidson diagonalization with overlap
     ethr =  3.42E-08,  avg # of iterations =  1.6

     negative rho (up, down):  0.000E+00 9.095E-04

     total cpu time spent up to now is    12534.3 secs

     total energy              =   -2126.09900176 Ry
     estimated scf accuracy    <       0.00003011 Ry

     total magnetization       =    19.00 Bohr mag/cell
     absolute magnetization    =    19.05 Bohr mag/cell

     iteration # 24     ecut=   100.00 Ry     beta= 0.40
     Davidson diagonalization with overlap
     ethr =  1.59E-08,  avg # of iterations =  1.7

     negative rho (up, down):  0.000E+00 9.102E-04

     total cpu time spent up to now is    13027.4 secs

     total energy              =   -2126.09900454 Ry
     estimated scf accuracy    <       0.00000710 Ry

     total magnetization       =    19.00 Bohr mag/cell
     absolute magnetization    =    19.05 Bohr mag/cell

     iteration # 25     ecut=   100.00 Ry     beta= 0.40
     Davidson diagonalization with overlap
     ethr =  3.76E-09,  avg # of iterations =  3.4

     negative rho (up, down):  0.000E+00 9.106E-04

     total cpu time spent up to now is    13714.4 secs

     total energy              =   -2126.09900658 Ry
     estimated scf accuracy    <       0.00000162 Ry

     total magnetization       =    19.00 Bohr mag/cell
     absolute magnetization    =    19.05 Bohr mag/cell

     iteration # 26     ecut=   100.00 Ry     beta= 0.40
     Davidson diagonalization with overlap
     ethr =  8.59E-10,  avg # of iterations =  2.0

     negative rho (up, down):  0.000E+00 9.112E-04

     total cpu time spent up to now is    14235.3 secs

     total energy              =   -2126.09900686 Ry
     estimated scf accuracy    <       0.00000056 Ry

     total magnetization       =    19.00 Bohr mag/cell
     absolute magnetization    =    19.05 Bohr mag/cell

     iteration # 27     ecut=   100.00 Ry     beta= 0.40
     Davidson diagonalization with overlap
     ethr =  2.98E-10,  avg # of iterations =  2.0

     negative rho (up, down):  0.000E+00 9.120E-04

     total cpu time spent up to now is    14777.2 secs

     total energy              =   -2126.09900706 Ry
     estimated scf accuracy    <       0.00000072 Ry

     total magnetization       =    19.00 Bohr mag/cell
     absolute magnetization    =    19.05 Bohr mag/cell

     iteration # 28     ecut=   100.00 Ry     beta= 0.40
     Davidson diagonalization with overlap
     ethr =  2.98E-10,  avg # of iterations =  2.0

     negative rho (up, down):  0.000E+00 9.121E-04

     total cpu time spent up to now is    15318.5 secs

     total energy              =   -2126.09900717 Ry
     estimated scf accuracy    <       0.00000029 Ry

     total magnetization       =    19.00 Bohr mag/cell
     absolute magnetization    =    19.05 Bohr mag/cell

     iteration # 29     ecut=   100.00 Ry     beta= 0.40
     Davidson diagonalization with overlap
     ethr =  1.56E-10,  avg # of iterations =  2.0

     negative rho (up, down):  0.000E+00 9.121E-04

     total cpu time spent up to now is    15838.1 secs

     total energy              =   -2126.09900722 Ry
     estimated scf accuracy    <       0.00000007 Ry

     total magnetization       =    19.00 Bohr mag/cell
     absolute magnetization    =    19.05 Bohr mag/cell

     iteration # 30     ecut=   100.00 Ry     beta= 0.40
     Davidson diagonalization with overlap
     ethr =  3.84E-11,  avg # of iterations =  4.2

     negative rho (up, down):  0.000E+00 9.120E-04

     total cpu time spent up to now is    16509.8 secs

     total energy              =   -2126.09900725 Ry
     estimated scf accuracy    <       0.00000005 Ry

     total magnetization       =    19.00 Bohr mag/cell
     absolute magnetization    =    19.05 Bohr mag/cell

     iteration # 31     ecut=   100.00 Ry     beta= 0.40
     Davidson diagonalization with overlap
     ethr =  2.64E-11,  avg # of iterations =  2.0

     negative rho (up, down):  0.000E+00 9.118E-04

     total cpu time spent up to now is    17049.5 secs

     total energy              =   -2126.09900726 Ry
     estimated scf accuracy    <       0.00000028 Ry

     total magnetization       =    19.00 Bohr mag/cell
     absolute magnetization    =    19.05 Bohr mag/cell

     iteration # 32     ecut=   100.00 Ry     beta= 0.40
     Davidson diagonalization with overlap
     ethr =  2.64E-11,  avg # of iterations =  2.0

     negative rho (up, down):  0.000E+00 9.118E-04

     total cpu time spent up to now is    17583.4 secs

     total energy              =   -2126.09900728 Ry
     estimated scf accuracy    <       0.00000006 Ry

     total magnetization       =    19.00 Bohr mag/cell
     absolute magnetization    =    19.05 Bohr mag/cell

     iteration # 33     ecut=   100.00 Ry     beta= 0.40
     Davidson diagonalization with overlap
     ethr =  2.64E-11,  avg # of iterations =  1.9

     negative rho (up, down):  0.000E+00 9.117E-04

     total cpu time spent up to now is    18087.1 secs

     total energy              =   -2126.09900728 Ry
     estimated scf accuracy    <       0.00000002 Ry

     total magnetization       =    19.00 Bohr mag/cell
     absolute magnetization    =    19.05 Bohr mag/cell

     iteration # 34     ecut=   100.00 Ry     beta= 0.40
     Davidson diagonalization with overlap
     ethr =  1.25E-11,  avg # of iterations =  1.4

     negative rho (up, down):  0.000E+00 9.117E-04

     total cpu time spent up to now is    18555.5 secs

     total energy              =   -2126.09900728 Ry
     estimated scf accuracy    <       0.00000002 Ry

     total magnetization       =    19.00 Bohr mag/cell
     absolute magnetization    =    19.05 Bohr mag/cell

     iteration # 35     ecut=   100.00 Ry     beta= 0.40
     Davidson diagonalization with overlap
     ethr =  1.01E-11,  avg # of iterations =  1.9

     negative rho (up, down):  0.000E+00 9.117E-04

     total cpu time spent up to now is    19060.3 secs

     total energy              =   -2126.09900728 Ry
     estimated scf accuracy    <       0.00000001 Ry

     total magnetization       =    19.00 Bohr mag/cell
     absolute magnetization    =    19.05 Bohr mag/cell

     iteration # 36     ecut=   100.00 Ry     beta= 0.40
     Davidson diagonalization with overlap
     ethr =  6.34E-12,  avg # of iterations =  1.2

     negative rho (up, down):  0.000E+00 9.118E-04

     total cpu time spent up to now is    19515.8 secs

     total energy              =   -2126.09900728 Ry
     estimated scf accuracy    <          5.6E-09 Ry

     total magnetization       =    19.00 Bohr mag/cell
     absolute magnetization    =    19.05 Bohr mag/cell

     iteration # 37     ecut=   100.00 Ry     beta= 0.40
     Davidson diagonalization with overlap
     ethr =  2.99E-12,  avg # of iterations =  1.3

     negative rho (up, down):  0.000E+00 9.118E-04

     total cpu time spent up to now is    19979.1 secs

     total energy              =   -2126.09900728 Ry
     estimated scf accuracy    <          3.0E-09 Ry

     total magnetization       =    19.00 Bohr mag/cell
     absolute magnetization    =    19.05 Bohr mag/cell

     iteration # 38     ecut=   100.00 Ry     beta= 0.40
     Davidson diagonalization with overlap
     ethr =  1.56E-12,  avg # of iterations =  2.3

     negative rho (up, down):  0.000E+00 9.118E-04

     total cpu time spent up to now is    20521.0 secs

     total energy              =   -2126.09900728 Ry
     estimated scf accuracy    <          1.1E-09 Ry

     total magnetization       =    19.00 Bohr mag/cell
     absolute magnetization    =    19.05 Bohr mag/cell

     iteration # 39     ecut=   100.00 Ry     beta= 0.40
     Davidson diagonalization with overlap
     ethr =  5.60E-13,  avg # of iterations =  3.0

     negative rho (up, down):  0.000E+00 9.118E-04

     total cpu time spent up to now is    21072.1 secs

     total energy              =   -2126.09900728 Ry
     estimated scf accuracy    <          9.1E-10 Ry

     total magnetization       =    19.00 Bohr mag/cell
     absolute magnetization    =    19.05 Bohr mag/cell

     iteration # 40     ecut=   100.00 Ry     beta= 0.40
     Davidson diagonalization with overlap
     ethr =  4.79E-13,  avg # of iterations =  1.5

     negative rho (up, down):  0.000E+00 9.118E-04

     Magnetic moment per site:
     atom:    1    charge:    7.9025    magn:    0.0005    constr:    0.0000
     atom:    2    charge:   12.8881    magn:    3.6779    constr:    0.0000
     atom:    3    charge:   12.8956    magn:    3.6590    constr:    0.0000
     atom:    4    charge:   12.9228    magn:    3.5950    constr:    0.0000
     atom:    5    charge:   12.8956    magn:    3.6626    constr:    0.0000
     atom:    6    charge:    0.8365    magn:    0.0099    constr:    0.0000
     atom:    7    charge:    0.8406    magn:    0.0079    constr:    0.0000
     atom:    8    charge:    0.8386    magn:    0.0105    constr:    0.0000
     atom:    9    charge:    0.8352    magn:    0.0083    constr:    0.0000
     atom:   10    charge:    4.2663    magn:    0.1355    constr:    0.0000
     atom:   11    charge:    4.2815    magn:    0.0848    constr:    0.0000
     atom:   12    charge:    4.2697    magn:    0.1273    constr:    0.0000
     atom:   13    charge:    4.2652    magn:    0.1016    constr:    0.0000
     atom:   14    charge:    4.2398    magn:    0.1101    constr:    0.0000
     atom:   15    charge:    4.2478    magn:    0.1330    constr:    0.0000
     atom:   16    charge:    4.2492    magn:    0.0795    constr:    0.0000
     atom:   17    charge:    4.2432    magn:    0.1432    constr:    0.0000
     atom:   18    charge:    4.2257    magn:    0.1533    constr:    0.0000
     atom:   19    charge:    4.2310    magn:    0.1326    constr:    0.0000
     atom:   20    charge:    4.2292    magn:    0.1408    constr:    0.0000
     atom:   21    charge:    4.2339    magn:    0.1190    constr:    0.0000
     atom:   22    charge:    4.2317    magn:    0.1520    constr:    0.0000
     atom:   23    charge:    4.2258    magn:    0.1350    constr:    0.0000
     atom:   24    charge:    4.2253    magn:    0.1505    constr:    0.0000
     atom:   25    charge:    4.2266    magn:    0.1274    constr:    0.0000

     total cpu time spent up to now is    21549.8 secs

     End of self-consistent calculation

 ------ SPIN UP ------------


          k = 0.0000 0.0000 0.0000 ( 37649 PWs)   bands (ev):

   -85.7116 -85.6452 -85.6401 -85.4104 -51.7978 -51.7939 -51.7627 -51.6780
   -51.6640 -51.6239 -51.5900 -51.5535 -51.5448 -51.5361 -51.3651 -51.1867
   -45.3719 -17.3888 -17.3408 -17.3333 -16.3416 -16.1918 -16.0271 -15.9387
   -14.0172 -14.0035 -13.9102 -13.7897 -13.7740 -13.7270 -13.7091 -13.6642
   -13.6413 -13.6074 -13.5194 -13.4347  -4.4325  -3.9423  -3.9058  -3.5077
    -2.4948  -2.1686  -2.1078  -1.9421  -1.7156  -1.6281  -1.5116  -1.5030
    -1.3578  -1.2095  -0.9542  -0.7205  -0.5873  -0.5770  -0.1011  -0.0359
     0.0233   0.0776   0.2571   0.4339   0.4735   0.5489   0.5996   0.6704
     0.7284   0.9006   0.9604   1.1152   1.2725   1.3138   1.4050   1.4385
     1.5415   1.6524   1.7758   1.8331   1.8936   1.9517   1.9879   2.1112
     2.2326   2.2826   2.3143   2.4377   2.5255   2.5810   2.6557   2.8034
     2.8796   2.9531   2.9899   3.0109   3.1132   3.2988   3.3384   3.4736
     3.5832   3.6246   3.6885   3.7675   3.8939   3.9897   4.2914   4.3993
     8.4044  10.4177  10.9094  11.2982  11.5302  12.3045  12.4085  12.6198
    12.8901  13.0741

     occupation numbers 
     1.0000   1.0000   1.0000   1.0000   1.0000   1.0000   1.0000   1.0000
     1.0000   1.0000   1.0000   1.0000   1.0000   1.0000   1.0000   1.0000
     1.0000   1.0000   1.0000   1.0000   1.0000   1.0000   1.0000   1.0000
     1.0000   1.0000   1.0000   1.0000   1.0000   1.0000   1.0000   1.0000
     1.0000   1.0000   1.0000   1.0000   1.0000   1.0000   1.0000   1.0000
     1.0000   1.0000   1.0000   1.0000   1.0000   1.0000   1.0000   1.0000
     1.0000   1.0000   1.0000   1.0000   1.0000   1.0000   1.0000   1.0000
     1.0000   1.0000   1.0000   1.0000   1.0000   1.0000   1.0000   1.0000
     1.0000   1.0000   1.0000   1.0000   1.0000   1.0000   1.0000   1.0000
     1.0000   1.0000   1.0000   1.0000   1.0000   1.0000   1.0000   1.0000
     1.0000   1.0000   1.0000   1.0000   1.0000   1.0000   1.0000   1.0000
     1.0000   1.0000   1.0000   1.0000   1.0000   1.0000   1.0000   1.0000
     1.0000   1.0000   1.0000   1.0000   1.0000   1.0000   1.0000   1.0000
     0.0000   0.0000   0.0000   0.0000   0.0000   0.0000   0.0000   0.0000
     0.0000   0.0000

          k = 0.0000 0.0000 0.2376 ( 37659 PWs)   bands (ev):

   -85.7116 -85.6452 -85.6401 -85.4104 -51.7978 -51.7939 -51.7627 -51.6780
   -51.6640 -51.6239 -51.5900 -51.5535 -51.5448 -51.5361 -51.3651 -51.1867
   -45.3719 -17.3892 -17.3446 -17.3326 -16.3257 -16.1836 -16.0211 -15.9350
   -14.0344 -14.0127 -13.9184 -13.8008 -13.7789 -13.7330 -13.7040 -13.6602
   -13.6370 -13.6090 -13.5240 -13.4386  -4.4112  -3.9403  -3.9015  -3.5171
    -2.4520  -2.1418  -2.1032  -1.9270  -1.7117  -1.6439  -1.5423  -1.4219
    -1.3504  -1.1759  -0.9989  -0.6961  -0.6207  -0.5671  -0.0886  -0.0230
     0.0257   0.1182   0.2589   0.4282   0.4646   0.5280   0.5802   0.6887
     0.7253   0.9016   0.9505   1.1041   1.2399   1.2642   1.3414   1.4066
     1.6160   1.6468   1.7139   1.8062   1.8727   1.9079   2.0150   2.1752
     2.2180   2.3010   2.3250   2.4201   2.5576   2.5966   2.6324   2.7501
     2.8847   2.9196   2.9981   3.0134   3.0761   3.3383   3.3572   3.4767
     3.5972   3.6306   3.7227   3.7635   3.8863   3.9913   4.2681   4.3782
     8.5503  10.4879  10.9472  11.2993  11.5981  12.1794  12.4461  12.5917
    12.8011  13.0238

     occupation numbers 
     1.0000   1.0000   1.0000   1.0000   1.0000   1.0000   1.0000   1.0000
     1.0000   1.0000   1.0000   1.0000   1.0000   1.0000   1.0000   1.0000
     1.0000   1.0000   1.0000   1.0000   1.0000   1.0000   1.0000   1.0000
     1.0000   1.0000   1.0000   1.0000   1.0000   1.0000   1.0000   1.0000
     1.0000   1.0000   1.0000   1.0000   1.0000   1.0000   1.0000   1.0000
     1.0000   1.0000   1.0000   1.0000   1.0000   1.0000   1.0000   1.0000
     1.0000   1.0000   1.0000   1.0000   1.0000   1.0000   1.0000   1.0000
     1.0000   1.0000   1.0000   1.0000   1.0000   1.0000   1.0000   1.0000
     1.0000   1.0000   1.0000   1.0000   1.0000   1.0000   1.0000   1.0000
     1.0000   1.0000   1.0000   1.0000   1.0000   1.0000   1.0000   1.0000
     1.0000   1.0000   1.0000   1.0000   1.0000   1.0000   1.0000   1.0000
     1.0000   1.0000   1.0000   1.0000   1.0000   1.0000   1.0000   1.0000
     1.0000   1.0000   1.0000   1.0000   1.0000   1.0000   1.0000   1.0000
     0.0000   0.0000   0.0000   0.0000   0.0000   0.0000   0.0000   0.0000
     0.0000   0.0000

          k = 0.0000 0.0000 0.4753 ( 37654 PWs)   bands (ev):

   -85.7116 -85.6452 -85.6401 -85.4104 -51.7978 -51.7939 -51.7627 -51.6780
   -51.6640 -51.6239 -51.5900 -51.5535 -51.5448 -51.5361 -51.3651 -51.1867
   -45.3719 -17.3910 -17.3530 -17.3307 -16.2834 -16.1630 -16.0053 -15.9268
   -14.0740 -14.0414 -13.9419 -13.8324 -13.7904 -13.7400 -13.6901 -13.6517
   -13.6256 -13.6124 -13.5368 -13.4494  -4.3494  -3.9426  -3.8872  -3.5536
    -2.3340  -2.1015  -2.0585  -1.9076  -1.6970  -1.6613  -1.5422  -1.3451
    -1.2660  -1.1179  -1.0838  -0.7438  -0.6134  -0.5052  -0.0474   0.0073
     0.0524   0.2067   0.2652   0.4223   0.4327   0.4963   0.5128   0.7089
     0.7340   0.9082   0.9300   1.0619   1.1164   1.1745   1.2961   1.3571
     1.4472   1.5621   1.7573   1.7867   1.8409   1.8600   2.0751   2.1288
     2.2739   2.3000   2.3602   2.4131   2.4527   2.5770   2.6592   2.7142
     2.7895   2.9286   3.0477   3.0752   3.0960   3.3555   3.4143   3.4853
     3.6356   3.6803   3.7503   3.7795   3.8716   3.9997   4.1965   4.3140
     8.9399  10.6748  11.0197  11.3450  11.7534  12.0326  12.2728  12.5438
    12.6320  12.7478

     occupation numbers 
     1.0000   1.0000   1.0000   1.0000   1.0000   1.0000   1.0000   1.0000
     1.0000   1.0000   1.0000   1.0000   1.0000   1.0000   1.0000   1.0000
     1.0000   1.0000   1.0000   1.0000   1.0000   1.0000   1.0000   1.0000
     1.0000   1.0000   1.0000   1.0000   1.0000   1.0000   1.0000   1.0000
     1.0000   1.0000   1.0000   1.0000   1.0000   1.0000   1.0000   1.0000
     1.0000   1.0000   1.0000   1.0000   1.0000   1.0000   1.0000   1.0000
     1.0000   1.0000   1.0000   1.0000   1.0000   1.0000   1.0000   1.0000
     1.0000   1.0000   1.0000   1.0000   1.0000   1.0000   1.0000   1.0000
     1.0000   1.0000   1.0000   1.0000   1.0000   1.0000   1.0000   1.0000
     1.0000   1.0000   1.0000   1.0000   1.0000   1.0000   1.0000   1.0000
     1.0000   1.0000   1.0000   1.0000   1.0000   1.0000   1.0000   1.0000
     1.0000   1.0000   1.0000   1.0000   1.0000   1.0000   1.0000   1.0000
     1.0000   1.0000   1.0000   1.0000   1.0000   1.0000   1.0000   1.0000
     0.0000   0.0000   0.0000   0.0000   0.0000   0.0000   0.0000   0.0000
     0.0000   0.0000

          k = 0.0000 0.0000 0.7129 ( 37702 PWs)   bands (ev):

   -85.7116 -85.6452 -85.6401 -85.4104 -51.7978 -51.7939 -51.7627 -51.6780
   -51.6640 -51.6239 -51.5900 -51.5535 -51.5448 -51.5361 -51.3651 -51.1867
   -45.3719 -17.3948 -17.3604 -17.3286 -16.2291 -16.1420 -15.9861 -15.9201
   -14.1175 -14.0772 -13.9734 -13.8741 -13.7989 -13.7411 -13.6705 -13.6435
   -13.6180 -13.6094 -13.5549 -13.4637  -4.2559  -3.9657  -3.8611  -3.6212
    -2.1959  -2.0686  -1.9781  -1.9043  -1.6832  -1.6383  -1.5252  -1.3302
    -1.2331  -1.1089  -0.9668  -0.8996  -0.4793  -0.3826   0.0153   0.0517
     0.0967   0.2149   0.3268   0.3654   0.4036   0.4359   0.5021   0.7163
     0.7439   0.8423   0.9452   0.9762   0.9907   1.0783   1.1671   1.2448
     1.3792   1.4385   1.6780   1.7413   1.8276   1.9959   2.0226   2.2088
     2.2147   2.2745   2.3004   2.3246   2.4670   2.4827   2.5637   2.6943
     2.7886   2.9431   3.1321   3.2015   3.3080   3.3789   3.4290   3.4967
     3.6816   3.7164   3.7592   3.8130   3.8937   4.0075   4.0744   4.2073
     9.4721  10.8689  11.0402  11.4607  11.8060  11.9510  12.1695  12.3505
    12.5102  12.5584

     occupation numbers 
     1.0000   1.0000   1.0000   1.0000   1.0000   1.0000   1.0000   1.0000
     1.0000   1.0000   1.0000   1.0000   1.0000   1.0000   1.0000   1.0000
     1.0000   1.0000   1.0000   1.0000   1.0000   1.0000   1.0000   1.0000
     1.0000   1.0000   1.0000   1.0000   1.0000   1.0000   1.0000   1.0000
     1.0000   1.0000   1.0000   1.0000   1.0000   1.0000   1.0000   1.0000
     1.0000   1.0000   1.0000   1.0000   1.0000   1.0000   1.0000   1.0000
     1.0000   1.0000   1.0000   1.0000   1.0000   1.0000   1.0000   1.0000
     1.0000   1.0000   1.0000   1.0000   1.0000   1.0000   1.0000   1.0000
     1.0000   1.0000   1.0000   1.0000   1.0000   1.0000   1.0000   1.0000
     1.0000   1.0000   1.0000   1.0000   1.0000   1.0000   1.0000   1.0000
     1.0000   1.0000   1.0000   1.0000   1.0000   1.0000   1.0000   1.0000
     1.0000   1.0000   1.0000   1.0000   1.0000   1.0000   1.0000   1.0000
     1.0000   1.0000   1.0000   1.0000   1.0000   1.0000   1.0000   1.0000
     0.0000   0.0000   0.0000   0.0000   0.0000   0.0000   0.0000   0.0000
     0.0000   0.0000

          k = 0.0000 0.0000 0.9505 ( 37742 PWs)   bands (ev):

   -85.7116 -85.6452 -85.6401 -85.4104 -51.7978 -51.7939 -51.7627 -51.6780
   -51.6640 -51.6239 -51.5900 -51.5535 -51.5448 -51.5361 -51.3651 -51.1867
   -45.3719 -17.3985 -17.3638 -17.3272 -16.1852 -16.1344 -15.9716 -15.9189
   -14.1457 -14.1011 -13.9961 -13.9035 -13.8022 -13.7401 -13.6533 -13.6379
   -13.6204 -13.5996 -13.5704 -13.4750  -4.1535  -4.0213  -3.8240  -3.6929
    -2.1146  -2.0533  -1.9233  -1.8821  -1.6709  -1.5630  -1.5260  -1.4395
    -1.1853  -1.0584  -1.0017  -0.8752  -0.2892  -0.1823   0.0097   0.0676
     0.1271   0.1501   0.2726   0.2872   0.3662   0.4778   0.5853   0.6623
     0.7598   0.7741   0.8071   0.8908   0.9562   1.0283   1.0460   1.2144
     1.4194   1.4499   1.5627   1.6727   1.8415   1.9678   2.1119   2.1331
     2.2026   2.2420   2.2758   2.3297   2.3834   2.4269   2.5376   2.6796
     2.8069   2.9438   3.1850   3.3345   3.3835   3.4310   3.5000   3.5898
     3.6726   3.7011   3.8179   3.8434   3.9062   3.9490   4.0066   4.0808
    10.0437  10.6009  11.2524  11.5891  11.6898  11.8658  12.1352  12.3053
    12.5100  12.5462

     occupation numbers 
     1.0000   1.0000   1.0000   1.0000   1.0000   1.0000   1.0000   1.0000
     1.0000   1.0000   1.0000   1.0000   1.0000   1.0000   1.0000   1.0000
     1.0000   1.0000   1.0000   1.0000   1.0000   1.0000   1.0000   1.0000
     1.0000   1.0000   1.0000   1.0000   1.0000   1.0000   1.0000   1.0000
     1.0000   1.0000   1.0000   1.0000   1.0000   1.0000   1.0000   1.0000
     1.0000   1.0000   1.0000   1.0000   1.0000   1.0000   1.0000   1.0000
     1.0000   1.0000   1.0000   1.0000   1.0000   1.0000   1.0000   1.0000
     1.0000   1.0000   1.0000   1.0000   1.0000   1.0000   1.0000   1.0000
     1.0000   1.0000   1.0000   1.0000   1.0000   1.0000   1.0000   1.0000
     1.0000   1.0000   1.0000   1.0000   1.0000   1.0000   1.0000   1.0000
     1.0000   1.0000   1.0000   1.0000   1.0000   1.0000   1.0000   1.0000
     1.0000   1.0000   1.0000   1.0000   1.0000   1.0000   1.0000   1.0000
     1.0000   1.0000   1.0000   1.0000   1.0000   1.0000   1.0000   1.0000
     0.0000   0.0000   0.0000   0.0000   0.0000   0.0000   0.0000   0.0000
     0.0000   0.0000

          k = 0.0000 0.2391 0.0000 ( 37676 PWs)   bands (ev):

   -85.7116 -85.6452 -85.6401 -85.4104 -51.7978 -51.7939 -51.7627 -51.6780
   -51.6640 -51.6239 -51.5900 -51.5535 -51.5448 -51.5361 -51.3651 -51.1867
   -45.3719 -17.3887 -17.3412 -17.3333 -16.3267 -16.1897 -16.0265 -15.9533
   -14.0145 -14.0012 -13.9131 -13.7967 -13.7779 -13.7574 -13.7225 -13.6735
   -13.6074 -13.5867 -13.5174 -13.4379  -4.4073  -3.9629  -3.8826  -3.5167
    -2.4706  -2.1739  -2.1000  -1.9448  -1.7013  -1.6187  -1.5030  -1.4830
    -1.3185  -1.2098  -0.9394  -0.7026  -0.6402  -0.5335  -0.0632  -0.0130
     0.0325   0.0706   0.1635   0.2972   0.3919   0.5827   0.6720   0.7054
     0.8391   0.9066   0.9511   1.0936   1.2028   1.2101   1.2787   1.3851
     1.5412   1.7556   1.8075   1.8563   1.8921   1.9602   2.0035   2.0584
     2.2431   2.2697   2.3042   2.3794   2.4623   2.6451   2.7500   2.8032
     2.8533   2.8890   2.9335   3.0884   3.1742   3.3014   3.3359   3.4797
     3.5461   3.6105   3.6988   3.7786   3.8502   4.0077   4.3153   4.3848
     8.5594  10.5086  10.9865  11.2117  11.6072  12.2869  12.4362  12.6830
    12.7976  13.0501

     occupation numbers 
     1.0000   1.0000   1.0000   1.0000   1.0000   1.0000   1.0000   1.0000
     1.0000   1.0000   1.0000   1.0000   1.0000   1.0000   1.0000   1.0000
     1.0000   1.0000   1.0000   1.0000   1.0000   1.0000   1.0000   1.0000
     1.0000   1.0000   1.0000   1.0000   1.0000   1.0000   1.0000   1.0000
     1.0000   1.0000   1.0000   1.0000   1.0000   1.0000   1.0000   1.0000
     1.0000   1.0000   1.0000   1.0000   1.0000   1.0000   1.0000   1.0000
     1.0000   1.0000   1.0000   1.0000   1.0000   1.0000   1.0000   1.0000
     1.0000   1.0000   1.0000   1.0000   1.0000   1.0000   1.0000   1.0000
     1.0000   1.0000   1.0000   1.0000   1.0000   1.0000   1.0000   1.0000
     1.0000   1.0000   1.0000   1.0000   1.0000   1.0000   1.0000   1.0000
     1.0000   1.0000   1.0000   1.0000   1.0000   1.0000   1.0000   1.0000
     1.0000   1.0000   1.0000   1.0000   1.0000   1.0000   1.0000   1.0000
     1.0000   1.0000   1.0000   1.0000   1.0000   1.0000   1.0000   1.0000
     0.0000   0.0000   0.0000   0.0000   0.0000   0.0000   0.0000   0.0000
     0.0000   0.0000

          k = 0.0000 0.2391 0.2376 ( 37671 PWs)   bands (ev):

   -85.7116 -85.6452 -85.6401 -85.4104 -51.7978 -51.7939 -51.7627 -51.6780
   -51.6640 -51.6239 -51.5900 -51.5535 -51.5448 -51.5361 -51.3651 -51.1867
   -45.3719 -17.3891 -17.3445 -17.3328 -16.3128 -16.1814 -16.0202 -15.9480
   -14.0331 -14.0098 -13.9214 -13.8069 -13.7839 -13.7540 -13.7229 -13.6695
   -13.6090 -13.5837 -13.5238 -13.4414  -4.3863  -3.9587  -3.8789  -3.5264
    -2.4289  -2.1473  -2.0925  -1.9307  -1.6960  -1.6353  -1.5166  -1.4198
    -1.3064  -1.1788  -0.9826  -0.7221  -0.6288  -0.5274  -0.0559  -0.0209
     0.0481   0.1106   0.1569   0.2996   0.3778   0.5880   0.6384   0.7151
     0.8134   0.9024   0.9580   1.0710   1.1604   1.1875   1.2579   1.3630
     1.6485   1.7027   1.7952   1.8419   1.8810   1.9016   1.9911   2.1144
     2.2084   2.2799   2.3299   2.3918   2.4638   2.6051   2.7066   2.7975
     2.8509   2.8730   2.9601   3.0547   3.1365   3.3332   3.3708   3.4857
     3.5450   3.6314   3.7260   3.7719   3.8436   4.0157   4.3010   4.3714
     8.6997  10.5794  11.0257  11.2334  11.6553  12.1933  12.4613  12.5968
    12.7872  12.9992

     occupation numbers 
     1.0000   1.0000   1.0000   1.0000   1.0000   1.0000   1.0000   1.0000
     1.0000   1.0000   1.0000   1.0000   1.0000   1.0000   1.0000   1.0000
     1.0000   1.0000   1.0000   1.0000   1.0000   1.0000   1.0000   1.0000
     1.0000   1.0000   1.0000   1.0000   1.0000   1.0000   1.0000   1.0000
     1.0000   1.0000   1.0000   1.0000   1.0000   1.0000   1.0000   1.0000
     1.0000   1.0000   1.0000   1.0000   1.0000   1.0000   1.0000   1.0000
     1.0000   1.0000   1.0000   1.0000   1.0000   1.0000   1.0000   1.0000
     1.0000   1.0000   1.0000   1.0000   1.0000   1.0000   1.0000   1.0000
     1.0000   1.0000   1.0000   1.0000   1.0000   1.0000   1.0000   1.0000
     1.0000   1.0000   1.0000   1.0000   1.0000   1.0000   1.0000   1.0000
     1.0000   1.0000   1.0000   1.0000   1.0000   1.0000   1.0000   1.0000
     1.0000   1.0000   1.0000   1.0000   1.0000   1.0000   1.0000   1.0000
     1.0000   1.0000   1.0000   1.0000   1.0000   1.0000   1.0000   1.0000
     0.0000   0.0000   0.0000   0.0000   0.0000   0.0000   0.0000   0.0000
     0.0000   0.0000

          k = 0.0000 0.2391 0.4753 ( 37686 PWs)   bands (ev):

   -85.7116 -85.6452 -85.6401 -85.4104 -51.7978 -51.7939 -51.7627 -51.6780
   -51.6640 -51.6239 -51.5900 -51.5535 -51.5448 -51.5361 -51.3651 -51.1867
   -45.3719 -17.3907 -17.3528 -17.3309 -16.2727 -16.1613 -16.0041 -15.9368
   -14.0742 -14.0395 -13.9459 -13.8366 -13.7985 -13.7505 -13.7159 -13.6563
   -13.6132 -13.5776 -13.5370 -13.4504  -4.3260  -3.9546  -3.8674  -3.5618
    -2.3149  -2.0946  -2.0546  -1.9102  -1.6830  -1.6481  -1.5135  -1.3192
    -1.2545  -1.1084  -1.0775  -0.7997  -0.5766  -0.4948  -0.0358  -0.0048
     0.0751   0.1116   0.2263   0.3108   0.3824   0.5598   0.6048   0.7179
     0.7602   0.9093   0.9500   1.0137   1.0667   1.1579   1.2093   1.3588
     1.5001   1.6744   1.7470   1.8046   1.8437   1.8612   2.0673   2.0984
     2.2000   2.3056   2.3441   2.3816   2.4583   2.5274   2.6254   2.7337
     2.8158   2.8863   3.0119   3.1011   3.1317   3.3632   3.4099   3.5028
     3.5875   3.6705   3.7327   3.7817   3.8625   4.0248   4.2569   4.3250
     9.0763  10.7662  11.1100  11.3063  11.7906  12.0724  12.2981  12.5252
    12.6488  12.7975

     occupation numbers 
     1.0000   1.0000   1.0000   1.0000   1.0000   1.0000   1.0000   1.0000
     1.0000   1.0000   1.0000   1.0000   1.0000   1.0000   1.0000   1.0000
     1.0000   1.0000   1.0000   1.0000   1.0000   1.0000   1.0000   1.0000
     1.0000   1.0000   1.0000   1.0000   1.0000   1.0000   1.0000   1.0000
     1.0000   1.0000   1.0000   1.0000   1.0000   1.0000   1.0000   1.0000
     1.0000   1.0000   1.0000   1.0000   1.0000   1.0000   1.0000   1.0000
     1.0000   1.0000   1.0000   1.0000   1.0000   1.0000   1.0000   1.0000
     1.0000   1.0000   1.0000   1.0000   1.0000   1.0000   1.0000   1.0000
     1.0000   1.0000   1.0000   1.0000   1.0000   1.0000   1.0000   1.0000
     1.0000   1.0000   1.0000   1.0000   1.0000   1.0000   1.0000   1.0000
     1.0000   1.0000   1.0000   1.0000   1.0000   1.0000   1.0000   1.0000
     1.0000   1.0000   1.0000   1.0000   1.0000   1.0000   1.0000   1.0000
     1.0000   1.0000   1.0000   1.0000   1.0000   1.0000   1.0000   1.0000
     0.0000   0.0000   0.0000   0.0000   0.0000   0.0000   0.0000   0.0000
     0.0000   0.0000

          k = 0.0000 0.2391 0.7129 ( 37698 PWs)   bands (ev):

   -85.7116 -85.6452 -85.6401 -85.4104 -51.7978 -51.7939 -51.7627 -51.6780
   -51.6640 -51.6239 -51.5900 -51.5535 -51.5448 -51.5361 -51.3651 -51.1867
   -45.3719 -17.3944 -17.3602 -17.3288 -16.2205 -16.1406 -15.9849 -15.9266
   -14.1193 -14.0767 -13.9790 -13.8769 -13.8077 -13.7491 -13.7005 -13.6398
   -13.6178 -13.5715 -13.5523 -13.4622  -4.2358  -3.9693  -3.8453  -3.6258
    -2.1791  -2.0589  -1.9744  -1.9036  -1.6753  -1.6171  -1.4977  -1.3056
    -1.2105  -1.1122  -0.9671  -0.9238  -0.4732  -0.4103  -0.0474   0.0453
     0.0629   0.1323   0.2804   0.4051   0.4213   0.5026   0.5481   0.7017
     0.7470   0.8752   0.9181   0.9653   0.9953   1.1059   1.1236   1.2382
     1.3665   1.5154   1.6434   1.7769   1.8372   1.9776   2.0015   2.1463
     2.1749   2.2976   2.3080   2.3679   2.4030   2.4587   2.5575   2.6757
     2.7945   2.8844   3.1107   3.2075   3.2660   3.3863   3.4239   3.5139
     3.6136   3.6865   3.7514   3.8012   3.9257   4.0283   4.1856   4.2469
     9.5956  10.9806  11.1123  11.4599  11.8651  12.0090  12.1817  12.3716
    12.4934  12.5541

     occupation numbers 
     1.0000   1.0000   1.0000   1.0000   1.0000   1.0000   1.0000   1.0000
     1.0000   1.0000   1.0000   1.0000   1.0000   1.0000   1.0000   1.0000
     1.0000   1.0000   1.0000   1.0000   1.0000   1.0000   1.0000   1.0000
[...]
     atom   24 type  3   force =    -0.00839515    0.02364945    0.00743176
     atom   25 type  3   force =     0.00935030   -0.02367190    0.00811389
     The non-local contrib.  to forces
     atom    1 type  2   force =     0.06821223   -0.03343339   -0.01853909
     atom    2 type  1   force =     0.08860088   -0.03200157    0.11250774
     atom    3 type  1   force =     0.03364754    0.00194877    0.09032646
     atom    4 type  1   force =    -0.19561663    0.06815093   -0.07737226
     atom    5 type  1   force =    -0.01952666   -0.01482050   -0.08560085
     atom    6 type  4   force =    -0.03743870   -0.00019748   -0.06324682
     atom    7 type  4   force =     0.05335870    0.00025419   -0.03695532
     atom    8 type  4   force =     0.01736228   -0.00721111    0.06725701
     atom    9 type  4   force =    -0.01456756    0.00140335    0.06686894
     atom   10 type  3   force =     0.31375518    0.02121165   -1.50511105
     atom   11 type  3   force =    -0.10987798    0.01500509   -1.43723211
     atom   12 type  3   force =    -0.39827341   -0.01892740    1.50819277
     atom   13 type  3   force =     0.25245192    0.01515351    1.50904821
     atom   14 type  3   force =     1.24679192    0.01770291   -0.61499096
     atom   15 type  3   force =    -1.21418760   -0.01948169   -0.75013379
     atom   16 type  3   force =    -1.22602960    0.04848898    0.30707063
     atom   17 type  3   force =     1.19159477    0.00916207    0.61744172
     atom   18 type  3   force =    -0.52968214   -1.11523964    0.75182722
     atom   19 type  3   force =     0.56704796    1.14925632    0.81122459
     atom   20 type  3   force =     0.59757176   -1.13846128   -0.68131399
     atom   21 type  3   force =    -0.66097525    1.06298756   -0.59426338
     atom   22 type  3   force =     0.52692480    1.11266712   -0.65071197
     atom   23 type  3   force =    -0.52992191   -1.09009205   -0.74282006
     atom   24 type  3   force =    -0.53610796    1.12809599    0.74110366
     atom   25 type  3   force =     0.52120329   -1.19709594    0.76640248
     The ionic contribution  to forces
     atom    1 type  2   force =    -2.54908216   -0.22090534    1.08090986
     atom    2 type  1   force =     0.36777140    0.26514694   -0.42292294
     atom    3 type  1   force =    -9.04835960   -0.64832474   -0.48996311
     atom    4 type  1   force =     2.59806728   -0.87193765    0.19315321
     atom    5 type  1   force =     9.20480237    0.99426079    0.77045574
     atom    6 type  4   force =    -3.77755169    0.03639021    0.08541227
     atom    7 type  4   force =     0.90991859   -0.82040156    0.33027056
     atom    8 type  4   force =     5.09618139    0.02815546   -0.22105352
     atom    9 type  4   force =    -2.73858690    0.93633561   -0.51149432
     atom   10 type  3   force =   -10.18918366   -0.07293177    2.79641063
     atom   11 type  3   force =     4.10491093   -1.35744265    1.46723601
     atom   12 type  3   force =    11.85149153    0.18779133   -2.90113435
     atom   13 type  3   force =    -7.96655761    1.09664532   -2.40178936
     atom   14 type  3   force =     0.39565941    1.11333267    4.98155107
     atom   15 type  3   force =    -2.06381306    0.11811598    6.46386427
     atom   16 type  3   force =    -1.60870970   -1.89574574   -2.14902287
     atom   17 type  3   force =     3.48190226   -0.11333811   -5.71070895
     atom   18 type  3   force =    -4.19213454    2.70306522   -2.82487065
     atom   19 type  3   force =     1.22915152   -3.58286451   -2.81755765
     atom   20 type  3   force =     5.35667193    3.99031202    2.45449084
     atom   21 type  3   force =     0.43691748   -1.23964446    0.13137227
     atom   22 type  3   force =     5.27969805   -3.88527090    2.07065554
     atom   23 type  3   force =    -2.17759457    1.92880358    2.33296562
     atom   24 type  3   force =    -4.41620031   -2.85895895   -2.75657049
     atom   25 type  3   force =     0.41462967    4.16941126   -1.95165968
     The local contribution  to forces
     atom    1 type  2   force =     2.47756253    0.26581005   -1.06357463
     atom    2 type  1   force =    -0.45589804   -0.23255686    0.31001154
     atom    3 type  1   force =     9.00908076    0.64593182    0.40090368
     atom    4 type  1   force =    -2.40070669    0.80166349   -0.11374504
     atom    5 type  1   force =    -9.17910795   -0.97983072   -0.68652885
     atom    6 type  4   force =     3.80294827   -0.03607554   -0.04723042
     atom    7 type  4   force =    -0.95063090    0.81776791   -0.31502670
     atom    8 type  4   force =    -5.10581071   -0.02158871    0.17933801
     atom    9 type  4   force =     2.74274494   -0.93647344    0.46848313
     atom   10 type  3   force =     9.88701494    0.05152940   -1.30089206
     atom   11 type  3   force =    -4.00095316    1.34278533   -0.03785984
     atom   12 type  3   force =   -11.46520616   -0.17003217    1.40207682
     atom   13 type  3   force =     7.72281488   -1.11205434    0.90298618
     atom   14 type  3   force =    -1.60357643   -1.13195991   -4.37922827
     atom   15 type  3   force =     3.24306836   -0.09904542   -5.73197103
     atom   16 type  3   force =     2.79295419    1.84751589    1.84940901
     atom   17 type  3   force =    -4.63761886    0.10422042    5.10707323
     atom   18 type  3   force =     4.70850608   -1.62157058    2.08818049
     atom   19 type  3   force =    -1.78144174    2.46528470    2.02343739
     atom   20 type  3   force =    -5.93841803   -2.88546749   -1.78727253
     atom   21 type  3   force =     0.20774497    0.20879445    0.45177865
     atom   22 type  3   force =    -5.79195150    2.80365202   -1.43356602
     atom   23 type  3   force =     2.69280400   -0.87063938   -1.60502768
     atom   24 type  3   force =     4.93910079    1.76465642    2.02979237
     atom   25 type  3   force =    -0.92187711   -3.00679658    1.20052404
     The core correction contribution to forces
     atom    1 type  2   force =     0.00000000    0.00000000    0.00000000
     atom    2 type  1   force =    -0.00119075    0.00025869   -0.00055527
     atom    3 type  1   force =     0.00003901   -0.00006004    0.00016511
     atom    4 type  1   force =     0.00331435   -0.00066373   -0.00024529
     atom    5 type  1   force =    -0.00014517    0.00019826    0.00013924
     atom    6 type  4   force =     0.00305071    0.00001564    0.00527482
     atom    7 type  4   force =    -0.00392272    0.00018699    0.00329789
     atom    8 type  4   force =    -0.00176655    0.00044093   -0.00549884
     atom    9 type  4   force =     0.00136347   -0.00055317   -0.00524711
     atom   10 type  3   force =    -0.00353421   -0.00019664    0.01315919
     atom   11 type  3   force =     0.00172164   -0.00012660    0.01241861
     atom   12 type  3   force =     0.00429278    0.00020022   -0.01313243
     atom   13 type  3   force =    -0.00298422   -0.00013687   -0.01316011
     atom   14 type  3   force =    -0.01101817   -0.00018616    0.00607642
     atom   15 type  3   force =     0.01074780    0.00018539    0.00729344
     atom   16 type  3   force =     0.01079506   -0.00039669   -0.00316627
     atom   17 type  3   force =    -0.01061849   -0.00008472   -0.00606535
     atom   18 type  3   force =     0.00474857    0.01001136   -0.00702052
     atom   19 type  3   force =    -0.00505921   -0.01025028   -0.00759905
     atom   20 type  3   force =    -0.00544082    0.01023151    0.00631667
     atom   21 type  3   force =     0.00595227   -0.00960074    0.00555251
     atom   22 type  3   force =    -0.00476917   -0.00998203    0.00602906
     atom   23 type  3   force =     0.00474737    0.00980363    0.00699038
     atom   24 type  3   force =     0.00481404   -0.01014921   -0.00689068
     atom   25 type  3   force =    -0.00460886    0.01080616   -0.00715435
     The Hubbard contrib.    to forces
     atom    1 type  2   force =     0.00000000    0.00000000    0.00000000
     atom    2 type  1   force =     0.00000000    0.00000000    0.00000000
     atom    3 type  1   force =     0.00000000    0.00000000    0.00000000
     atom    4 type  1   force =     0.00000000    0.00000000    0.00000000
     atom    5 type  1   force =     0.00000000    0.00000000    0.00000000
     atom    6 type  4   force =     0.00000000    0.00000000    0.00000000
     atom    7 type  4   force =     0.00000000    0.00000000    0.00000000
     atom    8 type  4   force =     0.00000000    0.00000000    0.00000000
     atom    9 type  4   force =     0.00000000    0.00000000    0.00000000
     atom   10 type  3   force =     0.00000000    0.00000000    0.00000000
     atom   11 type  3   force =     0.00000000    0.00000000    0.00000000
     atom   12 type  3   force =     0.00000000    0.00000000    0.00000000
     atom   13 type  3   force =     0.00000000    0.00000000    0.00000000
     atom   14 type  3   force =     0.00000000    0.00000000    0.00000000
     atom   15 type  3   force =     0.00000000    0.00000000    0.00000000
     atom   16 type  3   force =     0.00000000    0.00000000    0.00000000
     atom   17 type  3   force =     0.00000000    0.00000000    0.00000000
     atom   18 type  3   force =     0.00000000    0.00000000    0.00000000
     atom   19 type  3   force =     0.00000000    0.00000000    0.00000000
     atom   20 type  3   force =     0.00000000    0.00000000    0.00000000
     atom   21 type  3   force =     0.00000000    0.00000000    0.00000000
     atom   22 type  3   force =     0.00000000    0.00000000    0.00000000
     atom   23 type  3   force =     0.00000000    0.00000000    0.00000000
     atom   24 type  3   force =     0.00000000    0.00000000    0.00000000
     atom   25 type  3   force =     0.00000000    0.00000000    0.00000000
     The SCF correction term to forces
     atom    1 type  2   force =     0.00000432   -0.00000062   -0.00000029
     atom    2 type  1   force =     0.00000060    0.00000009    0.00000005
     atom    3 type  1   force =    -0.00000121   -0.00000004    0.00000037
     atom    4 type  1   force =     0.00000064   -0.00000005    0.00000006
     atom    5 type  1   force =    -0.00000070    0.00000024   -0.00000074
     atom    6 type  4   force =    -0.00000127    0.00000004   -0.00000011
     atom    7 type  4   force =     0.00000306   -0.00000010    0.00000010
     atom    8 type  4   force =    -0.00000255   -0.00000005    0.00000021
     atom    9 type  4   force =     0.00000105    0.00000014    0.00000010
     atom   10 type  3   force =    -0.00000095    0.00000003    0.00000038
     atom   11 type  3   force =     0.00000613    0.00000001   -0.00000297
     atom   12 type  3   force =    -0.00000450   -0.00000022   -0.00000230
     atom   13 type  3   force =     0.00000005    0.00000004    0.00000138
     atom   14 type  3   force =     0.00000117    0.00000007   -0.00000050
     atom   15 type  3   force =    -0.00000719    0.00000000    0.00000204
     atom   16 type  3   force =     0.00000435   -0.00000006    0.00000088
     atom   17 type  3   force =     0.00000050   -0.00000004   -0.00000063
     atom   18 type  3   force =    -0.00000174   -0.00000529   -0.00000200
     atom   19 type  3   force =     0.00000300   -0.00000328    0.00000270
     atom   20 type  3   force =    -0.00000162   -0.00000366    0.00000206
     atom   21 type  3   force =     0.00000084   -0.00000259   -0.00000170
     atom   22 type  3   force =    -0.00000180    0.00000369    0.00000230
     atom   23 type  3   force =     0.00000112    0.00000305   -0.00000184
     atom   24 type  3   force =    -0.00000176    0.00000515   -0.00000193
     atom   25 type  3   force =     0.00000326    0.00000314    0.00000258

     Total force =     0.103954     Total SCF correction =     0.000020


     Computing stress (Cartesian axis) and pressure


     negative rho (up, down):  0.000E+00 9.118E-04
          total   stress  (Ry/bohr**3)                   (kbar)     P=      -69.85
  -0.00074674   0.00000340  -0.00002390         -109.85        0.50       -3.52
   0.00000340  -0.00052918  -0.00001848            0.50      -77.85       -2.72
  -0.00002390  -0.00001848  -0.00014865           -3.52       -2.72      -21.87

     kinetic stress (kbar)  25402.97     -7.67     -8.18
                               -7.67  25634.18     -4.55
                               -8.18     -4.55  25487.23

     local   stress (kbar)  -4505.55  -1642.03   1023.91
                            -1642.03 -13783.29    628.98
                             1023.91    628.98  -8589.49

     nonloc. stress (kbar)  -6463.44     -1.56     -0.83
                               -1.56  -6410.77      0.82
                               -0.83      0.82  -6410.78

     hartree stress (kbar)  12142.61    666.21   -412.58
                              666.21  17272.88   -251.43
                             -412.58   -251.43  14542.36

     exc-cor stress (kbar)  -2697.44      0.93     -0.80
                                0.93  -2704.61     -0.40
                               -0.80     -0.40  -2701.94

     corecor stress (kbar)  -3012.30     -0.26      0.90
                               -0.26  -3012.04      0.03
                                0.90      0.03  -3014.16

     ewald   stress (kbar) -20976.70    984.87   -605.93
                              984.87 -17074.20   -376.18
                             -605.93   -376.18 -19335.10

     hubbard stress (kbar)      0.00      0.00      0.00
                                0.00      0.00      0.00
                                0.00      0.00      0.00

     DFT-D   stress (kbar)      0.00      0.00      0.00
                                0.00      0.00      0.00
                                0.00      0.00      0.00

     XDM     stress (kbar)      0.00      0.00      0.00
                                0.00      0.00      0.00
                                0.00      0.00      0.00

     dft-nl  stress (kbar)      0.00      0.00      0.00
                                0.00      0.00      0.00
                                0.00      0.00      0.00

     TS-vdW  stress (kbar)      0.00      0.00      0.00
                                0.00      0.00      0.00
                                0.00      0.00      0.00



     init_run     :    209.74s CPU    214.94s WALL (       1 calls)
     electrons    :  21029.53s CPU  21333.93s WALL (       1 calls)
     forces       :    136.67s CPU    138.97s WALL (       1 calls)
     stress       :   1141.45s CPU   1150.14s WALL (       1 calls)

     Called by init_run:
     wfcinit      :    198.38s CPU    202.59s WALL (       1 calls)
     wfcinit:atom :      4.20s CPU      4.31s WALL (     316 calls)
     wfcinit:wfcr :    183.01s CPU    186.84s WALL (     316 calls)
     potinit      :      4.10s CPU      4.25s WALL (       1 calls)
     hinit0       :      3.76s CPU      3.94s WALL (       1 calls)

     Called by electrons:
     c_bands      :  18568.65s CPU  18776.84s WALL (      40 calls)
     sum_band     :   2325.98s CPU   2390.00s WALL (      40 calls)
     v_of_rho     :     38.92s CPU     40.62s WALL (      41 calls)
     v_h          :      1.99s CPU      2.10s WALL (      41 calls)
     v_xc         :     38.84s CPU     40.51s WALL (      43 calls)
     newd         :     66.20s CPU     96.60s WALL (      41 calls)
     PAW_pot      :     19.13s CPU     19.20s WALL (      41 calls)
     mix_rho      :      9.54s CPU      9.94s WALL (      40 calls)

     Called by c_bands:
     init_us_2    :    391.36s CPU    400.60s WALL (   26228 calls)
     cegterg      :  17938.43s CPU  18133.70s WALL (   12640 calls)

     Called by sum_band:
     sum_band:wei :      0.70s CPU      0.71s WALL (      40 calls)
     sum_band:loo :   2118.80s CPU   2145.90s WALL (      40 calls)
     sum_band:buf :     92.82s CPU     94.92s WALL (   12640 calls)
     sum_band:ini :    191.09s CPU    195.18s WALL (   12640 calls)
     sum_band:cal :    994.69s CPU   1005.34s WALL (   12640 calls)
     sum_band:bec :     11.99s CPU     12.20s WALL (   12640 calls)
     addusdens    :    199.77s CPU    236.40s WALL (      40 calls)
     addusd:skk   :      0.98s CPU      1.03s WALL (     120 calls)
     addusd:dgemm :     88.66s CPU    116.31s WALL (     240 calls)
     addusd:qvan2 :    107.64s CPU    108.65s WALL (     240 calls)

     Called by *egterg:
     cdiaghg      :   1034.53s CPU   1063.82s WALL (   44030 calls)
     cegterg:over :   1793.63s CPU   1823.22s WALL (   31390 calls)
     cegterg:upda :    982.74s CPU    988.78s WALL (   31390 calls)
     cegterg:last :   2051.06s CPU   2062.91s WALL (   20483 calls)
     h_psi        :   8588.76s CPU   8679.39s WALL (   44346 calls)
     s_psi        :   2339.31s CPU   2352.85s WALL (   44346 calls)
     g_psi        :     22.09s CPU     22.41s WALL (   31390 calls)

     Called by h_psi:
     h_psi:calbec :   2457.63s CPU   2484.76s WALL (   44346 calls)
     vloc_psi     :   3477.91s CPU   3520.90s WALL (   44346 calls)
     add_vuspsi   :   2432.81s CPU   2446.93s WALL (   44346 calls)

     General routines
     calbec       :   3582.24s CPU   3621.58s WALL (   58566 calls)
     fft          :     33.90s CPU     36.12s WALL (    1063 calls)
     ffts         :      0.68s CPU      0.76s WALL (     162 calls)
     fftw         :   3954.07s CPU   4002.21s WALL ( 7623428 calls)
     interpolate  :      2.91s CPU      3.10s WALL (      82 calls)

     Parallel routines
     fft_scatt_xy :    453.85s CPU    459.09s WALL ( 7624653 calls)
     fft_scatt_yz :   1596.95s CPU   1620.84s WALL ( 7624653 calls)

     PAW routines
     PAW_pot      :     19.13s CPU     19.20s WALL (      41 calls)

     PWSCF        :      6h15m CPU      6h20m WALL


   This run was terminated on:  10:51:37  19Dec2022            

=------------------------------------------------------------------------------=
   JOB DONE.
=------------------------------------------------------------------------------=
Note: The following floating-point exceptions are signalling: IEEE_UNDERFLOW_FLAG IEEE_DENORMAL
Note: The following floating-point exceptions are signalling: IEEE_DENORMAL
Note: The following floating-point exceptions are signalling: IEEE_DENORMAL
Note: The following floating-point exceptions are signalling: IEEE_DENORMAL
Note: The following floating-point exceptions are signalling: IEEE_DENORMAL
Note: The following floating-point exceptions are signalling: IEEE_DENORMAL
Note: The following floating-point exceptions are signalling: IEEE_DENORMAL
Note: The following floating-point exceptions are signalling: IEEE_DENORMAL
Note: The following floating-point exceptions are signalling: IEEE_DENORMAL
Note: The following floating-point exceptions are signalling: IEEE_DENORMAL
Note: The following floating-point exceptions are signalling: IEEE_DENORMAL
Note: The following floating-point exceptions are signalling: IEEE_DENORMAL
Note: The following floating-point exceptions are signalling: IEEE_INVALID_FLAG IEEE_DENORMAL
Note: The following floating-point exceptions are signalling: IEEE_DENORMAL
Note: The following floating-point exceptions are signalling: IEEE_INVALID_FLAG IEEE_DENORMAL
Note: The following floating-point exceptions are signalling: IEEE_DENORMAL
Note: The following floating-point exceptions are signalling: IEEE_INVALID_FLAG IEEE_DENORMAL
Note: The following floating-point exceptions are signalling: IEEE_DENORMAL
Note: The following floating-point exceptions are signalling: IEEE_DENORMAL
Note: The following floating-point exceptions are signalling: IEEE_DENORMAL
Note: The following floating-point exceptions are signalling: IEEE_DENORMAL
Note: The following floating-point exceptions are signalling: IEEE_DENORMAL
Note: The following floating-point exceptions are signalling: IEEE_DENORMAL
Note: The following floating-point exceptions are signalling: IEEE_INVALID_FLAG IEEE_DENORMAL
