
     Program PWSCF v.6.7MaX starts on 19Dec2022 at  4:34:28 

     This program is part of the open-source Quantum ESPRESSO suite
     for quantum simulation of materials; please cite
         "P. Giannozzi et al., J. Phys.:Condens. Matter 21 395502 (2009);
         "P. Giannozzi et al., J. Phys.:Condens. Matter 29 465901 (2017);
          URL http://www.quantum-espresso.org", 
     in publications or presentations arising from this work. More details at
     http://www.quantum-espresso.org/quote

     Parallel version (MPI), running on    24 processors

     MPI processes distributed on     1 nodes
     R & G space division:  proc/nbgrp/npool/nimage =      24
     Reading input from scale_2dab-04.in

     Current dimensions of program PWSCF are:
     Max number of different atomic species (ntypx) = 10
     Max number of k-points (npk) =  40000
     Max angular momentum in pseudopotentials (lmaxx) =  3
     Message from routine read_pp_mesh:
     mesh size missing, using the one in header
     file Fe.pbe-spn-kjpaw_psl.0.2.1.UPF: wavefunction(s)  3D renormalized
     file O.pbe-n-kjpaw_psl.0.1.UPF: wavefunction(s)  2P renormalized

     Subspace diagonalization in iterative solution of the eigenvalue problem:
     a serial algorithm will be used


     Parallelization info
     --------------------
     sticks:   dense  smooth     PW     G-vecs:    dense   smooth      PW
     Min         883     327     88                57601    12979    1821
     Max         884     328     90                57604    12981    1823
     Sum       21211    7849   2123              1382463   311535   43725



     bravais-lattice index     =            0
     lattice parameter (alat)  =      20.3206  a.u.
     unit-cell volume          =    2306.7820 (a.u.)^3
     number of atoms/cell      =           25
     number of atomic types    =            4
     number of electrons       =       189.00
     number of Kohn-Sham states=          114
     kinetic-energy cutoff     =     100.0000  Ry
     charge density cutoff     =    1080.0000  Ry
     scf convergence threshold =      2.0E-10
     mixing beta               =       0.4000
     number of iterations used =            8  plain     mixing
     Exchange-correlation= PBE
                           (   1   4   3   4   0   0   0)

     celldm(1)=  20.320559  celldm(2)=   0.000000  celldm(3)=   0.000000
     celldm(4)=   0.000000  celldm(5)=   0.000000  celldm(6)=   0.000000

     crystal axes: (cart. coord. in units of alat)
               a(1) = (   1.000000   0.000000   0.000000 )  
               a(2) = (   0.000000   0.597590   0.000000 )  
               a(3) = (   0.000000   0.000000   0.460041 )  

     reciprocal axes: (cart. coord. in units 2 pi/alat)
               b(1) = (  1.000000  0.000000  0.000000 )  
               b(2) = (  0.000000  1.673388  0.000000 )  
               b(3) = (  0.000000  0.000000  2.173720 )  


     PseudoPot. # 1 for Fe read from file:
     /opt/QEpot/SSSP_precision_pseudos/Fe.pbe-spn-kjpaw_psl.0.2.1.UPF
     MD5 check sum: e86618425769142926afa95317d90200
     Pseudo is Projector augmented-wave + core cor, Zval = 16.0
     Generated using "atomic" code by A. Dal Corso  v.5.0.99 svn rev. 10869
     Shape of augmentation charge: PSQ
     Using radial grid of 1191 points,  6 beta functions with: 
                l(1) =   0
                l(2) =   0
                l(3) =   1
                l(4) =   1
                l(5) =   2
                l(6) =   2
     Q(r) pseudized with 0 coefficients 


     PseudoPot. # 2 for Na read from file:
     /opt/QEpot/SSSP_precision_pseudos/Na_ONCV_PBE-1.0.oncvpsp.upf
     MD5 check sum: 24a298df0a6742ae313db96548fdb2a4
     Pseudo is Norm-conserving, Zval =  9.0
     Generated using ONCVPSP code by D. R. Hamann
     Using radial grid of 1992 points,  4 beta functions with: 
                l(1) =   0
                l(2) =   0
                l(3) =   1
                l(4) =   1

     PseudoPot. # 3 for O  read from file:
     /opt/QEpot/SSSP_precision_pseudos/O.pbe-n-kjpaw_psl.0.1.UPF
     MD5 check sum: 0234752ac141de4415c5fc33072bef88
     Pseudo is Projector augmented-wave + core cor, Zval =  6.0
     Generated using "atomic" code by A. Dal Corso  v.5.0.99 svn rev. 10869
     Shape of augmentation charge: BESSEL
     Using radial grid of 1095 points,  4 beta functions with: 
                l(1) =   0
                l(2) =   0
                l(3) =   1
                l(4) =   1
     Q(r) pseudized with 0 coefficients 


     PseudoPot. # 4 for P  read from file:
     /opt/QEpot/SSSP_precision_pseudos/P.pbe-n-rrkjus_psl.1.0.0.UPF
     MD5 check sum: 8b930f418f0a4573dca56cd030ffe088
     Pseudo is Ultrasoft + core correction, Zval =  5.0
     Generated using "atomic" code by A. Dal Corso  v.5.1
     Using radial grid of 1147 points,  6 beta functions with: 
                l(1) =   0
                l(2) =   0
                l(3) =   1
                l(4) =   1
                l(5) =   2
                l(6) =   2
     Q(r) pseudized with 0 coefficients 


     atomic species   valence    mass     pseudopotential
        Fe            16.00    55.84500     Fe( 1.00)
        Na             9.00    22.98977     Na( 1.00)
        O              6.00    15.99940     O ( 1.00)
        P              5.00    30.97376     P ( 1.00)

     Starting magnetic structure 
     atomic species   magnetization
        Fe           0.312
        Na           0.000
        O            0.000
        P            0.000

     No symmetry found


                                    s                        frac. trans.

      isym =  1     identity                                     

 cryst.   s( 1) = (     1          0          0      )
                  (     0          1          0      )
                  (     0          0          1      )

 cart.    s( 1) = (  1.0000000  0.0000000  0.0000000 )
                  (  0.0000000  1.0000000  0.0000000 )
                  (  0.0000000  0.0000000  1.0000000 )


   Cartesian axes

     site n.     atom                  positions (alat units)
         1           Na  tau(   1) = (   0.5426070   0.2128436   0.2145985  )
         2           Fe  tau(   2) = (   0.2774940   0.4470463   0.4564585  )
         3           Fe  tau(   3) = (   0.2102570   0.1474894   0.2256868  )
         4           Fe  tau(   4) = (   0.7280950   0.1429740   0.0018645  )
         5           Fe  tau(   5) = (   0.7825800   0.4492579   0.2355188  )
         6           P   tau(   6) = (   0.1059480   0.4466847   0.2042940  )
         7           P   tau(   7) = (   0.3878490   0.1453225   0.4339767  )
         8           P   tau(   8) = (   0.8915560   0.1489463   0.2562795  )
         9           P   tau(   9) = (   0.6054980   0.4477962   0.0275679  )
        10           O   tau(  10) = (   0.1317880   0.4455690   0.3455261  )
        11           O   tau(  11) = (   0.3634070   0.1482621   0.1154224  )
        12           O   tau(  12) = (   0.8709790   0.1483487   0.1144522  )
        13           O   tau(  13) = (   0.6302560   0.4446272   0.3461039  )
        14           O   tau(  14) = (   0.4595490   0.4446744   0.0558158  )
        15           O   tau(  15) = (   0.0359180   0.1497602   0.2880941  )
        16           O   tau(  16) = (   0.5363260   0.1462476   0.4123424  )
        17           O   tau(  17) = (   0.9593080   0.4466351   0.1794421  )
        18           O   tau(  18) = (   0.1746370   0.5639193   0.1385739  )
        19           O   tau(  19) = (   0.3201300   0.0290638   0.3683312  )
        20           O   tau(  20) = (   0.8159810   0.2631643   0.3200766  )
        21           O   tau(  21) = (   0.6759000   0.3315447   0.0949004  )
        22           O   tau(  22) = (   0.8190690   0.0322555   0.3204787  )
        23           O   tau(  23) = (   0.6753190   0.5647093   0.0933975  )
        24           O   tau(  24) = (   0.1755980   0.3306919   0.1373824  )
        25           O   tau(  25) = (   0.3240220   0.2622243   0.3639608  )

   Crystallographic axes

     site n.     atom                  positions (cryst. coord.)
         1           Na  tau(   1) = (  0.5426070  0.3561700  0.4664770  )
         2           Fe  tau(   2) = (  0.2774940  0.7480820  0.9922130  )
         3           Fe  tau(   3) = (  0.2102570  0.2468070  0.4905800  )
         4           Fe  tau(   4) = (  0.7280950  0.2392510  0.0040530  )
         5           Fe  tau(   5) = (  0.7825800  0.7517830  0.5119520  )
         6           P   tau(   6) = (  0.1059480  0.7474770  0.4440780  )
         7           P   tau(   7) = (  0.3878490  0.2431810  0.9433440  )
         8           P   tau(   8) = (  0.8915560  0.2492450  0.5570800  )
         9           P   tau(   9) = (  0.6054980  0.7493370  0.0599250  )
        10           O   tau(  10) = (  0.1317880  0.7456100  0.7510770  )
        11           O   tau(  11) = (  0.3634070  0.2481000  0.2508960  )
        12           O   tau(  12) = (  0.8709790  0.2482450  0.2487870  )
        13           O   tau(  13) = (  0.6302560  0.7440340  0.7523330  )
        14           O   tau(  14) = (  0.4595490  0.7441130  0.1213280  )
        15           O   tau(  15) = (  0.0359180  0.2506070  0.6262360  )
        16           O   tau(  16) = (  0.5363260  0.2447290  0.8963170  )
        17           O   tau(  17) = (  0.9593080  0.7473940  0.3900570  )
        18           O   tau(  18) = (  0.1746370  0.9436560  0.3012210  )
        19           O   tau(  19) = (  0.3201300  0.0486350  0.8006490  )
        20           O   tau(  20) = (  0.8159810  0.4403760  0.6957570  )
        21           O   tau(  21) = (  0.6759000  0.5548030  0.2062870  )
        22           O   tau(  22) = (  0.8190690  0.0539760  0.6966310  )
        23           O   tau(  23) = (  0.6753190  0.9449780  0.2030200  )
        24           O   tau(  24) = (  0.1755980  0.5533760  0.2986310  )
        25           O   tau(  25) = (  0.3240220  0.4388030  0.7911490  )

     number of k points=   158  Marzari-Vanderbilt smearing, width (Ry)=  0.0073
                       cart. coord. in units 2pi/alat
        k(    1) = (   0.0000000   0.0000000   0.0000000), wk =   0.0031746
        k(    2) = (   0.0000000   0.0000000   0.2415245), wk =   0.0063492
        k(    3) = (   0.0000000   0.0000000   0.4830489), wk =   0.0063492
        k(    4) = (   0.0000000   0.0000000   0.7245734), wk =   0.0063492
        k(    5) = (   0.0000000   0.0000000   0.9660979), wk =   0.0063492
        k(    6) = (   0.0000000   0.2390555   0.0000000), wk =   0.0063492
        k(    7) = (   0.0000000   0.2390555   0.2415245), wk =   0.0063492
        k(    8) = (   0.0000000   0.2390555   0.4830489), wk =   0.0063492
        k(    9) = (   0.0000000   0.2390555   0.7245734), wk =   0.0063492
        k(   10) = (   0.0000000   0.2390555   0.9660979), wk =   0.0063492
        k(   11) = (   0.0000000   0.4781110   0.0000000), wk =   0.0063492
        k(   12) = (   0.0000000   0.4781110   0.2415245), wk =   0.0063492
        k(   13) = (   0.0000000   0.4781110   0.4830489), wk =   0.0063492
        k(   14) = (   0.0000000   0.4781110   0.7245734), wk =   0.0063492
        k(   15) = (   0.0000000   0.4781110   0.9660979), wk =   0.0063492
        k(   16) = (   0.0000000   0.7171664   0.0000000), wk =   0.0063492
        k(   17) = (   0.0000000   0.7171664   0.2415245), wk =   0.0063492
        k(   18) = (   0.0000000   0.7171664   0.4830489), wk =   0.0063492
        k(   19) = (   0.0000000   0.7171664   0.7245734), wk =   0.0063492
        k(   20) = (   0.0000000   0.7171664   0.9660979), wk =   0.0063492
        k(   21) = (   0.2000000   0.0000000   0.0000000), wk =   0.0063492
        k(   22) = (   0.2000000   0.0000000   0.2415245), wk =   0.0063492
        k(   23) = (   0.2000000   0.0000000   0.4830489), wk =   0.0063492
        k(   24) = (   0.2000000   0.0000000   0.7245734), wk =   0.0063492
        k(   25) = (   0.2000000   0.0000000   0.9660979), wk =   0.0063492
        k(   26) = (   0.2000000   0.2390555   0.0000000), wk =   0.0063492
        k(   27) = (   0.2000000   0.2390555   0.2415245), wk =   0.0063492
        k(   28) = (   0.2000000   0.2390555   0.4830489), wk =   0.0063492
        k(   29) = (   0.2000000   0.2390555   0.7245734), wk =   0.0063492
        k(   30) = (   0.2000000   0.2390555   0.9660979), wk =   0.0063492
        k(   31) = (   0.2000000   0.4781110   0.0000000), wk =   0.0063492
        k(   32) = (   0.2000000   0.4781110   0.2415245), wk =   0.0063492
        k(   33) = (   0.2000000   0.4781110   0.4830489), wk =   0.0063492
        k(   34) = (   0.2000000   0.4781110   0.7245734), wk =   0.0063492
        k(   35) = (   0.2000000   0.4781110   0.9660979), wk =   0.0063492
        k(   36) = (   0.2000000   0.7171664   0.0000000), wk =   0.0063492
        k(   37) = (   0.2000000   0.7171664   0.2415245), wk =   0.0063492
        k(   38) = (   0.2000000   0.7171664   0.4830489), wk =   0.0063492
        k(   39) = (   0.2000000   0.7171664   0.7245734), wk =   0.0063492
        k(   40) = (   0.2000000   0.7171664   0.9660979), wk =   0.0063492
        k(   41) = (   0.4000000   0.0000000   0.0000000), wk =   0.0063492
        k(   42) = (   0.4000000   0.0000000   0.2415245), wk =   0.0063492
        k(   43) = (   0.4000000   0.0000000   0.4830489), wk =   0.0063492
        k(   44) = (   0.4000000   0.0000000   0.7245734), wk =   0.0063492
        k(   45) = (   0.4000000   0.0000000   0.9660979), wk =   0.0063492
        k(   46) = (   0.4000000   0.2390555   0.0000000), wk =   0.0063492
        k(   47) = (   0.4000000   0.2390555   0.2415245), wk =   0.0063492
        k(   48) = (   0.4000000   0.2390555   0.4830489), wk =   0.0063492
        k(   49) = (   0.4000000   0.2390555   0.7245734), wk =   0.0063492
        k(   50) = (   0.4000000   0.2390555   0.9660979), wk =   0.0063492
        k(   51) = (   0.4000000   0.4781110   0.0000000), wk =   0.0063492
        k(   52) = (   0.4000000   0.4781110   0.2415245), wk =   0.0063492
        k(   53) = (   0.4000000   0.4781110   0.4830489), wk =   0.0063492
        k(   54) = (   0.4000000   0.4781110   0.7245734), wk =   0.0063492
        k(   55) = (   0.4000000   0.4781110   0.9660979), wk =   0.0063492
        k(   56) = (   0.4000000   0.7171664   0.0000000), wk =   0.0063492
        k(   57) = (   0.4000000   0.7171664   0.2415245), wk =   0.0063492
        k(   58) = (   0.4000000   0.7171664   0.4830489), wk =   0.0063492
        k(   59) = (   0.4000000   0.7171664   0.7245734), wk =   0.0063492
        k(   60) = (   0.4000000   0.7171664   0.9660979), wk =   0.0063492
        k(   61) = (   0.0000000  -0.2390555   0.2415245), wk =   0.0063492
        k(   62) = (   0.0000000  -0.2390555   0.4830489), wk =   0.0063492
        k(   63) = (   0.0000000  -0.2390555   0.7245734), wk =   0.0063492
        k(   64) = (   0.0000000  -0.2390555   0.9660979), wk =   0.0063492
        k(   65) = (   0.0000000  -0.4781110   0.2415245), wk =   0.0063492
        k(   66) = (   0.0000000  -0.4781110   0.4830489), wk =   0.0063492
        k(   67) = (   0.0000000  -0.4781110   0.7245734), wk =   0.0063492
        k(   68) = (   0.0000000  -0.4781110   0.9660979), wk =   0.0063492
        k(   69) = (   0.0000000  -0.7171664   0.2415245), wk =   0.0063492
        k(   70) = (   0.0000000  -0.7171664   0.4830489), wk =   0.0063492
        k(   71) = (   0.0000000  -0.7171664   0.7245734), wk =   0.0063492
        k(   72) = (   0.0000000  -0.7171664   0.9660979), wk =   0.0063492
        k(   73) = (  -0.2000000   0.0000000   0.2415245), wk =   0.0063492
        k(   74) = (  -0.2000000   0.0000000   0.4830489), wk =   0.0063492
        k(   75) = (  -0.2000000   0.0000000   0.7245734), wk =   0.0063492
        k(   76) = (  -0.2000000   0.0000000   0.9660979), wk =   0.0063492
        k(   77) = (  -0.2000000   0.2390555   0.0000000), wk =   0.0063492
        k(   78) = (  -0.2000000  -0.2390555   0.2415245), wk =   0.0063492
        k(   79) = (  -0.2000000   0.2390555  -0.2415245), wk =   0.0063492
        k(   80) = (   0.2000000  -0.2390555  -0.2415245), wk =   0.0063492
        k(   81) = (  -0.2000000  -0.2390555   0.4830489), wk =   0.0063492
        k(   82) = (  -0.2000000   0.2390555  -0.4830489), wk =   0.0063492
        k(   83) = (   0.2000000  -0.2390555  -0.4830489), wk =   0.0063492
        k(   84) = (  -0.2000000  -0.2390555   0.7245734), wk =   0.0063492
        k(   85) = (  -0.2000000   0.2390555  -0.7245734), wk =   0.0063492
        k(   86) = (   0.2000000  -0.2390555  -0.7245734), wk =   0.0063492
        k(   87) = (  -0.2000000  -0.2390555   0.9660979), wk =   0.0063492
        k(   88) = (  -0.2000000   0.2390555  -0.9660979), wk =   0.0063492
        k(   89) = (   0.2000000  -0.2390555  -0.9660979), wk =   0.0063492
        k(   90) = (  -0.2000000   0.4781110   0.0000000), wk =   0.0063492
        k(   91) = (  -0.2000000  -0.4781110   0.2415245), wk =   0.0063492
        k(   92) = (  -0.2000000   0.4781110  -0.2415245), wk =   0.0063492
        k(   93) = (   0.2000000  -0.4781110  -0.2415245), wk =   0.0063492
        k(   94) = (  -0.2000000  -0.4781110   0.4830489), wk =   0.0063492
        k(   95) = (  -0.2000000   0.4781110  -0.4830489), wk =   0.0063492
        k(   96) = (   0.2000000  -0.4781110  -0.4830489), wk =   0.0063492
        k(   97) = (  -0.2000000  -0.4781110   0.7245734), wk =   0.0063492
        k(   98) = (  -0.2000000   0.4781110  -0.7245734), wk =   0.0063492
        k(   99) = (   0.2000000  -0.4781110  -0.7245734), wk =   0.0063492
        k(  100) = (  -0.2000000  -0.4781110   0.9660979), wk =   0.0063492
        k(  101) = (  -0.2000000   0.4781110  -0.9660979), wk =   0.0063492
        k(  102) = (   0.2000000  -0.4781110  -0.9660979), wk =   0.0063492
        k(  103) = (  -0.2000000   0.7171664   0.0000000), wk =   0.0063492
        k(  104) = (  -0.2000000  -0.7171664   0.2415245), wk =   0.0063492
        k(  105) = (  -0.2000000   0.7171664  -0.2415245), wk =   0.0063492
        k(  106) = (   0.2000000  -0.7171664  -0.2415245), wk =   0.0063492
        k(  107) = (  -0.2000000  -0.7171664   0.4830489), wk =   0.0063492
        k(  108) = (  -0.2000000   0.7171664  -0.4830489), wk =   0.0063492
        k(  109) = (   0.2000000  -0.7171664  -0.4830489), wk =   0.0063492
        k(  110) = (  -0.2000000  -0.7171664   0.7245734), wk =   0.0063492
        k(  111) = (  -0.2000000   0.7171664  -0.7245734), wk =   0.0063492
        k(  112) = (   0.2000000  -0.7171664  -0.7245734), wk =   0.0063492
        k(  113) = (  -0.2000000  -0.7171664   0.9660979), wk =   0.0063492
        k(  114) = (  -0.2000000   0.7171664  -0.9660979), wk =   0.0063492
        k(  115) = (   0.2000000  -0.7171664  -0.9660979), wk =   0.0063492
        k(  116) = (  -0.4000000   0.0000000   0.2415245), wk =   0.0063492
        k(  117) = (  -0.4000000   0.0000000   0.4830489), wk =   0.0063492
        k(  118) = (  -0.4000000   0.0000000   0.7245734), wk =   0.0063492
        k(  119) = (  -0.4000000   0.0000000   0.9660979), wk =   0.0063492
        k(  120) = (  -0.4000000   0.2390555   0.0000000), wk =   0.0063492
        k(  121) = (  -0.4000000  -0.2390555   0.2415245), wk =   0.0063492
        k(  122) = (  -0.4000000   0.2390555  -0.2415245), wk =   0.0063492
        k(  123) = (   0.4000000  -0.2390555  -0.2415245), wk =   0.0063492
        k(  124) = (  -0.4000000  -0.2390555   0.4830489), wk =   0.0063492
        k(  125) = (  -0.4000000   0.2390555  -0.4830489), wk =   0.0063492
        k(  126) = (   0.4000000  -0.2390555  -0.4830489), wk =   0.0063492
        k(  127) = (  -0.4000000  -0.2390555   0.7245734), wk =   0.0063492
        k(  128) = (  -0.4000000   0.2390555  -0.7245734), wk =   0.0063492
        k(  129) = (   0.4000000  -0.2390555  -0.7245734), wk =   0.0063492
        k(  130) = (  -0.4000000  -0.2390555   0.9660979), wk =   0.0063492
        k(  131) = (  -0.4000000   0.2390555  -0.9660979), wk =   0.0063492
        k(  132) = (   0.4000000  -0.2390555  -0.9660979), wk =   0.0063492
        k(  133) = (  -0.4000000   0.4781110   0.0000000), wk =   0.0063492
        k(  134) = (  -0.4000000  -0.4781110   0.2415245), wk =   0.0063492
        k(  135) = (  -0.4000000   0.4781110  -0.2415245), wk =   0.0063492
        k(  136) = (   0.4000000  -0.4781110  -0.2415245), wk =   0.0063492
        k(  137) = (  -0.4000000  -0.4781110   0.4830489), wk =   0.0063492
        k(  138) = (  -0.4000000   0.4781110  -0.4830489), wk =   0.0063492
        k(  139) = (   0.4000000  -0.4781110  -0.4830489), wk =   0.0063492
        k(  140) = (  -0.4000000  -0.4781110   0.7245734), wk =   0.0063492
        k(  141) = (  -0.4000000   0.4781110  -0.7245734), wk =   0.0063492
        k(  142) = (   0.4000000  -0.4781110  -0.7245734), wk =   0.0063492
        k(  143) = (  -0.4000000  -0.4781110   0.9660979), wk =   0.0063492
        k(  144) = (  -0.4000000   0.4781110  -0.9660979), wk =   0.0063492
        k(  145) = (   0.4000000  -0.4781110  -0.9660979), wk =   0.0063492
        k(  146) = (  -0.4000000   0.7171664   0.0000000), wk =   0.0063492
        k(  147) = (  -0.4000000  -0.7171664   0.2415245), wk =   0.0063492
        k(  148) = (  -0.4000000   0.7171664  -0.2415245), wk =   0.0063492
        k(  149) = (   0.4000000  -0.7171664  -0.2415245), wk =   0.0063492
        k(  150) = (  -0.4000000  -0.7171664   0.4830489), wk =   0.0063492
        k(  151) = (  -0.4000000   0.7171664  -0.4830489), wk =   0.0063492
        k(  152) = (   0.4000000  -0.7171664  -0.4830489), wk =   0.0063492
        k(  153) = (  -0.4000000  -0.7171664   0.7245734), wk =   0.0063492
        k(  154) = (  -0.4000000   0.7171664  -0.7245734), wk =   0.0063492
        k(  155) = (   0.4000000  -0.7171664  -0.7245734), wk =   0.0063492
        k(  156) = (  -0.4000000  -0.7171664   0.9660979), wk =   0.0063492
        k(  157) = (  -0.4000000   0.7171664  -0.9660979), wk =   0.0063492
        k(  158) = (   0.4000000  -0.7171664  -0.9660979), wk =   0.0063492

                       cryst. coord.
        k(    1) = (   0.0000000   0.0000000   0.0000000), wk =   0.0031746
        k(    2) = (   0.0000000   0.0000000   0.1111111), wk =   0.0063492
        k(    3) = (   0.0000000   0.0000000   0.2222222), wk =   0.0063492
        k(    4) = (   0.0000000   0.0000000   0.3333333), wk =   0.0063492
        k(    5) = (   0.0000000   0.0000000   0.4444444), wk =   0.0063492
        k(    6) = (   0.0000000   0.1428571   0.0000000), wk =   0.0063492
        k(    7) = (   0.0000000   0.1428571   0.1111111), wk =   0.0063492
        k(    8) = (   0.0000000   0.1428571   0.2222222), wk =   0.0063492
        k(    9) = (   0.0000000   0.1428571   0.3333333), wk =   0.0063492
        k(   10) = (   0.0000000   0.1428571   0.4444444), wk =   0.0063492
        k(   11) = (   0.0000000   0.2857143   0.0000000), wk =   0.0063492
        k(   12) = (   0.0000000   0.2857143   0.1111111), wk =   0.0063492
        k(   13) = (   0.0000000   0.2857143   0.2222222), wk =   0.0063492
        k(   14) = (   0.0000000   0.2857143   0.3333333), wk =   0.0063492
        k(   15) = (   0.0000000   0.2857143   0.4444444), wk =   0.0063492
        k(   16) = (   0.0000000   0.4285714   0.0000000), wk =   0.0063492
        k(   17) = (   0.0000000   0.4285714   0.1111111), wk =   0.0063492
        k(   18) = (   0.0000000   0.4285714   0.2222222), wk =   0.0063492
        k(   19) = (   0.0000000   0.4285714   0.3333333), wk =   0.0063492
        k(   20) = (   0.0000000   0.4285714   0.4444444), wk =   0.0063492
        k(   21) = (   0.2000000   0.0000000   0.0000000), wk =   0.0063492
        k(   22) = (   0.2000000   0.0000000   0.1111111), wk =   0.0063492
        k(   23) = (   0.2000000   0.0000000   0.2222222), wk =   0.0063492
        k(   24) = (   0.2000000   0.0000000   0.3333333), wk =   0.0063492
        k(   25) = (   0.2000000   0.0000000   0.4444444), wk =   0.0063492
        k(   26) = (   0.2000000   0.1428571   0.0000000), wk =   0.0063492
        k(   27) = (   0.2000000   0.1428571   0.1111111), wk =   0.0063492
        k(   28) = (   0.2000000   0.1428571   0.2222222), wk =   0.0063492
        k(   29) = (   0.2000000   0.1428571   0.3333333), wk =   0.0063492
        k(   30) = (   0.2000000   0.1428571   0.4444444), wk =   0.0063492
        k(   31) = (   0.2000000   0.2857143   0.0000000), wk =   0.0063492
        k(   32) = (   0.2000000   0.2857143   0.1111111), wk =   0.0063492
        k(   33) = (   0.2000000   0.2857143   0.2222222), wk =   0.0063492
        k(   34) = (   0.2000000   0.2857143   0.3333333), wk =   0.0063492
        k(   35) = (   0.2000000   0.2857143   0.4444444), wk =   0.0063492
        k(   36) = (   0.2000000   0.4285714   0.0000000), wk =   0.0063492
        k(   37) = (   0.2000000   0.4285714   0.1111111), wk =   0.0063492
        k(   38) = (   0.2000000   0.4285714   0.2222222), wk =   0.0063492
        k(   39) = (   0.2000000   0.4285714   0.3333333), wk =   0.0063492
        k(   40) = (   0.2000000   0.4285714   0.4444444), wk =   0.0063492
        k(   41) = (   0.4000000   0.0000000   0.0000000), wk =   0.0063492
        k(   42) = (   0.4000000   0.0000000   0.1111111), wk =   0.0063492
        k(   43) = (   0.4000000   0.0000000   0.2222222), wk =   0.0063492
        k(   44) = (   0.4000000   0.0000000   0.3333333), wk =   0.0063492
        k(   45) = (   0.4000000   0.0000000   0.4444444), wk =   0.0063492
        k(   46) = (   0.4000000   0.1428571   0.0000000), wk =   0.0063492
        k(   47) = (   0.4000000   0.1428571   0.1111111), wk =   0.0063492
        k(   48) = (   0.4000000   0.1428571   0.2222222), wk =   0.0063492
        k(   49) = (   0.4000000   0.1428571   0.3333333), wk =   0.0063492
        k(   50) = (   0.4000000   0.1428571   0.4444444), wk =   0.0063492
        k(   51) = (   0.4000000   0.2857143   0.0000000), wk =   0.0063492
        k(   52) = (   0.4000000   0.2857143   0.1111111), wk =   0.0063492
        k(   53) = (   0.4000000   0.2857143   0.2222222), wk =   0.0063492
        k(   54) = (   0.4000000   0.2857143   0.3333333), wk =   0.0063492
        k(   55) = (   0.4000000   0.2857143   0.4444444), wk =   0.0063492
        k(   56) = (   0.4000000   0.4285714   0.0000000), wk =   0.0063492
        k(   57) = (   0.4000000   0.4285714   0.1111111), wk =   0.0063492
        k(   58) = (   0.4000000   0.4285714   0.2222222), wk =   0.0063492
        k(   59) = (   0.4000000   0.4285714   0.3333333), wk =   0.0063492
        k(   60) = (   0.4000000   0.4285714   0.4444444), wk =   0.0063492
        k(   61) = (   0.0000000  -0.1428571   0.1111111), wk =   0.0063492
        k(   62) = (   0.0000000  -0.1428571   0.2222222), wk =   0.0063492
        k(   63) = (   0.0000000  -0.1428571   0.3333333), wk =   0.0063492
        k(   64) = (   0.0000000  -0.1428571   0.4444444), wk =   0.0063492
        k(   65) = (   0.0000000  -0.2857143   0.1111111), wk =   0.0063492
        k(   66) = (   0.0000000  -0.2857143   0.2222222), wk =   0.0063492
        k(   67) = (   0.0000000  -0.2857143   0.3333333), wk =   0.0063492
        k(   68) = (   0.0000000  -0.2857143   0.4444444), wk =   0.0063492
        k(   69) = (   0.0000000  -0.4285714   0.1111111), wk =   0.0063492
        k(   70) = (   0.0000000  -0.4285714   0.2222222), wk =   0.0063492
        k(   71) = (   0.0000000  -0.4285714   0.3333333), wk =   0.0063492
        k(   72) = (   0.0000000  -0.4285714   0.4444444), wk =   0.0063492
        k(   73) = (  -0.2000000   0.0000000   0.1111111), wk =   0.0063492
        k(   74) = (  -0.2000000   0.0000000   0.2222222), wk =   0.0063492
        k(   75) = (  -0.2000000   0.0000000   0.3333333), wk =   0.0063492
        k(   76) = (  -0.2000000   0.0000000   0.4444444), wk =   0.0063492
        k(   77) = (  -0.2000000   0.1428571   0.0000000), wk =   0.0063492
        k(   78) = (  -0.2000000  -0.1428571   0.1111111), wk =   0.0063492
        k(   79) = (  -0.2000000   0.1428571  -0.1111111), wk =   0.0063492
        k(   80) = (   0.2000000  -0.1428571  -0.1111111), wk =   0.0063492
        k(   81) = (  -0.2000000  -0.1428571   0.2222222), wk =   0.0063492
        k(   82) = (  -0.2000000   0.1428571  -0.2222222), wk =   0.0063492
        k(   83) = (   0.2000000  -0.1428571  -0.2222222), wk =   0.0063492
        k(   84) = (  -0.2000000  -0.1428571   0.3333333), wk =   0.0063492
        k(   85) = (  -0.2000000   0.1428571  -0.3333333), wk =   0.0063492
        k(   86) = (   0.2000000  -0.1428571  -0.3333333), wk =   0.0063492
        k(   87) = (  -0.2000000  -0.1428571   0.4444444), wk =   0.0063492
        k(   88) = (  -0.2000000   0.1428571  -0.4444444), wk =   0.0063492
        k(   89) = (   0.2000000  -0.1428571  -0.4444444), wk =   0.0063492
        k(   90) = (  -0.2000000   0.2857143   0.0000000), wk =   0.0063492
        k(   91) = (  -0.2000000  -0.2857143   0.1111111), wk =   0.0063492
        k(   92) = (  -0.2000000   0.2857143  -0.1111111), wk =   0.0063492
        k(   93) = (   0.2000000  -0.2857143  -0.1111111), wk =   0.0063492
        k(   94) = (  -0.2000000  -0.2857143   0.2222222), wk =   0.0063492
        k(   95) = (  -0.2000000   0.2857143  -0.2222222), wk =   0.0063492
        k(   96) = (   0.2000000  -0.2857143  -0.2222222), wk =   0.0063492
        k(   97) = (  -0.2000000  -0.2857143   0.3333333), wk =   0.0063492
        k(   98) = (  -0.2000000   0.2857143  -0.3333333), wk =   0.0063492
        k(   99) = (   0.2000000  -0.2857143  -0.3333333), wk =   0.0063492
        k(  100) = (  -0.2000000  -0.2857143   0.4444444), wk =   0.0063492
        k(  101) = (  -0.2000000   0.2857143  -0.4444444), wk =   0.0063492
        k(  102) = (   0.2000000  -0.2857143  -0.4444444), wk =   0.0063492
        k(  103) = (  -0.2000000   0.4285714   0.0000000), wk =   0.0063492
        k(  104) = (  -0.2000000  -0.4285714   0.1111111), wk =   0.0063492
        k(  105) = (  -0.2000000   0.4285714  -0.1111111), wk =   0.0063492
        k(  106) = (   0.2000000  -0.4285714  -0.1111111), wk =   0.0063492
        k(  107) = (  -0.2000000  -0.4285714   0.2222222), wk =   0.0063492
        k(  108) = (  -0.2000000   0.4285714  -0.2222222), wk =   0.0063492
        k(  109) = (   0.2000000  -0.4285714  -0.2222222), wk =   0.0063492
        k(  110) = (  -0.2000000  -0.4285714   0.3333333), wk =   0.0063492
        k(  111) = (  -0.2000000   0.4285714  -0.3333333), wk =   0.0063492
        k(  112) = (   0.2000000  -0.4285714  -0.3333333), wk =   0.0063492
        k(  113) = (  -0.2000000  -0.4285714   0.4444444), wk =   0.0063492
        k(  114) = (  -0.2000000   0.4285714  -0.4444444), wk =   0.0063492
        k(  115) = (   0.2000000  -0.4285714  -0.4444444), wk =   0.0063492
        k(  116) = (  -0.4000000   0.0000000   0.1111111), wk =   0.0063492
        k(  117) = (  -0.4000000   0.0000000   0.2222222), wk =   0.0063492
        k(  118) = (  -0.4000000   0.0000000   0.3333333), wk =   0.0063492
        k(  119) = (  -0.4000000   0.0000000   0.4444444), wk =   0.0063492
        k(  120) = (  -0.4000000   0.1428571   0.0000000), wk =   0.0063492
        k(  121) = (  -0.4000000  -0.1428571   0.1111111), wk =   0.0063492
        k(  122) = (  -0.4000000   0.1428571  -0.1111111), wk =   0.0063492
        k(  123) = (   0.4000000  -0.1428571  -0.1111111), wk =   0.0063492
        k(  124) = (  -0.4000000  -0.1428571   0.2222222), wk =   0.0063492
        k(  125) = (  -0.4000000   0.1428571  -0.2222222), wk =   0.0063492
        k(  126) = (   0.4000000  -0.1428571  -0.2222222), wk =   0.0063492
        k(  127) = (  -0.4000000  -0.1428571   0.3333333), wk =   0.0063492
        k(  128) = (  -0.4000000   0.1428571  -0.3333333), wk =   0.0063492
        k(  129) = (   0.4000000  -0.1428571  -0.3333333), wk =   0.0063492
        k(  130) = (  -0.4000000  -0.1428571   0.4444444), wk =   0.0063492
        k(  131) = (  -0.4000000   0.1428571  -0.4444444), wk =   0.0063492
        k(  132) = (   0.4000000  -0.1428571  -0.4444444), wk =   0.0063492
        k(  133) = (  -0.4000000   0.2857143   0.0000000), wk =   0.0063492
        k(  134) = (  -0.4000000  -0.2857143   0.1111111), wk =   0.0063492
        k(  135) = (  -0.4000000   0.2857143  -0.1111111), wk =   0.0063492
        k(  136) = (   0.4000000  -0.2857143  -0.1111111), wk =   0.0063492
        k(  137) = (  -0.4000000  -0.2857143   0.2222222), wk =   0.0063492
        k(  138) = (  -0.4000000   0.2857143  -0.2222222), wk =   0.0063492
        k(  139) = (   0.4000000  -0.2857143  -0.2222222), wk =   0.0063492
        k(  140) = (  -0.4000000  -0.2857143   0.3333333), wk =   0.0063492
        k(  141) = (  -0.4000000   0.2857143  -0.3333333), wk =   0.0063492
        k(  142) = (   0.4000000  -0.2857143  -0.3333333), wk =   0.0063492
        k(  143) = (  -0.4000000  -0.2857143   0.4444444), wk =   0.0063492
        k(  144) = (  -0.4000000   0.2857143  -0.4444444), wk =   0.0063492
        k(  145) = (   0.4000000  -0.2857143  -0.4444444), wk =   0.0063492
        k(  146) = (  -0.4000000   0.4285714   0.0000000), wk =   0.0063492
        k(  147) = (  -0.4000000  -0.4285714   0.1111111), wk =   0.0063492
        k(  148) = (  -0.4000000   0.4285714  -0.1111111), wk =   0.0063492
        k(  149) = (   0.4000000  -0.4285714  -0.1111111), wk =   0.0063492
        k(  150) = (  -0.4000000  -0.4285714   0.2222222), wk =   0.0063492
        k(  151) = (  -0.4000000   0.4285714  -0.2222222), wk =   0.0063492
        k(  152) = (   0.4000000  -0.4285714  -0.2222222), wk =   0.0063492
        k(  153) = (  -0.4000000  -0.4285714   0.3333333), wk =   0.0063492
        k(  154) = (  -0.4000000   0.4285714  -0.3333333), wk =   0.0063492
        k(  155) = (   0.4000000  -0.4285714  -0.3333333), wk =   0.0063492
        k(  156) = (  -0.4000000  -0.4285714   0.4444444), wk =   0.0063492
        k(  157) = (  -0.4000000   0.4285714  -0.4444444), wk =   0.0063492
        k(  158) = (   0.4000000  -0.4285714  -0.4444444), wk =   0.0063492

     Dense  grid:  1382463 G-vectors     FFT dimensions: ( 216, 128, 100)

     Smooth grid:   311535 G-vectors     FFT dimensions: ( 135,  80,  60)

     Dynamical RAM for                 wfc:       2.82 MB

     Dynamical RAM for     wfc (w. buffer):     894.96 MB

     Dynamical RAM for           str. fact:       3.52 MB

     Dynamical RAM for           local pot:       0.00 MB

     Dynamical RAM for          nlocal pot:       6.93 MB

     Dynamical RAM for                qrad:      10.54 MB

     Dynamical RAM for          rho,v,vnew:      11.60 MB

     Dynamical RAM for               rhoin:       3.87 MB

     Dynamical RAM for            rho*nmix:      28.13 MB

     Dynamical RAM for           G-vectors:       3.40 MB

     Dynamical RAM for          h,s,v(r/c):       2.38 MB

     Dynamical RAM for          <psi|beta>:       0.49 MB

     Dynamical RAM for                 psi:       5.65 MB

     Dynamical RAM for                hpsi:       5.65 MB

     Dynamical RAM for                spsi:       5.65 MB

     Dynamical RAM for      wfcinit/wfcrot:       7.22 MB

     Dynamical RAM for           addusdens:     178.43 MB

     Dynamical RAM for          addusforce:     204.92 MB

     Dynamical RAM for         addusstress:     177.99 MB

     Estimated static dynamical RAM per process >     973.66 MB

     Estimated max dynamical RAM per process >       1.15 GB

     Estimated total dynamical RAM >      27.62 GB

     Check: negative core charge=   -0.000003
     Generating pointlists ...
     new r_m :   0.0751 (alat units)  1.5255 (a.u.) for type    1
     new r_m :   0.0861 (alat units)  1.7498 (a.u.) for type    2
     new r_m :   0.0591 (alat units)  1.2013 (a.u.) for type    3
     new r_m :   0.0591 (alat units)  1.2013 (a.u.) for type    4

     Initial potential from superposition of free atoms

     starting charge  188.99132, renormalised to  189.00000
     Starting wfcs are  137 randomized atomic wfcs
     Checking if some PAW data can be deallocated... 
       PAW data deallocated on   20 nodes for type:  1
       PAW data deallocated on    8 nodes for type:  3

     total cpu time spent up to now is      211.1 secs

     Self-consistent Calculation

     iteration #  1     ecut=   100.00 Ry     beta= 0.40
     Davidson diagonalization with overlap
     ethr =  1.00E-02,  avg # of iterations =  2.9

     negative rho (up, down):  0.000E+00 9.058E-05

     total cpu time spent up to now is      859.1 secs

     total energy              =   -2123.68047669 Ry
     estimated scf accuracy    <       7.20413060 Ry

     total magnetization       =    19.00 Bohr mag/cell
     absolute magnetization    =    19.00 Bohr mag/cell

     iteration #  2     ecut=   100.00 Ry     beta= 0.40
     Davidson diagonalization with overlap
     ethr =  3.81E-03,  avg # of iterations =  2.0

     negative rho (up, down):  0.000E+00 4.343E-05

     total cpu time spent up to now is     1471.2 secs

     total energy              =   -2120.12438384 Ry
     estimated scf accuracy    <      53.73011409 Ry

     total magnetization       =     6.28 Bohr mag/cell
     absolute magnetization    =     7.94 Bohr mag/cell

     iteration #  3     ecut=   100.00 Ry     beta= 0.40
     Davidson diagonalization with overlap
     ethr =  3.81E-03,  avg # of iterations =  2.9

     negative rho (up, down):  0.000E+00 2.919E-05

     total cpu time spent up to now is     2018.7 secs

     total energy              =   -2123.15671454 Ry
     estimated scf accuracy    <      58.06641765 Ry

     total magnetization       =     4.34 Bohr mag/cell
     absolute magnetization    =     8.34 Bohr mag/cell

     iteration #  4     ecut=   100.00 Ry     beta= 0.40
     Davidson diagonalization with overlap
     ethr =  3.81E-03,  avg # of iterations =  1.5

     negative rho (up, down):  0.000E+00 2.709E-05

     total cpu time spent up to now is     2488.5 secs

     total energy              =   -2124.43935512 Ry
     estimated scf accuracy    <      31.25390222 Ry

     total magnetization       =     9.00 Bohr mag/cell
     absolute magnetization    =     9.34 Bohr mag/cell

     iteration #  5     ecut=   100.00 Ry     beta= 0.40
     Davidson diagonalization with overlap
     ethr =  3.81E-03,  avg # of iterations =  1.7

     negative rho (up, down):  0.000E+00 6.686E-05

     total cpu time spent up to now is     2980.6 secs

     total energy              =   -2125.77600600 Ry
     estimated scf accuracy    <       4.24577933 Ry

     total magnetization       =    17.38 Bohr mag/cell
     absolute magnetization    =    17.40 Bohr mag/cell

     iteration #  6     ecut=   100.00 Ry     beta= 0.40
     Davidson diagonalization with overlap
     ethr =  2.25E-03,  avg # of iterations =  1.2

     negative rho (up, down):  0.000E+00 1.056E-04

     total cpu time spent up to now is     3425.8 secs

     total energy              =   -2125.90018235 Ry
     estimated scf accuracy    <       1.37874032 Ry

     total magnetization       =    18.91 Bohr mag/cell
     absolute magnetization    =    18.91 Bohr mag/cell

     iteration #  7     ecut=   100.00 Ry     beta= 0.40
     Davidson diagonalization with overlap
     ethr =  7.29E-04,  avg # of iterations =  1.5

     negative rho (up, down):  0.000E+00 2.308E-04

     total cpu time spent up to now is     3896.1 secs

     total energy              =   -2126.02772547 Ry
     estimated scf accuracy    <       0.63725480 Ry

     total magnetization       =    19.00 Bohr mag/cell
     absolute magnetization    =    19.00 Bohr mag/cell

     iteration #  8     ecut=   100.00 Ry     beta= 0.40
     Davidson diagonalization with overlap
     ethr =  3.37E-04,  avg # of iterations =  1.2

     negative rho (up, down):  0.000E+00 4.329E-04

     total cpu time spent up to now is     4348.3 secs

     total energy              =   -2126.02227467 Ry
     estimated scf accuracy    <       0.51372404 Ry

     total magnetization       =    19.00 Bohr mag/cell
     absolute magnetization    =    19.01 Bohr mag/cell

     iteration #  9     ecut=   100.00 Ry     beta= 0.40
     Davidson diagonalization with overlap
     ethr =  2.72E-04,  avg # of iterations =  1.1

     negative rho (up, down):  0.000E+00 6.086E-04

     total cpu time spent up to now is     4787.8 secs

     total energy              =   -2126.02504681 Ry
     estimated scf accuracy    <       0.18569385 Ry

     total magnetization       =    19.00 Bohr mag/cell
     absolute magnetization    =    19.01 Bohr mag/cell

     iteration # 10     ecut=   100.00 Ry     beta= 0.40
     Davidson diagonalization with overlap
     c_bands:  1 eigenvalues not converged
     c_bands:  1 eigenvalues not converged
     c_bands:  1 eigenvalues not converged
     c_bands:  1 eigenvalues not converged
     c_bands:  2 eigenvalues not converged
     c_bands:  1 eigenvalues not converged
     c_bands:  1 eigenvalues not converged
     c_bands:  1 eigenvalues not converged
     c_bands:  2 eigenvalues not converged
     c_bands:  1 eigenvalues not converged
     c_bands:  1 eigenvalues not converged
     c_bands:  1 eigenvalues not converged
     c_bands:  1 eigenvalues not converged
     c_bands:  1 eigenvalues not converged
     c_bands:  1 eigenvalues not converged
     ethr =  9.83E-05,  avg # of iterations = 11.6

     negative rho (up, down):  0.000E+00 8.624E-04

     total cpu time spent up to now is     5586.8 secs

     total energy              =   -2126.03003712 Ry
     estimated scf accuracy    <       0.11628893 Ry

     total magnetization       =    19.00 Bohr mag/cell
     absolute magnetization    =    19.01 Bohr mag/cell

     iteration # 11     ecut=   100.00 Ry     beta= 0.40
     Davidson diagonalization with overlap
     c_bands:  2 eigenvalues not converged
     c_bands:  1 eigenvalues not converged
     c_bands:  1 eigenvalues not converged
     ethr =  6.15E-05,  avg # of iterations =  4.4

     negative rho (up, down):  0.000E+00 9.710E-04

     total cpu time spent up to now is     6144.9 secs

     total energy              =   -2126.03378811 Ry
     estimated scf accuracy    <       0.22118655 Ry

     total magnetization       =    19.00 Bohr mag/cell
     absolute magnetization    =    19.03 Bohr mag/cell

     iteration # 12     ecut=   100.00 Ry     beta= 0.40
     Davidson diagonalization with overlap
     ethr =  6.15E-05,  avg # of iterations =  1.1

     negative rho (up, down):  0.000E+00 9.700E-04

     total cpu time spent up to now is     6579.7 secs

     total energy              =   -2126.03517720 Ry
     estimated scf accuracy    <       0.18294038 Ry

     total magnetization       =    19.00 Bohr mag/cell
     absolute magnetization    =    19.03 Bohr mag/cell

     iteration # 13     ecut=   100.00 Ry     beta= 0.40
     Davidson diagonalization with overlap
     ethr =  6.15E-05,  avg # of iterations =  1.1

     negative rho (up, down):  0.000E+00 9.682E-04

     total cpu time spent up to now is     7014.4 secs

     total energy              =   -2126.03861070 Ry
     estimated scf accuracy    <       0.10907410 Ry

     total magnetization       =    19.00 Bohr mag/cell
     absolute magnetization    =    19.04 Bohr mag/cell

     iteration # 14     ecut=   100.00 Ry     beta= 0.40
     Davidson diagonalization with overlap
     ethr =  5.77E-05,  avg # of iterations =  1.0

     negative rho (up, down):  0.000E+00 9.582E-04

     total cpu time spent up to now is     7444.0 secs

     total energy              =   -2126.03751720 Ry
     estimated scf accuracy    <       0.06105385 Ry

     total magnetization       =    19.00 Bohr mag/cell
     absolute magnetization    =    19.04 Bohr mag/cell

     iteration # 15     ecut=   100.00 Ry     beta= 0.40
     Davidson diagonalization with overlap
     c_bands:  1 eigenvalues not converged
     c_bands:  1 eigenvalues not converged
     c_bands:  1 eigenvalues not converged
     ethr =  3.23E-05,  avg # of iterations =  1.5

     negative rho (up, down):  0.000E+00 9.997E-04

     total cpu time spent up to now is     7891.3 secs

     total energy              =   -2126.03882280 Ry
     estimated scf accuracy    <       0.00339204 Ry

     total magnetization       =    19.00 Bohr mag/cell
     absolute magnetization    =    19.04 Bohr mag/cell

     iteration # 16     ecut=   100.00 Ry     beta= 0.40
     Davidson diagonalization with overlap
     c_bands:  1 eigenvalues not converged
     c_bands:  1 eigenvalues not converged
     c_bands:  1 eigenvalues not converged
     c_bands:  1 eigenvalues not converged
     c_bands:  1 eigenvalues not converged
     c_bands:  1 eigenvalues not converged
     c_bands:  1 eigenvalues not converged
     c_bands:  1 eigenvalues not converged
     c_bands:  1 eigenvalues not converged
     c_bands:  1 eigenvalues not converged
     c_bands:  1 eigenvalues not converged
     c_bands:  1 eigenvalues not converged
     c_bands:  1 eigenvalues not converged
     c_bands:  1 eigenvalues not converged
     c_bands:  1 eigenvalues not converged
     c_bands:  1 eigenvalues not converged
     c_bands:  1 eigenvalues not converged
     c_bands:  1 eigenvalues not converged
     c_bands:  1 eigenvalues not converged
     c_bands:  1 eigenvalues not converged
     c_bands:  1 eigenvalues not converged
     c_bands:  1 eigenvalues not converged
     c_bands:  1 eigenvalues not converged
     c_bands:  1 eigenvalues not converged
     c_bands:  1 eigenvalues not converged
     c_bands:  1 eigenvalues not converged
     c_bands:  1 eigenvalues not converged
     c_bands:  1 eigenvalues not converged
     c_bands:  1 eigenvalues not converged
     c_bands:  1 eigenvalues not converged
     c_bands:  1 eigenvalues not converged
     c_bands:  1 eigenvalues not converged
     c_bands:  1 eigenvalues not converged
     c_bands:  1 eigenvalues not converged
     c_bands:  1 eigenvalues not converged
     c_bands:  1 eigenvalues not converged
     c_bands:  1 eigenvalues not converged
     c_bands:  1 eigenvalues not converged
     c_bands:  1 eigenvalues not converged
     c_bands:  1 eigenvalues not converged
     c_bands:  1 eigenvalues not converged
     ethr =  1.79E-06,  avg # of iterations = 16.0

     negative rho (up, down):  0.000E+00 9.925E-04

     total cpu time spent up to now is     9020.2 secs

     total energy              =   -2126.03918964 Ry
     estimated scf accuracy    <       0.00326364 Ry

     total magnetization       =    19.00 Bohr mag/cell
     absolute magnetization    =    19.05 Bohr mag/cell

     iteration # 17     ecut=   100.00 Ry     beta= 0.40
     Davidson diagonalization with overlap
     c_bands:  1 eigenvalues not converged
     ethr =  1.73E-06,  avg # of iterations =  1.2

     negative rho (up, down):  0.000E+00 9.894E-04

     total cpu time spent up to now is     9456.9 secs

     total energy              =   -2126.03936774 Ry
     estimated scf accuracy    <       0.00446321 Ry

     total magnetization       =    19.00 Bohr mag/cell
     absolute magnetization    =    19.05 Bohr mag/cell

     iteration # 18     ecut=   100.00 Ry     beta= 0.40
     Davidson diagonalization with overlap
     ethr =  1.73E-06,  avg # of iterations =  1.0

     negative rho (up, down):  0.000E+00 9.854E-04

     total cpu time spent up to now is     9886.7 secs

     total energy              =   -2126.03944691 Ry
     estimated scf accuracy    <       0.00051459 Ry

     total magnetization       =    19.00 Bohr mag/cell
     absolute magnetization    =    19.05 Bohr mag/cell

     iteration # 19     ecut=   100.00 Ry     beta= 0.40
     Davidson diagonalization with overlap
     ethr =  2.72E-07,  avg # of iterations =  2.3

     negative rho (up, down):  0.000E+00 9.818E-04

     total cpu time spent up to now is    10399.6 secs

     total energy              =   -2126.03949399 Ry
     estimated scf accuracy    <       0.00004267 Ry

     total magnetization       =    19.00 Bohr mag/cell
     absolute magnetization    =    19.05 Bohr mag/cell

     iteration # 20     ecut=   100.00 Ry     beta= 0.40
     Davidson diagonalization with overlap
     ethr =  2.26E-08,  avg # of iterations =  5.6

     negative rho (up, down):  0.000E+00 9.790E-04

     total cpu time spent up to now is    11427.1 secs

     total energy              =   -2126.03953403 Ry
     estimated scf accuracy    <       0.00003981 Ry

     total magnetization       =    19.00 Bohr mag/cell
     absolute magnetization    =    19.05 Bohr mag/cell

     iteration # 21     ecut=   100.00 Ry     beta= 0.40
     Davidson diagonalization with overlap
     ethr =  2.11E-08,  avg # of iterations =  2.0

     negative rho (up, down):  0.000E+00 9.803E-04

     total cpu time spent up to now is    11938.0 secs

     total energy              =   -2126.03953911 Ry
     estimated scf accuracy    <       0.00001017 Ry

     total magnetization       =    19.00 Bohr mag/cell
     absolute magnetization    =    19.05 Bohr mag/cell

     iteration # 22     ecut=   100.00 Ry     beta= 0.40
     Davidson diagonalization with overlap
     ethr =  5.38E-09,  avg # of iterations =  2.0

     negative rho (up, down):  0.000E+00 9.808E-04

     total cpu time spent up to now is    12460.1 secs

     total energy              =   -2126.03954116 Ry
     estimated scf accuracy    <       0.00002745 Ry

     total magnetization       =    19.00 Bohr mag/cell
     absolute magnetization    =    19.05 Bohr mag/cell

     iteration # 23     ecut=   100.00 Ry     beta= 0.40
     Davidson diagonalization with overlap
     ethr =  5.38E-09,  avg # of iterations =  1.5

     negative rho (up, down):  0.000E+00 9.812E-04

     total cpu time spent up to now is    12920.7 secs

     total energy              =   -2126.03954201 Ry
     estimated scf accuracy    <       0.00000548 Ry

     total magnetization       =    19.00 Bohr mag/cell
     absolute magnetization    =    19.05 Bohr mag/cell

     iteration # 24     ecut=   100.00 Ry     beta= 0.40
     Davidson diagonalization with overlap
     ethr =  2.90E-09,  avg # of iterations =  1.0

     negative rho (up, down):  0.000E+00 9.818E-04

     total cpu time spent up to now is    13350.2 secs

     total energy              =   -2126.03954251 Ry
     estimated scf accuracy    <       0.00000168 Ry

     total magnetization       =    19.00 Bohr mag/cell
     absolute magnetization    =    19.05 Bohr mag/cell

     iteration # 25     ecut=   100.00 Ry     beta= 0.40
     Davidson diagonalization with overlap
     ethr =  8.89E-10,  avg # of iterations =  1.7

     negative rho (up, down):  0.000E+00 9.822E-04

     total cpu time spent up to now is    13816.3 secs

     total energy              =   -2126.03954271 Ry
     estimated scf accuracy    <       0.00000139 Ry

     total magnetization       =    19.00 Bohr mag/cell
     absolute magnetization    =    19.05 Bohr mag/cell

     iteration # 26     ecut=   100.00 Ry     beta= 0.40
     Davidson diagonalization with overlap
     ethr =  7.35E-10,  avg # of iterations =  1.0

     negative rho (up, down):  0.000E+00 9.822E-04

     total cpu time spent up to now is    14246.2 secs

     total energy              =   -2126.03954282 Ry
     estimated scf accuracy    <       0.00000040 Ry

     total magnetization       =    19.00 Bohr mag/cell
     absolute magnetization    =    19.05 Bohr mag/cell

     iteration # 27     ecut=   100.00 Ry     beta= 0.40
     Davidson diagonalization with overlap
     ethr =  2.10E-10,  avg # of iterations =  3.2

     negative rho (up, down):  0.000E+00 9.821E-04

     total cpu time spent up to now is    14800.8 secs

     total energy              =   -2126.03954290 Ry
     estimated scf accuracy    <       0.00000015 Ry

     total magnetization       =    19.00 Bohr mag/cell
     absolute magnetization    =    19.05 Bohr mag/cell

     iteration # 28     ecut=   100.00 Ry     beta= 0.40
     Davidson diagonalization with overlap
     ethr =  7.76E-11,  avg # of iterations =  3.7

     negative rho (up, down):  0.000E+00 9.822E-04

     total cpu time spent up to now is    15389.2 secs

     total energy              =   -2126.03954294 Ry
     estimated scf accuracy    <       0.00000008 Ry

     total magnetization       =    19.00 Bohr mag/cell
     absolute magnetization    =    19.05 Bohr mag/cell

     iteration # 29     ecut=   100.00 Ry     beta= 0.40
     Davidson diagonalization with overlap
     ethr =  4.44E-11,  avg # of iterations =  2.2

     negative rho (up, down):  0.000E+00 9.821E-04

     total cpu time spent up to now is    15932.0 secs

     total energy              =   -2126.03954298 Ry
     estimated scf accuracy    <       0.00000039 Ry

     total magnetization       =    19.00 Bohr mag/cell
     absolute magnetization    =    19.05 Bohr mag/cell

     iteration # 30     ecut=   100.00 Ry     beta= 0.40
     Davidson diagonalization with overlap
     ethr =  4.44E-11,  avg # of iterations =  1.3

     negative rho (up, down):  0.000E+00 9.820E-04

     total cpu time spent up to now is    16383.1 secs

     total energy              =   -2126.03954299 Ry
     estimated scf accuracy    <       0.00000007 Ry

     total magnetization       =    19.00 Bohr mag/cell
     absolute magnetization    =    19.05 Bohr mag/cell

     iteration # 31     ecut=   100.00 Ry     beta= 0.40
     Davidson diagonalization with overlap
     ethr =  3.58E-11,  avg # of iterations =  2.0

     negative rho (up, down):  0.000E+00 9.820E-04

     total cpu time spent up to now is    16909.4 secs

     total energy              =   -2126.03954301 Ry
     estimated scf accuracy    <       0.00000003 Ry

     total magnetization       =    19.00 Bohr mag/cell
     absolute magnetization    =    19.05 Bohr mag/cell

     iteration # 32     ecut=   100.00 Ry     beta= 0.40
     Davidson diagonalization with overlap
     ethr =  1.70E-11,  avg # of iterations =  1.4

     negative rho (up, down):  0.000E+00 9.820E-04

     total cpu time spent up to now is    17364.5 secs

     total energy              =   -2126.03954301 Ry
     estimated scf accuracy    <       0.00000001 Ry

     total magnetization       =    19.00 Bohr mag/cell
     absolute magnetization    =    19.05 Bohr mag/cell

     iteration # 33     ecut=   100.00 Ry     beta= 0.40
     Davidson diagonalization with overlap
     ethr =  6.60E-12,  avg # of iterations =  2.5

     negative rho (up, down):  0.000E+00 9.821E-04

     total cpu time spent up to now is    17888.3 secs

     total energy              =   -2126.03954301 Ry
     estimated scf accuracy    <       0.00000002 Ry

     total magnetization       =    19.00 Bohr mag/cell
     absolute magnetization    =    19.05 Bohr mag/cell

     iteration # 34     ecut=   100.00 Ry     beta= 0.40
     Davidson diagonalization with overlap
     ethr =  6.60E-12,  avg # of iterations =  1.1

     negative rho (up, down):  0.000E+00 9.821E-04

     total cpu time spent up to now is    18319.5 secs

     total energy              =   -2126.03954301 Ry
     estimated scf accuracy    <          8.7E-09 Ry

     total magnetization       =    19.00 Bohr mag/cell
     absolute magnetization    =    19.05 Bohr mag/cell

     iteration # 35     ecut=   100.00 Ry     beta= 0.40
     Davidson diagonalization with overlap
     ethr =  4.60E-12,  avg # of iterations =  1.7

     negative rho (up, down):  0.000E+00 9.821E-04

     total cpu time spent up to now is    18796.3 secs

     total energy              =   -2126.03954301 Ry
     estimated scf accuracy    <          3.1E-09 Ry

     total magnetization       =    19.00 Bohr mag/cell
     absolute magnetization    =    19.05 Bohr mag/cell

     iteration # 36     ecut=   100.00 Ry     beta= 0.40
     Davidson diagonalization with overlap
     ethr =  1.63E-12,  avg # of iterations =  2.6

     negative rho (up, down):  0.000E+00 9.821E-04

     total cpu time spent up to now is    19303.6 secs

     total energy              =   -2126.03954301 Ry
     estimated scf accuracy    <          2.6E-09 Ry

     total magnetization       =    19.00 Bohr mag/cell
     absolute magnetization    =    19.05 Bohr mag/cell

     iteration # 37     ecut=   100.00 Ry     beta= 0.40
     Davidson diagonalization with overlap
     ethr =  1.39E-12,  avg # of iterations =  2.0

     negative rho (up, down):  0.000E+00 9.821E-04

     total cpu time spent up to now is    19811.3 secs

     total energy              =   -2126.03954301 Ry
     estimated scf accuracy    <          5.0E-10 Ry

     total magnetization       =    19.00 Bohr mag/cell
     absolute magnetization    =    19.05 Bohr mag/cell

     iteration # 38     ecut=   100.00 Ry     beta= 0.40
     Davidson diagonalization with overlap
     ethr =  2.63E-13,  avg # of iterations =  4.3

     negative rho (up, down):  0.000E+00 9.821E-04

     Magnetic moment per site:
     atom:    1    charge:    7.9008    magn:    0.0004    constr:    0.0000
     atom:    2    charge:   12.9287    magn:    3.6896    constr:    0.0000
     atom:    3    charge:   12.9370    magn:    3.6686    constr:    0.0000
     atom:    4    charge:   12.9641    magn:    3.6071    constr:    0.0000
     atom:    5    charge:   12.9366    magn:    3.6730    constr:    0.0000
     atom:    6    charge:    0.8236    magn:    0.0092    constr:    0.0000
     atom:    7    charge:    0.8279    magn:    0.0074    constr:    0.0000
     atom:    8    charge:    0.8258    magn:    0.0098    constr:    0.0000
     atom:    9    charge:    0.8226    magn:    0.0077    constr:    0.0000
     atom:   10    charge:    4.2623    magn:    0.1342    constr:    0.0000
     atom:   11    charge:    4.2770    magn:    0.0829    constr:    0.0000
     atom:   12    charge:    4.2655    magn:    0.1257    constr:    0.0000
     atom:   13    charge:    4.2609    magn:    0.1002    constr:    0.0000
     atom:   14    charge:    4.2199    magn:    0.1127    constr:    0.0000
     atom:   15    charge:    4.2272    magn:    0.1354    constr:    0.0000
     atom:   16    charge:    4.2306    magn:    0.0790    constr:    0.0000
     atom:   17    charge:    4.2226    magn:    0.1464    constr:    0.0000
     atom:   18    charge:    4.2093    magn:    0.1543    constr:    0.0000
     atom:   19    charge:    4.2142    magn:    0.1329    constr:    0.0000
     atom:   20    charge:    4.2127    magn:    0.1411    constr:    0.0000
     atom:   21    charge:    4.2172    magn:    0.1190    constr:    0.0000
     atom:   22    charge:    4.2147    magn:    0.1525    constr:    0.0000
     atom:   23    charge:    4.2093    magn:    0.1356    constr:    0.0000
     atom:   24    charge:    4.2087    magn:    0.1513    constr:    0.0000
     atom:   25    charge:    4.2105    magn:    0.1274    constr:    0.0000

     total cpu time spent up to now is    20477.1 secs

     End of self-consistent calculation

 ------ SPIN UP ------------


          k = 0.0000 0.0000 0.0000 ( 38991 PWs)   bands (ev):

   -86.1455 -86.0634 -86.0518 -85.8441 -52.2295 -52.2031 -52.1785 -52.1127
   -52.0952 -52.0569 -52.0011 -51.9754 -51.9672 -51.9357 -51.7978 -51.6143
   -45.7351 -17.7437 -17.6917 -17.6889 -16.4707 -16.3428 -16.1761 -16.1022
   -14.2442 -14.2402 -14.1075 -14.0281 -13.9821 -13.9469 -13.9177 -13.8545
   -13.8332 -13.7998 -13.7292 -13.6509  -4.7035  -4.2295  -4.2099  -3.8404
    -2.6976  -2.3951  -2.3432  -2.1801  -1.9073  -1.8438  -1.7337  -1.7249
    -1.5858  -1.4429  -1.1731  -0.9521  -0.8377  -0.8339  -0.3916  -0.3355
    -0.2565  -0.2360  -0.0292   0.1675   0.1799   0.2731   0.2880   0.3457
     0.3881   0.5130   0.6026   0.7722   0.9748   1.0252   1.1291   1.1769
     1.2599   1.2926   1.4267   1.4621   1.5419   1.6162   1.6979   1.7328
     1.9063   1.9637   1.9970   2.0955   2.1635   2.2316   2.2573   2.4627
     2.5408   2.5778   2.6218   2.6607   2.7510   2.9445   3.0140   3.1358
     3.1821   3.2600   3.3158   3.4107   3.4386   3.5491   3.8597   3.9665
     7.7841   9.7806  10.2276  10.6589  11.0089  11.5818  11.7997  11.9682
    12.3400  12.5258

     occupation numbers 
     1.0000   1.0000   1.0000   1.0000   1.0000   1.0000   1.0000   1.0000
     1.0000   1.0000   1.0000   1.0000   1.0000   1.0000   1.0000   1.0000
     1.0000   1.0000   1.0000   1.0000   1.0000   1.0000   1.0000   1.0000
     1.0000   1.0000   1.0000   1.0000   1.0000   1.0000   1.0000   1.0000
     1.0000   1.0000   1.0000   1.0000   1.0000   1.0000   1.0000   1.0000
     1.0000   1.0000   1.0000   1.0000   1.0000   1.0000   1.0000   1.0000
     1.0000   1.0000   1.0000   1.0000   1.0000   1.0000   1.0000   1.0000
     1.0000   1.0000   1.0000   1.0000   1.0000   1.0000   1.0000   1.0000
     1.0000   1.0000   1.0000   1.0000   1.0000   1.0000   1.0000   1.0000
     1.0000   1.0000   1.0000   1.0000   1.0000   1.0000   1.0000   1.0000
     1.0000   1.0000   1.0000   1.0000   1.0000   1.0000   1.0000   1.0000
     1.0000   1.0000   1.0000   1.0000   1.0000   1.0000   1.0000   1.0000
     1.0000   1.0000   1.0000   1.0000   1.0000   1.0000   1.0000   1.0000
     0.0000   0.0000   0.0000   0.0000   0.0000   0.0000   0.0000   0.0000
     0.0000   0.0000

          k = 0.0000 0.0000 0.2415 ( 38977 PWs)   bands (ev):

   -86.1455 -86.0634 -86.0518 -85.8441 -52.2295 -52.2031 -52.1785 -52.1127
   -52.0952 -52.0569 -52.0011 -51.9754 -51.9672 -51.9357 -51.7978 -51.6143
   -45.7351 -17.7438 -17.6962 -17.6869 -16.4556 -16.3339 -16.1697 -16.0976
   -14.2617 -14.2538 -14.1204 -14.0397 -13.9913 -13.9420 -13.9121 -13.8499
   -13.8298 -13.7997 -13.7336 -13.6548  -4.6843  -4.2313  -4.2049  -3.8487
    -2.6566  -2.3672  -2.3358  -2.1633  -1.9053  -1.8566  -1.7645  -1.6478
    -1.5792  -1.4092  -1.2167  -0.9292  -0.8777  -0.8157  -0.3790  -0.3194
    -0.2571  -0.1918  -0.0244   0.1604   0.1688   0.2518   0.2736   0.3525
     0.3943   0.5166   0.5958   0.7666   0.9433   0.9509   1.0732   1.1374
     1.2656   1.3391   1.3707   1.4441   1.5212   1.5851   1.7303   1.8407
     1.8766   1.9769   2.0008   2.0617   2.1617   2.2350   2.2807   2.4055
     2.5437   2.5587   2.6327   2.6621   2.7005   2.9839   3.0217   3.1398
     3.1915   3.2771   3.3373   3.4088   3.4307   3.5602   3.8382   3.9470
     7.9271   9.8491  10.2536  10.6657  11.0743  11.5128  11.7387  12.0094
    12.2571  12.4829

     occupation numbers 
     1.0000   1.0000   1.0000   1.0000   1.0000   1.0000   1.0000   1.0000
     1.0000   1.0000   1.0000   1.0000   1.0000   1.0000   1.0000   1.0000
     1.0000   1.0000   1.0000   1.0000   1.0000   1.0000   1.0000   1.0000
     1.0000   1.0000   1.0000   1.0000   1.0000   1.0000   1.0000   1.0000
     1.0000   1.0000   1.0000   1.0000   1.0000   1.0000   1.0000   1.0000
     1.0000   1.0000   1.0000   1.0000   1.0000   1.0000   1.0000   1.0000
     1.0000   1.0000   1.0000   1.0000   1.0000   1.0000   1.0000   1.0000
     1.0000   1.0000   1.0000   1.0000   1.0000   1.0000   1.0000   1.0000
     1.0000   1.0000   1.0000   1.0000   1.0000   1.0000   1.0000   1.0000
     1.0000   1.0000   1.0000   1.0000   1.0000   1.0000   1.0000   1.0000
     1.0000   1.0000   1.0000   1.0000   1.0000   1.0000   1.0000   1.0000
     1.0000   1.0000   1.0000   1.0000   1.0000   1.0000   1.0000   1.0000
     1.0000   1.0000   1.0000   1.0000   1.0000   1.0000   1.0000   1.0000
     0.0000   0.0000   0.0000   0.0000   0.0000   0.0000   0.0000   0.0000
     0.0000   0.0000

          k = 0.0000 0.0000 0.4830 ( 38986 PWs)   bands (ev):

   -86.1455 -86.0634 -86.0518 -85.8441 -52.2295 -52.2031 -52.1785 -52.1127
   -52.0952 -52.0569 -52.0011 -51.9754 -51.9672 -51.9357 -51.7978 -51.6143
   -45.7351 -17.7446 -17.7042 -17.6847 -16.4151 -16.3117 -16.1531 -16.0865
   -14.3047 -14.2888 -14.1565 -14.0777 -13.9966 -13.9348 -13.8975 -13.8379
   -13.8223 -13.7997 -13.7461 -13.6656  -4.6284  -4.2381  -4.1932  -3.8813
    -2.5448  -2.3246  -2.2838  -2.1390  -1.8990  -1.8664  -1.7661  -1.5761
    -1.4973  -1.3360  -1.3146  -1.0003  -0.8473  -0.7511  -0.3365  -0.2833
    -0.2280  -0.0967  -0.0155   0.1316   0.1529   0.1944   0.2411   0.3605
     0.4083   0.5389   0.5697   0.7384   0.7911   0.8745   0.9968   1.0911
     1.1190   1.2093   1.4101   1.4549   1.5179   1.5444   1.7679   1.8316
     1.9425   1.9772   2.0105   2.0325   2.0783   2.2151   2.2942   2.3734
     2.4256   2.6017   2.6765   2.6984   2.7259   3.0128   3.0416   3.1516
     3.2345   3.3205   3.3752   3.4031   3.4288   3.5838   3.7720   3.8875
     8.3071  10.0284  10.3020  10.7135  11.2170  11.4084  11.5805  11.9776
    12.0984  12.2336

     occupation numbers 
     1.0000   1.0000   1.0000   1.0000   1.0000   1.0000   1.0000   1.0000
     1.0000   1.0000   1.0000   1.0000   1.0000   1.0000   1.0000   1.0000
     1.0000   1.0000   1.0000   1.0000   1.0000   1.0000   1.0000   1.0000
     1.0000   1.0000   1.0000   1.0000   1.0000   1.0000   1.0000   1.0000
     1.0000   1.0000   1.0000   1.0000   1.0000   1.0000   1.0000   1.0000
     1.0000   1.0000   1.0000   1.0000   1.0000   1.0000   1.0000   1.0000
     1.0000   1.0000   1.0000   1.0000   1.0000   1.0000   1.0000   1.0000
     1.0000   1.0000   1.0000   1.0000   1.0000   1.0000   1.0000   1.0000
     1.0000   1.0000   1.0000   1.0000   1.0000   1.0000   1.0000   1.0000
     1.0000   1.0000   1.0000   1.0000   1.0000   1.0000   1.0000   1.0000
     1.0000   1.0000   1.0000   1.0000   1.0000   1.0000   1.0000   1.0000
     1.0000   1.0000   1.0000   1.0000   1.0000   1.0000   1.0000   1.0000
     1.0000   1.0000   1.0000   1.0000   1.0000   1.0000   1.0000   1.0000
     0.0000   0.0000   0.0000   0.0000   0.0000   0.0000   0.0000   0.0000
     0.0000   0.0000

          k = 0.0000 0.0000 0.7246 ( 39012 PWs)   bands (ev):

   -86.1455 -86.0634 -86.0518 -85.8441 -52.2295 -52.2031 -52.1785 -52.1127
   -52.0952 -52.0569 -52.0011 -51.9754 -51.9672 -51.9357 -51.7978 -51.6143
   -45.7351 -17.7462 -17.7117 -17.6828 -16.3628 -16.2886 -16.1329 -16.0764
   -14.3526 -14.3285 -14.2009 -14.1248 -13.9946 -13.9283 -13.8776 -13.8241
   -13.8147 -13.7994 -13.7635 -13.6802  -4.5428  -4.2639  -4.1715  -3.9427
    -2.4130  -2.2865  -2.2005  -2.1320  -1.8966  -1.8364  -1.7496  -1.5544
    -1.4559  -1.3446  -1.2007  -1.1521  -0.7150  -0.6253  -0.2681  -0.2329
    -0.1801  -0.0551   0.0362   0.0633   0.1020   0.1646   0.2181   0.3808
     0.4056   0.5079   0.5928   0.6460   0.6629   0.7550   0.8472   0.9062
     1.0852   1.1408   1.3805   1.3922   1.5100   1.6764   1.6971   1.8441
     1.8843   1.9157   1.9631   2.0141   2.0937   2.1241   2.1946   2.3177
     2.4523   2.6168   2.7340   2.8616   2.9238   3.0075   3.0623   3.1636
     3.2646   3.3577   3.4021   3.4047   3.4775   3.6007   3.6580   3.7885
     8.8216  10.1508  10.3805  10.8199  11.1984  11.3197  11.5749  11.8066
    11.9869  12.0538

     occupation numbers 
     1.0000   1.0000   1.0000   1.0000   1.0000   1.0000   1.0000   1.0000
     1.0000   1.0000   1.0000   1.0000   1.0000   1.0000   1.0000   1.0000
     1.0000   1.0000   1.0000   1.0000   1.0000   1.0000   1.0000   1.0000
     1.0000   1.0000   1.0000   1.0000   1.0000   1.0000   1.0000   1.0000
     1.0000   1.0000   1.0000   1.0000   1.0000   1.0000   1.0000   1.0000
     1.0000   1.0000   1.0000   1.0000   1.0000   1.0000   1.0000   1.0000
     1.0000   1.0000   1.0000   1.0000   1.0000   1.0000   1.0000   1.0000
     1.0000   1.0000   1.0000   1.0000   1.0000   1.0000   1.0000   1.0000
     1.0000   1.0000   1.0000   1.0000   1.0000   1.0000   1.0000   1.0000
     1.0000   1.0000   1.0000   1.0000   1.0000   1.0000   1.0000   1.0000
     1.0000   1.0000   1.0000   1.0000   1.0000   1.0000   1.0000   1.0000
     1.0000   1.0000   1.0000   1.0000   1.0000   1.0000   1.0000   1.0000
     1.0000   1.0000   1.0000   1.0000   1.0000   1.0000   1.0000   1.0000
     0.0000   0.0000   0.0000   0.0000   0.0000   0.0000   0.0000   0.0000
     0.0000   0.0000

          k = 0.0000 0.0000 0.9661 ( 38942 PWs)   bands (ev):

   -86.1455 -86.0634 -86.0518 -85.8441 -52.2295 -52.2031 -52.1785 -52.1127
   -52.0952 -52.0569 -52.0011 -51.9754 -51.9672 -51.9357 -51.7978 -51.6143
   -45.7351 -17.7479 -17.7159 -17.6817 -16.3196 -16.2799 -16.1177 -16.0725
   -14.3835 -14.3544 -14.2309 -14.1565 -13.9923 -13.9241 -13.8595 -13.8159
   -13.8125 -13.7960 -13.7782 -13.6919  -4.4486  -4.3193  -4.1372  -4.0087
    -2.3288  -2.2719  -2.1483  -2.1086  -1.8881  -1.7658  -1.7469  -1.6464
    -1.4264  -1.3057  -1.2393  -1.1092  -0.5271  -0.4259  -0.2377  -0.1923
    -0.1580  -0.1423  -0.0258  -0.0106   0.0879   0.2105   0.2804   0.3486
     0.4187   0.4587   0.4818   0.5504   0.6349   0.6602   0.7044   0.8476
     1.0880   1.1997   1.3033   1.3351   1.5385   1.6422   1.7416   1.7808
     1.8179   1.8907   1.9472   1.9921   2.0514   2.0768   2.1570   2.2978
     2.4819   2.6147   2.7902   2.9739   3.0212   3.0718   3.1659   3.1989
     3.2670   3.3346   3.4125   3.4512   3.5062   3.5432   3.6020   3.6723
     9.3632   9.8915  10.6301  10.9338  11.0415  11.1992  11.5806  11.7955
    11.9886  12.0246

     occupation numbers 
     1.0000   1.0000   1.0000   1.0000   1.0000   1.0000   1.0000   1.0000
     1.0000   1.0000   1.0000   1.0000   1.0000   1.0000   1.0000   1.0000
     1.0000   1.0000   1.0000   1.0000   1.0000   1.0000   1.0000   1.0000
     1.0000   1.0000   1.0000   1.0000   1.0000   1.0000   1.0000   1.0000
     1.0000   1.0000   1.0000   1.0000   1.0000   1.0000   1.0000   1.0000
     1.0000   1.0000   1.0000   1.0000   1.0000   1.0000   1.0000   1.0000
     1.0000   1.0000   1.0000   1.0000   1.0000   1.0000   1.0000   1.0000
     1.0000   1.0000   1.0000   1.0000   1.0000   1.0000   1.0000   1.0000
     1.0000   1.0000   1.0000   1.0000   1.0000   1.0000   1.0000   1.0000
     1.0000   1.0000   1.0000   1.0000   1.0000   1.0000   1.0000   1.0000
     1.0000   1.0000   1.0000   1.0000   1.0000   1.0000   1.0000   1.0000
     1.0000   1.0000   1.0000   1.0000   1.0000   1.0000   1.0000   1.0000
     1.0000   1.0000   1.0000   1.0000   1.0000   1.0000   1.0000   1.0000
     0.0000   0.0000   0.0000   0.0000   0.0000   0.0000   0.0000   0.0000
     0.0000   0.0000

          k = 0.0000 0.2391 0.0000 ( 38987 PWs)   bands (ev):

   -86.1455 -86.0634 -86.0518 -85.8441 -52.2295 -52.2031 -52.1785 -52.1127
   -52.0952 -52.0569 -52.0011 -51.9754 -51.9672 -51.9357 -51.7978 -51.6143
   -45.7351 -17.7436 -17.6919 -17.6889 -16.4576 -16.3409 -16.1761 -16.1149
   -14.2408 -14.2373 -14.1089 -14.0343 -13.9878 -13.9526 -13.9416 -13.8735
   -13.8011 -13.7824 -13.7269 -13.6540  -4.6789  -4.2461  -4.1918  -3.8491
    -2.6750  -2.3993  -2.3339  -2.1810  -1.9036  -1.8313  -1.7254  -1.7017
    -1.5507  -1.4425  -1.1643  -0.9364  -0.8860  -0.7930  -0.3535  -0.3073
    -0.2577  -0.2276  -0.1178   0.0286   0.1172   0.2547   0.3493   0.4090
     0.4980   0.5268   0.5979   0.7536   0.8976   0.9113   0.9792   1.1234
     1.2285   1.4264   1.4608   1.4644   1.5470   1.6333   1.6500   1.7508
     1.9179   1.9532   1.9965   2.0656   2.1417   2.2641   2.3892   2.4245
     2.5206   2.5297   2.5815   2.7138   2.8087   2.9460   3.0056   3.1255
     3.1488   3.2645   3.3156   3.3870   3.4274   3.5834   3.8684   3.9457
     7.9379   9.8726  10.3100  10.5649  11.0767  11.5370  11.8608  12.0342
    12.2402  12.5037

     occupation numbers 
     1.0000   1.0000   1.0000   1.0000   1.0000   1.0000   1.0000   1.0000
     1.0000   1.0000   1.0000   1.0000   1.0000   1.0000   1.0000   1.0000
     1.0000   1.0000   1.0000   1.0000   1.0000   1.0000   1.0000   1.0000
     1.0000   1.0000   1.0000   1.0000   1.0000   1.0000   1.0000   1.0000
     1.0000   1.0000   1.0000   1.0000   1.0000   1.0000   1.0000   1.0000
     1.0000   1.0000   1.0000   1.0000   1.0000   1.0000   1.0000   1.0000
     1.0000   1.0000   1.0000   1.0000   1.0000   1.0000   1.0000   1.0000
     1.0000   1.0000   1.0000   1.0000   1.0000   1.0000   1.0000   1.0000
     1.0000   1.0000   1.0000   1.0000   1.0000   1.0000   1.0000   1.0000
     1.0000   1.0000   1.0000   1.0000   1.0000   1.0000   1.0000   1.0000
     1.0000   1.0000   1.0000   1.0000   1.0000   1.0000   1.0000   1.0000
     1.0000   1.0000   1.0000   1.0000   1.0000   1.0000   1.0000   1.0000
     1.0000   1.0000   1.0000   1.0000   1.0000   1.0000   1.0000   1.0000
     0.0000   0.0000   0.0000   0.0000   0.0000   0.0000   0.0000   0.0000
     0.0000   0.0000

          k = 0.0000 0.2391 0.2415 ( 38961 PWs)   bands (ev):

   -86.1455 -86.0634 -86.0518 -85.8441 -52.2295 -52.2031 -52.1785 -52.1127
   -52.0952 -52.0569 -52.0011 -51.9754 -51.9672 -51.9357 -51.7978 -51.6143
   -45.7351 -17.7438 -17.6961 -17.6870 -16.4440 -16.3319 -16.1695 -16.1090
   -14.2592 -14.2516 -14.1215 -14.0446 -13.9990 -13.9459 -13.9329 -13.8694
   -13.8019 -13.7797 -13.7330 -13.6575  -4.6601  -4.2449  -4.1881  -3.8580
    -2.6348  -2.3714  -2.3242  -2.1653  -1.9001  -1.8460  -1.7361  -1.6447
    -1.5388  -1.4110  -1.2068  -0.9617  -0.8707  -0.7837  -0.3448  -0.3097
    -0.2434  -0.1868  -0.1253   0.0270   0.1027   0.2645   0.3220   0.4086
     0.4800   0.5271   0.6018   0.7434   0.8433   0.8795   0.9544   1.0913
     1.3278   1.3763   1.4473   1.4780   1.5312   1.5919   1.6547   1.7942
     1.8843   1.9644   2.0127   2.0545   2.1368   2.2319   2.3632   2.4192
     2.4984   2.5338   2.5929   2.6886   2.7643   2.9852   3.0249   3.1323
     3.1560   3.2827   3.3231   3.3952   3.4254   3.5931   3.8553   3.9337
     8.0750   9.9417  10.3401  10.5821  11.1308  11.4922  11.7922  12.0480
    12.2045  12.4489

     occupation numbers 
     1.0000   1.0000   1.0000   1.0000   1.0000   1.0000   1.0000   1.0000
     1.0000   1.0000   1.0000   1.0000   1.0000   1.0000   1.0000   1.0000
     1.0000   1.0000   1.0000   1.0000   1.0000   1.0000   1.0000   1.0000
     1.0000   1.0000   1.0000   1.0000   1.0000   1.0000   1.0000   1.0000
     1.0000   1.0000   1.0000   1.0000   1.0000   1.0000   1.0000   1.0000
     1.0000   1.0000   1.0000   1.0000   1.0000   1.0000   1.0000   1.0000
     1.0000   1.0000   1.0000   1.0000   1.0000   1.0000   1.0000   1.0000
     1.0000   1.0000   1.0000   1.0000   1.0000   1.0000   1.0000   1.0000
     1.0000   1.0000   1.0000   1.0000   1.0000   1.0000   1.0000   1.0000
     1.0000   1.0000   1.0000   1.0000   1.0000   1.0000   1.0000   1.0000
     1.0000   1.0000   1.0000   1.0000   1.0000   1.0000   1.0000   1.0000
     1.0000   1.0000   1.0000   1.0000   1.0000   1.0000   1.0000   1.0000
     1.0000   1.0000   1.0000   1.0000   1.0000   1.0000   1.0000   1.0000
     0.0000   0.0000   0.0000   0.0000   0.0000   0.0000   0.0000   0.0000
     0.0000   0.0000

          k = 0.0000 0.2391 0.4830 ( 38996 PWs)   bands (ev):

   -86.1455 -86.0634 -86.0518 -85.8441 -52.2295 -52.2031 -52.1785 -52.1127
   -52.0952 -52.0569 -52.0011 -51.9754 -51.9672 -51.9357 -51.7978 -51.6143
   -45.7351 -17.7445 -17.7040 -17.6848 -16.4054 -16.3100 -16.1525 -16.0954
   -14.3037 -14.2879 -14.1590 -14.0814 -14.0041 -13.9391 -13.9137 -13.8571
   -13.8034 -13.7743 -13.7456 -13.6667  -4.6057  -4.2472  -4.1774  -3.8896
    -2.5262  -2.3160  -2.2809  -2.1407  -1.8936  -1.8545  -1.7332  -1.5506
    -1.4868  -1.3347  -1.3052  -1.0463  -0.8151  -0.7442  -0.3157  -0.2909
    -0.2141  -0.1564  -0.0806   0.0233   0.1076   0.2589   0.2844   0.4020
     0.4321   0.5415   0.5903   0.6982   0.7410   0.8353   0.9047   1.0846
     1.1707   1.3251   1.4298   1.4586   1.5174   1.5525   1.7288   1.7834
     1.8883   1.9616   2.0066   2.0419   2.0933   2.1864   2.2676   2.3811
     2.4506   2.5465   2.6423   2.7308   2.7629   3.0103   3.0501   3.1639
     3.1922   3.2996   3.3448   3.4141   3.4488   3.6072   3.8156   3.8904
     8.4415  10.1219  10.3976  10.6519  11.2622  11.4238  11.6273  11.9779
    12.1020  12.2721

     occupation numbers 
     1.0000   1.0000   1.0000   1.0000   1.0000   1.0000   1.0000   1.0000
     1.0000   1.0000   1.0000   1.0000   1.0000   1.0000   1.0000   1.0000
     1.0000   1.0000   1.0000   1.0000   1.0000   1.0000   1.0000   1.0000
     1.0000   1.0000   1.0000   1.0000   1.0000   1.0000   1.0000   1.0000
     1.0000   1.0000   1.0000   1.0000   1.0000   1.0000   1.0000   1.0000
     1.0000   1.0000   1.0000   1.0000   1.0000   1.0000   1.0000   1.0000
     1.0000   1.0000   1.0000   1.0000   1.0000   1.0000   1.0000   1.0000
     1.0000   1.0000   1.0000   1.0000   1.0000   1.0000   1.0000   1.0000
     1.0000   1.0000   1.0000   1.0000   1.0000   1.0000   1.0000   1.0000
     1.0000   1.0000   1.0000   1.0000   1.0000   1.0000   1.0000   1.0000
     1.0000   1.0000   1.0000   1.0000   1.0000   1.0000   1.0000   1.0000
     1.0000   1.0000   1.0000   1.0000   1.0000   1.0000   1.0000   1.0000
     1.0000   1.0000   1.0000   1.0000   1.0000   1.0000   1.0000   1.0000
     0.0000   0.0000   0.0000   0.0000   0.0000   0.0000   0.0000   0.0000
     0.0000   0.0000

          k = 0.0000 0.2391 0.7246 ( 38953 PWs)   bands (ev):

   -86.1455 -86.0634 -86.0518 -85.8441 -52.2295 -52.2031 -52.1785 -52.1127
   -52.0952 -52.0569 -52.0011 -51.9754 -51.9672 -51.9357 -51.7978 -51.6143
   -45.7351 -17.7461 -17.7116 -17.6829 -16.3550 -16.2872 -16.1323 -16.0820
   -14.3532 -14.3288 -14.2048 -14.1282 -14.0005 -13.9338 -13.8928 -13.8420
   -13.8056 -13.7706 -13.7589 -13.6789  -4.5235  -4.2668  -4.1573  -3.9473
    -2.3963  -2.2765  -2.1979  -2.1309  -1.8906  -1.8242  -1.7167  -1.5298
    -1.4381  -1.3474  -1.2008  -1.1716  -0.7114  -0.6538  -0.3058  -0.2414
    -0.2017  -0.1604  -0.0158   0.0972   0.1481   0.2000   0.2460   0.3821
     0.4163   0.5367   0.5798   0.6034   0.6794   0.7723   0.8225   0.9062
     1.0773   1.1994   1.3456   1.4322   1.5288   1.6468   1.6748   1.7847
     1.8573   1.9420   1.9602   2.0211   2.0604   2.1104   2.1957   2.3044
     2.4486   2.5449   2.7298   2.8348   2.9123   3.0071   3.0790   3.1671
     3.2132   3.3200   3.3992   3.4125   3.5139   3.6139   3.7510   3.8156
     8.9431  10.2630  10.4550  10.8003  11.2480  11.3885  11.5897  11.8261
    11.9651  12.0472

     occupation numbers 
     1.0000   1.0000   1.0000   1.0000   1.0000   1.0000   1.0000   1.0000
     1.0000   1.0000   1.0000   1.0000   1.0000   1.0000   1.0000   1.0000
     1.0000   1.0000   1.0000   1.0000   1.0000   1.0000   1.0000   1.0000
     1.0000   1.0000   1.0000   1.0000   1.0000   1.0000   1.0000   1.0000
     1.0000   1.0000   1.0000   1.0000   1.0000   1.0000   1.0000   1.0000
     1.0000   1.0000   1.0000   1.0000   1.0000   1.0000   1.0000   1.0000
     1.0000   1.0000   1.0000   1.0000   1.0000   1.0000   1.0000   1.0000
     1.0000   1.0000   1.0000   1.0000   1.0000   1.0000   1.0000   1.0000
     1.0000   1.0000   1.0000   1.0000   1.0000   1.0000   1.0000   1.0000
     1.0000   1.0000   1.0000   1.0000   1.0000   1.0000   1.0000   1.0000
     1.0000   1.0000   1.0000   1.0000   1.0000   1.0000   1.0000   1.0000
     1.0000   1.0000   1.0000   1.0000   1.0000   1.0000   1.0000   1.0000
     1.0000   1.0000   1.0000   1.0000   1.0000   1.0000   1.0000   1.0000
     0.0000   0.0000   0.0000   0.0000   0.0000   0.0000   0.0000   0.0000
     0.0000   0.0000

          k = 0.0000 0.2391 0.9661 ( 38944 PWs)   bands (ev):

   -86.1455 -86.0634 -86.0518 -85.8441 -52.2295 -52.2031 -52.1785 -52.1127
   -52.0952 -52.0569 -52.0011 -51.9754 -51.9672 -51.9357 -51.7978 -51.6143
   -45.7351 -17.7477 -17.7157 -17.6817 -16.3139 -16.2768 -16.1189 -16.0750
   -14.3852 -14.3555 -14.2352 -14.1598 -13.9975 -13.9320 -13.8776 -13.8314
   -13.8045 -13.7821 -13.7564 -13.6885  -4.4360  -4.3116  -4.1304  -4.0062
    -2.3105  -2.2638  -2.1433  -2.1093  -1.8809  -1.7723  -1.7005  -1.6212
    -1.4103  -1.3177  -1.2370  -1.1056  -0.5787  -0.4993  -0.3715  -0.3169
    -0.1467  -0.0615   0.0116   0.0995   0.1202   0.2467   0.2854   0.3248
[...]
     atom   23 type  3   force =    -0.01773558   -0.04126716   -0.01398164
     atom   24 type  3   force =    -0.01646770    0.04351384    0.01315569
     atom   25 type  3   force =     0.01722965   -0.04435646    0.01459308
     The non-local contrib.  to forces
     atom    1 type  2   force =     0.06621638   -0.03084172   -0.02821323
     atom    2 type  1   force =     0.10160989   -0.03231219    0.09851428
     atom    3 type  1   force =     0.02073755    0.00216779    0.07671157
     atom    4 type  1   force =    -0.21271924    0.06928657   -0.06085486
     atom    5 type  1   force =    -0.00507851   -0.01465147   -0.07219695
     atom    6 type  4   force =    -0.04641621    0.00004358   -0.08465418
     atom    7 type  4   force =     0.06092423   -0.00115539   -0.05894286
     atom    8 type  4   force =     0.02565743   -0.00690380    0.08975586
     atom    9 type  4   force =    -0.02362189    0.00172829    0.08892085
     atom   10 type  3   force =     0.31578566    0.02203428   -1.51972045
     atom   11 type  3   force =    -0.10857737    0.01425634   -1.45389533
     atom   12 type  3   force =    -0.40190220   -0.01896178    1.52215096
     atom   13 type  3   force =     0.25515745    0.01737332    1.52622450
     atom   14 type  3   force =     1.25240399    0.01746801   -0.60665053
     atom   15 type  3   force =    -1.22013343   -0.02013732   -0.74088956
     atom   16 type  3   force =    -1.22900880    0.05374927    0.29626365
     atom   17 type  3   force =     1.19654652    0.00965633    0.60966096
     atom   18 type  3   force =    -0.52728466   -1.13058234    0.73120597
     atom   19 type  3   force =     0.56448562    1.16230361    0.79252537
     atom   20 type  3   force =     0.59568114   -1.15373758   -0.65769947
     atom   21 type  3   force =    -0.66270262    1.07432186   -0.57237372
     atom   22 type  3   force =     0.52351046    1.12735825   -0.62816836
     atom   23 type  3   force =    -0.52633487   -1.10388388   -0.72438445
     atom   24 type  3   force =    -0.53346334    1.14418097    0.71972414
     atom   25 type  3   force =     0.51892901   -1.21164635    0.74818473
     The ionic contribution  to forces
     atom    1 type  2   force =    -2.54226473   -0.12521814    0.95190246
     atom    2 type  1   force =     0.88293512    0.28082327   -0.44887954
     atom    3 type  1   force =    -9.38652844   -0.62505470   -0.51517766
     atom    4 type  1   force =     2.11823011   -0.89846921    0.26167421
     atom    5 type  1   force =     9.56389630    0.94592197    0.78566377
     atom    6 type  4   force =    -3.94403268    0.03822715   -0.13194489
     atom    7 type  4   force =     1.06579193   -0.84323957    0.10427659
     atom    8 type  4   force =     5.22244481    0.03372499    0.00629410
     atom    9 type  4   force =    -2.90630406    0.94958688   -0.26693884
     atom   10 type  3   force =   -10.04455292   -0.07380473    2.87056595
     atom   11 type  3   force =     4.04535348   -1.33095044    1.63047013
     atom   12 type  3   force =    11.69681731    0.18749006   -2.96462400
     atom   13 type  3   force =    -7.84217745    1.08058138   -2.52712204
     atom   14 type  3   force =     0.38187338    1.11701092    4.75294053
     atom   15 type  3   force =    -2.02865134    0.11536904    6.15856488
     atom   16 type  3   force =    -1.58526198   -1.94899043   -1.94910620
     atom   17 type  3   force =     3.41515289   -0.11154406   -5.43644449
     atom   18 type  3   force =    -4.23476838    2.72307402   -2.64632769
     atom   19 type  3   force =     1.30682773   -3.58663670   -2.66312196
     atom   20 type  3   force =     5.38169928    4.00291878    2.26988694
     atom   21 type  3   force =     0.34071416   -1.25269401    0.07919592
     atom   22 type  3   force =     5.31572176   -3.90062567    1.89326594
     atom   23 type  3   force =    -2.25403710    1.94394326    2.19853171
     atom   24 type  3   force =    -4.44881373   -2.87801867   -2.58004151
     atom   25 type  3   force =     0.47993457    4.15657460   -1.83350429
     The local contribution  to forces
     atom    1 type  2   force =     2.47170986    0.16817126   -0.92731905
     atom    2 type  1   force =    -0.98304389   -0.24674136    0.35094265
     atom    3 type  1   force =     9.35648271    0.62232346    0.44137653
     atom    4 type  1   force =    -1.90101294    0.82508272   -0.20006526
     atom    5 type  1   force =    -9.54906327   -0.93135408   -0.71657147
     atom    6 type  4   force =     3.97026924   -0.03776442    0.17493213
     atom    7 type  4   force =    -1.10938105    0.84080270   -0.08411127
     atom    8 type  4   force =    -5.23238483   -0.02697422   -0.05268261
     atom    9 type  4   force =     2.91143442   -0.94973116    0.21832882
     atom   10 type  3   force =     9.74640090    0.05179177   -1.35867062
     atom   11 type  3   force =    -3.94558488    1.31760498   -0.18283608
     atom   12 type  3   force =   -11.31328700   -0.16988768    1.44910418
     atom   13 type  3   force =     7.60118728   -1.09808839    1.01058265
     atom   14 type  3   force =    -1.57103971   -1.13506666   -4.16514055
     atom   15 type  3   force =     3.19062672   -0.09595837   -5.44387048
     atom   16 type  3   force =     2.74798802    1.89603368    1.66448175
     atom   17 type  3   force =    -4.55364710    0.10211222    4.84695387
     atom   18 type  3   force =     4.74048566   -1.64648677    1.93610836
     atom   19 type  3   force =    -1.84774502    2.47668831    1.89462613
     atom   20 type  3   force =    -5.95232793   -2.90368918   -1.63105200
     atom   21 type  3   force =     0.29581788    0.22970624    0.47796683
     atom   22 type  3   force =    -5.81661584    2.82450801   -1.28323535
     atom   23 type  3   force =     2.75777978   -0.89157797   -1.49510313
     atom   24 type  3   force =     4.96086997    1.78798207    1.88031448
     atom   25 type  3   force =    -0.97690320   -3.00055256    1.10706420
     The core correction contribution to forces
     atom    1 type  2   force =     0.00000000    0.00000000    0.00000000
     atom    2 type  1   force =    -0.00131677    0.00023090   -0.00063467
     atom    3 type  1   force =     0.00016388   -0.00005162   -0.00001116
     atom    4 type  1   force =     0.00343175   -0.00065219   -0.00019828
     atom    5 type  1   force =    -0.00032191    0.00018128    0.00027921
     atom    6 type  4   force =     0.00392120   -0.00001326    0.00757227
     atom    7 type  4   force =    -0.00475418    0.00029557    0.00564444
     atom    8 type  4   force =    -0.00249834    0.00042275   -0.00791287
     atom    9 type  4   force =     0.00222547   -0.00056549   -0.00761566
     atom   10 type  3   force =    -0.00364514   -0.00020782    0.01330645
     atom   11 type  3   force =     0.00175628   -0.00012763    0.01257965
     atom   12 type  3   force =     0.00442176    0.00020476   -0.01326406
     atom   13 type  3   force =    -0.00309432   -0.00016097   -0.01334093
     atom   14 type  3   force =    -0.01150732   -0.00019422    0.00615148
     atom   15 type  3   force =     0.01122465    0.00019868    0.00739688
     atom   16 type  3   force =     0.01125378   -0.00045341   -0.00315051
     atom   17 type  3   force =    -0.01107911   -0.00009378   -0.00614997
     atom   18 type  3   force =     0.00487528    0.01047862   -0.00698460
     atom   19 type  3   force =    -0.00519314   -0.01070195   -0.00759997
     atom   20 type  3   force =    -0.00559315    0.01070206    0.00623512
     atom   21 type  3   force =     0.00615017   -0.01000920    0.00546309
     atom   22 type  3   force =    -0.00488821   -0.01043731    0.00595645
     atom   23 type  3   force =     0.00486018    0.01025012    0.00697631
     atom   24 type  3   force =     0.00493819   -0.01062491   -0.00684302
     atom   25 type  3   force =    -0.00472682    0.01127292   -0.00714712
     The Hubbard contrib.    to forces
     atom    1 type  2   force =     0.00000000    0.00000000    0.00000000
     atom    2 type  1   force =     0.00000000    0.00000000    0.00000000
     atom    3 type  1   force =     0.00000000    0.00000000    0.00000000
     atom    4 type  1   force =     0.00000000    0.00000000    0.00000000
     atom    5 type  1   force =     0.00000000    0.00000000    0.00000000
     atom    6 type  4   force =     0.00000000    0.00000000    0.00000000
     atom    7 type  4   force =     0.00000000    0.00000000    0.00000000
     atom    8 type  4   force =     0.00000000    0.00000000    0.00000000
     atom    9 type  4   force =     0.00000000    0.00000000    0.00000000
     atom   10 type  3   force =     0.00000000    0.00000000    0.00000000
     atom   11 type  3   force =     0.00000000    0.00000000    0.00000000
     atom   12 type  3   force =     0.00000000    0.00000000    0.00000000
     atom   13 type  3   force =     0.00000000    0.00000000    0.00000000
     atom   14 type  3   force =     0.00000000    0.00000000    0.00000000
     atom   15 type  3   force =     0.00000000    0.00000000    0.00000000
     atom   16 type  3   force =     0.00000000    0.00000000    0.00000000
     atom   17 type  3   force =     0.00000000    0.00000000    0.00000000
     atom   18 type  3   force =     0.00000000    0.00000000    0.00000000
     atom   19 type  3   force =     0.00000000    0.00000000    0.00000000
     atom   20 type  3   force =     0.00000000    0.00000000    0.00000000
     atom   21 type  3   force =     0.00000000    0.00000000    0.00000000
     atom   22 type  3   force =     0.00000000    0.00000000    0.00000000
     atom   23 type  3   force =     0.00000000    0.00000000    0.00000000
     atom   24 type  3   force =     0.00000000    0.00000000    0.00000000
     atom   25 type  3   force =     0.00000000    0.00000000    0.00000000
     The SCF correction term to forces
     atom    1 type  2   force =    -0.00000615   -0.00000109   -0.00000001
     atom    2 type  1   force =    -0.00000336    0.00000042    0.00000034
     atom    3 type  1   force =     0.00000166   -0.00000034   -0.00000040
     atom    4 type  1   force =    -0.00000109   -0.00000106    0.00000069
     atom    5 type  1   force =    -0.00000162    0.00000084    0.00000063
     atom    6 type  4   force =     0.00000332    0.00000008    0.00000048
     atom    7 type  4   force =    -0.00000337   -0.00000003   -0.00000029
     atom    8 type  4   force =     0.00000289   -0.00000016   -0.00000022
     atom    9 type  4   force =    -0.00000239    0.00000038    0.00000003
     atom   10 type  3   force =     0.00000075    0.00000005   -0.00000202
     atom   11 type  3   force =    -0.00000670   -0.00000013    0.00000286
     atom   12 type  3   force =     0.00000349   -0.00000015   -0.00000040
     atom   13 type  3   force =    -0.00000489    0.00000013    0.00000136
     atom   14 type  3   force =    -0.00000104    0.00000007    0.00000123
     atom   15 type  3   force =     0.00001012   -0.00000015   -0.00000149
     atom   16 type  3   force =    -0.00000468   -0.00000016   -0.00000018
     atom   17 type  3   force =     0.00000667    0.00000006   -0.00000050
     atom   18 type  3   force =     0.00000164    0.00000613    0.00000299
     atom   19 type  3   force =    -0.00000334    0.00000545   -0.00000313
     atom   20 type  3   force =     0.00000142   -0.00000167    0.00000069
     atom   21 type  3   force =    -0.00000322   -0.00000081   -0.00000081
     atom   22 type  3   force =     0.00000148    0.00000161    0.00000065
     atom   23 type  3   force =    -0.00000323    0.00000101   -0.00000073
     atom   24 type  3   force =     0.00000155   -0.00000593    0.00000295
     atom   25 type  3   force =    -0.00000357   -0.00000537   -0.00000309

     Total force =     0.189830     Total SCF correction =     0.000024


     Computing stress (Cartesian axis) and pressure


     negative rho (up, down):  0.000E+00 9.821E-04
          total   stress  (Ry/bohr**3)                   (kbar)     P=     -107.25
  -0.00111235  -0.00000373  -0.00002104         -163.63       -0.55       -3.10
  -0.00000373  -0.00081791  -0.00001498           -0.55     -120.32       -2.20
  -0.00002104  -0.00001498  -0.00025699           -3.10       -2.20      -37.80

     kinetic stress (kbar)  24476.55     -8.24     -7.82
                               -8.24  24709.46     -4.31
                               -7.82     -4.31  24599.41

     local   stress (kbar)  -4580.72  -1564.98    979.26
                            -1564.98 -13518.33    607.72
                              979.26    607.72  -8810.52

     nonloc. stress (kbar)  -6217.08     -1.50     -1.62
                               -1.50  -6168.21      0.70
                               -1.62      0.70  -6163.63

     hartree stress (kbar)  11832.56    637.05   -395.87
                              637.05  16780.63   -244.42
                             -395.87   -244.42  14256.52

     exc-cor stress (kbar)  -2602.54      0.86     -0.78
                                0.86  -2609.47     -0.38
                               -0.78     -0.38  -2606.74

     corecor stress (kbar)  -2914.63     -0.21      0.91
                               -0.21  -2914.70      0.03
                                0.91      0.03  -2917.26

     ewald   stress (kbar) -20157.78    936.46   -577.19
                              936.46 -16399.71   -361.54
                             -577.19   -361.54 -18395.59

     hubbard stress (kbar)      0.00      0.00      0.00
                                0.00      0.00      0.00
                                0.00      0.00      0.00

     DFT-D   stress (kbar)      0.00      0.00      0.00
                                0.00      0.00      0.00
                                0.00      0.00      0.00

     XDM     stress (kbar)      0.00      0.00      0.00
                                0.00      0.00      0.00
                                0.00      0.00      0.00

     dft-nl  stress (kbar)      0.00      0.00      0.00
                                0.00      0.00      0.00
                                0.00      0.00      0.00

     TS-vdW  stress (kbar)      0.00      0.00      0.00
                                0.00      0.00      0.00
                                0.00      0.00      0.00



     init_run     :    205.80s CPU    210.05s WALL (       1 calls)
     electrons    :  20029.60s CPU  20266.16s WALL (       1 calls)
     forces       :    130.33s CPU    131.81s WALL (       1 calls)
     stress       :    849.59s CPU    853.55s WALL (       1 calls)

     Called by init_run:
     wfcinit      :    195.00s CPU    198.33s WALL (       1 calls)
     wfcinit:atom :      3.36s CPU      3.38s WALL (     316 calls)
     wfcinit:wfcr :    180.09s CPU    183.33s WALL (     316 calls)
     potinit      :      3.63s CPU      3.79s WALL (       1 calls)
     hinit0       :      3.60s CPU      3.69s WALL (       1 calls)

     Called by electrons:
     c_bands      :  17728.25s CPU  17879.76s WALL (      38 calls)
     sum_band     :   2177.86s CPU   2236.28s WALL (      38 calls)
     v_of_rho     :     36.76s CPU     37.88s WALL (      39 calls)
     v_h          :      1.99s CPU      2.08s WALL (      39 calls)
     v_xc         :     36.65s CPU     37.72s WALL (      41 calls)
     newd         :     58.75s CPU     84.21s WALL (      39 calls)
     PAW_pot      :     16.96s CPU     17.03s WALL (      39 calls)
     mix_rho      :      9.55s CPU      9.88s WALL (      38 calls)

     Called by c_bands:
     init_us_2    :    385.19s CPU    387.36s WALL (   24964 calls)
     cegterg      :  17136.35s CPU  17283.89s WALL (   12008 calls)

     Called by sum_band:
     sum_band:wei :      0.64s CPU      0.64s WALL (      38 calls)
     sum_band:loo :   1983.49s CPU   2007.89s WALL (      38 calls)
     sum_band:buf :    101.77s CPU    102.50s WALL (   12008 calls)
     sum_band:ini :    186.13s CPU    187.09s WALL (   12008 calls)
     sum_band:cal :    902.92s CPU    909.13s WALL (   12008 calls)
     sum_band:bec :      6.27s CPU      6.37s WALL (   12008 calls)
     addusdens    :    183.61s CPU    217.33s WALL (      38 calls)
     addusd:skk   :      1.33s CPU      1.36s WALL (     114 calls)
     addusd:dgemm :     80.12s CPU    107.20s WALL (     228 calls)
     addusd:qvan2 :     99.20s CPU     99.73s WALL (     228 calls)

     Called by *egterg:
     cdiaghg      :    983.75s CPU   1007.81s WALL (   43570 calls)
     cegterg:over :   1632.57s CPU   1646.58s WALL (   31562 calls)
     cegterg:upda :    989.97s CPU    991.69s WALL (   31562 calls)
     cegterg:last :   1956.65s CPU   1959.42s WALL (   19717 calls)
     h_psi        :   8401.30s CPU   8498.09s WALL (   43886 calls)
     s_psi        :   2180.93s CPU   2184.39s WALL (   43886 calls)
     g_psi        :     19.55s CPU     19.72s WALL (   31562 calls)

     Called by h_psi:
     h_psi:calbec :   2299.97s CPU   2316.22s WALL (   43886 calls)
     vloc_psi     :   3500.41s CPU   3574.01s WALL (   43886 calls)
     add_vuspsi   :   2381.51s CPU   2386.04s WALL (   43886 calls)

     General routines
     calbec       :   3314.36s CPU   3337.83s WALL (   57474 calls)
     fft          :     35.65s CPU     37.38s WALL (    1013 calls)
     ffts         :      0.52s CPU      0.62s WALL (     154 calls)
     fftw         :   3968.03s CPU   4050.80s WALL ( 7357478 calls)
     interpolate  :      2.74s CPU      2.97s WALL (      78 calls)

     Parallel routines
     fft_scatt_xy :    385.61s CPU    393.46s WALL ( 7358645 calls)
     fft_scatt_yz :   1221.22s CPU   1250.40s WALL ( 7358645 calls)

     PAW routines
     PAW_pot      :     16.96s CPU     17.03s WALL (      39 calls)

     PWSCF        :      5h53m CPU      5h57m WALL


   This run was terminated on:  10:32:11  19Dec2022            

=------------------------------------------------------------------------------=
   JOB DONE.
=------------------------------------------------------------------------------=
Note: The following floating-point exceptions are signalling: IEEE_DENORMAL
Note: The following floating-point exceptions are signalling: IEEE_DENORMAL
Note: The following floating-point exceptions are signalling: IEEE_DENORMAL
Note: The following floating-point exceptions are signalling: IEEE_DENORMAL
Note: The following floating-point exceptions are signalling: IEEE_DENORMAL
Note: The following floating-point exceptions are signalling: IEEE_DENORMAL
Note: The following floating-point exceptions are signalling: IEEE_DENORMAL
Note: The following floating-point exceptions are signalling: IEEE_INVALID_FLAG IEEE_DENORMAL
Note: The following floating-point exceptions are signalling: IEEE_DENORMAL
Note: The following floating-point exceptions are signalling: IEEE_DENORMAL
Note: The following floating-point exceptions are signalling: IEEE_INVALID_FLAG IEEE_DENORMAL
Note: The following floating-point exceptions are signalling: IEEE_DENORMAL
Note: The following floating-point exceptions are signalling: IEEE_DENORMAL
Note: The following floating-point exceptions are signalling: IEEE_DENORMAL
Note: The following floating-point exceptions are signalling: IEEE_DENORMAL
Note: The following floating-point exceptions are signalling: IEEE_INVALID_FLAG IEEE_DENORMAL
Note: The following floating-point exceptions are signalling: IEEE_DENORMAL
Note: The following floating-point exceptions are signalling: IEEE_DENORMAL
Note: The following floating-point exceptions are signalling: IEEE_DENORMAL
Note: The following floating-point exceptions are signalling: IEEE_DENORMAL
Note: The following floating-point exceptions are signalling: IEEE_DENORMAL
Note: The following floating-point exceptions are signalling: IEEE_DENORMAL
Note: The following floating-point exceptions are signalling: IEEE_UNDERFLOW_FLAG IEEE_DENORMAL
