
     Program PWSCF v.6.7MaX starts on 19Dec2022 at  7:54:28 

     This program is part of the open-source Quantum ESPRESSO suite
     for quantum simulation of materials; please cite
         "P. Giannozzi et al., J. Phys.:Condens. Matter 21 395502 (2009);
         "P. Giannozzi et al., J. Phys.:Condens. Matter 29 465901 (2017);
          URL http://www.quantum-espresso.org", 
     in publications or presentations arising from this work. More details at
     http://www.quantum-espresso.org/quote

     Parallel version (MPI), running on    24 processors

     MPI processes distributed on     1 nodes
     R & G space division:  proc/nbgrp/npool/nimage =      24
     Reading input from scale_3d-00.in

     Current dimensions of program PWSCF are:
     Max number of different atomic species (ntypx) = 10
     Max number of k-points (npk) =  40000
     Max angular momentum in pseudopotentials (lmaxx) =  3
     Message from routine read_pp_mesh:
     mesh size missing, using the one in header
     file Fe.pbe-spn-kjpaw_psl.0.2.1.UPF: wavefunction(s)  3D renormalized
     file O.pbe-n-kjpaw_psl.0.1.UPF: wavefunction(s)  2P renormalized

     Subspace diagonalization in iterative solution of the eigenvalue problem:
     a serial algorithm will be used


     Parallelization info
     --------------------
     sticks:   dense  smooth     PW     G-vecs:    dense   smooth      PW
     Min         746     276     74                46254    10430    1473
     Max         748     277     76                46255    10433    1475
     Sum       17927    6645   1805              1110111   250361   35385



     bravais-lattice index     =            0
     lattice parameter (alat)  =      18.6818  a.u.
     unit-cell volume          =    1852.2367 (a.u.)^3
     number of atoms/cell      =           25
     number of atomic types    =            4
     number of electrons       =       189.00
     number of Kohn-Sham states=          114
     kinetic-energy cutoff     =     100.0000  Ry
     charge density cutoff     =    1080.0000  Ry
     scf convergence threshold =      2.0E-10
     mixing beta               =       0.4000
     number of iterations used =            8  plain     mixing
     Exchange-correlation= PBE
                           (   1   4   3   4   0   0   0)

     celldm(1)=  18.681804  celldm(2)=   0.000000  celldm(3)=   0.000000
     celldm(4)=   0.000000  celldm(5)=   0.000000  celldm(6)=   0.000000

     crystal axes: (cart. coord. in units of alat)
               a(1) = (   1.000000   0.000000   0.000000 )  
               a(2) = (   0.000000   0.597590   0.000000 )  
               a(3) = (   0.000000   0.000000   0.475375 )  

     reciprocal axes: (cart. coord. in units 2 pi/alat)
               b(1) = (  1.000000  0.000000  0.000000 )  
               b(2) = (  0.000000  1.673388  0.000000 )  
               b(3) = (  0.000000  0.000000  2.103600 )  


     PseudoPot. # 1 for Fe read from file:
     /opt/QEpot/SSSP_precision_pseudos/Fe.pbe-spn-kjpaw_psl.0.2.1.UPF
     MD5 check sum: e86618425769142926afa95317d90200
     Pseudo is Projector augmented-wave + core cor, Zval = 16.0
     Generated using "atomic" code by A. Dal Corso  v.5.0.99 svn rev. 10869
     Shape of augmentation charge: PSQ
     Using radial grid of 1191 points,  6 beta functions with: 
                l(1) =   0
                l(2) =   0
                l(3) =   1
                l(4) =   1
                l(5) =   2
                l(6) =   2
     Q(r) pseudized with 0 coefficients 


     PseudoPot. # 2 for Na read from file:
     /opt/QEpot/SSSP_precision_pseudos/Na_ONCV_PBE-1.0.oncvpsp.upf
     MD5 check sum: 24a298df0a6742ae313db96548fdb2a4
     Pseudo is Norm-conserving, Zval =  9.0
     Generated using ONCVPSP code by D. R. Hamann
     Using radial grid of 1992 points,  4 beta functions with: 
                l(1) =   0
                l(2) =   0
                l(3) =   1
                l(4) =   1

     PseudoPot. # 3 for O  read from file:
     /opt/QEpot/SSSP_precision_pseudos/O.pbe-n-kjpaw_psl.0.1.UPF
     MD5 check sum: 0234752ac141de4415c5fc33072bef88
     Pseudo is Projector augmented-wave + core cor, Zval =  6.0
     Generated using "atomic" code by A. Dal Corso  v.5.0.99 svn rev. 10869
     Shape of augmentation charge: BESSEL
     Using radial grid of 1095 points,  4 beta functions with: 
                l(1) =   0
                l(2) =   0
                l(3) =   1
                l(4) =   1
     Q(r) pseudized with 0 coefficients 


     PseudoPot. # 4 for P  read from file:
     /opt/QEpot/SSSP_precision_pseudos/P.pbe-n-rrkjus_psl.1.0.0.UPF
     MD5 check sum: 8b930f418f0a4573dca56cd030ffe088
     Pseudo is Ultrasoft + core correction, Zval =  5.0
     Generated using "atomic" code by A. Dal Corso  v.5.1
     Using radial grid of 1147 points,  6 beta functions with: 
                l(1) =   0
                l(2) =   0
                l(3) =   1
                l(4) =   1
                l(5) =   2
                l(6) =   2
     Q(r) pseudized with 0 coefficients 


     atomic species   valence    mass     pseudopotential
        Fe            16.00    55.84500     Fe( 1.00)
        Na             9.00    22.98977     Na( 1.00)
        O              6.00    15.99940     O ( 1.00)
        P              5.00    30.97376     P ( 1.00)

     Starting magnetic structure 
     atomic species   magnetization
        Fe           0.312
        Na           0.000
        O            0.000
        P            0.000

     No symmetry found


                                    s                        frac. trans.

      isym =  1     identity                                     

 cryst.   s( 1) = (     1          0          0      )
                  (     0          1          0      )
                  (     0          0          1      )

 cart.    s( 1) = (  1.0000000  0.0000000  0.0000000 )
                  (  0.0000000  1.0000000  0.0000000 )
                  (  0.0000000  0.0000000  1.0000000 )


   Cartesian axes

     site n.     atom                  positions (alat units)
         1           Na  tau(   1) = (   0.5426070   0.2128436   0.2217517  )
         2           Fe  tau(   2) = (   0.2774940   0.4470463   0.4716737  )
         3           Fe  tau(   3) = (   0.2102570   0.1474894   0.2332097  )
         4           Fe  tau(   4) = (   0.7280950   0.1429740   0.0019267  )
         5           Fe  tau(   5) = (   0.7825800   0.4492579   0.2433694  )
         6           P   tau(   6) = (   0.1059480   0.4466847   0.2111038  )
         7           P   tau(   7) = (   0.3878490   0.1453225   0.4484426  )
         8           P   tau(   8) = (   0.8915560   0.1489463   0.2648222  )
         9           P   tau(   9) = (   0.6054980   0.4477962   0.0284869  )
        10           O   tau(  10) = (   0.1317880   0.4455690   0.3570436  )
        11           O   tau(  11) = (   0.3634070   0.1482621   0.1192698  )
        12           O   tau(  12) = (   0.8709790   0.1483487   0.1182672  )
        13           O   tau(  13) = (   0.6302560   0.4446272   0.3576407  )
        14           O   tau(  14) = (   0.4595490   0.4446744   0.0576764  )
        15           O   tau(  15) = (   0.0359180   0.1497602   0.2976972  )
        16           O   tau(  16) = (   0.5363260   0.1462476   0.4260871  )
        17           O   tau(  17) = (   0.9593080   0.4466351   0.1854235  )
        18           O   tau(  18) = (   0.1746370   0.5639193   0.1431931  )
        19           O   tau(  19) = (   0.3201300   0.0290638   0.3806089  )
        20           O   tau(  20) = (   0.8159810   0.2631643   0.3307458  )
        21           O   tau(  21) = (   0.6759000   0.3315447   0.0980638  )
        22           O   tau(  22) = (   0.8190690   0.0322555   0.3311613  )
        23           O   tau(  23) = (   0.6753190   0.5647093   0.0965107  )
        24           O   tau(  24) = (   0.1755980   0.3306919   0.1419619  )
        25           O   tau(  25) = (   0.3240220   0.2622243   0.3760928  )

   Crystallographic axes

     site n.     atom                  positions (cryst. coord.)
         1           Na  tau(   1) = (  0.5426070  0.3561700  0.4664770  )
         2           Fe  tau(   2) = (  0.2774940  0.7480820  0.9922130  )
         3           Fe  tau(   3) = (  0.2102570  0.2468070  0.4905800  )
         4           Fe  tau(   4) = (  0.7280950  0.2392510  0.0040530  )
         5           Fe  tau(   5) = (  0.7825800  0.7517830  0.5119520  )
         6           P   tau(   6) = (  0.1059480  0.7474770  0.4440780  )
         7           P   tau(   7) = (  0.3878490  0.2431810  0.9433440  )
         8           P   tau(   8) = (  0.8915560  0.2492450  0.5570800  )
         9           P   tau(   9) = (  0.6054980  0.7493370  0.0599250  )
        10           O   tau(  10) = (  0.1317880  0.7456100  0.7510770  )
        11           O   tau(  11) = (  0.3634070  0.2481000  0.2508960  )
        12           O   tau(  12) = (  0.8709790  0.2482450  0.2487870  )
        13           O   tau(  13) = (  0.6302560  0.7440340  0.7523330  )
        14           O   tau(  14) = (  0.4595490  0.7441130  0.1213280  )
        15           O   tau(  15) = (  0.0359180  0.2506070  0.6262360  )
        16           O   tau(  16) = (  0.5363260  0.2447290  0.8963170  )
        17           O   tau(  17) = (  0.9593080  0.7473940  0.3900570  )
        18           O   tau(  18) = (  0.1746370  0.9436560  0.3012210  )
        19           O   tau(  19) = (  0.3201300  0.0486350  0.8006490  )
        20           O   tau(  20) = (  0.8159810  0.4403760  0.6957570  )
        21           O   tau(  21) = (  0.6759000  0.5548030  0.2062870  )
        22           O   tau(  22) = (  0.8190690  0.0539760  0.6966310  )
        23           O   tau(  23) = (  0.6753190  0.9449780  0.2030200  )
        24           O   tau(  24) = (  0.1755980  0.5533760  0.2986310  )
        25           O   tau(  25) = (  0.3240220  0.4388030  0.7911490  )

     number of k points=   158  Marzari-Vanderbilt smearing, width (Ry)=  0.0073
                       cart. coord. in units 2pi/alat
        k(    1) = (   0.0000000   0.0000000   0.0000000), wk =   0.0031746
        k(    2) = (   0.0000000   0.0000000   0.2337334), wk =   0.0063492
        k(    3) = (   0.0000000   0.0000000   0.4674667), wk =   0.0063492
        k(    4) = (   0.0000000   0.0000000   0.7012001), wk =   0.0063492
        k(    5) = (   0.0000000   0.0000000   0.9349334), wk =   0.0063492
        k(    6) = (   0.0000000   0.2390555   0.0000000), wk =   0.0063492
        k(    7) = (   0.0000000   0.2390555   0.2337334), wk =   0.0063492
        k(    8) = (   0.0000000   0.2390555   0.4674667), wk =   0.0063492
        k(    9) = (   0.0000000   0.2390555   0.7012001), wk =   0.0063492
        k(   10) = (   0.0000000   0.2390555   0.9349334), wk =   0.0063492
        k(   11) = (   0.0000000   0.4781110   0.0000000), wk =   0.0063492
        k(   12) = (   0.0000000   0.4781110   0.2337334), wk =   0.0063492
        k(   13) = (   0.0000000   0.4781110   0.4674667), wk =   0.0063492
        k(   14) = (   0.0000000   0.4781110   0.7012001), wk =   0.0063492
        k(   15) = (   0.0000000   0.4781110   0.9349334), wk =   0.0063492
        k(   16) = (   0.0000000   0.7171664   0.0000000), wk =   0.0063492
        k(   17) = (   0.0000000   0.7171664   0.2337334), wk =   0.0063492
        k(   18) = (   0.0000000   0.7171664   0.4674667), wk =   0.0063492
        k(   19) = (   0.0000000   0.7171664   0.7012001), wk =   0.0063492
        k(   20) = (   0.0000000   0.7171664   0.9349334), wk =   0.0063492
        k(   21) = (   0.2000000   0.0000000   0.0000000), wk =   0.0063492
        k(   22) = (   0.2000000   0.0000000   0.2337334), wk =   0.0063492
        k(   23) = (   0.2000000   0.0000000   0.4674667), wk =   0.0063492
        k(   24) = (   0.2000000   0.0000000   0.7012001), wk =   0.0063492
        k(   25) = (   0.2000000   0.0000000   0.9349334), wk =   0.0063492
        k(   26) = (   0.2000000   0.2390555   0.0000000), wk =   0.0063492
        k(   27) = (   0.2000000   0.2390555   0.2337334), wk =   0.0063492
        k(   28) = (   0.2000000   0.2390555   0.4674667), wk =   0.0063492
        k(   29) = (   0.2000000   0.2390555   0.7012001), wk =   0.0063492
        k(   30) = (   0.2000000   0.2390555   0.9349334), wk =   0.0063492
        k(   31) = (   0.2000000   0.4781110   0.0000000), wk =   0.0063492
        k(   32) = (   0.2000000   0.4781110   0.2337334), wk =   0.0063492
        k(   33) = (   0.2000000   0.4781110   0.4674667), wk =   0.0063492
        k(   34) = (   0.2000000   0.4781110   0.7012001), wk =   0.0063492
        k(   35) = (   0.2000000   0.4781110   0.9349334), wk =   0.0063492
        k(   36) = (   0.2000000   0.7171664   0.0000000), wk =   0.0063492
        k(   37) = (   0.2000000   0.7171664   0.2337334), wk =   0.0063492
        k(   38) = (   0.2000000   0.7171664   0.4674667), wk =   0.0063492
        k(   39) = (   0.2000000   0.7171664   0.7012001), wk =   0.0063492
        k(   40) = (   0.2000000   0.7171664   0.9349334), wk =   0.0063492
        k(   41) = (   0.4000000   0.0000000   0.0000000), wk =   0.0063492
        k(   42) = (   0.4000000   0.0000000   0.2337334), wk =   0.0063492
        k(   43) = (   0.4000000   0.0000000   0.4674667), wk =   0.0063492
        k(   44) = (   0.4000000   0.0000000   0.7012001), wk =   0.0063492
        k(   45) = (   0.4000000   0.0000000   0.9349334), wk =   0.0063492
        k(   46) = (   0.4000000   0.2390555   0.0000000), wk =   0.0063492
        k(   47) = (   0.4000000   0.2390555   0.2337334), wk =   0.0063492
        k(   48) = (   0.4000000   0.2390555   0.4674667), wk =   0.0063492
        k(   49) = (   0.4000000   0.2390555   0.7012001), wk =   0.0063492
        k(   50) = (   0.4000000   0.2390555   0.9349334), wk =   0.0063492
        k(   51) = (   0.4000000   0.4781110   0.0000000), wk =   0.0063492
        k(   52) = (   0.4000000   0.4781110   0.2337334), wk =   0.0063492
        k(   53) = (   0.4000000   0.4781110   0.4674667), wk =   0.0063492
        k(   54) = (   0.4000000   0.4781110   0.7012001), wk =   0.0063492
        k(   55) = (   0.4000000   0.4781110   0.9349334), wk =   0.0063492
        k(   56) = (   0.4000000   0.7171664   0.0000000), wk =   0.0063492
        k(   57) = (   0.4000000   0.7171664   0.2337334), wk =   0.0063492
        k(   58) = (   0.4000000   0.7171664   0.4674667), wk =   0.0063492
        k(   59) = (   0.4000000   0.7171664   0.7012001), wk =   0.0063492
        k(   60) = (   0.4000000   0.7171664   0.9349334), wk =   0.0063492
        k(   61) = (   0.0000000  -0.2390555   0.2337334), wk =   0.0063492
        k(   62) = (   0.0000000  -0.2390555   0.4674667), wk =   0.0063492
        k(   63) = (   0.0000000  -0.2390555   0.7012001), wk =   0.0063492
        k(   64) = (   0.0000000  -0.2390555   0.9349334), wk =   0.0063492
        k(   65) = (   0.0000000  -0.4781110   0.2337334), wk =   0.0063492
        k(   66) = (   0.0000000  -0.4781110   0.4674667), wk =   0.0063492
        k(   67) = (   0.0000000  -0.4781110   0.7012001), wk =   0.0063492
        k(   68) = (   0.0000000  -0.4781110   0.9349334), wk =   0.0063492
        k(   69) = (   0.0000000  -0.7171664   0.2337334), wk =   0.0063492
        k(   70) = (   0.0000000  -0.7171664   0.4674667), wk =   0.0063492
        k(   71) = (   0.0000000  -0.7171664   0.7012001), wk =   0.0063492
        k(   72) = (   0.0000000  -0.7171664   0.9349334), wk =   0.0063492
        k(   73) = (  -0.2000000   0.0000000   0.2337334), wk =   0.0063492
        k(   74) = (  -0.2000000   0.0000000   0.4674667), wk =   0.0063492
        k(   75) = (  -0.2000000   0.0000000   0.7012001), wk =   0.0063492
        k(   76) = (  -0.2000000   0.0000000   0.9349334), wk =   0.0063492
        k(   77) = (  -0.2000000   0.2390555   0.0000000), wk =   0.0063492
        k(   78) = (  -0.2000000  -0.2390555   0.2337334), wk =   0.0063492
        k(   79) = (  -0.2000000   0.2390555  -0.2337334), wk =   0.0063492
        k(   80) = (   0.2000000  -0.2390555  -0.2337334), wk =   0.0063492
        k(   81) = (  -0.2000000  -0.2390555   0.4674667), wk =   0.0063492
        k(   82) = (  -0.2000000   0.2390555  -0.4674667), wk =   0.0063492
        k(   83) = (   0.2000000  -0.2390555  -0.4674667), wk =   0.0063492
        k(   84) = (  -0.2000000  -0.2390555   0.7012001), wk =   0.0063492
        k(   85) = (  -0.2000000   0.2390555  -0.7012001), wk =   0.0063492
        k(   86) = (   0.2000000  -0.2390555  -0.7012001), wk =   0.0063492
        k(   87) = (  -0.2000000  -0.2390555   0.9349334), wk =   0.0063492
        k(   88) = (  -0.2000000   0.2390555  -0.9349334), wk =   0.0063492
        k(   89) = (   0.2000000  -0.2390555  -0.9349334), wk =   0.0063492
        k(   90) = (  -0.2000000   0.4781110   0.0000000), wk =   0.0063492
        k(   91) = (  -0.2000000  -0.4781110   0.2337334), wk =   0.0063492
        k(   92) = (  -0.2000000   0.4781110  -0.2337334), wk =   0.0063492
        k(   93) = (   0.2000000  -0.4781110  -0.2337334), wk =   0.0063492
        k(   94) = (  -0.2000000  -0.4781110   0.4674667), wk =   0.0063492
        k(   95) = (  -0.2000000   0.4781110  -0.4674667), wk =   0.0063492
        k(   96) = (   0.2000000  -0.4781110  -0.4674667), wk =   0.0063492
        k(   97) = (  -0.2000000  -0.4781110   0.7012001), wk =   0.0063492
        k(   98) = (  -0.2000000   0.4781110  -0.7012001), wk =   0.0063492
        k(   99) = (   0.2000000  -0.4781110  -0.7012001), wk =   0.0063492
        k(  100) = (  -0.2000000  -0.4781110   0.9349334), wk =   0.0063492
        k(  101) = (  -0.2000000   0.4781110  -0.9349334), wk =   0.0063492
        k(  102) = (   0.2000000  -0.4781110  -0.9349334), wk =   0.0063492
        k(  103) = (  -0.2000000   0.7171664   0.0000000), wk =   0.0063492
        k(  104) = (  -0.2000000  -0.7171664   0.2337334), wk =   0.0063492
        k(  105) = (  -0.2000000   0.7171664  -0.2337334), wk =   0.0063492
        k(  106) = (   0.2000000  -0.7171664  -0.2337334), wk =   0.0063492
        k(  107) = (  -0.2000000  -0.7171664   0.4674667), wk =   0.0063492
        k(  108) = (  -0.2000000   0.7171664  -0.4674667), wk =   0.0063492
        k(  109) = (   0.2000000  -0.7171664  -0.4674667), wk =   0.0063492
        k(  110) = (  -0.2000000  -0.7171664   0.7012001), wk =   0.0063492
        k(  111) = (  -0.2000000   0.7171664  -0.7012001), wk =   0.0063492
        k(  112) = (   0.2000000  -0.7171664  -0.7012001), wk =   0.0063492
        k(  113) = (  -0.2000000  -0.7171664   0.9349334), wk =   0.0063492
        k(  114) = (  -0.2000000   0.7171664  -0.9349334), wk =   0.0063492
        k(  115) = (   0.2000000  -0.7171664  -0.9349334), wk =   0.0063492
        k(  116) = (  -0.4000000   0.0000000   0.2337334), wk =   0.0063492
        k(  117) = (  -0.4000000   0.0000000   0.4674667), wk =   0.0063492
        k(  118) = (  -0.4000000   0.0000000   0.7012001), wk =   0.0063492
        k(  119) = (  -0.4000000   0.0000000   0.9349334), wk =   0.0063492
        k(  120) = (  -0.4000000   0.2390555   0.0000000), wk =   0.0063492
        k(  121) = (  -0.4000000  -0.2390555   0.2337334), wk =   0.0063492
        k(  122) = (  -0.4000000   0.2390555  -0.2337334), wk =   0.0063492
        k(  123) = (   0.4000000  -0.2390555  -0.2337334), wk =   0.0063492
        k(  124) = (  -0.4000000  -0.2390555   0.4674667), wk =   0.0063492
        k(  125) = (  -0.4000000   0.2390555  -0.4674667), wk =   0.0063492
        k(  126) = (   0.4000000  -0.2390555  -0.4674667), wk =   0.0063492
        k(  127) = (  -0.4000000  -0.2390555   0.7012001), wk =   0.0063492
        k(  128) = (  -0.4000000   0.2390555  -0.7012001), wk =   0.0063492
        k(  129) = (   0.4000000  -0.2390555  -0.7012001), wk =   0.0063492
        k(  130) = (  -0.4000000  -0.2390555   0.9349334), wk =   0.0063492
        k(  131) = (  -0.4000000   0.2390555  -0.9349334), wk =   0.0063492
        k(  132) = (   0.4000000  -0.2390555  -0.9349334), wk =   0.0063492
        k(  133) = (  -0.4000000   0.4781110   0.0000000), wk =   0.0063492
        k(  134) = (  -0.4000000  -0.4781110   0.2337334), wk =   0.0063492
        k(  135) = (  -0.4000000   0.4781110  -0.2337334), wk =   0.0063492
        k(  136) = (   0.4000000  -0.4781110  -0.2337334), wk =   0.0063492
        k(  137) = (  -0.4000000  -0.4781110   0.4674667), wk =   0.0063492
        k(  138) = (  -0.4000000   0.4781110  -0.4674667), wk =   0.0063492
        k(  139) = (   0.4000000  -0.4781110  -0.4674667), wk =   0.0063492
        k(  140) = (  -0.4000000  -0.4781110   0.7012001), wk =   0.0063492
        k(  141) = (  -0.4000000   0.4781110  -0.7012001), wk =   0.0063492
        k(  142) = (   0.4000000  -0.4781110  -0.7012001), wk =   0.0063492
        k(  143) = (  -0.4000000  -0.4781110   0.9349334), wk =   0.0063492
        k(  144) = (  -0.4000000   0.4781110  -0.9349334), wk =   0.0063492
        k(  145) = (   0.4000000  -0.4781110  -0.9349334), wk =   0.0063492
        k(  146) = (  -0.4000000   0.7171664   0.0000000), wk =   0.0063492
        k(  147) = (  -0.4000000  -0.7171664   0.2337334), wk =   0.0063492
        k(  148) = (  -0.4000000   0.7171664  -0.2337334), wk =   0.0063492
        k(  149) = (   0.4000000  -0.7171664  -0.2337334), wk =   0.0063492
        k(  150) = (  -0.4000000  -0.7171664   0.4674667), wk =   0.0063492
        k(  151) = (  -0.4000000   0.7171664  -0.4674667), wk =   0.0063492
        k(  152) = (   0.4000000  -0.7171664  -0.4674667), wk =   0.0063492
        k(  153) = (  -0.4000000  -0.7171664   0.7012001), wk =   0.0063492
        k(  154) = (  -0.4000000   0.7171664  -0.7012001), wk =   0.0063492
        k(  155) = (   0.4000000  -0.7171664  -0.7012001), wk =   0.0063492
        k(  156) = (  -0.4000000  -0.7171664   0.9349334), wk =   0.0063492
        k(  157) = (  -0.4000000   0.7171664  -0.9349334), wk =   0.0063492
        k(  158) = (   0.4000000  -0.7171664  -0.9349334), wk =   0.0063492

                       cryst. coord.
        k(    1) = (   0.0000000   0.0000000   0.0000000), wk =   0.0031746
        k(    2) = (   0.0000000   0.0000000   0.1111111), wk =   0.0063492
        k(    3) = (   0.0000000   0.0000000   0.2222222), wk =   0.0063492
        k(    4) = (   0.0000000   0.0000000   0.3333333), wk =   0.0063492
        k(    5) = (   0.0000000   0.0000000   0.4444444), wk =   0.0063492
        k(    6) = (   0.0000000   0.1428571   0.0000000), wk =   0.0063492
        k(    7) = (   0.0000000   0.1428571   0.1111111), wk =   0.0063492
        k(    8) = (   0.0000000   0.1428571   0.2222222), wk =   0.0063492
        k(    9) = (   0.0000000   0.1428571   0.3333333), wk =   0.0063492
        k(   10) = (   0.0000000   0.1428571   0.4444444), wk =   0.0063492
        k(   11) = (   0.0000000   0.2857143   0.0000000), wk =   0.0063492
        k(   12) = (   0.0000000   0.2857143   0.1111111), wk =   0.0063492
        k(   13) = (   0.0000000   0.2857143   0.2222222), wk =   0.0063492
        k(   14) = (   0.0000000   0.2857143   0.3333333), wk =   0.0063492
        k(   15) = (   0.0000000   0.2857143   0.4444444), wk =   0.0063492
        k(   16) = (   0.0000000   0.4285714   0.0000000), wk =   0.0063492
        k(   17) = (   0.0000000   0.4285714   0.1111111), wk =   0.0063492
        k(   18) = (   0.0000000   0.4285714   0.2222222), wk =   0.0063492
        k(   19) = (   0.0000000   0.4285714   0.3333333), wk =   0.0063492
        k(   20) = (   0.0000000   0.4285714   0.4444444), wk =   0.0063492
        k(   21) = (   0.2000000   0.0000000   0.0000000), wk =   0.0063492
        k(   22) = (   0.2000000   0.0000000   0.1111111), wk =   0.0063492
        k(   23) = (   0.2000000   0.0000000   0.2222222), wk =   0.0063492
        k(   24) = (   0.2000000   0.0000000   0.3333333), wk =   0.0063492
        k(   25) = (   0.2000000   0.0000000   0.4444444), wk =   0.0063492
        k(   26) = (   0.2000000   0.1428571   0.0000000), wk =   0.0063492
        k(   27) = (   0.2000000   0.1428571   0.1111111), wk =   0.0063492
        k(   28) = (   0.2000000   0.1428571   0.2222222), wk =   0.0063492
        k(   29) = (   0.2000000   0.1428571   0.3333333), wk =   0.0063492
        k(   30) = (   0.2000000   0.1428571   0.4444444), wk =   0.0063492
        k(   31) = (   0.2000000   0.2857143   0.0000000), wk =   0.0063492
        k(   32) = (   0.2000000   0.2857143   0.1111111), wk =   0.0063492
        k(   33) = (   0.2000000   0.2857143   0.2222222), wk =   0.0063492
        k(   34) = (   0.2000000   0.2857143   0.3333333), wk =   0.0063492
        k(   35) = (   0.2000000   0.2857143   0.4444444), wk =   0.0063492
        k(   36) = (   0.2000000   0.4285714   0.0000000), wk =   0.0063492
        k(   37) = (   0.2000000   0.4285714   0.1111111), wk =   0.0063492
        k(   38) = (   0.2000000   0.4285714   0.2222222), wk =   0.0063492
        k(   39) = (   0.2000000   0.4285714   0.3333333), wk =   0.0063492
        k(   40) = (   0.2000000   0.4285714   0.4444444), wk =   0.0063492
        k(   41) = (   0.4000000   0.0000000   0.0000000), wk =   0.0063492
        k(   42) = (   0.4000000   0.0000000   0.1111111), wk =   0.0063492
        k(   43) = (   0.4000000   0.0000000   0.2222222), wk =   0.0063492
        k(   44) = (   0.4000000   0.0000000   0.3333333), wk =   0.0063492
        k(   45) = (   0.4000000   0.0000000   0.4444444), wk =   0.0063492
        k(   46) = (   0.4000000   0.1428571   0.0000000), wk =   0.0063492
        k(   47) = (   0.4000000   0.1428571   0.1111111), wk =   0.0063492
        k(   48) = (   0.4000000   0.1428571   0.2222222), wk =   0.0063492
        k(   49) = (   0.4000000   0.1428571   0.3333333), wk =   0.0063492
        k(   50) = (   0.4000000   0.1428571   0.4444444), wk =   0.0063492
        k(   51) = (   0.4000000   0.2857143   0.0000000), wk =   0.0063492
        k(   52) = (   0.4000000   0.2857143   0.1111111), wk =   0.0063492
        k(   53) = (   0.4000000   0.2857143   0.2222222), wk =   0.0063492
        k(   54) = (   0.4000000   0.2857143   0.3333333), wk =   0.0063492
        k(   55) = (   0.4000000   0.2857143   0.4444444), wk =   0.0063492
        k(   56) = (   0.4000000   0.4285714   0.0000000), wk =   0.0063492
        k(   57) = (   0.4000000   0.4285714   0.1111111), wk =   0.0063492
        k(   58) = (   0.4000000   0.4285714   0.2222222), wk =   0.0063492
        k(   59) = (   0.4000000   0.4285714   0.3333333), wk =   0.0063492
        k(   60) = (   0.4000000   0.4285714   0.4444444), wk =   0.0063492
        k(   61) = (   0.0000000  -0.1428571   0.1111111), wk =   0.0063492
        k(   62) = (   0.0000000  -0.1428571   0.2222222), wk =   0.0063492
        k(   63) = (   0.0000000  -0.1428571   0.3333333), wk =   0.0063492
        k(   64) = (   0.0000000  -0.1428571   0.4444444), wk =   0.0063492
        k(   65) = (   0.0000000  -0.2857143   0.1111111), wk =   0.0063492
        k(   66) = (   0.0000000  -0.2857143   0.2222222), wk =   0.0063492
        k(   67) = (   0.0000000  -0.2857143   0.3333333), wk =   0.0063492
        k(   68) = (   0.0000000  -0.2857143   0.4444444), wk =   0.0063492
        k(   69) = (   0.0000000  -0.4285714   0.1111111), wk =   0.0063492
        k(   70) = (   0.0000000  -0.4285714   0.2222222), wk =   0.0063492
        k(   71) = (   0.0000000  -0.4285714   0.3333333), wk =   0.0063492
        k(   72) = (   0.0000000  -0.4285714   0.4444444), wk =   0.0063492
        k(   73) = (  -0.2000000   0.0000000   0.1111111), wk =   0.0063492
        k(   74) = (  -0.2000000   0.0000000   0.2222222), wk =   0.0063492
        k(   75) = (  -0.2000000   0.0000000   0.3333333), wk =   0.0063492
        k(   76) = (  -0.2000000   0.0000000   0.4444444), wk =   0.0063492
        k(   77) = (  -0.2000000   0.1428571   0.0000000), wk =   0.0063492
        k(   78) = (  -0.2000000  -0.1428571   0.1111111), wk =   0.0063492
        k(   79) = (  -0.2000000   0.1428571  -0.1111111), wk =   0.0063492
        k(   80) = (   0.2000000  -0.1428571  -0.1111111), wk =   0.0063492
        k(   81) = (  -0.2000000  -0.1428571   0.2222222), wk =   0.0063492
        k(   82) = (  -0.2000000   0.1428571  -0.2222222), wk =   0.0063492
        k(   83) = (   0.2000000  -0.1428571  -0.2222222), wk =   0.0063492
        k(   84) = (  -0.2000000  -0.1428571   0.3333333), wk =   0.0063492
        k(   85) = (  -0.2000000   0.1428571  -0.3333333), wk =   0.0063492
        k(   86) = (   0.2000000  -0.1428571  -0.3333333), wk =   0.0063492
        k(   87) = (  -0.2000000  -0.1428571   0.4444444), wk =   0.0063492
        k(   88) = (  -0.2000000   0.1428571  -0.4444444), wk =   0.0063492
        k(   89) = (   0.2000000  -0.1428571  -0.4444444), wk =   0.0063492
        k(   90) = (  -0.2000000   0.2857143   0.0000000), wk =   0.0063492
        k(   91) = (  -0.2000000  -0.2857143   0.1111111), wk =   0.0063492
        k(   92) = (  -0.2000000   0.2857143  -0.1111111), wk =   0.0063492
        k(   93) = (   0.2000000  -0.2857143  -0.1111111), wk =   0.0063492
        k(   94) = (  -0.2000000  -0.2857143   0.2222222), wk =   0.0063492
        k(   95) = (  -0.2000000   0.2857143  -0.2222222), wk =   0.0063492
        k(   96) = (   0.2000000  -0.2857143  -0.2222222), wk =   0.0063492
        k(   97) = (  -0.2000000  -0.2857143   0.3333333), wk =   0.0063492
        k(   98) = (  -0.2000000   0.2857143  -0.3333333), wk =   0.0063492
        k(   99) = (   0.2000000  -0.2857143  -0.3333333), wk =   0.0063492
        k(  100) = (  -0.2000000  -0.2857143   0.4444444), wk =   0.0063492
        k(  101) = (  -0.2000000   0.2857143  -0.4444444), wk =   0.0063492
        k(  102) = (   0.2000000  -0.2857143  -0.4444444), wk =   0.0063492
        k(  103) = (  -0.2000000   0.4285714   0.0000000), wk =   0.0063492
        k(  104) = (  -0.2000000  -0.4285714   0.1111111), wk =   0.0063492
        k(  105) = (  -0.2000000   0.4285714  -0.1111111), wk =   0.0063492
        k(  106) = (   0.2000000  -0.4285714  -0.1111111), wk =   0.0063492
        k(  107) = (  -0.2000000  -0.4285714   0.2222222), wk =   0.0063492
        k(  108) = (  -0.2000000   0.4285714  -0.2222222), wk =   0.0063492
        k(  109) = (   0.2000000  -0.4285714  -0.2222222), wk =   0.0063492
        k(  110) = (  -0.2000000  -0.4285714   0.3333333), wk =   0.0063492
        k(  111) = (  -0.2000000   0.4285714  -0.3333333), wk =   0.0063492
        k(  112) = (   0.2000000  -0.4285714  -0.3333333), wk =   0.0063492
        k(  113) = (  -0.2000000  -0.4285714   0.4444444), wk =   0.0063492
        k(  114) = (  -0.2000000   0.4285714  -0.4444444), wk =   0.0063492
        k(  115) = (   0.2000000  -0.4285714  -0.4444444), wk =   0.0063492
        k(  116) = (  -0.4000000   0.0000000   0.1111111), wk =   0.0063492
        k(  117) = (  -0.4000000   0.0000000   0.2222222), wk =   0.0063492
        k(  118) = (  -0.4000000   0.0000000   0.3333333), wk =   0.0063492
        k(  119) = (  -0.4000000   0.0000000   0.4444444), wk =   0.0063492
        k(  120) = (  -0.4000000   0.1428571   0.0000000), wk =   0.0063492
        k(  121) = (  -0.4000000  -0.1428571   0.1111111), wk =   0.0063492
        k(  122) = (  -0.4000000   0.1428571  -0.1111111), wk =   0.0063492
        k(  123) = (   0.4000000  -0.1428571  -0.1111111), wk =   0.0063492
        k(  124) = (  -0.4000000  -0.1428571   0.2222222), wk =   0.0063492
        k(  125) = (  -0.4000000   0.1428571  -0.2222222), wk =   0.0063492
        k(  126) = (   0.4000000  -0.1428571  -0.2222222), wk =   0.0063492
        k(  127) = (  -0.4000000  -0.1428571   0.3333333), wk =   0.0063492
        k(  128) = (  -0.4000000   0.1428571  -0.3333333), wk =   0.0063492
        k(  129) = (   0.4000000  -0.1428571  -0.3333333), wk =   0.0063492
        k(  130) = (  -0.4000000  -0.1428571   0.4444444), wk =   0.0063492
        k(  131) = (  -0.4000000   0.1428571  -0.4444444), wk =   0.0063492
        k(  132) = (   0.4000000  -0.1428571  -0.4444444), wk =   0.0063492
        k(  133) = (  -0.4000000   0.2857143   0.0000000), wk =   0.0063492
        k(  134) = (  -0.4000000  -0.2857143   0.1111111), wk =   0.0063492
        k(  135) = (  -0.4000000   0.2857143  -0.1111111), wk =   0.0063492
        k(  136) = (   0.4000000  -0.2857143  -0.1111111), wk =   0.0063492
        k(  137) = (  -0.4000000  -0.2857143   0.2222222), wk =   0.0063492
        k(  138) = (  -0.4000000   0.2857143  -0.2222222), wk =   0.0063492
        k(  139) = (   0.4000000  -0.2857143  -0.2222222), wk =   0.0063492
        k(  140) = (  -0.4000000  -0.2857143   0.3333333), wk =   0.0063492
        k(  141) = (  -0.4000000   0.2857143  -0.3333333), wk =   0.0063492
        k(  142) = (   0.4000000  -0.2857143  -0.3333333), wk =   0.0063492
        k(  143) = (  -0.4000000  -0.2857143   0.4444444), wk =   0.0063492
        k(  144) = (  -0.4000000   0.2857143  -0.4444444), wk =   0.0063492
        k(  145) = (   0.4000000  -0.2857143  -0.4444444), wk =   0.0063492
        k(  146) = (  -0.4000000   0.4285714   0.0000000), wk =   0.0063492
        k(  147) = (  -0.4000000  -0.4285714   0.1111111), wk =   0.0063492
        k(  148) = (  -0.4000000   0.4285714  -0.1111111), wk =   0.0063492
        k(  149) = (   0.4000000  -0.4285714  -0.1111111), wk =   0.0063492
        k(  150) = (  -0.4000000  -0.4285714   0.2222222), wk =   0.0063492
        k(  151) = (  -0.4000000   0.4285714  -0.2222222), wk =   0.0063492
        k(  152) = (   0.4000000  -0.4285714  -0.2222222), wk =   0.0063492
        k(  153) = (  -0.4000000  -0.4285714   0.3333333), wk =   0.0063492
        k(  154) = (  -0.4000000   0.4285714  -0.3333333), wk =   0.0063492
        k(  155) = (   0.4000000  -0.4285714  -0.3333333), wk =   0.0063492
        k(  156) = (  -0.4000000  -0.4285714   0.4444444), wk =   0.0063492
        k(  157) = (  -0.4000000   0.4285714  -0.4444444), wk =   0.0063492
        k(  158) = (   0.4000000  -0.4285714  -0.4444444), wk =   0.0063492

     Dense  grid:  1110111 G-vectors     FFT dimensions: ( 200, 120,  96)

     Smooth grid:   250361 G-vectors     FFT dimensions: ( 120,  72,  60)

     Dynamical RAM for                 wfc:       2.27 MB

     Dynamical RAM for     wfc (w. buffer):     718.50 MB

     Dynamical RAM for           str. fact:       2.82 MB

     Dynamical RAM for           local pot:       0.00 MB

     Dynamical RAM for          nlocal pot:       5.57 MB

     Dynamical RAM for                qrad:      10.54 MB

     Dynamical RAM for          rho,v,vnew:       8.63 MB

     Dynamical RAM for               rhoin:       2.88 MB

     Dynamical RAM for            rho*nmix:      22.58 MB

     Dynamical RAM for           G-vectors:       2.73 MB

     Dynamical RAM for          h,s,v(r/c):       2.38 MB

     Dynamical RAM for          <psi|beta>:       0.49 MB

     Dynamical RAM for                 psi:       4.53 MB

     Dynamical RAM for                hpsi:       4.53 MB

     Dynamical RAM for                spsi:       4.53 MB

     Dynamical RAM for      wfcinit/wfcrot:       5.88 MB

     Dynamical RAM for           addusdens:     143.27 MB

     Dynamical RAM for          addusforce:     164.57 MB

     Dynamical RAM for         addusstress:     142.92 MB

     Estimated static dynamical RAM per process >     782.18 MB

     Estimated max dynamical RAM per process >     946.75 MB

     Estimated total dynamical RAM >      22.19 GB

     Check: negative core charge=   -0.000003
     Generating pointlists ...
     new r_m :   0.0760 (alat units)  1.4205 (a.u.) for type    1
     new r_m :   0.0887 (alat units)  1.6569 (a.u.) for type    2
     new r_m :   0.0610 (alat units)  1.1405 (a.u.) for type    3
     new r_m :   0.0610 (alat units)  1.1405 (a.u.) for type    4

     Initial potential from superposition of free atoms

     starting charge  188.99132, renormalised to  189.00000
     Starting wfcs are  137 randomized atomic wfcs
     Checking if some PAW data can be deallocated... 
       PAW data deallocated on   20 nodes for type:  1
       PAW data deallocated on    8 nodes for type:  3

     total cpu time spent up to now is      173.6 secs

     Self-consistent Calculation

     iteration #  1     ecut=   100.00 Ry     beta= 0.40
     Davidson diagonalization with overlap
     ethr =  1.00E-02,  avg # of iterations =  3.9

     negative rho (up, down):  0.000E+00 8.207E-05

     total cpu time spent up to now is     1140.5 secs

     total energy              =   -2123.83211483 Ry
     estimated scf accuracy    <       6.83186174 Ry

     total magnetization       =    19.00 Bohr mag/cell
     absolute magnetization    =    19.00 Bohr mag/cell

     iteration #  2     ecut=   100.00 Ry     beta= 0.40
     Davidson diagonalization with overlap
     ethr =  3.61E-03,  avg # of iterations =  2.0

     negative rho (up, down):  0.000E+00 3.746E-05

     total cpu time spent up to now is     1640.3 secs

     total energy              =   -2121.05573540 Ry
     estimated scf accuracy    <      39.24704315 Ry

     total magnetization       =     7.83 Bohr mag/cell
     absolute magnetization    =     9.28 Bohr mag/cell

     iteration #  3     ecut=   100.00 Ry     beta= 0.40
     Davidson diagonalization with overlap
     ethr =  3.61E-03,  avg # of iterations =  2.7

     negative rho (up, down):  0.000E+00 1.144E-05

     total cpu time spent up to now is     2077.9 secs

     total energy              =   -2123.35660211 Ry
     estimated scf accuracy    <      67.15651012 Ry

     total magnetization       =     2.20 Bohr mag/cell
     absolute magnetization    =     6.43 Bohr mag/cell

     iteration #  4     ecut=   100.00 Ry     beta= 0.40
     Davidson diagonalization with overlap
     ethr =  3.61E-03,  avg # of iterations =  1.2

     negative rho (up, down):  0.000E+00 1.418E-05

     total cpu time spent up to now is     2440.9 secs

     total energy              =   -2124.29752314 Ry
     estimated scf accuracy    <      30.52808011 Ry

     total magnetization       =     9.00 Bohr mag/cell
     absolute magnetization    =     9.63 Bohr mag/cell

     iteration #  5     ecut=   100.00 Ry     beta= 0.40
     Davidson diagonalization with overlap
     ethr =  3.61E-03,  avg # of iterations =  1.9

     negative rho (up, down):  0.000E+00 1.164E-04

     total cpu time spent up to now is     2849.2 secs

     total energy              =   -2125.75842682 Ry
     estimated scf accuracy    <       1.37830819 Ry

     total magnetization       =    18.90 Bohr mag/cell
     absolute magnetization    =    18.90 Bohr mag/cell

     iteration #  6     ecut=   100.00 Ry     beta= 0.40
     Davidson diagonalization with overlap
     ethr =  7.29E-04,  avg # of iterations =  2.1

     negative rho (up, down):  0.000E+00 2.492E-04

     total cpu time spent up to now is     3266.0 secs

     total energy              =   -2125.85241667 Ry
     estimated scf accuracy    <       0.28399629 Ry

     total magnetization       =    19.08 Bohr mag/cell
     absolute magnetization    =    19.08 Bohr mag/cell

     iteration #  7     ecut=   100.00 Ry     beta= 0.40
     Davidson diagonalization with overlap
     c_bands:  2 eigenvalues not converged
     c_bands:  1 eigenvalues not converged
     ethr =  1.50E-04,  avg # of iterations =  9.4

     negative rho (up, down):  0.000E+00 4.449E-04

     total cpu time spent up to now is     3866.6 secs

     total energy              =   -2125.86077168 Ry
     estimated scf accuracy    <       0.19250196 Ry

     total magnetization       =    19.00 Bohr mag/cell
     absolute magnetization    =    19.00 Bohr mag/cell

     iteration #  8     ecut=   100.00 Ry     beta= 0.40
     Davidson diagonalization with overlap
     c_bands:  1 eigenvalues not converged
     c_bands:  1 eigenvalues not converged
     ethr =  1.02E-04,  avg # of iterations =  5.5

     negative rho (up, down):  0.000E+00 5.631E-04

     total cpu time spent up to now is     4358.7 secs

     total energy              =   -2125.85877926 Ry
     estimated scf accuracy    <       0.50855244 Ry

     total magnetization       =    19.00 Bohr mag/cell
     absolute magnetization    =    19.01 Bohr mag/cell

     iteration #  9     ecut=   100.00 Ry     beta= 0.40
     Davidson diagonalization with overlap
     ethr =  1.02E-04,  avg # of iterations =  1.3

     negative rho (up, down):  0.000E+00 5.726E-04

     total cpu time spent up to now is     4730.1 secs

     total energy              =   -2125.87498351 Ry
     estimated scf accuracy    <       0.23209566 Ry

     total magnetization       =    19.00 Bohr mag/cell
     absolute magnetization    =    19.01 Bohr mag/cell

     iteration # 10     ecut=   100.00 Ry     beta= 0.40
     Davidson diagonalization with overlap
     ethr =  1.02E-04,  avg # of iterations =  1.0

     negative rho (up, down):  0.000E+00 8.059E-04

     total cpu time spent up to now is     5083.2 secs

     total energy              =   -2125.88418448 Ry
     estimated scf accuracy    <       0.03029298 Ry

     total magnetization       =    19.00 Bohr mag/cell
     absolute magnetization    =    19.01 Bohr mag/cell

     iteration # 11     ecut=   100.00 Ry     beta= 0.40
     Davidson diagonalization with overlap
     c_bands:  1 eigenvalues not converged
     c_bands:  1 eigenvalues not converged
     c_bands:  1 eigenvalues not converged
     c_bands:  1 eigenvalues not converged
     c_bands:  1 eigenvalues not converged
     c_bands:  1 eigenvalues not converged
     c_bands:  1 eigenvalues not converged
     c_bands:  1 eigenvalues not converged
     c_bands:  1 eigenvalues not converged
     c_bands:  1 eigenvalues not converged
     c_bands:  1 eigenvalues not converged
     c_bands:  2 eigenvalues not converged
     c_bands:  1 eigenvalues not converged
     c_bands:  1 eigenvalues not converged
     c_bands:  1 eigenvalues not converged
     c_bands:  1 eigenvalues not converged
     c_bands:  1 eigenvalues not converged
     c_bands:  1 eigenvalues not converged
     c_bands:  2 eigenvalues not converged
     c_bands:  1 eigenvalues not converged
     c_bands:  1 eigenvalues not converged
     ethr =  1.60E-05,  avg # of iterations = 10.5

     negative rho (up, down):  0.000E+00 9.066E-04

     total cpu time spent up to now is     5719.3 secs

     total energy              =   -2125.88407189 Ry
     estimated scf accuracy    <       0.13207447 Ry

     total magnetization       =    19.00 Bohr mag/cell
     absolute magnetization    =    19.02 Bohr mag/cell

     iteration # 12     ecut=   100.00 Ry     beta= 0.40
     Davidson diagonalization with overlap
     ethr =  1.60E-05,  avg # of iterations =  1.1

     negative rho (up, down):  0.000E+00 9.367E-04

     total cpu time spent up to now is     6076.0 secs

     total energy              =   -2125.88509698 Ry
     estimated scf accuracy    <       0.01641104 Ry

     total magnetization       =    19.00 Bohr mag/cell
     absolute magnetization    =    19.03 Bohr mag/cell

     iteration # 13     ecut=   100.00 Ry     beta= 0.40
     Davidson diagonalization with overlap
     c_bands:  1 eigenvalues not converged
     c_bands:  1 eigenvalues not converged
     c_bands:  1 eigenvalues not converged
     c_bands:  1 eigenvalues not converged
     c_bands:  1 eigenvalues not converged
     c_bands:  1 eigenvalues not converged
     c_bands:  1 eigenvalues not converged
     ethr =  8.68E-06,  avg # of iterations =  3.3

     negative rho (up, down):  0.000E+00 9.524E-04

     total cpu time spent up to now is     6490.0 secs

     total energy              =   -2125.88587590 Ry
     estimated scf accuracy    <       0.00956380 Ry

     total magnetization       =    19.00 Bohr mag/cell
     absolute magnetization    =    19.03 Bohr mag/cell

     iteration # 14     ecut=   100.00 Ry     beta= 0.40
     Davidson diagonalization with overlap
     c_bands:  1 eigenvalues not converged
     c_bands:  1 eigenvalues not converged
     c_bands:  1 eigenvalues not converged
     ethr =  5.06E-06,  avg # of iterations =  3.2

     negative rho (up, down):  0.000E+00 9.411E-04

     total cpu time spent up to now is     6905.4 secs

     total energy              =   -2125.88617654 Ry
     estimated scf accuracy    <       0.00418585 Ry

     total magnetization       =    19.00 Bohr mag/cell
     absolute magnetization    =    19.03 Bohr mag/cell

     iteration # 15     ecut=   100.00 Ry     beta= 0.40
     Davidson diagonalization with overlap
     c_bands:  1 eigenvalues not converged
     c_bands:  1 eigenvalues not converged
     c_bands:  1 eigenvalues not converged
     c_bands:  1 eigenvalues not converged
     c_bands:  1 eigenvalues not converged
     c_bands:  1 eigenvalues not converged
     c_bands:  1 eigenvalues not converged
     c_bands:  1 eigenvalues not converged
     c_bands:  1 eigenvalues not converged
     c_bands:  1 eigenvalues not converged
     c_bands:  1 eigenvalues not converged
     c_bands:  1 eigenvalues not converged
     c_bands:  1 eigenvalues not converged
     c_bands:  1 eigenvalues not converged
     c_bands:  1 eigenvalues not converged
     c_bands:  1 eigenvalues not converged
     c_bands:  1 eigenvalues not converged
     c_bands:  1 eigenvalues not converged
     c_bands:  1 eigenvalues not converged
     ethr =  2.21E-06,  avg # of iterations =  7.2

     negative rho (up, down):  0.000E+00 9.355E-04

     total cpu time spent up to now is     7422.3 secs

     total energy              =   -2125.88648366 Ry
     estimated scf accuracy    <       0.00022172 Ry

     total magnetization       =    19.00 Bohr mag/cell
     absolute magnetization    =    19.04 Bohr mag/cell

     iteration # 16     ecut=   100.00 Ry     beta= 0.40
     Davidson diagonalization with overlap
     ethr =  1.17E-07,  avg # of iterations =  6.6

     negative rho (up, down):  0.000E+00 9.296E-04

     total cpu time spent up to now is     8394.6 secs

     total energy              =   -2125.88673756 Ry
     estimated scf accuracy    <       0.00010728 Ry

     total magnetization       =    19.00 Bohr mag/cell
     absolute magnetization    =    19.04 Bohr mag/cell

     iteration # 17     ecut=   100.00 Ry     beta= 0.40
     Davidson diagonalization with overlap
     ethr =  5.68E-08,  avg # of iterations =  1.0

     negative rho (up, down):  0.000E+00 9.213E-04

     total cpu time spent up to now is     8746.8 secs

     total energy              =   -2125.88673993 Ry
     estimated scf accuracy    <       0.00008947 Ry

     total magnetization       =    19.00 Bohr mag/cell
     absolute magnetization    =    19.04 Bohr mag/cell

     iteration # 18     ecut=   100.00 Ry     beta= 0.40
     Davidson diagonalization with overlap
     ethr =  4.73E-08,  avg # of iterations =  1.0

     negative rho (up, down):  0.000E+00 9.149E-04

     total cpu time spent up to now is     9098.2 secs

     total energy              =   -2125.88674371 Ry
     estimated scf accuracy    <       0.00004756 Ry

     total magnetization       =    19.00 Bohr mag/cell
     absolute magnetization    =    19.04 Bohr mag/cell

     iteration # 19     ecut=   100.00 Ry     beta= 0.40
     Davidson diagonalization with overlap
     ethr =  2.52E-08,  avg # of iterations =  1.0

     negative rho (up, down):  0.000E+00 9.107E-04

     total cpu time spent up to now is     9449.3 secs

     total energy              =   -2125.88674480 Ry
     estimated scf accuracy    <       0.00000879 Ry

     total magnetization       =    19.00 Bohr mag/cell
     absolute magnetization    =    19.04 Bohr mag/cell

     iteration # 20     ecut=   100.00 Ry     beta= 0.40
     Davidson diagonalization with overlap
     ethr =  4.65E-09,  avg # of iterations =  1.0

     negative rho (up, down):  0.000E+00 9.102E-04

     total cpu time spent up to now is     9800.9 secs

     total energy              =   -2125.88674533 Ry
     estimated scf accuracy    <       0.00000210 Ry

     total magnetization       =    19.00 Bohr mag/cell
     absolute magnetization    =    19.04 Bohr mag/cell

     iteration # 21     ecut=   100.00 Ry     beta= 0.40
     Davidson diagonalization with overlap
     ethr =  1.11E-09,  avg # of iterations =  2.8

     negative rho (up, down):  0.000E+00 9.108E-04

     total cpu time spent up to now is    10233.8 secs

     total energy              =   -2125.88674558 Ry
     estimated scf accuracy    <       0.00000137 Ry

     total magnetization       =    19.00 Bohr mag/cell
     absolute magnetization    =    19.04 Bohr mag/cell

     iteration # 22     ecut=   100.00 Ry     beta= 0.40
     Davidson diagonalization with overlap
     ethr =  7.25E-10,  avg # of iterations =  1.8

     negative rho (up, down):  0.000E+00 9.109E-04

     total cpu time spent up to now is    10633.0 secs

     total energy              =   -2125.88674566 Ry
     estimated scf accuracy    <       0.00000081 Ry

     total magnetization       =    19.00 Bohr mag/cell
     absolute magnetization    =    19.04 Bohr mag/cell

     iteration # 23     ecut=   100.00 Ry     beta= 0.40
     Davidson diagonalization with overlap
     ethr =  4.29E-10,  avg # of iterations =  2.0

     negative rho (up, down):  0.000E+00 9.112E-04

     total cpu time spent up to now is    11050.1 secs

     total energy              =   -2125.88674573 Ry
     estimated scf accuracy    <       0.00000004 Ry

     total magnetization       =    19.00 Bohr mag/cell
     absolute magnetization    =    19.04 Bohr mag/cell

     iteration # 24     ecut=   100.00 Ry     beta= 0.40
     Davidson diagonalization with overlap
     ethr =  2.02E-11,  avg # of iterations =  7.7

     negative rho (up, down):  0.000E+00 9.113E-04

     total cpu time spent up to now is    12211.6 secs

     total energy              =   -2125.88674580 Ry
     estimated scf accuracy    <       0.00000001 Ry

     total magnetization       =    19.00 Bohr mag/cell
     absolute magnetization    =    19.04 Bohr mag/cell

     iteration # 25     ecut=   100.00 Ry     beta= 0.40
     Davidson diagonalization with overlap
     ethr =  6.47E-12,  avg # of iterations =  1.7

     negative rho (up, down):  0.000E+00 9.112E-04

     total cpu time spent up to now is    12598.8 secs

     total energy              =   -2125.88674580 Ry
     estimated scf accuracy    <       0.00000004 Ry

     total magnetization       =    19.00 Bohr mag/cell
     absolute magnetization    =    19.04 Bohr mag/cell

     iteration # 26     ecut=   100.00 Ry     beta= 0.40
     Davidson diagonalization with overlap
     ethr =  6.47E-12,  avg # of iterations =  1.5

     negative rho (up, down):  0.000E+00 9.112E-04

     total cpu time spent up to now is    12973.2 secs

     total energy              =   -2125.88674581 Ry
     estimated scf accuracy    <          3.0E-09 Ry

     total magnetization       =    19.00 Bohr mag/cell
     absolute magnetization    =    19.04 Bohr mag/cell

     iteration # 27     ecut=   100.00 Ry     beta= 0.40
     Davidson diagonalization with overlap
     ethr =  1.57E-12,  avg # of iterations =  2.0

     negative rho (up, down):  0.000E+00 9.112E-04

     total cpu time spent up to now is    13386.9 secs

     total energy              =   -2125.88674581 Ry
     estimated scf accuracy    <          6.0E-09 Ry

     total magnetization       =    19.00 Bohr mag/cell
     absolute magnetization    =    19.04 Bohr mag/cell

     iteration # 28     ecut=   100.00 Ry     beta= 0.40
     Davidson diagonalization with overlap
     ethr =  1.57E-12,  avg # of iterations =  1.0

     negative rho (up, down):  0.000E+00 9.112E-04

     total cpu time spent up to now is    13735.4 secs

     total energy              =   -2125.88674581 Ry
     estimated scf accuracy    <          1.9E-09 Ry

     total magnetization       =    19.00 Bohr mag/cell
     absolute magnetization    =    19.04 Bohr mag/cell

     iteration # 29     ecut=   100.00 Ry     beta= 0.40
     Davidson diagonalization with overlap
     ethr =  9.90E-13,  avg # of iterations =  1.1

     negative rho (up, down):  0.000E+00 9.112E-04

     total cpu time spent up to now is    14091.8 secs

     total energy              =   -2125.88674581 Ry
     estimated scf accuracy    <          1.8E-09 Ry

     total magnetization       =    19.00 Bohr mag/cell
     absolute magnetization    =    19.04 Bohr mag/cell

     iteration # 30     ecut=   100.00 Ry     beta= 0.40
     Davidson diagonalization with overlap
     ethr =  9.40E-13,  avg # of iterations =  1.0

     negative rho (up, down):  0.000E+00 9.112E-04

     total cpu time spent up to now is    14440.1 secs

     total energy              =   -2125.88674581 Ry
     estimated scf accuracy    <          3.1E-10 Ry

     total magnetization       =    19.00 Bohr mag/cell
     absolute magnetization    =    19.04 Bohr mag/cell

     iteration # 31     ecut=   100.00 Ry     beta= 0.40
     Davidson diagonalization with overlap
     ethr =  1.62E-13,  avg # of iterations =  4.0

     negative rho (up, down):  0.000E+00 9.112E-04

     Magnetic moment per site:
     atom:    1    charge:    7.8585    magn:    0.0008    constr:    0.0000
     atom:    2    charge:   12.6204    magn:    3.5775    constr:    0.0000
     atom:    3    charge:   12.6266    magn:    3.5618    constr:    0.0000
     atom:    4    charge:   12.6549    magn:    3.4864    constr:    0.0000
     atom:    5    charge:   12.6281    magn:    3.5625    constr:    0.0000
     atom:    6    charge:    0.7745    magn:    0.0120    constr:    0.0000
     atom:    7    charge:    0.7781    magn:    0.0095    constr:    0.0000
     atom:    8    charge:    0.7769    magn:    0.0125    constr:    0.0000
     atom:    9    charge:    0.7727    magn:    0.0100    constr:    0.0000
     atom:   10    charge:    4.0761    magn:    0.1278    constr:    0.0000
     atom:   11    charge:    4.0915    magn:    0.0849    constr:    0.0000
     atom:   12    charge:    4.0789    magn:    0.1234    constr:    0.0000
     atom:   13    charge:    4.0728    magn:    0.0976    constr:    0.0000
     atom:   14    charge:    4.0629    magn:    0.1018    constr:    0.0000
     atom:   15    charge:    4.0736    magn:    0.1245    constr:    0.0000
     atom:   16    charge:    4.0701    magn:    0.0791    constr:    0.0000
     atom:   17    charge:    4.0685    magn:    0.1319    constr:    0.0000
     atom:   18    charge:    4.0471    magn:    0.1520    constr:    0.0000
     atom:   19    charge:    4.0525    magn:    0.1334    constr:    0.0000
     atom:   20    charge:    4.0504    magn:    0.1428    constr:    0.0000
     atom:   21    charge:    4.0535    magn:    0.1218    constr:    0.0000
     atom:   22    charge:    4.0531    magn:    0.1530    constr:    0.0000
     atom:   23    charge:    4.0452    magn:    0.1353    constr:    0.0000
     atom:   24    charge:    4.0457    magn:    0.1495    constr:    0.0000
     atom:   25    charge:    4.0457    magn:    0.1286    constr:    0.0000

     total cpu time spent up to now is    14909.8 secs

     End of self-consistent calculation

 ------ SPIN UP ------------


          k = 0.0000 0.0000 0.0000 ( 31277 PWs)   bands (ev):

   -83.0087 -82.9838 -82.9614 -82.6906 -49.1504 -49.1276 -49.1026 -48.9841
   -48.9779 -48.9357 -48.9343 -48.9209 -48.9048 -48.8728 -48.6565 -48.4997
   -43.0876 -15.5859 -15.4935 -15.2548 -15.1339 -15.0990 -15.0615 -14.8310
   -12.7014 -12.6637 -12.5147 -12.4338 -12.3429 -12.3091 -12.3065 -12.2508
   -12.2269 -12.1057 -12.0638 -11.9735  -2.7332  -2.1598  -1.9885  -1.4442
    -1.1899  -0.7432  -0.6177  -0.5015  -0.4504  -0.1493  -0.0670  -0.0178
     0.0805   0.3907   0.4852   0.7244   0.9181   1.0440   1.6194   1.6513
     1.7567   1.8241   1.9899   2.0333   2.1798   2.1955   2.5523   2.6774
     2.7738   2.8786   3.0173   3.0789   3.1390   3.1761   3.2131   3.2473
     3.3268   3.6683   3.8369   3.8990   4.0010   4.0546   4.0882   4.2118
     4.4199   4.4427   4.6692   4.7440   4.7823   4.8843   5.1199   5.1767
     5.2567   5.2883   5.3347   5.4976   5.5435   5.5641   5.6976   5.8374
     5.8507   6.0515   6.3885   6.6349   6.8061   7.0345   7.1063   7.2562
    12.0213  14.1511  14.2803  14.8516  15.0959  15.2733  16.1805  16.4781
    16.5529  16.6182

     occupation numbers 
     1.0000   1.0000   1.0000   1.0000   1.0000   1.0000   1.0000   1.0000
     1.0000   1.0000   1.0000   1.0000   1.0000   1.0000   1.0000   1.0000
     1.0000   1.0000   1.0000   1.0000   1.0000   1.0000   1.0000   1.0000
     1.0000   1.0000   1.0000   1.0000   1.0000   1.0000   1.0000   1.0000
     1.0000   1.0000   1.0000   1.0000   1.0000   1.0000   1.0000   1.0000
     1.0000   1.0000   1.0000   1.0000   1.0000   1.0000   1.0000   1.0000
     1.0000   1.0000   1.0000   1.0000   1.0000   1.0000   1.0000   1.0000
     1.0000   1.0000   1.0000   1.0000   1.0000   1.0000   1.0000   1.0000
     1.0000   1.0000   1.0000   1.0000   1.0000   1.0000   1.0000   1.0000
     1.0000   1.0000   1.0000   1.0000   1.0000   1.0000   1.0000   1.0000
     1.0000   1.0000   1.0000   1.0000   1.0000   1.0000   1.0000   1.0000
     1.0000   1.0000   1.0000   1.0000   1.0000   1.0000   1.0000   1.0000
     1.0000   1.0000   1.0000   1.0000   1.0000   1.0000   1.0000   1.0000
     0.0000   0.0000   0.0000   0.0000   0.0000   0.0000   0.0000   0.0000
     0.0000   0.0000

          k = 0.0000 0.0000 0.2337 ( 31269 PWs)   bands (ev):

   -83.0087 -82.9838 -82.9614 -82.6906 -49.1504 -49.1276 -49.1026 -48.9841
   -48.9779 -48.9357 -48.9343 -48.9209 -48.9048 -48.8728 -48.6565 -48.4997
   -43.0876 -15.5936 -15.4726 -15.2603 -15.1313 -15.0825 -15.0507 -14.8345
   -12.7131 -12.6673 -12.5357 -12.4371 -12.3454 -12.3188 -12.2972 -12.2469
   -12.2356 -12.1138 -12.0697 -11.9788  -2.7052  -2.1445  -1.9911  -1.4669
    -1.1194  -0.7061  -0.6257  -0.4878  -0.4469  -0.1830  -0.0784   0.0608
     0.0975   0.4169   0.4396   0.7560   0.9379   0.9967   1.6173   1.6504
     1.7611   1.8547   1.9551   2.0734   2.1638   2.1932   2.4960   2.7166
     2.7631   2.8242   2.9849   3.0498   3.0873   3.1507   3.2121   3.2756
     3.4389   3.6415   3.8262   3.8839   3.9679   3.9982   4.1089   4.1887
     4.4470   4.4926   4.5567   4.7993   4.8099   4.9144   5.0468   5.1295
     5.2464   5.2732   5.3427   5.4292   5.5650   5.6201   5.7773   5.8271
     5.9213   6.0370   6.4264   6.6211   6.8007   7.0137   7.0767   7.2293
    12.1712  14.1906  14.3619  14.8304  15.1705  15.2986  16.2267  16.3156
    16.3489  16.4908

     occupation numbers 
     1.0000   1.0000   1.0000   1.0000   1.0000   1.0000   1.0000   1.0000
     1.0000   1.0000   1.0000   1.0000   1.0000   1.0000   1.0000   1.0000
     1.0000   1.0000   1.0000   1.0000   1.0000   1.0000   1.0000   1.0000
     1.0000   1.0000   1.0000   1.0000   1.0000   1.0000   1.0000   1.0000
     1.0000   1.0000   1.0000   1.0000   1.0000   1.0000   1.0000   1.0000
     1.0000   1.0000   1.0000   1.0000   1.0000   1.0000   1.0000   1.0000
     1.0000   1.0000   1.0000   1.0000   1.0000   1.0000   1.0000   1.0000
     1.0000   1.0000   1.0000   1.0000   1.0000   1.0000   1.0000   1.0000
     1.0000   1.0000   1.0000   1.0000   1.0000   1.0000   1.0000   1.0000
     1.0000   1.0000   1.0000   1.0000   1.0000   1.0000   1.0000   1.0000
     1.0000   1.0000   1.0000   1.0000   1.0000   1.0000   1.0000   1.0000
     1.0000   1.0000   1.0000   1.0000   1.0000   1.0000   1.0000   1.0000
     1.0000   1.0000   1.0000   1.0000   1.0000   1.0000   1.0000   1.0000
     0.0000   0.0000   0.0000   0.0000   0.0000   0.0000   0.0000   0.0000
     0.0000   0.0000

          k = 0.0000 0.0000 0.4675 ( 31276 PWs)   bands (ev):

   -83.0087 -82.9838 -82.9614 -82.6906 -49.1504 -49.1276 -49.1026 -48.9841
   -48.9779 -48.9357 -48.9343 -48.9209 -48.9048 -48.8728 -48.6565 -48.4997
   -43.0875 -15.6087 -15.4245 -15.2619 -15.1267 -15.0516 -15.0192 -14.8448
   -12.7449 -12.6805 -12.5829 -12.4532 -12.3597 -12.3300 -12.2819 -12.2560
   -12.2281 -12.1330 -12.0857 -11.9935  -2.6242  -2.1211  -1.9872  -1.5382
    -0.9314  -0.6580  -0.6049  -0.4727  -0.4277  -0.2180  -0.0652   0.0873
     0.2690   0.2860   0.5361   0.8345   0.8685   0.9982   1.6057   1.6669
     1.7837   1.8809   1.9847   2.0551   2.1922   2.2127   2.3563   2.7350
     2.7594   2.8237   2.9194   2.9286   2.9717   3.0794   3.1974   3.2874
     3.4303   3.6227   3.7277   3.8920   3.9389   3.9843   4.0376   4.2523
     4.3672   4.5323   4.6978   4.7768   4.7972   4.8369   4.9984   5.1155
     5.1759   5.2528   5.2988   5.3923   5.6693   5.7150   5.8280   5.9270
     5.9862   6.0803   6.5093   6.5977   6.7859   6.9599   6.9884   7.1484
    12.5748  14.2953  14.5962  14.8365  15.2857  15.3999  15.7893  16.0969
    16.2048  16.2807

     occupation numbers 
     1.0000   1.0000   1.0000   1.0000   1.0000   1.0000   1.0000   1.0000
     1.0000   1.0000   1.0000   1.0000   1.0000   1.0000   1.0000   1.0000
     1.0000   1.0000   1.0000   1.0000   1.0000   1.0000   1.0000   1.0000
     1.0000   1.0000   1.0000   1.0000   1.0000   1.0000   1.0000   1.0000
     1.0000   1.0000   1.0000   1.0000   1.0000   1.0000   1.0000   1.0000
     1.0000   1.0000   1.0000   1.0000   1.0000   1.0000   1.0000   1.0000
     1.0000   1.0000   1.0000   1.0000   1.0000   1.0000   1.0000   1.0000
     1.0000   1.0000   1.0000   1.0000   1.0000   1.0000   1.0000   1.0000
     1.0000   1.0000   1.0000   1.0000   1.0000   1.0000   1.0000   1.0000
     1.0000   1.0000   1.0000   1.0000   1.0000   1.0000   1.0000   1.0000
     1.0000   1.0000   1.0000   1.0000   1.0000   1.0000   1.0000   1.0000
     1.0000   1.0000   1.0000   1.0000   1.0000   1.0000   1.0000   1.0000
     1.0000   1.0000   1.0000   1.0000   1.0000   1.0000   1.0000   1.0000
     0.0000   0.0000   0.0000   0.0000   0.0000   0.0000   0.0000   0.0000
     0.0000   0.0000

          k = 0.0000 0.0000 0.7012 ( 31286 PWs)   bands (ev):

   -83.0087 -82.9838 -82.9614 -82.6906 -49.1504 -49.1276 -49.1026 -48.9842
   -48.9779 -48.9357 -48.9343 -48.9209 -48.9048 -48.8728 -48.6565 -48.4997
   -43.0875 -15.6241 -15.3721 -15.2500 -15.1218 -15.0215 -14.9841 -14.8606
   -12.7842 -12.7038 -12.6286 -12.4858 -12.3817 -12.3376 -12.2667 -12.2534
   -12.2095 -12.1522 -12.1076 -12.0130  -2.5008  -2.1340  -1.9596  -1.6453
    -0.7636  -0.6291  -0.5251  -0.4416  -0.3779  -0.2303  -0.0374   0.0366
     0.1880   0.5086   0.6432   0.6856   1.0037   1.1232   1.5882   1.7210
     1.8304   1.8550   1.9873   2.1081   2.1555   2.1899   2.3033   2.6153
     2.7242   2.7806   2.8402   2.8645   2.9588   3.0280   3.0920   3.1917
     3.2944   3.4576   3.7135   3.7635   3.9514   4.0030   4.2213   4.2651
     4.3599   4.5896   4.6473   4.7120   4.7382   4.8742   4.9912   5.0649
     5.1243   5.2288   5.2829   5.4498   5.7402   5.7779   5.9071   6.0082
     6.0458   6.2751   6.5642   6.6081   6.7605   6.8513   6.8955   7.0173
    13.1324  14.4457  14.8876  14.9129  15.1374  15.4387  15.5666  15.9237
    15.9477  16.1140

     occupation numbers 
     1.0000   1.0000   1.0000   1.0000   1.0000   1.0000   1.0000   1.0000
     1.0000   1.0000   1.0000   1.0000   1.0000   1.0000   1.0000   1.0000
     1.0000   1.0000   1.0000   1.0000   1.0000   1.0000   1.0000   1.0000
     1.0000   1.0000   1.0000   1.0000   1.0000   1.0000   1.0000   1.0000
     1.0000   1.0000   1.0000   1.0000   1.0000   1.0000   1.0000   1.0000
     1.0000   1.0000   1.0000   1.0000   1.0000   1.0000   1.0000   1.0000
     1.0000   1.0000   1.0000   1.0000   1.0000   1.0000   1.0000   1.0000
     1.0000   1.0000   1.0000   1.0000   1.0000   1.0000   1.0000   1.0000
     1.0000   1.0000   1.0000   1.0000   1.0000   1.0000   1.0000   1.0000
     1.0000   1.0000   1.0000   1.0000   1.0000   1.0000   1.0000   1.0000
     1.0000   1.0000   1.0000   1.0000   1.0000   1.0000   1.0000   1.0000
     1.0000   1.0000   1.0000   1.0000   1.0000   1.0000   1.0000   1.0000
     1.0000   1.0000   1.0000   1.0000   1.0000   1.0000   1.0000   1.0000
     0.0000   0.0000   0.0000   0.0000   0.0000   0.0000   0.0000   0.0000
     0.0000   0.0000

          k = 0.0000 0.0000 0.9349 ( 31288 PWs)   bands (ev):

   -83.0087 -82.9838 -82.9614 -82.6906 -49.1504 -49.1276 -49.1026 -48.9842
   -48.9779 -48.9357 -48.9343 -48.9209 -48.9048 -48.8728 -48.6565 -48.4997
   -43.0875 -15.6341 -15.3379 -15.2363 -15.1179 -14.9978 -14.9666 -14.8743
   -12.8112 -12.7248 -12.6534 -12.5170 -12.3934 -12.3405 -12.2646 -12.2321
   -12.1982 -12.1636 -12.1254 -12.0284  -2.3629  -2.2039  -1.9087  -1.7518
    -0.7271  -0.6157  -0.4414  -0.3639  -0.2826  -0.2183  -0.1316  -0.0408
     0.2766   0.4409   0.6611   0.7895   1.2383   1.3492   1.5649   1.6589
     1.8099   1.9023   1.9646   2.0164   2.0821   2.1171   2.3396   2.5378
     2.6521   2.7490   2.7755   2.8255   2.8622   3.0541   3.0768   3.1958
     3.3046   3.3807   3.4952   3.5797   3.9853   4.1814   4.2095   4.3516
     4.4109   4.5654   4.6249   4.6519   4.6997   4.8506   4.9141   5.0827
     5.1151   5.2084   5.3909   5.4919   5.7041   5.8117   5.8626   6.1032
     6.2781   6.4734   6.5461   6.6270   6.6478   6.8017   6.8273   6.8803
    13.7482  14.3585  14.7074  15.0401  15.2465  15.3915  15.6424  15.7389
    15.9000  16.0337

     occupation numbers 
     1.0000   1.0000   1.0000   1.0000   1.0000   1.0000   1.0000   1.0000
     1.0000   1.0000   1.0000   1.0000   1.0000   1.0000   1.0000   1.0000
     1.0000   1.0000   1.0000   1.0000   1.0000   1.0000   1.0000   1.0000
     1.0000   1.0000   1.0000   1.0000   1.0000   1.0000   1.0000   1.0000
     1.0000   1.0000   1.0000   1.0000   1.0000   1.0000   1.0000   1.0000
     1.0000   1.0000   1.0000   1.0000   1.0000   1.0000   1.0000   1.0000
     1.0000   1.0000   1.0000   1.0000   1.0000   1.0000   1.0000   1.0000
     1.0000   1.0000   1.0000   1.0000   1.0000   1.0000   1.0000   1.0000
     1.0000   1.0000   1.0000   1.0000   1.0000   1.0000   1.0000   1.0000
     1.0000   1.0000   1.0000   1.0000   1.0000   1.0000   1.0000   1.0000
     1.0000   1.0000   1.0000   1.0000   1.0000   1.0000   1.0000   1.0000
     1.0000   1.0000   1.0000   1.0000   1.0000   1.0000   1.0000   1.0000
     1.0000   1.0000   1.0000   1.0000   1.0000   1.0000   1.0000   1.0000
     0.0000   0.0000   0.0000   0.0000   0.0000   0.0000   0.0000   0.0000
     0.0000   0.0000

          k = 0.0000 0.2391 0.0000 ( 31251 PWs)   bands (ev):

   -83.0087 -82.9838 -82.9614 -82.6906 -49.1504 -49.1276 -49.1026 -48.9841
   -48.9779 -48.9357 -48.9343 -48.9209 -48.9048 -48.8728 -48.6565 -48.4997
   -43.0876 -15.5785 -15.4789 -15.2582 -15.1346 -15.0959 -15.0643 -14.8439
   -12.7087 -12.6612 -12.5147 -12.4395 -12.4188 -12.3138 -12.2881 -12.2583
   -12.1699 -12.1019 -12.0565 -11.9766  -2.7027  -2.1823  -1.9527  -1.4452
    -1.1634  -0.7528  -0.6265  -0.5115  -0.3949  -0.1493  -0.0603  -0.0138
     0.1375   0.3858   0.5297   0.7525   0.8828   1.0621   1.6273   1.6577
     1.7078   1.8116   1.8855   1.9498   2.0374   2.3340   2.5982   2.6991
     2.8693   2.9368   2.9681   2.9911   3.0591   3.0983   3.2369   3.2790
     3.3879   3.6569   3.8089   3.9348   3.9750   4.0580   4.1085   4.2047
     4.3727   4.5059   4.6380   4.7004   4.7693   4.8799   5.0621   5.0970
     5.1906   5.2558   5.3766   5.4676   5.5461   5.6890   5.7174   5.8325
     5.8577   6.0374   6.4850   6.5573   6.7983   6.8945   7.2253   7.3089
    12.1791  14.2400  14.3801  14.8660  15.1432  15.3789  16.1013  16.3471
    16.5134  16.6166

     occupation numbers 
     1.0000   1.0000   1.0000   1.0000   1.0000   1.0000   1.0000   1.0000
     1.0000   1.0000   1.0000   1.0000   1.0000   1.0000   1.0000   1.0000
     1.0000   1.0000   1.0000   1.0000   1.0000   1.0000   1.0000   1.0000
     1.0000   1.0000   1.0000   1.0000   1.0000   1.0000   1.0000   1.0000
     1.0000   1.0000   1.0000   1.0000   1.0000   1.0000   1.0000   1.0000
     1.0000   1.0000   1.0000   1.0000   1.0000   1.0000   1.0000   1.0000
     1.0000   1.0000   1.0000   1.0000   1.0000   1.0000   1.0000   1.0000
     1.0000   1.0000   1.0000   1.0000   1.0000   1.0000   1.0000   1.0000
     1.0000   1.0000   1.0000   1.0000   1.0000   1.0000   1.0000   1.0000
     1.0000   1.0000   1.0000   1.0000   1.0000   1.0000   1.0000   1.0000
     1.0000   1.0000   1.0000   1.0000   1.0000   1.0000   1.0000   1.0000
     1.0000   1.0000   1.0000   1.0000   1.0000   1.0000   1.0000   1.0000
     1.0000   1.0000   1.0000   1.0000   1.0000   1.0000   1.0000   1.0000
     0.0000   0.0000   0.0000   0.0000   0.0000   0.0000   0.0000   0.0000
     0.0000   0.0000

          k = 0.0000 0.2391 0.2337 ( 31298 PWs)   bands (ev):

   -83.0087 -82.9838 -82.9614 -82.6906 -49.1504 -49.1276 -49.1026 -48.9841
   -48.9779 -48.9357 -48.9343 -48.9209 -48.9048 -48.8728 -48.6565 -48.4997
   -43.0876 -15.5725 -15.4717 -15.2656 -15.1353 -15.0817 -15.0518 -14.8415
   -12.7189 -12.6654 -12.5377 -12.4375 -12.4161 -12.3180 -12.2854 -12.2715
   -12.1680 -12.1088 -12.0662 -11.9814  -2.6751  -2.1661  -1.9548  -1.4654
    -1.0981  -0.7169  -0.6278  -0.4985  -0.3898  -0.1835  -0.0641   0.0646
     0.1529   0.4199   0.4756   0.7536   0.8847   1.0540   1.6006   1.6651
     1.7416   1.7928   1.8878   1.9786   2.0180   2.3185   2.6077   2.6715
     2.8003   2.8778   2.9312   3.0091   3.0804   3.1368   3.2122   3.2776
     3.4899   3.6264   3.7956   3.9140   3.9359   4.0468   4.0919   4.1877
     4.4258   4.4964   4.5587   4.7187   4.7946   4.9172   5.0092   5.0996
     5.1300   5.2672   5.3537   5.4483   5.6072   5.6491   5.7938   5.8430
     5.9113   6.0285   6.5066   6.5323   6.7767   6.8984   7.2074   7.2901
    12.3252  14.2797  14.4584  14.8670  15.2098  15.3755  16.1189  16.2068
    16.3835  16.4238

     occupation numbers 
     1.0000   1.0000   1.0000   1.0000   1.0000   1.0000   1.0000   1.0000
     1.0000   1.0000   1.0000   1.0000   1.0000   1.0000   1.0000   1.0000
     1.0000   1.0000   1.0000   1.0000   1.0000   1.0000   1.0000   1.0000
     1.0000   1.0000   1.0000   1.0000   1.0000   1.0000   1.0000   1.0000
     1.0000   1.0000   1.0000   1.0000   1.0000   1.0000   1.0000   1.0000
     1.0000   1.0000   1.0000   1.0000   1.0000   1.0000   1.0000   1.0000
     1.0000   1.0000   1.0000   1.0000   1.0000   1.0000   1.0000   1.0000
     1.0000   1.0000   1.0000   1.0000   1.0000   1.0000   1.0000   1.0000
     1.0000   1.0000   1.0000   1.0000   1.0000   1.0000   1.0000   1.0000
     1.0000   1.0000   1.0000   1.0000   1.0000   1.0000   1.0000   1.0000
     1.0000   1.0000   1.0000   1.0000   1.0000   1.0000   1.0000   1.0000
     1.0000   1.0000   1.0000   1.0000   1.0000   1.0000   1.0000   1.0000
     1.0000   1.0000   1.0000   1.0000   1.0000   1.0000   1.0000   1.0000
     0.0000   0.0000   0.0000   0.0000   0.0000   0.0000   0.0000   0.0000
     0.0000   0.0000

          k = 0.0000 0.2391 0.4675 ( 31274 PWs)   bands (ev):

   -83.0087 -82.9838 -82.9614 -82.6906 -49.1504 -49.1276 -49.1026 -48.9841
   -48.9779 -48.9357 -48.9343 -48.9209 -48.9048 -48.8728 -48.6565 -48.4997
   -43.0875 -15.5861 -15.4265 -15.2672 -15.1309 -15.0539 -15.0228 -14.8434
   -12.7500 -12.6795 -12.5898 -12.4502 -12.4070 -12.3346 -12.3119 -12.2556
   -12.1672 -12.1223 -12.0845 -11.9931  -2.5951  -2.1373  -1.9539  -1.5358
    -0.9195  -0.6555  -0.6047  -0.4786  -0.3712  -0.2156  -0.0515   0.1343
     0.2782   0.3309   0.5258   0.7189   0.9206   1.0418   1.5676   1.6763
     1.7196   1.8031   1.9667   1.9782   2.0858   2.2844   2.5178   2.6928
     2.7336   2.8167   2.8966   2.9544   3.0426   3.0973   3.1821   3.2706
     3.4398   3.6345   3.7391   3.8921   3.9033   3.9501   4.0944   4.2220
     4.3388   4.5682   4.6188   4.7127   4.7955   4.8394   5.0002   5.0367
     5.1074   5.2955   5.3406   5.4181   5.6305   5.7323   5.8408   5.9376
     5.9966   6.0315   6.4648   6.5851   6.7300   6.8918   7.1488   7.2354
    12.7171  14.3792  14.6883  14.9058  15.3550  15.4032  15.7769  16.0464
    16.1461  16.3273

     occupation numbers 
     1.0000   1.0000   1.0000   1.0000   1.0000   1.0000   1.0000   1.0000
     1.0000   1.0000   1.0000   1.0000   1.0000   1.0000   1.0000   1.0000
     1.0000   1.0000   1.0000   1.0000   1.0000   1.0000   1.0000   1.0000
     1.0000   1.0000   1.0000   1.0000   1.0000   1.0000   1.0000   1.0000
     1.0000   1.0000   1.0000   1.0000   1.0000   1.0000   1.0000   1.0000
     1.0000   1.0000   1.0000   1.0000   1.0000   1.0000   1.0000   1.0000
     1.0000   1.0000   1.0000   1.0000   1.0000   1.0000   1.0000   1.0000
     1.0000   1.0000   1.0000   1.0000   1.0000   1.0000   1.0000   1.0000
     1.0000   1.0000   1.0000   1.0000   1.0000   1.0000   1.0000   1.0000
     1.0000   1.0000   1.0000   1.0000   1.0000   1.0000   1.0000   1.0000
     1.0000   1.0000   1.0000   1.0000   1.0000   1.0000   1.0000   1.0000
     1.0000   1.0000   1.0000   1.0000   1.0000   1.0000   1.0000   1.0000
     1.0000   1.0000   1.0000   1.0000   1.0000   1.0000   1.0000   1.0000
     0.0000   0.0000   0.0000   0.0000   0.0000   0.0000   0.0000   0.0000
     0.0000   0.0000

          k = 0.0000 0.2391 0.7012 ( 31293 PWs)   bands (ev):

   -83.0087 -82.9838 -82.9614 -82.6906 -49.1504 -49.1276 -49.1026 -48.9842
   -48.9779 -48.9357 -48.9343 -48.9209 -48.9048 -48.8728 -48.6565 -48.4997
   -43.0875 -15.6064 -15.3699 -15.2555 -15.1255 -15.0245 -14.9949 -14.8491
   -12.7907 -12.7028 -12.6405 -12.4806 -12.4117 -12.3485 -12.3218 -12.2307
   -12.1721 -12.1296 -12.1046 -12.0086  -2.4743  -2.1373  -1.9345  -1.6457
    -0.7477  -0.6207  -0.5172  -0.4475  -0.3238  -0.2227  -0.0275   0.0788
     0.2301   0.4996   0.5991   0.6796   1.0262   1.0851   1.5118   1.6494
     1.7252   1.8660   1.9837   2.0804   2.1563   2.2944   2.3901   2.6192
     2.6697   2.7732   2.8612   2.9058   2.9811   3.0617   3.1002   3.1724
     3.2624   3.4542   3.6798   3.7854   3.9217   4.0150   4.1911   4.2530
     4.3095   4.5964   4.6201   4.7149   4.7656   4.8277   4.9111   5.0451
     5.1062   5.2561   5.3722   5.4669   5.7256   5.7541   5.8969   5.9540
     6.0612   6.1951   6.4072   6.5798   6.7432   6.8826   7.0575   7.1544
    13.2611  14.5212  14.9747  14.9952  15.2159  15.4698  15.5728  15.8436
    15.9212  16.1522

     occupation numbers 
     1.0000   1.0000   1.0000   1.0000   1.0000   1.0000   1.0000   1.0000
     1.0000   1.0000   1.0000   1.0000   1.0000   1.0000   1.0000   1.0000
     1.0000   1.0000   1.0000   1.0000   1.0000   1.0000   1.0000   1.0000
     1.0000   1.0000   1.0000   1.0000   1.0000   1.0000   1.0000   1.0000
     1.0000   1.0000   1.0000   1.0000   1.0000   1.0000   1.0000   1.0000
     1.0000   1.0000   1.0000   1.0000   1.0000   1.0000   1.0000   1.0000
     1.0000   1.0000   1.0000   1.0000   1.0000   1.0000   1.0000   1.0000
     1.0000   1.0000   1.0000   1.0000   1.0000   1.0000   1.0000   1.0000
     1.0000   1.0000   1.0000   1.0000   1.0000   1.0000   1.0000   1.0000
     1.0000   1.0000   1.0000   1.0000   1.0000   1.0000   1.0000   1.0000
     1.0000   1.0000   1.0000   1.0000   1.0000   1.0000   1.0000   1.0000
     1.0000   1.0000   1.0000   1.0000   1.0000   1.0000   1.0000   1.0000
     1.0000   1.0000   1.0000   1.0000   1.0000   1.0000   1.0000   1.0000
     0.0000   0.0000   0.0000   0.0000   0.0000   0.0000   0.0000   0.0000
     0.0000   0.0000

          k = 0.0000 0.2391 0.9349 ( 31292 PWs)   bands (ev):

   -83.0087 -82.9838 -82.9614 -82.6906 -49.1504 -49.1276 -49.1026 -48.9842
   -48.9779 -48.9357 -48.9343 -48.9209 -48.9048 -48.8728 -48.6565 -48.4997
   -43.0875 -15.6221 -15.3300 -15.2415 -15.1207 -15.0030 -14.9775 -14.8602
   -12.8191 -12.7235 -12.6677 -12.5144 -12.4214 -12.3496 -12.3202 -12.2070
   -12.1824 -12.1366 -12.1099 -12.0202  -2.3425  -2.1907  -1.8974  -1.7488
    -0.7015  -0.5996  -0.4424  -0.3674  -0.2388  -0.2021  -0.0889  -0.0290
     0.2998   0.4248   0.6613   0.7959   1.1783   1.2577   1.4172   1.5138
     1.8163   1.9410   2.0248   2.1159   2.1812   2.2273   2.3130   2.5106
     2.6269   2.7405   2.8040   2.8712   2.8974   3.0217   3.0644   3.1679
     3.2295   3.3649   3.4817   3.6312   3.9669   4.1395   4.1923   4.3067
     4.3716   4.5192   4.6614   4.7048   4.7293   4.8086   4.8573   5.0403
     5.1365   5.2236   5.4486   5.5211   5.7087   5.7968   5.8655   6.0563
     6.1456   6.3173   6.3782   6.5175   6.7898   6.8695   6.9763   7.0794
    13.8618  14.4381  14.7996  15.1281  15.3185  15.4369  15.6341  15.7046
    15.8873  16.1045

     occupation numbers 
     1.0000   1.0000   1.0000   1.0000   1.0000   1.0000   1.0000   1.0000
     1.0000   1.0000   1.0000   1.0000   1.0000   1.0000   1.0000   1.0000
     1.0000   1.0000   1.0000   1.0000   1.0000   1.0000   1.0000   1.0000
     1.0000   1.0000   1.0000   1.0000   1.0000   1.0000   1.0000   1.0000
     1.0000   1.0000   1.0000   1.0000   1.0000   1.0000   1.0000   1.0000
     1.0000   1.0000   1.0000   1.0000   1.0000   1.0000   1.0000   1.0000
     1.0000   1.0000   1.0000   1.0000   1.0000   1.0000   1.0000   1.0000
     1.0000   1.0000   1.0000   1.0000   1.0000   1.0000   1.0000   1.0000
     1.0000   1.0000   1.0000   1.0000   1.0000   1.0000   1.0000   1.0000
     1.0000   1.0000   1.0000   1.0000   1.0000   1.0000   1.0000   1.0000
     1.0000   1.0000   1.0000   1.0000   1.0000   1.0000   1.0000   1.0000
     1.0000   1.0000   1.0000   1.0000   1.0000   1.0000   1.0000   1.0000
     1.0000   1.0000   1.0000   1.0000   1.0000   1.0000   1.0000   1.0000
     0.0000   0.0000   0.0000   0.0000   0.0000   0.0000   0.0000   0.0000
     0.0000   0.0000

          k = 0.0000 0.4781 0.0000 ( 31226 PWs)   bands (ev):

   -83.0087 -82.9838 -82.9614 -82.6906 -49.1504 -49.1276 -49.1026 -48.9841
   -48.9779 -48.9357 -48.9343 -48.9209 -48.9048 -48.8728 -48.6565 -48.4997
   -43.0876 -15.5646 -15.4341 -15.2697 -15.1367 -15.0913 -15.0757 -14.8700
   -12.7261 -12.6518 -12.5391 -12.4946 -12.4430 -12.3188 -12.2906 -12.2460
   -12.1360 -12.0708 -12.0538 -11.9719  -2.6195  -2.2480  -1.8558  -1.4768
    -1.0827  -0.7809  -0.6408  -0.5287  -0.2853  -0.1466  -0.0317   0.0461
     0.2240   0.4116   0.5954   0.7730   0.8448   1.1354   1.4995   1.5661
     1.7158   1.7448   1.7914   1.8671   2.0005   2.3916   2.5147   2.6998
     2.7499   2.8707   2.9375   3.0067   3.1035   3.1648   3.2702   3.3486
     3.5551   3.5957   3.7774   3.8563   3.9336   3.9925   4.0720   4.2786
     4.4078   4.5122   4.5593   4.6828   4.7552   4.8441   4.9048   4.9690
     5.1205   5.1447   5.4613   5.5263   5.6270   5.7096   5.7442   5.8559
     5.9363   6.0142   6.3432   6.5150   6.7362   7.0306   7.2901   7.3583
    12.6093  14.3630  14.6536  14.7187  15.3971  15.6410  15.8875  16.0809
    16.3990  16.5647

     occupation numbers 
     1.0000   1.0000   1.0000   1.0000   1.0000   1.0000   1.0000   1.0000
     1.0000   1.0000   1.0000   1.0000   1.0000   1.0000   1.0000   1.0000
     1.0000   1.0000   1.0000   1.0000   1.0000   1.0000   1.0000   1.0000
     1.0000   1.0000   1.0000   1.0000   1.0000   1.0000   1.0000   1.0000
     1.0000   1.0000   1.0000   1.0000   1.0000   1.0000   1.0000   1.0000
     1.0000   1.0000   1.0000   1.0000   1.0000   1.0000   1.0000   1.0000
     1.0000   1.0000   1.0000   1.0000   1.0000   1.0000   1.0000   1.0000
     1.0000   1.0000   1.0000   1.0000   1.0000   1.0000   1.0000   1.0000
     1.0000   1.0000   1.0000   1.0000   1.0000   1.0000   1.0000   1.0000
     1.0000   1.0000   1.0000   1.0000   1.0000   1.0000   1.0000   1.0000
     1.0000   1.0000   1.0000   1.0000   1.0000   1.0000   1.0000   1.0000
     1.0000   1.0000   1.0000   1.0000   1.0000   1.0000   1.0000   1.0000
     1.0000   1.0000   1.0000   1.0000   1.0000   1.0000   1.0000   1.0000
     0.0000   0.0000   0.0000   0.0000   0.0000   0.0000   0.0000   0.0000
     0.0000   0.0000

[...]
     atom   19 type  3   force =    -0.04924426   -0.10658243   -0.06510505
     atom   20 type  3   force =    -0.05128257    0.10430571    0.05069201
     atom   21 type  3   force =     0.05687540   -0.09580271    0.04512735
     atom   22 type  3   force =    -0.04283363   -0.10314817    0.04770565
     atom   23 type  3   force =     0.04323966    0.09910110    0.05924353
     atom   24 type  3   force =     0.04818703   -0.10232762   -0.05884225
     atom   25 type  3   force =    -0.04408596    0.10945445   -0.06214470
     The non-local contrib.  to forces
     atom    1 type  2   force =     0.07096142   -0.03713393   -0.00818568
     atom    2 type  1   force =     0.06213066   -0.02853097    0.14026328
     atom    3 type  1   force =     0.06039133    0.00131321    0.11878147
     atom    4 type  1   force =    -0.16110598    0.06435371   -0.11175241
     atom    5 type  1   force =    -0.04875011   -0.01419911   -0.11241726
     atom    6 type  4   force =    -0.02012238   -0.00037579   -0.04870928
     atom    7 type  4   force =     0.04442224    0.00292026   -0.01969150
     atom    8 type  4   force =    -0.00133613   -0.00843500    0.05092507
     atom    9 type  4   force =     0.00233637    0.00362051    0.05019236
     atom   10 type  3   force =     0.25801843    0.01920028   -1.43006600
     atom   11 type  3   force =    -0.08288023    0.00968017   -1.36933308
     atom   12 type  3   force =    -0.33829706   -0.01796607    1.43414064
     atom   13 type  3   force =     0.19264171    0.01152229    1.42648469
     atom   14 type  3   force =     1.18116893    0.01312919   -0.55901811
     atom   15 type  3   force =    -1.15266871   -0.01685482   -0.69080918
     atom   16 type  3   force =    -1.16342600    0.03695943    0.29230983
     atom   17 type  3   force =     1.13105152    0.00734849    0.56227902
     atom   18 type  3   force =    -0.51187118   -1.04863408    0.73688215
     atom   19 type  3   force =     0.55249633    1.09133637    0.78863398
     atom   20 type  3   force =     0.57693035   -1.07320203   -0.67906535
     atom   21 type  3   force =    -0.62344393    1.01238410   -0.60404721
     atom   22 type  3   force =     0.51298127    1.04955318   -0.64578621
     atom   23 type  3   force =    -0.51917701   -1.02797772   -0.72427636
     atom   24 type  3   force =    -0.51936222    1.05763001    0.72953533
     atom   25 type  3   force =     0.51201906   -1.13054542    0.75020608
     The ionic contribution  to forces
     atom    1 type  2   force =    -2.83256298   -0.35241501    1.34750940
     atom    2 type  1   force =    -0.20592039    0.27487056   -0.43519761
     atom    3 type  1   force =    -9.61667638   -0.74553854   -0.50971473
     atom    4 type  1   force =     3.45043842   -0.93486679    0.13003713
     atom    5 type  1   force =     9.76490973    1.15871690    0.83256033
     atom    6 type  4   force =    -3.98776407    0.03823752    0.34692383
     atom    7 type  4   force =     0.82321884   -0.88214464    0.62794479
     atom    8 type  4   force =     5.49606236    0.02467472   -0.50850958
     atom    9 type  4   force =    -2.83559142    1.02145827   -0.85109909
     atom   10 type  3   force =   -11.45131498   -0.07976661    3.01584296
     atom   11 type  3   force =     4.61378646   -1.53420903    1.43761224
     atom   12 type  3   force =    13.30471678    0.20819099   -3.14531926
     atom   13 type  3   force =    -8.96623098    1.23311939   -2.51681045
     atom   14 type  3   force =     0.45229961    1.22843236    5.78638904
     atom   15 type  3   force =    -2.32410483    0.13401048    7.51911581
     atom   16 type  3   force =    -1.80788988   -2.04036516   -2.61610926
     atom   17 type  3   force =     3.93238580   -0.12757048   -6.64856085
     atom   18 type  3   force =    -4.59255802    2.97213147   -3.34258093
     atom   19 type  3   force =     1.26990686   -3.96531717   -3.30458448
     atom   20 type  3   force =     5.90274446    4.40638768    2.94050618
     atom   21 type  3   force =     0.59684014   -1.35978673    0.21072666
     atom   22 type  3   force =     5.80470563   -4.28725088    2.50720760
     atom   23 type  3   force =    -2.32138733    2.12055809    2.74412737
     atom   24 type  3   force =    -4.85246927   -3.14582097   -3.26460014
     atom   25 type  3   force =     0.38245545    4.63426360   -2.30341697
     The local contribution  to forces
     atom    1 type  2   force =     2.76540463    0.40244274   -1.33724122
     atom    2 type  1   force =     0.15640264   -0.25270800    0.30663802
     atom    3 type  1   force =     9.56076847    0.74412538    0.39778727
     atom    4 type  1   force =    -3.31848365    0.87955000   -0.02307568
     atom    5 type  1   force =    -9.71925795   -1.14734642   -0.72837429
     atom    6 type  4   force =     4.00139435   -0.03887409   -0.31296149
     atom    7 type  4   force =    -0.85351689    0.87757782   -0.61371466
     atom    8 type  4   force =    -5.49558024   -0.01824304    0.47159738
     atom    9 type  4   force =     2.83386128   -1.02148029    0.81429859
     atom   10 type  3   force =    11.17395616    0.05827191   -1.47277778
     atom   11 type  3   force =    -4.52944186    1.52242907    0.04654484
     atom   12 type  3   force =   -12.94037779   -0.19015929    1.59693160
     atom   13 type  3   force =     8.75640257   -1.24758925    0.96992651
     atom   14 type  3   force =    -1.74359384   -1.24587553   -5.18072713
     atom   15 type  3   force =     3.58197370   -0.11554886   -6.77389778
     atom   16 type  3   force =     3.07866691    1.99829033    2.30257666
     atom   17 type  3   force =    -5.16181092    0.11914154    6.04054924
     atom   18 type  3   force =     5.14813017   -1.83059074    2.55252679
     atom   19 type  3   force =    -1.86767616    2.77522082    2.45698273
     atom   20 type  3   force =    -6.52672208   -3.23664566   -2.21600062
     atom   21 type  3   force =     0.07897991    0.25899111    0.43369831
     atom   22 type  3   force =    -6.35677800    3.14212238   -1.81867867
     atom   23 type  3   force =     2.88004069   -1.00089214   -1.96627408
     atom   24 type  3   force =     5.41627765    1.99350024    2.48185927
     atom   25 type  3   force =    -0.93489382   -3.40250933    1.49688759
     The core correction contribution to forces
     atom    1 type  2   force =     0.00000000    0.00000000    0.00000000
     atom    2 type  1   force =    -0.00149125    0.00040308   -0.00057048
     atom    3 type  1   force =    -0.00024447   -0.00005249    0.00031909
     atom    4 type  1   force =     0.00407055   -0.00090258   -0.00022672
     atom    5 type  1   force =     0.00014629    0.00024967   -0.00001068
     atom    6 type  4   force =     0.00205205    0.00004478    0.00300855
     atom    7 type  4   force =    -0.00307675    0.00012742    0.00077942
     atom    8 type  4   force =    -0.00095079    0.00047254   -0.00301518
     atom    9 type  4   force =     0.00036811   -0.00087463   -0.00269596
     atom   10 type  3   force =    -0.00256974   -0.00014732    0.01048429
     atom   11 type  3   force =     0.00135585   -0.00004309    0.00987500
     atom   12 type  3   force =     0.00320127    0.00017119   -0.01046167
     atom   13 type  3   force =    -0.00203919   -0.00006448   -0.01036061
     atom   14 type  3   force =    -0.00816222   -0.00008613    0.00454965
     atom   15 type  3   force =     0.00801288    0.00012671    0.00554038
     atom   16 type  3   force =     0.00796665   -0.00022731   -0.00252685
     atom   17 type  3   force =    -0.00793763   -0.00004970   -0.00455095
     atom   18 type  3   force =     0.00367655    0.00754978   -0.00572179
     atom   19 type  3   force =    -0.00397240   -0.00782798   -0.00613425
     atom   20 type  3   force =    -0.00423310    0.00776681    0.00525146
     atom   21 type  3   force =     0.00449606   -0.00738973    0.00475059
     atom   22 type  3   force =    -0.00374014   -0.00757398    0.00496255
     atom   23 type  3   force =     0.00375990    0.00741087    0.00566778
     atom   24 type  3   force =     0.00374514   -0.00763266   -0.00563960
     atom   25 type  3   force =    -0.00366785    0.00825064   -0.00581842
     The Hubbard contrib.    to forces
     atom    1 type  2   force =     0.00000000    0.00000000    0.00000000
     atom    2 type  1   force =     0.00000000    0.00000000    0.00000000
     atom    3 type  1   force =     0.00000000    0.00000000    0.00000000
     atom    4 type  1   force =     0.00000000    0.00000000    0.00000000
     atom    5 type  1   force =     0.00000000    0.00000000    0.00000000
     atom    6 type  4   force =     0.00000000    0.00000000    0.00000000
     atom    7 type  4   force =     0.00000000    0.00000000    0.00000000
     atom    8 type  4   force =     0.00000000    0.00000000    0.00000000
     atom    9 type  4   force =     0.00000000    0.00000000    0.00000000
     atom   10 type  3   force =     0.00000000    0.00000000    0.00000000
     atom   11 type  3   force =     0.00000000    0.00000000    0.00000000
     atom   12 type  3   force =     0.00000000    0.00000000    0.00000000
     atom   13 type  3   force =     0.00000000    0.00000000    0.00000000
     atom   14 type  3   force =     0.00000000    0.00000000    0.00000000
     atom   15 type  3   force =     0.00000000    0.00000000    0.00000000
     atom   16 type  3   force =     0.00000000    0.00000000    0.00000000
     atom   17 type  3   force =     0.00000000    0.00000000    0.00000000
     atom   18 type  3   force =     0.00000000    0.00000000    0.00000000
     atom   19 type  3   force =     0.00000000    0.00000000    0.00000000
     atom   20 type  3   force =     0.00000000    0.00000000    0.00000000
     atom   21 type  3   force =     0.00000000    0.00000000    0.00000000
     atom   22 type  3   force =     0.00000000    0.00000000    0.00000000
     atom   23 type  3   force =     0.00000000    0.00000000    0.00000000
     atom   24 type  3   force =     0.00000000    0.00000000    0.00000000
     atom   25 type  3   force =     0.00000000    0.00000000    0.00000000
     The SCF correction term to forces
     atom    1 type  2   force =     0.00000660   -0.00000122   -0.00000033
     atom    2 type  1   force =     0.00000085   -0.00000022   -0.00000012
     atom    3 type  1   force =    -0.00000387   -0.00000001    0.00000054
     atom    4 type  1   force =    -0.00000014    0.00000057   -0.00000039
     atom    5 type  1   force =    -0.00000113    0.00000013   -0.00000054
     atom    6 type  4   force =    -0.00000392    0.00000004    0.00000073
     atom    7 type  4   force =     0.00000219    0.00000010   -0.00000009
     atom    8 type  4   force =    -0.00000284   -0.00000007    0.00000037
     atom    9 type  4   force =     0.00000424    0.00000010    0.00000015
     atom   10 type  3   force =    -0.00000689   -0.00000000   -0.00000341
     atom   11 type  3   force =     0.00000065    0.00000003    0.00000118
     atom   12 type  3   force =    -0.00000468   -0.00000019   -0.00000143
     atom   13 type  3   force =     0.00000521    0.00000010   -0.00000038
     atom   14 type  3   force =     0.00000821   -0.00000004    0.00000161
     atom   15 type  3   force =    -0.00000224   -0.00000018   -0.00000069
     atom   16 type  3   force =     0.00000673    0.00000000    0.00000066
     atom   17 type  3   force =    -0.00000517    0.00000010    0.00000068
     atom   18 type  3   force =    -0.00000432    0.00000432    0.00000347
     atom   19 type  3   force =     0.00000111    0.00000546   -0.00000243
     atom   20 type  3   force =    -0.00000219   -0.00000116    0.00000093
     atom   21 type  3   force =     0.00000323   -0.00000154   -0.00000040
     atom   22 type  3   force =    -0.00000239    0.00000107    0.00000097
     atom   23 type  3   force =     0.00000343    0.00000192   -0.00000057
     atom   24 type  3   force =    -0.00000428   -0.00000431    0.00000349
     atom   25 type  3   force =     0.00000119   -0.00000512   -0.00000239

     Total force =     0.506156     Total SCF correction =     0.000024


     Computing stress (Cartesian axis) and pressure


     negative rho (up, down):  0.000E+00 9.112E-04
          total   stress  (Ry/bohr**3)                   (kbar)     P=      299.65
   0.00216387   0.00006121  -0.00004760          318.32        9.00       -7.00
   0.00006121   0.00171822  -0.00004499            9.00      252.76       -6.62
  -0.00004760  -0.00004499   0.00222891           -7.00       -6.62      327.88

     kinetic stress (kbar)  31470.73     -3.67    -13.23
                               -3.67  31673.82     -8.68
                              -13.23     -8.68  31466.12

     local   stress (kbar)  -2974.26  -2084.21   1295.37
                            -2084.21 -14880.19    785.31
                             1295.37    785.31  -7917.81

     nonloc. stress (kbar)  -8106.69     -3.24      2.25
                               -3.24  -8013.62      1.94
                                2.25      1.94  -8012.29

     hartree stress (kbar)  13710.47    826.51   -510.53
                              826.51  20283.53   -304.05
                             -510.53   -304.05  16721.36

     exc-cor stress (kbar)  -3319.69      1.34     -1.06
                                1.34  -3328.98     -0.59
                               -1.06     -0.59  -3326.15

     corecor stress (kbar)  -3641.66     -0.43      1.07
                               -0.43  -3639.26      0.04
                                1.07      0.04  -3642.20

     ewald   stress (kbar) -26820.57   1272.71   -780.87
                             1272.71 -21842.53   -480.60
                             -780.87   -480.60 -24961.16

     hubbard stress (kbar)      0.00      0.00      0.00
                                0.00      0.00      0.00
                                0.00      0.00      0.00

     DFT-D   stress (kbar)      0.00      0.00      0.00
                                0.00      0.00      0.00
                                0.00      0.00      0.00

     XDM     stress (kbar)      0.00      0.00      0.00
                                0.00      0.00      0.00
                                0.00      0.00      0.00

     dft-nl  stress (kbar)      0.00      0.00      0.00
                                0.00      0.00      0.00
                                0.00      0.00      0.00

     TS-vdW  stress (kbar)      0.00      0.00      0.00
                                0.00      0.00      0.00
                                0.00      0.00      0.00



     init_run     :    168.41s CPU    172.63s WALL (       1 calls)
     electrons    :  14505.90s CPU  14736.29s WALL (       1 calls)
     forces       :    164.14s CPU    174.36s WALL (       1 calls)
     stress       :    623.42s CPU    661.05s WALL (       1 calls)

     Called by init_run:
     wfcinit      :    159.78s CPU    163.15s WALL (       1 calls)
     wfcinit:atom :      3.00s CPU      3.08s WALL (     316 calls)
     wfcinit:wfcr :    147.72s CPU    150.81s WALL (     316 calls)
     potinit      :      3.26s CPU      3.39s WALL (       1 calls)
     hinit0       :      3.00s CPU      3.18s WALL (       1 calls)

     Called by electrons:
     c_bands      :  13005.03s CPU  13179.34s WALL (      31 calls)
     sum_band     :   1419.86s CPU   1459.39s WALL (      31 calls)
     v_of_rho     :     21.46s CPU     22.63s WALL (      32 calls)
     v_h          :      0.77s CPU      0.86s WALL (      32 calls)
     v_xc         :     22.19s CPU     23.38s WALL (      34 calls)
     newd         :     40.26s CPU     55.53s WALL (      32 calls)
     PAW_pot      :     14.92s CPU     15.04s WALL (      32 calls)
     mix_rho      :      4.85s CPU      5.14s WALL (      31 calls)

     Called by c_bands:
     init_us_2    :    242.51s CPU    248.79s WALL (   20540 calls)
     cegterg      :  12600.60s CPU  12765.53s WALL (    9796 calls)

     Called by sum_band:
     sum_band:wei :      0.51s CPU      0.51s WALL (      31 calls)
     sum_band:loo :   1301.57s CPU   1320.32s WALL (      31 calls)
     sum_band:buf :     64.91s CPU     66.40s WALL (    9796 calls)
     sum_band:ini :    117.86s CPU    120.50s WALL (    9796 calls)
     sum_band:cal :    609.66s CPU    617.38s WALL (    9796 calls)
     sum_band:bec :      6.79s CPU      6.92s WALL (    9796 calls)
     addusdens    :    115.64s CPU    136.27s WALL (      31 calls)
     addusd:skk   :      0.74s CPU      0.76s WALL (      93 calls)
     addusd:dgemm :     62.36s CPU     79.91s WALL (     186 calls)
     addusd:qvan2 :     51.19s CPU     51.52s WALL (     186 calls)

     Called by *egterg:
     cdiaghg      :    914.66s CPU    937.54s WALL (   39439 calls)
     cegterg:over :   1268.77s CPU   1293.02s WALL (   29643 calls)
     cegterg:upda :    676.26s CPU    680.83s WALL (   29643 calls)
     cegterg:last :   1416.35s CPU   1425.09s WALL (   17712 calls)
     h_psi        :   6063.64s CPU   6150.30s WALL (   39755 calls)
     s_psi        :   1515.84s CPU   1524.58s WALL (   39755 calls)
     g_psi        :     11.98s CPU     12.14s WALL (   29643 calls)

     Called by h_psi:
     h_psi:calbec :   1662.35s CPU   1684.90s WALL (   39755 calls)
     vloc_psi     :   2596.67s CPU   2646.73s WALL (   39755 calls)
     add_vuspsi   :   1664.44s CPU   1674.21s WALL (   39755 calls)

     General routines
     calbec       :   2465.18s CPU   2508.43s WALL (   51131 calls)
     fft          :     14.84s CPU     16.41s WALL (     838 calls)
     ffts         :      0.50s CPU      0.65s WALL (     126 calls)
     fftw         :   2883.59s CPU   2936.98s WALL ( 6304700 calls)
     interpolate  :      1.31s CPU      1.56s WALL (      64 calls)

     Parallel routines
     fft_scatt_xy :    261.37s CPU    264.71s WALL ( 6305664 calls)
     fft_scatt_yz :   1129.48s CPU   1162.74s WALL ( 6305664 calls)

     PAW routines
     PAW_pot      :     14.92s CPU     15.04s WALL (      32 calls)

     PWSCF        :      4h17m CPU      4h22m WALL


   This run was terminated on:  12:16:53  19Dec2022            

=------------------------------------------------------------------------------=
   JOB DONE.
=------------------------------------------------------------------------------=
Note: The following floating-point exceptions are signalling: IEEE_INVALID_FLAG IEEE_UNDERFLOW_FLAG IEEE_DENORMAL
Note: The following floating-point exceptions are signalling: IEEE_DENORMAL
Note: The following floating-point exceptions are signalling: IEEE_DENORMAL
Note: The following floating-point exceptions are signalling: IEEE_DENORMAL
Note: The following floating-point exceptions are signalling: IEEE_DENORMAL
Note: The following floating-point exceptions are signalling: IEEE_INVALID_FLAG IEEE_DENORMAL
Note: The following floating-point exceptions are signalling: IEEE_INVALID_FLAG IEEE_DENORMAL
Note: The following floating-point exceptions are signalling: IEEE_DENORMAL
Note: The following floating-point exceptions are signalling: IEEE_INVALID_FLAG IEEE_DENORMAL
Note: The following floating-point exceptions are signalling: IEEE_DENORMAL
Note: The following floating-point exceptions are signalling: IEEE_DENORMAL
Note: The following floating-point exceptions are signalling: IEEE_DENORMAL
Note: The following floating-point exceptions are signalling: IEEE_INVALID_FLAG IEEE_DENORMAL
Note: The following floating-point exceptions are signalling: IEEE_INVALID_FLAG IEEE_DENORMAL
Note: The following floating-point exceptions are signalling: IEEE_INVALID_FLAG IEEE_DENORMAL
Note: The following floating-point exceptions are signalling: IEEE_INVALID_FLAG IEEE_DENORMAL
Note: The following floating-point exceptions are signalling: IEEE_DENORMAL
Note: The following floating-point exceptions are signalling: IEEE_DENORMAL
