
     Program PWSCF v.6.7MaX starts on 18Dec2022 at 19:20:35 

     This program is part of the open-source Quantum ESPRESSO suite
     for quantum simulation of materials; please cite
         "P. Giannozzi et al., J. Phys.:Condens. Matter 21 395502 (2009);
         "P. Giannozzi et al., J. Phys.:Condens. Matter 29 465901 (2017);
          URL http://www.quantum-espresso.org", 
     in publications or presentations arising from this work. More details at
     http://www.quantum-espresso.org/quote

     Parallel version (MPI), running on    24 processors

     MPI processes distributed on     1 nodes
     R & G space division:  proc/nbgrp/npool/nimage =      24
     Reading input from scale_1da-02.in

     Current dimensions of program PWSCF are:
     Max number of different atomic species (ntypx) = 10
     Max number of k-points (npk) =  40000
     Max angular momentum in pseudopotentials (lmaxx) =  3
     Message from routine read_pp_mesh:
     mesh size missing, using the one in header
     file Fe.pbe-spn-kjpaw_psl.0.2.1.UPF: wavefunction(s)  3D renormalized
     file O.pbe-n-kjpaw_psl.0.1.UPF: wavefunction(s)  2P renormalized

     Subspace diagonalization in iterative solution of the eigenvalue problem:
     a serial algorithm will be used


     Parallelization info
     --------------------
     sticks:   dense  smooth     PW     G-vecs:    dense   smooth      PW
     Min         814     301     81                53060    11960    1683
     Max         815     303     82                53063    11961    1686
     Sum       19549    7233   1959              1273469   287059   40409



     bravais-lattice index     =            0
     lattice parameter (alat)  =      19.3373  a.u.
     unit-cell volume          =    2124.3518 (a.u.)^3
     number of atoms/cell      =           25
     number of atomic types    =            4
     number of electrons       =       189.00
     number of Kohn-Sham states=          114
     kinetic-energy cutoff     =     100.0000  Ry
     charge density cutoff     =    1080.0000  Ry
     scf convergence threshold =      2.0E-10
     mixing beta               =       0.4000
     number of iterations used =            8  plain     mixing
     Exchange-correlation= PBE
                           (   1   4   3   4   0   0   0)

     celldm(1)=  19.337306  celldm(2)=   0.000000  celldm(3)=   0.000000
     celldm(4)=   0.000000  celldm(5)=   0.000000  celldm(6)=   0.000000

     crystal axes: (cart. coord. in units of alat)
               a(1) = (   1.000000   0.000000   0.000000 )  
               a(2) = (   0.000000   0.607719   0.000000 )  
               a(3) = (   0.000000   0.000000   0.483433 )  

     reciprocal axes: (cart. coord. in units 2 pi/alat)
               b(1) = (  1.000000  0.000000  0.000000 )  
               b(2) = (  0.000000  1.645499  0.000000 )  
               b(3) = (  0.000000  0.000000  2.068540 )  


     PseudoPot. # 1 for Fe read from file:
     /opt/QEpot/SSSP_precision_pseudos/Fe.pbe-spn-kjpaw_psl.0.2.1.UPF
     MD5 check sum: e86618425769142926afa95317d90200
     Pseudo is Projector augmented-wave + core cor, Zval = 16.0
     Generated using "atomic" code by A. Dal Corso  v.5.0.99 svn rev. 10869
     Shape of augmentation charge: PSQ
     Using radial grid of 1191 points,  6 beta functions with: 
                l(1) =   0
                l(2) =   0
                l(3) =   1
                l(4) =   1
                l(5) =   2
                l(6) =   2
     Q(r) pseudized with 0 coefficients 


     PseudoPot. # 2 for Na read from file:
     /opt/QEpot/SSSP_precision_pseudos/Na_ONCV_PBE-1.0.oncvpsp.upf
     MD5 check sum: 24a298df0a6742ae313db96548fdb2a4
     Pseudo is Norm-conserving, Zval =  9.0
     Generated using ONCVPSP code by D. R. Hamann
     Using radial grid of 1992 points,  4 beta functions with: 
                l(1) =   0
                l(2) =   0
                l(3) =   1
                l(4) =   1

     PseudoPot. # 3 for O  read from file:
     /opt/QEpot/SSSP_precision_pseudos/O.pbe-n-kjpaw_psl.0.1.UPF
     MD5 check sum: 0234752ac141de4415c5fc33072bef88
     Pseudo is Projector augmented-wave + core cor, Zval =  6.0
     Generated using "atomic" code by A. Dal Corso  v.5.0.99 svn rev. 10869
     Shape of augmentation charge: BESSEL
     Using radial grid of 1095 points,  4 beta functions with: 
                l(1) =   0
                l(2) =   0
                l(3) =   1
                l(4) =   1
     Q(r) pseudized with 0 coefficients 


     PseudoPot. # 4 for P  read from file:
     /opt/QEpot/SSSP_precision_pseudos/P.pbe-n-rrkjus_psl.1.0.0.UPF
     MD5 check sum: 8b930f418f0a4573dca56cd030ffe088
     Pseudo is Ultrasoft + core correction, Zval =  5.0
     Generated using "atomic" code by A. Dal Corso  v.5.1
     Using radial grid of 1147 points,  6 beta functions with: 
                l(1) =   0
                l(2) =   0
                l(3) =   1
                l(4) =   1
                l(5) =   2
                l(6) =   2
     Q(r) pseudized with 0 coefficients 


     atomic species   valence    mass     pseudopotential
        Fe            16.00    55.84500     Fe( 1.00)
        Na             9.00    22.98977     Na( 1.00)
        O              6.00    15.99940     O ( 1.00)
        P              5.00    30.97376     P ( 1.00)

     Starting magnetic structure 
     atomic species   magnetization
        Fe           0.312
        Na           0.000
        O            0.000
        P            0.000

     No symmetry found


                                    s                        frac. trans.

      isym =  1     identity                                     

 cryst.   s( 1) = (     1          0          0      )
                  (     0          1          0      )
                  (     0          0          1      )

 cart.    s( 1) = (  1.0000000  0.0000000  0.0000000 )
                  (  0.0000000  1.0000000  0.0000000 )
                  (  0.0000000  0.0000000  1.0000000 )


   Cartesian axes

     site n.     atom                  positions (alat units)
         1           Na  tau(   1) = (   0.5426070   0.2164511   0.2255102  )
         2           Fe  tau(   2) = (   0.2774940   0.4546233   0.4796682  )
         3           Fe  tau(   3) = (   0.2102570   0.1499892   0.2371624  )
         4           Fe  tau(   4) = (   0.7280950   0.1453973   0.0019594  )
         5           Fe  tau(   5) = (   0.7825800   0.4568725   0.2474943  )
         6           P   tau(   6) = (   0.1059480   0.4542556   0.2146818  )
         7           P   tau(   7) = (   0.3878490   0.1477856   0.4560433  )
         8           P   tau(   8) = (   0.8915560   0.1514708   0.2693107  )
         9           P   tau(   9) = (   0.6054980   0.4553860   0.0289697  )
        10           O   tau(  10) = (   0.1317880   0.4531210   0.3630952  )
        11           O   tau(  11) = (   0.3634070   0.1507750   0.1212913  )
        12           O   tau(  12) = (   0.8709790   0.1508631   0.1202718  )
        13           O   tau(  13) = (   0.6302560   0.4521633   0.3637024  )
        14           O   tau(  14) = (   0.4595490   0.4522113   0.0586539  )
        15           O   tau(  15) = (   0.0359180   0.1522985   0.3027430  )
        16           O   tau(  16) = (   0.5363260   0.1487264   0.4333090  )
        17           O   tau(  17) = (   0.9593080   0.4542052   0.1885663  )
        18           O   tau(  18) = (   0.1746370   0.5734773   0.1456201  )
        19           O   tau(  19) = (   0.3201300   0.0295564   0.3870599  )
        20           O   tau(  20) = (   0.8159810   0.2676247   0.3363517  )
        21           O   tau(  21) = (   0.6759000   0.3371641   0.0997259  )
        22           O   tau(  22) = (   0.8190690   0.0328022   0.3367742  )
        23           O   tau(  23) = (   0.6753190   0.5742807   0.0981465  )
        24           O   tau(  24) = (   0.1755980   0.3362969   0.1443680  )
        25           O   tau(  25) = (   0.3240220   0.2666687   0.3824673  )

   Crystallographic axes

     site n.     atom                  positions (cryst. coord.)
         1           Na  tau(   1) = (  0.5426070  0.3561700  0.4664770  )
         2           Fe  tau(   2) = (  0.2774940  0.7480820  0.9922130  )
         3           Fe  tau(   3) = (  0.2102570  0.2468070  0.4905800  )
         4           Fe  tau(   4) = (  0.7280950  0.2392510  0.0040530  )
         5           Fe  tau(   5) = (  0.7825800  0.7517830  0.5119520  )
         6           P   tau(   6) = (  0.1059480  0.7474770  0.4440780  )
         7           P   tau(   7) = (  0.3878490  0.2431810  0.9433440  )
         8           P   tau(   8) = (  0.8915560  0.2492450  0.5570800  )
         9           P   tau(   9) = (  0.6054980  0.7493370  0.0599250  )
        10           O   tau(  10) = (  0.1317880  0.7456100  0.7510770  )
        11           O   tau(  11) = (  0.3634070  0.2481000  0.2508960  )
        12           O   tau(  12) = (  0.8709790  0.2482450  0.2487870  )
        13           O   tau(  13) = (  0.6302560  0.7440340  0.7523330  )
        14           O   tau(  14) = (  0.4595490  0.7441130  0.1213280  )
        15           O   tau(  15) = (  0.0359180  0.2506070  0.6262360  )
        16           O   tau(  16) = (  0.5363260  0.2447290  0.8963170  )
        17           O   tau(  17) = (  0.9593080  0.7473940  0.3900570  )
        18           O   tau(  18) = (  0.1746370  0.9436560  0.3012210  )
        19           O   tau(  19) = (  0.3201300  0.0486350  0.8006490  )
        20           O   tau(  20) = (  0.8159810  0.4403760  0.6957570  )
        21           O   tau(  21) = (  0.6759000  0.5548030  0.2062870  )
        22           O   tau(  22) = (  0.8190690  0.0539760  0.6966310  )
        23           O   tau(  23) = (  0.6753190  0.9449780  0.2030200  )
        24           O   tau(  24) = (  0.1755980  0.5533760  0.2986310  )
        25           O   tau(  25) = (  0.3240220  0.4388030  0.7911490  )

     number of k points=   158  Marzari-Vanderbilt smearing, width (Ry)=  0.0073
                       cart. coord. in units 2pi/alat
        k(    1) = (   0.0000000   0.0000000   0.0000000), wk =   0.0031746
        k(    2) = (   0.0000000   0.0000000   0.2298378), wk =   0.0063492
        k(    3) = (   0.0000000   0.0000000   0.4596756), wk =   0.0063492
        k(    4) = (   0.0000000   0.0000000   0.6895134), wk =   0.0063492
        k(    5) = (   0.0000000   0.0000000   0.9193512), wk =   0.0063492
        k(    6) = (   0.0000000   0.2350712   0.0000000), wk =   0.0063492
        k(    7) = (   0.0000000   0.2350712   0.2298378), wk =   0.0063492
        k(    8) = (   0.0000000   0.2350712   0.4596756), wk =   0.0063492
        k(    9) = (   0.0000000   0.2350712   0.6895134), wk =   0.0063492
        k(   10) = (   0.0000000   0.2350712   0.9193512), wk =   0.0063492
        k(   11) = (   0.0000000   0.4701424   0.0000000), wk =   0.0063492
        k(   12) = (   0.0000000   0.4701424   0.2298378), wk =   0.0063492
        k(   13) = (   0.0000000   0.4701424   0.4596756), wk =   0.0063492
        k(   14) = (   0.0000000   0.4701424   0.6895134), wk =   0.0063492
        k(   15) = (   0.0000000   0.4701424   0.9193512), wk =   0.0063492
        k(   16) = (   0.0000000   0.7052137   0.0000000), wk =   0.0063492
        k(   17) = (   0.0000000   0.7052137   0.2298378), wk =   0.0063492
        k(   18) = (   0.0000000   0.7052137   0.4596756), wk =   0.0063492
        k(   19) = (   0.0000000   0.7052137   0.6895134), wk =   0.0063492
        k(   20) = (   0.0000000   0.7052137   0.9193512), wk =   0.0063492
        k(   21) = (   0.2000000   0.0000000   0.0000000), wk =   0.0063492
        k(   22) = (   0.2000000   0.0000000   0.2298378), wk =   0.0063492
        k(   23) = (   0.2000000   0.0000000   0.4596756), wk =   0.0063492
        k(   24) = (   0.2000000   0.0000000   0.6895134), wk =   0.0063492
        k(   25) = (   0.2000000   0.0000000   0.9193512), wk =   0.0063492
        k(   26) = (   0.2000000   0.2350712   0.0000000), wk =   0.0063492
        k(   27) = (   0.2000000   0.2350712   0.2298378), wk =   0.0063492
        k(   28) = (   0.2000000   0.2350712   0.4596756), wk =   0.0063492
        k(   29) = (   0.2000000   0.2350712   0.6895134), wk =   0.0063492
        k(   30) = (   0.2000000   0.2350712   0.9193512), wk =   0.0063492
        k(   31) = (   0.2000000   0.4701424   0.0000000), wk =   0.0063492
        k(   32) = (   0.2000000   0.4701424   0.2298378), wk =   0.0063492
        k(   33) = (   0.2000000   0.4701424   0.4596756), wk =   0.0063492
        k(   34) = (   0.2000000   0.4701424   0.6895134), wk =   0.0063492
        k(   35) = (   0.2000000   0.4701424   0.9193512), wk =   0.0063492
        k(   36) = (   0.2000000   0.7052137   0.0000000), wk =   0.0063492
        k(   37) = (   0.2000000   0.7052137   0.2298378), wk =   0.0063492
        k(   38) = (   0.2000000   0.7052137   0.4596756), wk =   0.0063492
        k(   39) = (   0.2000000   0.7052137   0.6895134), wk =   0.0063492
        k(   40) = (   0.2000000   0.7052137   0.9193512), wk =   0.0063492
        k(   41) = (   0.4000000   0.0000000   0.0000000), wk =   0.0063492
        k(   42) = (   0.4000000   0.0000000   0.2298378), wk =   0.0063492
        k(   43) = (   0.4000000   0.0000000   0.4596756), wk =   0.0063492
        k(   44) = (   0.4000000   0.0000000   0.6895134), wk =   0.0063492
        k(   45) = (   0.4000000   0.0000000   0.9193512), wk =   0.0063492
        k(   46) = (   0.4000000   0.2350712   0.0000000), wk =   0.0063492
        k(   47) = (   0.4000000   0.2350712   0.2298378), wk =   0.0063492
        k(   48) = (   0.4000000   0.2350712   0.4596756), wk =   0.0063492
        k(   49) = (   0.4000000   0.2350712   0.6895134), wk =   0.0063492
        k(   50) = (   0.4000000   0.2350712   0.9193512), wk =   0.0063492
        k(   51) = (   0.4000000   0.4701424   0.0000000), wk =   0.0063492
        k(   52) = (   0.4000000   0.4701424   0.2298378), wk =   0.0063492
        k(   53) = (   0.4000000   0.4701424   0.4596756), wk =   0.0063492
        k(   54) = (   0.4000000   0.4701424   0.6895134), wk =   0.0063492
        k(   55) = (   0.4000000   0.4701424   0.9193512), wk =   0.0063492
        k(   56) = (   0.4000000   0.7052137   0.0000000), wk =   0.0063492
        k(   57) = (   0.4000000   0.7052137   0.2298378), wk =   0.0063492
        k(   58) = (   0.4000000   0.7052137   0.4596756), wk =   0.0063492
        k(   59) = (   0.4000000   0.7052137   0.6895134), wk =   0.0063492
        k(   60) = (   0.4000000   0.7052137   0.9193512), wk =   0.0063492
        k(   61) = (   0.0000000  -0.2350712   0.2298378), wk =   0.0063492
        k(   62) = (   0.0000000  -0.2350712   0.4596756), wk =   0.0063492
        k(   63) = (   0.0000000  -0.2350712   0.6895134), wk =   0.0063492
        k(   64) = (   0.0000000  -0.2350712   0.9193512), wk =   0.0063492
        k(   65) = (   0.0000000  -0.4701424   0.2298378), wk =   0.0063492
        k(   66) = (   0.0000000  -0.4701424   0.4596756), wk =   0.0063492
        k(   67) = (   0.0000000  -0.4701424   0.6895134), wk =   0.0063492
        k(   68) = (   0.0000000  -0.4701424   0.9193512), wk =   0.0063492
        k(   69) = (   0.0000000  -0.7052137   0.2298378), wk =   0.0063492
        k(   70) = (   0.0000000  -0.7052137   0.4596756), wk =   0.0063492
        k(   71) = (   0.0000000  -0.7052137   0.6895134), wk =   0.0063492
        k(   72) = (   0.0000000  -0.7052137   0.9193512), wk =   0.0063492
        k(   73) = (  -0.2000000   0.0000000   0.2298378), wk =   0.0063492
        k(   74) = (  -0.2000000   0.0000000   0.4596756), wk =   0.0063492
        k(   75) = (  -0.2000000   0.0000000   0.6895134), wk =   0.0063492
        k(   76) = (  -0.2000000   0.0000000   0.9193512), wk =   0.0063492
        k(   77) = (  -0.2000000   0.2350712   0.0000000), wk =   0.0063492
        k(   78) = (  -0.2000000  -0.2350712   0.2298378), wk =   0.0063492
        k(   79) = (  -0.2000000   0.2350712  -0.2298378), wk =   0.0063492
        k(   80) = (   0.2000000  -0.2350712  -0.2298378), wk =   0.0063492
        k(   81) = (  -0.2000000  -0.2350712   0.4596756), wk =   0.0063492
        k(   82) = (  -0.2000000   0.2350712  -0.4596756), wk =   0.0063492
        k(   83) = (   0.2000000  -0.2350712  -0.4596756), wk =   0.0063492
        k(   84) = (  -0.2000000  -0.2350712   0.6895134), wk =   0.0063492
        k(   85) = (  -0.2000000   0.2350712  -0.6895134), wk =   0.0063492
        k(   86) = (   0.2000000  -0.2350712  -0.6895134), wk =   0.0063492
        k(   87) = (  -0.2000000  -0.2350712   0.9193512), wk =   0.0063492
        k(   88) = (  -0.2000000   0.2350712  -0.9193512), wk =   0.0063492
        k(   89) = (   0.2000000  -0.2350712  -0.9193512), wk =   0.0063492
        k(   90) = (  -0.2000000   0.4701424   0.0000000), wk =   0.0063492
        k(   91) = (  -0.2000000  -0.4701424   0.2298378), wk =   0.0063492
        k(   92) = (  -0.2000000   0.4701424  -0.2298378), wk =   0.0063492
        k(   93) = (   0.2000000  -0.4701424  -0.2298378), wk =   0.0063492
        k(   94) = (  -0.2000000  -0.4701424   0.4596756), wk =   0.0063492
        k(   95) = (  -0.2000000   0.4701424  -0.4596756), wk =   0.0063492
        k(   96) = (   0.2000000  -0.4701424  -0.4596756), wk =   0.0063492
        k(   97) = (  -0.2000000  -0.4701424   0.6895134), wk =   0.0063492
        k(   98) = (  -0.2000000   0.4701424  -0.6895134), wk =   0.0063492
        k(   99) = (   0.2000000  -0.4701424  -0.6895134), wk =   0.0063492
        k(  100) = (  -0.2000000  -0.4701424   0.9193512), wk =   0.0063492
        k(  101) = (  -0.2000000   0.4701424  -0.9193512), wk =   0.0063492
        k(  102) = (   0.2000000  -0.4701424  -0.9193512), wk =   0.0063492
        k(  103) = (  -0.2000000   0.7052137   0.0000000), wk =   0.0063492
        k(  104) = (  -0.2000000  -0.7052137   0.2298378), wk =   0.0063492
        k(  105) = (  -0.2000000   0.7052137  -0.2298378), wk =   0.0063492
        k(  106) = (   0.2000000  -0.7052137  -0.2298378), wk =   0.0063492
        k(  107) = (  -0.2000000  -0.7052137   0.4596756), wk =   0.0063492
        k(  108) = (  -0.2000000   0.7052137  -0.4596756), wk =   0.0063492
        k(  109) = (   0.2000000  -0.7052137  -0.4596756), wk =   0.0063492
        k(  110) = (  -0.2000000  -0.7052137   0.6895134), wk =   0.0063492
        k(  111) = (  -0.2000000   0.7052137  -0.6895134), wk =   0.0063492
        k(  112) = (   0.2000000  -0.7052137  -0.6895134), wk =   0.0063492
        k(  113) = (  -0.2000000  -0.7052137   0.9193512), wk =   0.0063492
        k(  114) = (  -0.2000000   0.7052137  -0.9193512), wk =   0.0063492
        k(  115) = (   0.2000000  -0.7052137  -0.9193512), wk =   0.0063492
        k(  116) = (  -0.4000000   0.0000000   0.2298378), wk =   0.0063492
        k(  117) = (  -0.4000000   0.0000000   0.4596756), wk =   0.0063492
        k(  118) = (  -0.4000000   0.0000000   0.6895134), wk =   0.0063492
        k(  119) = (  -0.4000000   0.0000000   0.9193512), wk =   0.0063492
        k(  120) = (  -0.4000000   0.2350712   0.0000000), wk =   0.0063492
        k(  121) = (  -0.4000000  -0.2350712   0.2298378), wk =   0.0063492
        k(  122) = (  -0.4000000   0.2350712  -0.2298378), wk =   0.0063492
        k(  123) = (   0.4000000  -0.2350712  -0.2298378), wk =   0.0063492
        k(  124) = (  -0.4000000  -0.2350712   0.4596756), wk =   0.0063492
        k(  125) = (  -0.4000000   0.2350712  -0.4596756), wk =   0.0063492
        k(  126) = (   0.4000000  -0.2350712  -0.4596756), wk =   0.0063492
        k(  127) = (  -0.4000000  -0.2350712   0.6895134), wk =   0.0063492
        k(  128) = (  -0.4000000   0.2350712  -0.6895134), wk =   0.0063492
        k(  129) = (   0.4000000  -0.2350712  -0.6895134), wk =   0.0063492
        k(  130) = (  -0.4000000  -0.2350712   0.9193512), wk =   0.0063492
        k(  131) = (  -0.4000000   0.2350712  -0.9193512), wk =   0.0063492
        k(  132) = (   0.4000000  -0.2350712  -0.9193512), wk =   0.0063492
        k(  133) = (  -0.4000000   0.4701424   0.0000000), wk =   0.0063492
        k(  134) = (  -0.4000000  -0.4701424   0.2298378), wk =   0.0063492
        k(  135) = (  -0.4000000   0.4701424  -0.2298378), wk =   0.0063492
        k(  136) = (   0.4000000  -0.4701424  -0.2298378), wk =   0.0063492
        k(  137) = (  -0.4000000  -0.4701424   0.4596756), wk =   0.0063492
        k(  138) = (  -0.4000000   0.4701424  -0.4596756), wk =   0.0063492
        k(  139) = (   0.4000000  -0.4701424  -0.4596756), wk =   0.0063492
        k(  140) = (  -0.4000000  -0.4701424   0.6895134), wk =   0.0063492
        k(  141) = (  -0.4000000   0.4701424  -0.6895134), wk =   0.0063492
        k(  142) = (   0.4000000  -0.4701424  -0.6895134), wk =   0.0063492
        k(  143) = (  -0.4000000  -0.4701424   0.9193512), wk =   0.0063492
        k(  144) = (  -0.4000000   0.4701424  -0.9193512), wk =   0.0063492
        k(  145) = (   0.4000000  -0.4701424  -0.9193512), wk =   0.0063492
        k(  146) = (  -0.4000000   0.7052137   0.0000000), wk =   0.0063492
        k(  147) = (  -0.4000000  -0.7052137   0.2298378), wk =   0.0063492
        k(  148) = (  -0.4000000   0.7052137  -0.2298378), wk =   0.0063492
        k(  149) = (   0.4000000  -0.7052137  -0.2298378), wk =   0.0063492
        k(  150) = (  -0.4000000  -0.7052137   0.4596756), wk =   0.0063492
        k(  151) = (  -0.4000000   0.7052137  -0.4596756), wk =   0.0063492
        k(  152) = (   0.4000000  -0.7052137  -0.4596756), wk =   0.0063492
        k(  153) = (  -0.4000000  -0.7052137   0.6895134), wk =   0.0063492
        k(  154) = (  -0.4000000   0.7052137  -0.6895134), wk =   0.0063492
        k(  155) = (   0.4000000  -0.7052137  -0.6895134), wk =   0.0063492
        k(  156) = (  -0.4000000  -0.7052137   0.9193512), wk =   0.0063492
        k(  157) = (  -0.4000000   0.7052137  -0.9193512), wk =   0.0063492
        k(  158) = (   0.4000000  -0.7052137  -0.9193512), wk =   0.0063492

                       cryst. coord.
        k(    1) = (   0.0000000   0.0000000   0.0000000), wk =   0.0031746
        k(    2) = (   0.0000000   0.0000000   0.1111111), wk =   0.0063492
        k(    3) = (   0.0000000   0.0000000   0.2222222), wk =   0.0063492
        k(    4) = (   0.0000000   0.0000000   0.3333333), wk =   0.0063492
        k(    5) = (   0.0000000   0.0000000   0.4444444), wk =   0.0063492
        k(    6) = (   0.0000000   0.1428571   0.0000000), wk =   0.0063492
        k(    7) = (   0.0000000   0.1428571   0.1111111), wk =   0.0063492
        k(    8) = (   0.0000000   0.1428571   0.2222222), wk =   0.0063492
        k(    9) = (   0.0000000   0.1428571   0.3333333), wk =   0.0063492
        k(   10) = (   0.0000000   0.1428571   0.4444444), wk =   0.0063492
        k(   11) = (   0.0000000   0.2857143   0.0000000), wk =   0.0063492
        k(   12) = (   0.0000000   0.2857143   0.1111111), wk =   0.0063492
        k(   13) = (   0.0000000   0.2857143   0.2222222), wk =   0.0063492
        k(   14) = (   0.0000000   0.2857143   0.3333333), wk =   0.0063492
        k(   15) = (   0.0000000   0.2857143   0.4444444), wk =   0.0063492
        k(   16) = (   0.0000000   0.4285714   0.0000000), wk =   0.0063492
        k(   17) = (   0.0000000   0.4285714   0.1111111), wk =   0.0063492
        k(   18) = (   0.0000000   0.4285714   0.2222222), wk =   0.0063492
        k(   19) = (   0.0000000   0.4285714   0.3333333), wk =   0.0063492
        k(   20) = (   0.0000000   0.4285714   0.4444444), wk =   0.0063492
        k(   21) = (   0.2000000   0.0000000   0.0000000), wk =   0.0063492
        k(   22) = (   0.2000000   0.0000000   0.1111111), wk =   0.0063492
        k(   23) = (   0.2000000   0.0000000   0.2222222), wk =   0.0063492
        k(   24) = (   0.2000000   0.0000000   0.3333333), wk =   0.0063492
        k(   25) = (   0.2000000   0.0000000   0.4444444), wk =   0.0063492
        k(   26) = (   0.2000000   0.1428571   0.0000000), wk =   0.0063492
        k(   27) = (   0.2000000   0.1428571   0.1111111), wk =   0.0063492
        k(   28) = (   0.2000000   0.1428571   0.2222222), wk =   0.0063492
        k(   29) = (   0.2000000   0.1428571   0.3333333), wk =   0.0063492
        k(   30) = (   0.2000000   0.1428571   0.4444444), wk =   0.0063492
        k(   31) = (   0.2000000   0.2857143   0.0000000), wk =   0.0063492
        k(   32) = (   0.2000000   0.2857143   0.1111111), wk =   0.0063492
        k(   33) = (   0.2000000   0.2857143   0.2222222), wk =   0.0063492
        k(   34) = (   0.2000000   0.2857143   0.3333333), wk =   0.0063492
        k(   35) = (   0.2000000   0.2857143   0.4444444), wk =   0.0063492
        k(   36) = (   0.2000000   0.4285714   0.0000000), wk =   0.0063492
        k(   37) = (   0.2000000   0.4285714   0.1111111), wk =   0.0063492
        k(   38) = (   0.2000000   0.4285714   0.2222222), wk =   0.0063492
        k(   39) = (   0.2000000   0.4285714   0.3333333), wk =   0.0063492
        k(   40) = (   0.2000000   0.4285714   0.4444444), wk =   0.0063492
        k(   41) = (   0.4000000   0.0000000   0.0000000), wk =   0.0063492
        k(   42) = (   0.4000000   0.0000000   0.1111111), wk =   0.0063492
        k(   43) = (   0.4000000   0.0000000   0.2222222), wk =   0.0063492
        k(   44) = (   0.4000000   0.0000000   0.3333333), wk =   0.0063492
        k(   45) = (   0.4000000   0.0000000   0.4444444), wk =   0.0063492
        k(   46) = (   0.4000000   0.1428571   0.0000000), wk =   0.0063492
        k(   47) = (   0.4000000   0.1428571   0.1111111), wk =   0.0063492
        k(   48) = (   0.4000000   0.1428571   0.2222222), wk =   0.0063492
        k(   49) = (   0.4000000   0.1428571   0.3333333), wk =   0.0063492
        k(   50) = (   0.4000000   0.1428571   0.4444444), wk =   0.0063492
        k(   51) = (   0.4000000   0.2857143   0.0000000), wk =   0.0063492
        k(   52) = (   0.4000000   0.2857143   0.1111111), wk =   0.0063492
        k(   53) = (   0.4000000   0.2857143   0.2222222), wk =   0.0063492
        k(   54) = (   0.4000000   0.2857143   0.3333333), wk =   0.0063492
        k(   55) = (   0.4000000   0.2857143   0.4444444), wk =   0.0063492
        k(   56) = (   0.4000000   0.4285714   0.0000000), wk =   0.0063492
        k(   57) = (   0.4000000   0.4285714   0.1111111), wk =   0.0063492
        k(   58) = (   0.4000000   0.4285714   0.2222222), wk =   0.0063492
        k(   59) = (   0.4000000   0.4285714   0.3333333), wk =   0.0063492
        k(   60) = (   0.4000000   0.4285714   0.4444444), wk =   0.0063492
        k(   61) = (   0.0000000  -0.1428571   0.1111111), wk =   0.0063492
        k(   62) = (   0.0000000  -0.1428571   0.2222222), wk =   0.0063492
        k(   63) = (   0.0000000  -0.1428571   0.3333333), wk =   0.0063492
        k(   64) = (   0.0000000  -0.1428571   0.4444444), wk =   0.0063492
        k(   65) = (   0.0000000  -0.2857143   0.1111111), wk =   0.0063492
        k(   66) = (   0.0000000  -0.2857143   0.2222222), wk =   0.0063492
        k(   67) = (   0.0000000  -0.2857143   0.3333333), wk =   0.0063492
        k(   68) = (   0.0000000  -0.2857143   0.4444444), wk =   0.0063492
        k(   69) = (   0.0000000  -0.4285714   0.1111111), wk =   0.0063492
        k(   70) = (   0.0000000  -0.4285714   0.2222222), wk =   0.0063492
        k(   71) = (   0.0000000  -0.4285714   0.3333333), wk =   0.0063492
        k(   72) = (   0.0000000  -0.4285714   0.4444444), wk =   0.0063492
        k(   73) = (  -0.2000000   0.0000000   0.1111111), wk =   0.0063492
        k(   74) = (  -0.2000000   0.0000000   0.2222222), wk =   0.0063492
        k(   75) = (  -0.2000000   0.0000000   0.3333333), wk =   0.0063492
        k(   76) = (  -0.2000000   0.0000000   0.4444444), wk =   0.0063492
        k(   77) = (  -0.2000000   0.1428571   0.0000000), wk =   0.0063492
        k(   78) = (  -0.2000000  -0.1428571   0.1111111), wk =   0.0063492
        k(   79) = (  -0.2000000   0.1428571  -0.1111111), wk =   0.0063492
        k(   80) = (   0.2000000  -0.1428571  -0.1111111), wk =   0.0063492
        k(   81) = (  -0.2000000  -0.1428571   0.2222222), wk =   0.0063492
        k(   82) = (  -0.2000000   0.1428571  -0.2222222), wk =   0.0063492
        k(   83) = (   0.2000000  -0.1428571  -0.2222222), wk =   0.0063492
        k(   84) = (  -0.2000000  -0.1428571   0.3333333), wk =   0.0063492
        k(   85) = (  -0.2000000   0.1428571  -0.3333333), wk =   0.0063492
        k(   86) = (   0.2000000  -0.1428571  -0.3333333), wk =   0.0063492
        k(   87) = (  -0.2000000  -0.1428571   0.4444444), wk =   0.0063492
        k(   88) = (  -0.2000000   0.1428571  -0.4444444), wk =   0.0063492
        k(   89) = (   0.2000000  -0.1428571  -0.4444444), wk =   0.0063492
        k(   90) = (  -0.2000000   0.2857143   0.0000000), wk =   0.0063492
        k(   91) = (  -0.2000000  -0.2857143   0.1111111), wk =   0.0063492
        k(   92) = (  -0.2000000   0.2857143  -0.1111111), wk =   0.0063492
        k(   93) = (   0.2000000  -0.2857143  -0.1111111), wk =   0.0063492
        k(   94) = (  -0.2000000  -0.2857143   0.2222222), wk =   0.0063492
        k(   95) = (  -0.2000000   0.2857143  -0.2222222), wk =   0.0063492
        k(   96) = (   0.2000000  -0.2857143  -0.2222222), wk =   0.0063492
        k(   97) = (  -0.2000000  -0.2857143   0.3333333), wk =   0.0063492
        k(   98) = (  -0.2000000   0.2857143  -0.3333333), wk =   0.0063492
        k(   99) = (   0.2000000  -0.2857143  -0.3333333), wk =   0.0063492
        k(  100) = (  -0.2000000  -0.2857143   0.4444444), wk =   0.0063492
        k(  101) = (  -0.2000000   0.2857143  -0.4444444), wk =   0.0063492
        k(  102) = (   0.2000000  -0.2857143  -0.4444444), wk =   0.0063492
        k(  103) = (  -0.2000000   0.4285714   0.0000000), wk =   0.0063492
        k(  104) = (  -0.2000000  -0.4285714   0.1111111), wk =   0.0063492
        k(  105) = (  -0.2000000   0.4285714  -0.1111111), wk =   0.0063492
        k(  106) = (   0.2000000  -0.4285714  -0.1111111), wk =   0.0063492
        k(  107) = (  -0.2000000  -0.4285714   0.2222222), wk =   0.0063492
        k(  108) = (  -0.2000000   0.4285714  -0.2222222), wk =   0.0063492
        k(  109) = (   0.2000000  -0.4285714  -0.2222222), wk =   0.0063492
        k(  110) = (  -0.2000000  -0.4285714   0.3333333), wk =   0.0063492
        k(  111) = (  -0.2000000   0.4285714  -0.3333333), wk =   0.0063492
        k(  112) = (   0.2000000  -0.4285714  -0.3333333), wk =   0.0063492
        k(  113) = (  -0.2000000  -0.4285714   0.4444444), wk =   0.0063492
        k(  114) = (  -0.2000000   0.4285714  -0.4444444), wk =   0.0063492
        k(  115) = (   0.2000000  -0.4285714  -0.4444444), wk =   0.0063492
        k(  116) = (  -0.4000000   0.0000000   0.1111111), wk =   0.0063492
        k(  117) = (  -0.4000000   0.0000000   0.2222222), wk =   0.0063492
        k(  118) = (  -0.4000000   0.0000000   0.3333333), wk =   0.0063492
        k(  119) = (  -0.4000000   0.0000000   0.4444444), wk =   0.0063492
        k(  120) = (  -0.4000000   0.1428571   0.0000000), wk =   0.0063492
        k(  121) = (  -0.4000000  -0.1428571   0.1111111), wk =   0.0063492
        k(  122) = (  -0.4000000   0.1428571  -0.1111111), wk =   0.0063492
        k(  123) = (   0.4000000  -0.1428571  -0.1111111), wk =   0.0063492
        k(  124) = (  -0.4000000  -0.1428571   0.2222222), wk =   0.0063492
        k(  125) = (  -0.4000000   0.1428571  -0.2222222), wk =   0.0063492
        k(  126) = (   0.4000000  -0.1428571  -0.2222222), wk =   0.0063492
        k(  127) = (  -0.4000000  -0.1428571   0.3333333), wk =   0.0063492
        k(  128) = (  -0.4000000   0.1428571  -0.3333333), wk =   0.0063492
        k(  129) = (   0.4000000  -0.1428571  -0.3333333), wk =   0.0063492
        k(  130) = (  -0.4000000  -0.1428571   0.4444444), wk =   0.0063492
        k(  131) = (  -0.4000000   0.1428571  -0.4444444), wk =   0.0063492
        k(  132) = (   0.4000000  -0.1428571  -0.4444444), wk =   0.0063492
        k(  133) = (  -0.4000000   0.2857143   0.0000000), wk =   0.0063492
        k(  134) = (  -0.4000000  -0.2857143   0.1111111), wk =   0.0063492
        k(  135) = (  -0.4000000   0.2857143  -0.1111111), wk =   0.0063492
        k(  136) = (   0.4000000  -0.2857143  -0.1111111), wk =   0.0063492
        k(  137) = (  -0.4000000  -0.2857143   0.2222222), wk =   0.0063492
        k(  138) = (  -0.4000000   0.2857143  -0.2222222), wk =   0.0063492
        k(  139) = (   0.4000000  -0.2857143  -0.2222222), wk =   0.0063492
        k(  140) = (  -0.4000000  -0.2857143   0.3333333), wk =   0.0063492
        k(  141) = (  -0.4000000   0.2857143  -0.3333333), wk =   0.0063492
        k(  142) = (   0.4000000  -0.2857143  -0.3333333), wk =   0.0063492
        k(  143) = (  -0.4000000  -0.2857143   0.4444444), wk =   0.0063492
        k(  144) = (  -0.4000000   0.2857143  -0.4444444), wk =   0.0063492
        k(  145) = (   0.4000000  -0.2857143  -0.4444444), wk =   0.0063492
        k(  146) = (  -0.4000000   0.4285714   0.0000000), wk =   0.0063492
        k(  147) = (  -0.4000000  -0.4285714   0.1111111), wk =   0.0063492
        k(  148) = (  -0.4000000   0.4285714  -0.1111111), wk =   0.0063492
        k(  149) = (   0.4000000  -0.4285714  -0.1111111), wk =   0.0063492
        k(  150) = (  -0.4000000  -0.4285714   0.2222222), wk =   0.0063492
        k(  151) = (  -0.4000000   0.4285714  -0.2222222), wk =   0.0063492
        k(  152) = (   0.4000000  -0.4285714  -0.2222222), wk =   0.0063492
        k(  153) = (  -0.4000000  -0.4285714   0.3333333), wk =   0.0063492
        k(  154) = (  -0.4000000   0.4285714  -0.3333333), wk =   0.0063492
        k(  155) = (   0.4000000  -0.4285714  -0.3333333), wk =   0.0063492
        k(  156) = (  -0.4000000  -0.4285714   0.4444444), wk =   0.0063492
        k(  157) = (  -0.4000000   0.4285714  -0.4444444), wk =   0.0063492
        k(  158) = (   0.4000000  -0.4285714  -0.4444444), wk =   0.0063492

     Dense  grid:  1273469 G-vectors     FFT dimensions: ( 216, 125, 100)

     Smooth grid:   287059 G-vectors     FFT dimensions: ( 125,  75,  60)

     Dynamical RAM for                 wfc:       2.60 MB

     Dynamical RAM for     wfc (w. buffer):     823.82 MB

     Dynamical RAM for           str. fact:       3.24 MB

     Dynamical RAM for           local pot:       0.00 MB

     Dynamical RAM for          nlocal pot:       6.38 MB

     Dynamical RAM for                qrad:      10.54 MB

     Dynamical RAM for          rho,v,vnew:      11.04 MB

     Dynamical RAM for               rhoin:       3.68 MB

     Dynamical RAM for            rho*nmix:      25.91 MB

     Dynamical RAM for           G-vectors:       3.13 MB

     Dynamical RAM for          h,s,v(r/c):       2.38 MB

     Dynamical RAM for          <psi|beta>:       0.49 MB

     Dynamical RAM for                 psi:       5.20 MB

     Dynamical RAM for                hpsi:       5.20 MB

     Dynamical RAM for                spsi:       5.20 MB

     Dynamical RAM for      wfcinit/wfcrot:       6.68 MB

     Dynamical RAM for           addusdens:     164.36 MB

     Dynamical RAM for          addusforce:     188.78 MB

     Dynamical RAM for         addusstress:     163.96 MB

     Estimated static dynamical RAM per process >     897.97 MB

     Estimated max dynamical RAM per process >       1.06 GB

     Estimated total dynamical RAM >      25.47 GB

     Check: negative core charge=   -0.000003
     Generating pointlists ...
     new r_m :   0.0766 (alat units)  1.4804 (a.u.) for type    1
     new r_m :   0.0897 (alat units)  1.7346 (a.u.) for type    2
     new r_m :   0.0611 (alat units)  1.1820 (a.u.) for type    3
     new r_m :   0.0611 (alat units)  1.1820 (a.u.) for type    4

     Initial potential from superposition of free atoms

     starting charge  188.99132, renormalised to  189.00000
     Starting wfcs are  137 randomized atomic wfcs
     Checking if some PAW data can be deallocated... 
       PAW data deallocated on   20 nodes for type:  1
       PAW data deallocated on    8 nodes for type:  3

     total cpu time spent up to now is      194.0 secs

     Self-consistent Calculation

     iteration #  1     ecut=   100.00 Ry     beta= 0.40
     Davidson diagonalization with overlap
     ethr =  1.00E-02,  avg # of iterations =  3.0

     negative rho (up, down):  0.000E+00 1.192E-04

     total cpu time spent up to now is      812.8 secs

     total energy              =   -2123.91705903 Ry
     estimated scf accuracy    <       6.96101529 Ry

     total magnetization       =    19.00 Bohr mag/cell
     absolute magnetization    =    19.00 Bohr mag/cell

     iteration #  2     ecut=   100.00 Ry     beta= 0.40
     Davidson diagonalization with overlap
     ethr =  3.68E-03,  avg # of iterations =  2.0

     negative rho (up, down):  0.000E+00 5.611E-05

     total cpu time spent up to now is     1364.1 secs

     total energy              =   -2120.69148719 Ry
     estimated scf accuracy    <      46.02726133 Ry

     total magnetization       =     7.15 Bohr mag/cell
     absolute magnetization    =     8.70 Bohr mag/cell

     iteration #  3     ecut=   100.00 Ry     beta= 0.40
     Davidson diagonalization with overlap
     ethr =  3.68E-03,  avg # of iterations =  3.0

     negative rho (up, down):  0.000E+00 2.826E-05

     total cpu time spent up to now is     1857.8 secs

     total energy              =   -2123.41518062 Ry
     estimated scf accuracy    <      61.36426501 Ry

     total magnetization       =     3.14 Bohr mag/cell
     absolute magnetization    =     7.33 Bohr mag/cell

     iteration #  4     ecut=   100.00 Ry     beta= 0.40
     Davidson diagonalization with overlap
     ethr =  3.68E-03,  avg # of iterations =  1.5

     negative rho (up, down):  0.000E+00 3.423E-05

     total cpu time spent up to now is     2283.2 secs

     total energy              =   -2124.54704796 Ry
     estimated scf accuracy    <      29.04489670 Ry

     total magnetization       =     9.00 Bohr mag/cell
     absolute magnetization    =     9.38 Bohr mag/cell

     iteration #  5     ecut=   100.00 Ry     beta= 0.40
     Davidson diagonalization with overlap
     ethr =  3.68E-03,  avg # of iterations =  1.9

     negative rho (up, down):  0.000E+00 1.284E-04

     total cpu time spent up to now is     2753.4 secs

     total energy              =   -2125.95820613 Ry
     estimated scf accuracy    <       2.58436720 Ry

     total magnetization       =    18.26 Bohr mag/cell
     absolute magnetization    =    18.26 Bohr mag/cell

     iteration #  6     ecut=   100.00 Ry     beta= 0.40
     Davidson diagonalization with overlap
     ethr =  1.37E-03,  avg # of iterations =  1.8

     negative rho (up, down):  0.000E+00 2.260E-04

     total cpu time spent up to now is     3192.2 secs

     total energy              =   -2126.07535517 Ry
     estimated scf accuracy    <       0.51893723 Ry

     total magnetization       =    19.02 Bohr mag/cell
     absolute magnetization    =    19.02 Bohr mag/cell

     iteration #  7     ecut=   100.00 Ry     beta= 0.40
     Davidson diagonalization with overlap
     ethr =  2.75E-04,  avg # of iterations =  3.2

     negative rho (up, down):  0.000E+00 3.041E-04

     total cpu time spent up to now is     3691.7 secs

     total energy              =   -2126.08632836 Ry
     estimated scf accuracy    <       0.39393153 Ry

     total magnetization       =    19.00 Bohr mag/cell
     absolute magnetization    =    19.00 Bohr mag/cell

     iteration #  8     ecut=   100.00 Ry     beta= 0.40
     Davidson diagonalization with overlap
     ethr =  2.08E-04,  avg # of iterations =  1.5

     negative rho (up, down):  0.000E+00 4.151E-04

     total cpu time spent up to now is     4109.5 secs

     total energy              =   -2126.11756515 Ry
     estimated scf accuracy    <       0.37298859 Ry

     total magnetization       =    19.00 Bohr mag/cell
     absolute magnetization    =    19.01 Bohr mag/cell

     iteration #  9     ecut=   100.00 Ry     beta= 0.40
     Davidson diagonalization with overlap
     ethr =  1.97E-04,  avg # of iterations =  1.2

     negative rho (up, down):  0.000E+00 7.115E-04

     total cpu time spent up to now is     4510.0 secs

     total energy              =   -2126.11512727 Ry
     estimated scf accuracy    <       0.34852614 Ry

     total magnetization       =    19.00 Bohr mag/cell
     absolute magnetization    =    19.01 Bohr mag/cell

     iteration # 10     ecut=   100.00 Ry     beta= 0.40
     Davidson diagonalization with overlap
     ethr =  1.84E-04,  avg # of iterations =  2.5

     negative rho (up, down):  0.000E+00 7.933E-04

     total cpu time spent up to now is     4954.2 secs

     total energy              =   -2126.12738889 Ry
     estimated scf accuracy    <       0.14682371 Ry

     total magnetization       =    19.00 Bohr mag/cell
     absolute magnetization    =    19.02 Bohr mag/cell

     iteration # 11     ecut=   100.00 Ry     beta= 0.40
     Davidson diagonalization with overlap
     c_bands:  1 eigenvalues not converged
     c_bands:  1 eigenvalues not converged
     c_bands:  1 eigenvalues not converged
     ethr =  7.77E-05,  avg # of iterations = 11.6

     negative rho (up, down):  0.000E+00 9.001E-04

     total cpu time spent up to now is     5712.9 secs

     total energy              =   -2126.13344426 Ry
     estimated scf accuracy    <       0.15253814 Ry

     total magnetization       =    19.00 Bohr mag/cell
     absolute magnetization    =    19.02 Bohr mag/cell

     iteration # 12     ecut=   100.00 Ry     beta= 0.40
     Davidson diagonalization with overlap
     ethr =  7.77E-05,  avg # of iterations =  1.1

     negative rho (up, down):  0.000E+00 9.032E-04

     total cpu time spent up to now is     6107.8 secs

     total energy              =   -2126.13297331 Ry
     estimated scf accuracy    <       0.11044975 Ry

     total magnetization       =    19.00 Bohr mag/cell
     absolute magnetization    =    19.03 Bohr mag/cell

     iteration # 13     ecut=   100.00 Ry     beta= 0.40
     Davidson diagonalization with overlap
     ethr =  5.84E-05,  avg # of iterations =  1.1

     negative rho (up, down):  0.000E+00 8.994E-04

     total cpu time spent up to now is     6500.4 secs

     total energy              =   -2126.13291991 Ry
     estimated scf accuracy    <       0.02708186 Ry

     total magnetization       =    19.00 Bohr mag/cell
     absolute magnetization    =    19.04 Bohr mag/cell

     iteration # 14     ecut=   100.00 Ry     beta= 0.40
     Davidson diagonalization with overlap
     c_bands:  1 eigenvalues not converged
     c_bands:  1 eigenvalues not converged
     c_bands:  1 eigenvalues not converged
     c_bands:  1 eigenvalues not converged
     c_bands:  1 eigenvalues not converged
     c_bands:  1 eigenvalues not converged
     c_bands:  2 eigenvalues not converged
     c_bands:  1 eigenvalues not converged
     c_bands:  1 eigenvalues not converged
     c_bands:  1 eigenvalues not converged
     c_bands:  1 eigenvalues not converged
     c_bands:  1 eigenvalues not converged
     c_bands:  1 eigenvalues not converged
     c_bands:  1 eigenvalues not converged
     c_bands:  1 eigenvalues not converged
     c_bands:  1 eigenvalues not converged
     ethr =  1.43E-05,  avg # of iterations =  7.5

     negative rho (up, down):  0.000E+00 9.278E-04

     total cpu time spent up to now is     7095.5 secs

     total energy              =   -2126.13372566 Ry
     estimated scf accuracy    <       0.01102293 Ry

     total magnetization       =    19.00 Bohr mag/cell
     absolute magnetization    =    19.04 Bohr mag/cell

     iteration # 15     ecut=   100.00 Ry     beta= 0.40
     Davidson diagonalization with overlap
     c_bands:  1 eigenvalues not converged
     c_bands:  1 eigenvalues not converged
     c_bands:  1 eigenvalues not converged
     c_bands:  1 eigenvalues not converged
     c_bands:  1 eigenvalues not converged
     c_bands:  1 eigenvalues not converged
     c_bands:  1 eigenvalues not converged
     c_bands:  1 eigenvalues not converged
     c_bands:  1 eigenvalues not converged
     c_bands:  1 eigenvalues not converged
     c_bands:  1 eigenvalues not converged
     c_bands:  1 eigenvalues not converged
     c_bands:  1 eigenvalues not converged
     c_bands:  1 eigenvalues not converged
     c_bands:  1 eigenvalues not converged
     c_bands:  1 eigenvalues not converged
     c_bands:  1 eigenvalues not converged
     c_bands:  1 eigenvalues not converged
     c_bands:  1 eigenvalues not converged
     c_bands:  1 eigenvalues not converged
     c_bands:  1 eigenvalues not converged
     c_bands:  1 eigenvalues not converged
     c_bands:  1 eigenvalues not converged
     ethr =  5.83E-06,  avg # of iterations =  8.2

     negative rho (up, down):  0.000E+00 9.293E-04

     total cpu time spent up to now is     7692.9 secs

     total energy              =   -2126.13423387 Ry
     estimated scf accuracy    <       0.00131719 Ry

     total magnetization       =    19.00 Bohr mag/cell
     absolute magnetization    =    19.04 Bohr mag/cell

     iteration # 16     ecut=   100.00 Ry     beta= 0.40
     Davidson diagonalization with overlap
     c_bands:  1 eigenvalues not converged
     c_bands:  1 eigenvalues not converged
     c_bands:  1 eigenvalues not converged
     c_bands:  1 eigenvalues not converged
     c_bands:  1 eigenvalues not converged
     c_bands:  1 eigenvalues not converged
     c_bands:  1 eigenvalues not converged
     c_bands:  1 eigenvalues not converged
     c_bands:  1 eigenvalues not converged
     ethr =  6.97E-07,  avg # of iterations =  7.7

     negative rho (up, down):  0.000E+00 9.086E-04

     total cpu time spent up to now is     8431.7 secs

     total energy              =   -2126.13457980 Ry
     estimated scf accuracy    <       0.00012070 Ry

     total magnetization       =    19.00 Bohr mag/cell
     absolute magnetization    =    19.04 Bohr mag/cell

     iteration # 17     ecut=   100.00 Ry     beta= 0.40
     Davidson diagonalization with overlap
     c_bands:  1 eigenvalues not converged
     ethr =  6.39E-08,  avg # of iterations =  3.5

     negative rho (up, down):  0.000E+00 9.095E-04

     total cpu time spent up to now is     9070.6 secs

     total energy              =   -2126.13462393 Ry
     estimated scf accuracy    <       0.00036609 Ry

     total magnetization       =    19.00 Bohr mag/cell
     absolute magnetization    =    19.05 Bohr mag/cell

     iteration # 18     ecut=   100.00 Ry     beta= 0.40
     Davidson diagonalization with overlap
     ethr =  6.39E-08,  avg # of iterations =  1.0

     negative rho (up, down):  0.000E+00 9.025E-04

     total cpu time spent up to now is     9462.6 secs

     total energy              =   -2126.13463861 Ry
     estimated scf accuracy    <       0.00002830 Ry

     total magnetization       =    19.00 Bohr mag/cell
     absolute magnetization    =    19.05 Bohr mag/cell

     iteration # 19     ecut=   100.00 Ry     beta= 0.40
     Davidson diagonalization with overlap
     ethr =  1.50E-08,  avg # of iterations =  2.6

     negative rho (up, down):  0.000E+00 8.994E-04

     total cpu time spent up to now is     9945.6 secs

     total energy              =   -2126.13464305 Ry
     estimated scf accuracy    <       0.00000769 Ry

     total magnetization       =    19.00 Bohr mag/cell
     absolute magnetization    =    19.05 Bohr mag/cell

     iteration # 20     ecut=   100.00 Ry     beta= 0.40
     Davidson diagonalization with overlap
     ethr =  4.07E-09,  avg # of iterations =  2.6

     negative rho (up, down):  0.000E+00 8.989E-04

     total cpu time spent up to now is    10454.5 secs

     total energy              =   -2126.13464465 Ry
     estimated scf accuracy    <       0.00001361 Ry

     total magnetization       =    19.00 Bohr mag/cell
     absolute magnetization    =    19.05 Bohr mag/cell

     iteration # 21     ecut=   100.00 Ry     beta= 0.40
     Davidson diagonalization with overlap
     ethr =  4.07E-09,  avg # of iterations =  1.2

     negative rho (up, down):  0.000E+00 9.002E-04

     total cpu time spent up to now is    10852.4 secs

     total energy              =   -2126.13464531 Ry
     estimated scf accuracy    <       0.00000152 Ry

     total magnetization       =    19.00 Bohr mag/cell
     absolute magnetization    =    19.05 Bohr mag/cell

     iteration # 22     ecut=   100.00 Ry     beta= 0.40
     Davidson diagonalization with overlap
     ethr =  8.04E-10,  avg # of iterations =  3.0

     negative rho (up, down):  0.000E+00 9.016E-04

     total cpu time spent up to now is    11377.3 secs

     total energy              =   -2126.13464567 Ry
     estimated scf accuracy    <       0.00000117 Ry

     total magnetization       =    19.00 Bohr mag/cell
     absolute magnetization    =    19.05 Bohr mag/cell

     iteration # 23     ecut=   100.00 Ry     beta= 0.40
     Davidson diagonalization with overlap
     ethr =  6.19E-10,  avg # of iterations =  1.5

     negative rho (up, down):  0.000E+00 9.017E-04

     total cpu time spent up to now is    11793.1 secs

     total energy              =   -2126.13464576 Ry
     estimated scf accuracy    <       0.00000062 Ry

     total magnetization       =    19.00 Bohr mag/cell
     absolute magnetization    =    19.05 Bohr mag/cell

     iteration # 24     ecut=   100.00 Ry     beta= 0.40
     Davidson diagonalization with overlap
     ethr =  3.27E-10,  avg # of iterations =  1.3

     negative rho (up, down):  0.000E+00 9.019E-04

     total cpu time spent up to now is    12199.3 secs

     total energy              =   -2126.13464581 Ry
     estimated scf accuracy    <       0.00000006 Ry

     total magnetization       =    19.00 Bohr mag/cell
     absolute magnetization    =    19.05 Bohr mag/cell

     iteration # 25     ecut=   100.00 Ry     beta= 0.40
     Davidson diagonalization with overlap
     ethr =  3.26E-11,  avg # of iterations =  4.1

     negative rho (up, down):  0.000E+00 9.019E-04

     total cpu time spent up to now is    12856.4 secs

     total energy              =   -2126.13464584 Ry
     estimated scf accuracy    <       0.00000015 Ry

     total magnetization       =    19.00 Bohr mag/cell
     absolute magnetization    =    19.05 Bohr mag/cell

     iteration # 26     ecut=   100.00 Ry     beta= 0.40
     Davidson diagonalization with overlap
     ethr =  3.26E-11,  avg # of iterations =  1.4

     negative rho (up, down):  0.000E+00 9.020E-04

     total cpu time spent up to now is    13268.3 secs

     total energy              =   -2126.13464584 Ry
     estimated scf accuracy    <       0.00000003 Ry

     total magnetization       =    19.00 Bohr mag/cell
     absolute magnetization    =    19.05 Bohr mag/cell

     iteration # 27     ecut=   100.00 Ry     beta= 0.40
     Davidson diagonalization with overlap
     ethr =  1.34E-11,  avg # of iterations =  1.8

     negative rho (up, down):  0.000E+00 9.020E-04

     total cpu time spent up to now is    13710.6 secs

     total energy              =   -2126.13464585 Ry
     estimated scf accuracy    <       0.00000003 Ry

     total magnetization       =    19.00 Bohr mag/cell
     absolute magnetization    =    19.05 Bohr mag/cell

     iteration # 28     ecut=   100.00 Ry     beta= 0.40
     Davidson diagonalization with overlap
     ethr =  1.34E-11,  avg # of iterations =  1.0

     negative rho (up, down):  0.000E+00 9.019E-04

     total cpu time spent up to now is    14100.0 secs

     total energy              =   -2126.13464585 Ry
     estimated scf accuracy    <          7.9E-09 Ry

     total magnetization       =    19.00 Bohr mag/cell
     absolute magnetization    =    19.05 Bohr mag/cell

     iteration # 29     ecut=   100.00 Ry     beta= 0.40
     Davidson diagonalization with overlap
     ethr =  4.20E-12,  avg # of iterations =  2.1

     negative rho (up, down):  0.000E+00 9.019E-04

     total cpu time spent up to now is    14568.3 secs

     total energy              =   -2126.13464585 Ry
     estimated scf accuracy    <          1.1E-09 Ry

     total magnetization       =    19.00 Bohr mag/cell
     absolute magnetization    =    19.05 Bohr mag/cell

     iteration # 30     ecut=   100.00 Ry     beta= 0.40
     Davidson diagonalization with overlap
     ethr =  5.73E-13,  avg # of iterations =  4.3

     negative rho (up, down):  0.000E+00 9.019E-04

     total cpu time spent up to now is    15211.8 secs

     total energy              =   -2126.13464585 Ry
     estimated scf accuracy    <          4.4E-10 Ry

     total magnetization       =    19.00 Bohr mag/cell
     absolute magnetization    =    19.05 Bohr mag/cell

     iteration # 31     ecut=   100.00 Ry     beta= 0.40
     Davidson diagonalization with overlap
     ethr =  2.34E-13,  avg # of iterations =  2.5

     negative rho (up, down):  0.000E+00 9.019E-04

     total cpu time spent up to now is    15703.0 secs

     total energy              =   -2126.13464585 Ry
     estimated scf accuracy    <          1.9E-09 Ry

     total magnetization       =    19.00 Bohr mag/cell
     absolute magnetization    =    19.05 Bohr mag/cell

     iteration # 32     ecut=   100.00 Ry     beta= 0.40
     Davidson diagonalization with overlap
     ethr =  2.34E-13,  avg # of iterations =  2.0

     negative rho (up, down):  0.000E+00 9.019E-04

     total cpu time spent up to now is    16175.8 secs

     total energy              =   -2126.13464585 Ry
     estimated scf accuracy    <          2.1E-10 Ry

     total magnetization       =    19.00 Bohr mag/cell
     absolute magnetization    =    19.05 Bohr mag/cell

     iteration # 33     ecut=   100.00 Ry     beta= 0.40
     Davidson diagonalization with overlap
     ethr =  1.14E-13,  avg # of iterations =  2.0

     negative rho (up, down):  0.000E+00 9.019E-04

     Magnetic moment per site:
     atom:    1    charge:    7.9001    magn:    0.0006    constr:    0.0000
     atom:    2    charge:   12.8032    magn:    3.6466    constr:    0.0000
     atom:    3    charge:   12.8101    magn:    3.6303    constr:    0.0000
     atom:    4    charge:   12.8367    magn:    3.5626    constr:    0.0000
     atom:    5    charge:   12.8102    magn:    3.6335    constr:    0.0000
     atom:    6    charge:    0.8112    magn:    0.0105    constr:    0.0000
     atom:    7    charge:    0.8144    magn:    0.0083    constr:    0.0000
     atom:    8    charge:    0.8136    magn:    0.0111    constr:    0.0000
     atom:    9    charge:    0.8094    magn:    0.0088    constr:    0.0000
     atom:   10    charge:    4.1919    magn:    0.1355    constr:    0.0000
     atom:   11    charge:    4.2077    magn:    0.0870    constr:    0.0000
     atom:   12    charge:    4.1948    magn:    0.1278    constr:    0.0000
     atom:   13    charge:    4.1901    magn:    0.1030    constr:    0.0000
     atom:   14    charge:    4.1996    magn:    0.1052    constr:    0.0000
     atom:   15    charge:    4.2088    magn:    0.1271    constr:    0.0000
     atom:   16    charge:    4.2064    magn:    0.0794    constr:    0.0000
     atom:   17    charge:    4.2048    magn:    0.1359    constr:    0.0000
     atom:   18    charge:    4.1650    magn:    0.1515    constr:    0.0000
     atom:   19    charge:    4.1705    magn:    0.1313    constr:    0.0000
     atom:   20    charge:    4.1695    magn:    0.1392    constr:    0.0000
     atom:   21    charge:    4.1735    magn:    0.1190    constr:    0.0000
     atom:   22    charge:    4.1716    magn:    0.1504    constr:    0.0000
     atom:   23    charge:    4.1653    magn:    0.1338    constr:    0.0000
     atom:   24    charge:    4.1648    magn:    0.1487    constr:    0.0000
     atom:   25    charge:    4.1654    magn:    0.1266    constr:    0.0000

     total cpu time spent up to now is    16652.7 secs

     End of self-consistent calculation

 ------ SPIN UP ------------


          k = 0.0000 0.0000 0.0000 ( 35837 PWs)   bands (ev):

   -84.9998 -84.9649 -84.9611 -84.6958 -51.1295 -51.0878 -51.0841 -50.9638
   -50.9543 -50.9234 -50.9218 -50.8891 -50.8523 -50.8512 -50.6504 -50.4863
   -44.8144 -16.8567 -16.8020 -16.7929 -16.1554 -15.9693 -15.7985 -15.7031
   -13.7954 -13.6793 -13.5603 -13.5192 -13.4722 -13.4460 -13.3374 -13.3068
   -13.2644 -13.2284 -13.1319 -13.0355  -4.0276  -3.5448  -3.4073  -2.9942
    -2.2091  -1.8742  -1.6958  -1.5464  -1.4030  -1.2923  -1.1703  -1.1294
    -0.9609  -0.8653  -0.5966  -0.3334  -0.1670  -0.1444   0.3825   0.4317
     0.4686   0.5681   0.7416   0.8314   0.9085   0.9653   1.0805   1.1382
     1.2451   1.4926   1.5206   1.6403   1.7129   1.7504   1.8354   1.8943
     1.9830   2.1766   2.3296   2.3652   2.4289   2.4427   2.5558   2.6509
     2.7235   2.8227   2.9055   3.0095   3.0170   3.2143   3.3300   3.3600
     3.4057   3.5539   3.5798   3.6195   3.7348   3.8750   3.8940   4.0430
     4.1260   4.3100   4.3483   4.4000   4.6302   4.7692   4.9811   5.0879
     9.3841  11.4147  11.8830  12.2768  12.5022  13.0563  13.5385  13.6757
    13.7781  13.9685

     occupation numbers 
     1.0000   1.0000   1.0000   1.0000   1.0000   1.0000   1.0000   1.0000
     1.0000   1.0000   1.0000   1.0000   1.0000   1.0000   1.0000   1.0000
     1.0000   1.0000   1.0000   1.0000   1.0000   1.0000   1.0000   1.0000
     1.0000   1.0000   1.0000   1.0000   1.0000   1.0000   1.0000   1.0000
     1.0000   1.0000   1.0000   1.0000   1.0000   1.0000   1.0000   1.0000
     1.0000   1.0000   1.0000   1.0000   1.0000   1.0000   1.0000   1.0000
     1.0000   1.0000   1.0000   1.0000   1.0000   1.0000   1.0000   1.0000
     1.0000   1.0000   1.0000   1.0000   1.0000   1.0000   1.0000   1.0000
     1.0000   1.0000   1.0000   1.0000   1.0000   1.0000   1.0000   1.0000
     1.0000   1.0000   1.0000   1.0000   1.0000   1.0000   1.0000   1.0000
     1.0000   1.0000   1.0000   1.0000   1.0000   1.0000   1.0000   1.0000
     1.0000   1.0000   1.0000   1.0000   1.0000   1.0000   1.0000   1.0000
     1.0000   1.0000   1.0000   1.0000   1.0000   1.0000   1.0000   1.0000
     0.0000   0.0000   0.0000   0.0000   0.0000   0.0000   0.0000   0.0000
     0.0000   0.0000

          k = 0.0000 0.0000 0.2298 ( 35841 PWs)   bands (ev):

   -84.9998 -84.9649 -84.9611 -84.6958 -51.1295 -51.0878 -51.0841 -50.9638
   -50.9543 -50.9234 -50.9218 -50.8891 -50.8523 -50.8512 -50.6504 -50.4863
   -44.8144 -16.8587 -16.8067 -16.7923 -16.1374 -15.9624 -15.7928 -15.7008
   -13.7973 -13.6836 -13.5782 -13.5214 -13.4727 -13.4487 -13.3359 -13.3146
   -13.2601 -13.2383 -13.1367 -13.0396  -4.0033  -3.5377  -3.4053  -3.0064
    -2.1636  -1.8499  -1.6965  -1.5352  -1.3971  -1.3121  -1.1729  -1.0718
    -0.9536  -0.8305  -0.6426  -0.3068  -0.1846  -0.1481   0.3924   0.4294
     0.4827   0.6062   0.7368   0.8386   0.9055   0.9332   1.0596   1.1742
     1.2338   1.4866   1.5048   1.6127   1.6845   1.7239   1.7844   1.8333
     2.1032   2.1801   2.2536   2.3086   2.4149   2.4630   2.5109   2.6834
     2.7218   2.8080   2.9114   3.0159   3.1329   3.2033   3.2698   3.3223
     3.4089   3.5446   3.5658   3.6047   3.7190   3.8777   3.9593   4.0454
     4.1531   4.3345   4.3417   4.4095   4.6283   4.7546   4.9557   5.0653
     9.5340  11.4847  11.9459  12.2767  12.5587  13.0080  13.4878  13.6234
    13.6768  13.9217

     occupation numbers 
     1.0000   1.0000   1.0000   1.0000   1.0000   1.0000   1.0000   1.0000
     1.0000   1.0000   1.0000   1.0000   1.0000   1.0000   1.0000   1.0000
     1.0000   1.0000   1.0000   1.0000   1.0000   1.0000   1.0000   1.0000
     1.0000   1.0000   1.0000   1.0000   1.0000   1.0000   1.0000   1.0000
     1.0000   1.0000   1.0000   1.0000   1.0000   1.0000   1.0000   1.0000
     1.0000   1.0000   1.0000   1.0000   1.0000   1.0000   1.0000   1.0000
     1.0000   1.0000   1.0000   1.0000   1.0000   1.0000   1.0000   1.0000
     1.0000   1.0000   1.0000   1.0000   1.0000   1.0000   1.0000   1.0000
     1.0000   1.0000   1.0000   1.0000   1.0000   1.0000   1.0000   1.0000
     1.0000   1.0000   1.0000   1.0000   1.0000   1.0000   1.0000   1.0000
     1.0000   1.0000   1.0000   1.0000   1.0000   1.0000   1.0000   1.0000
     1.0000   1.0000   1.0000   1.0000   1.0000   1.0000   1.0000   1.0000
     1.0000   1.0000   1.0000   1.0000   1.0000   1.0000   1.0000   1.0000
     0.0000   0.0000   0.0000   0.0000   0.0000   0.0000   0.0000   0.0000
     0.0000   0.0000

          k = 0.0000 0.0000 0.4597 ( 35884 PWs)   bands (ev):

   -84.9998 -84.9649 -84.9611 -84.6958 -51.1295 -51.0878 -51.0841 -50.9638
   -50.9543 -50.9234 -50.9218 -50.8891 -50.8523 -50.8512 -50.6504 -50.4863
   -44.8144 -16.8662 -16.8156 -16.7901 -16.0908 -15.9448 -15.7781 -15.6959
   -13.8038 -13.6957 -13.6177 -13.5324 -13.4754 -13.4538 -13.3540 -13.3101
   -13.2624 -13.2484 -13.1503 -13.0506  -3.9337  -3.5279  -3.3955  -3.0508
    -2.0386  -1.7919  -1.6910  -1.5252  -1.3754  -1.3312  -1.1667  -0.9561
    -0.9100  -0.7658  -0.7382  -0.3045  -0.2189  -0.0870   0.4154   0.4494
     0.5149   0.6775   0.7547   0.8447   0.8867   0.9005   0.9909   1.2129
     1.2348   1.4482   1.5023   1.5419   1.6006   1.6551   1.7143   1.7748
     1.9851   2.1038   2.2499   2.3122   2.3740   2.3875   2.5751   2.6304
     2.7629   2.7983   2.9716   3.0362   3.0610   3.1996   3.2478   3.2776
     3.4073   3.4549   3.6034   3.6964   3.7435   3.8909   4.0473   4.0569
     4.2259   4.3143   4.3750   4.4577   4.6189   4.7253   4.8784   4.9966
     9.9368  11.6707  12.0936  12.3220  12.6802  12.9269  13.2360  13.4855
    13.5290  13.6253

     occupation numbers 
     1.0000   1.0000   1.0000   1.0000   1.0000   1.0000   1.0000   1.0000
     1.0000   1.0000   1.0000   1.0000   1.0000   1.0000   1.0000   1.0000
     1.0000   1.0000   1.0000   1.0000   1.0000   1.0000   1.0000   1.0000
     1.0000   1.0000   1.0000   1.0000   1.0000   1.0000   1.0000   1.0000
     1.0000   1.0000   1.0000   1.0000   1.0000   1.0000   1.0000   1.0000
     1.0000   1.0000   1.0000   1.0000   1.0000   1.0000   1.0000   1.0000
     1.0000   1.0000   1.0000   1.0000   1.0000   1.0000   1.0000   1.0000
     1.0000   1.0000   1.0000   1.0000   1.0000   1.0000   1.0000   1.0000
     1.0000   1.0000   1.0000   1.0000   1.0000   1.0000   1.0000   1.0000
     1.0000   1.0000   1.0000   1.0000   1.0000   1.0000   1.0000   1.0000
     1.0000   1.0000   1.0000   1.0000   1.0000   1.0000   1.0000   1.0000
     1.0000   1.0000   1.0000   1.0000   1.0000   1.0000   1.0000   1.0000
     1.0000   1.0000   1.0000   1.0000   1.0000   1.0000   1.0000   1.0000
     0.0000   0.0000   0.0000   0.0000   0.0000   0.0000   0.0000   0.0000
     0.0000   0.0000

          k = 0.0000 0.0000 0.6895 ( 35896 PWs)   bands (ev):

   -84.9998 -84.9649 -84.9611 -84.6958 -51.1295 -51.0878 -51.0841 -50.9638
   -50.9543 -50.9234 -50.9218 -50.8891 -50.8523 -50.8512 -50.6504 -50.4863
   -44.8144 -16.8784 -16.8207 -16.7874 -16.0345 -15.9255 -15.7612 -15.6928
   -13.8149 -13.7109 -13.6590 -13.5463 -13.4850 -13.4579 -13.3805 -13.2949
   -13.2834 -13.2338 -13.1696 -13.0649  -3.8307  -3.5400  -3.3723  -3.1270
    -1.8915  -1.7472  -1.6484  -1.5331  -1.3415  -1.3133  -1.1498  -0.9641
    -0.8444  -0.7696  -0.6305  -0.4620  -0.0785   0.0392   0.4311   0.5117
     0.5661   0.6655   0.8112   0.8280   0.8409   0.8861   0.9519   1.2199
     1.2409   1.3598   1.3946   1.4769   1.5804   1.5908   1.6805   1.6984
     1.7663   1.9565   2.1725   2.2808   2.3050   2.5293   2.5510   2.7156
     2.7781   2.8180   2.8530   2.9208   3.0866   3.0942   3.1993   3.2799
     3.3773   3.4657   3.7244   3.7971   3.8792   3.9699   4.0502   4.1076
     4.2665   4.3415   4.4155   4.5039   4.6119   4.7016   4.7512   4.8828
    10.4933  11.9042  12.1377  12.4572  12.6995  12.9238  13.0960  13.2620
    13.3493  13.3769

     occupation numbers 
     1.0000   1.0000   1.0000   1.0000   1.0000   1.0000   1.0000   1.0000
     1.0000   1.0000   1.0000   1.0000   1.0000   1.0000   1.0000   1.0000
     1.0000   1.0000   1.0000   1.0000   1.0000   1.0000   1.0000   1.0000
     1.0000   1.0000   1.0000   1.0000   1.0000   1.0000   1.0000   1.0000
     1.0000   1.0000   1.0000   1.0000   1.0000   1.0000   1.0000   1.0000
     1.0000   1.0000   1.0000   1.0000   1.0000   1.0000   1.0000   1.0000
     1.0000   1.0000   1.0000   1.0000   1.0000   1.0000   1.0000   1.0000
     1.0000   1.0000   1.0000   1.0000   1.0000   1.0000   1.0000   1.0000
     1.0000   1.0000   1.0000   1.0000   1.0000   1.0000   1.0000   1.0000
     1.0000   1.0000   1.0000   1.0000   1.0000   1.0000   1.0000   1.0000
     1.0000   1.0000   1.0000   1.0000   1.0000   1.0000   1.0000   1.0000
     1.0000   1.0000   1.0000   1.0000   1.0000   1.0000   1.0000   1.0000
     1.0000   1.0000   1.0000   1.0000   1.0000   1.0000   1.0000   1.0000
     0.0000   0.0000   0.0000   0.0000   0.0000   0.0000   0.0000   0.0000
     0.0000   0.0000

          k = 0.0000 0.0000 0.9194 ( 35906 PWs)   bands (ev):

   -84.9998 -84.9649 -84.9611 -84.6958 -51.1295 -51.0879 -51.0841 -50.9638
   -50.9543 -50.9234 -50.9218 -50.8891 -50.8523 -50.8512 -50.6504 -50.4863
   -44.8144 -16.8876 -16.8222 -16.7854 -15.9935 -15.9148 -15.7497 -15.6931
   -13.8249 -13.7207 -13.6849 -13.5553 -13.4970 -13.4596 -13.3936 -13.3062
   -13.2689 -13.2243 -13.1861 -13.0759  -3.7214  -3.5883  -3.3393  -3.2025
    -1.8038  -1.7388  -1.5931  -1.5337  -1.3115  -1.2314  -1.1569  -1.1006
    -0.7679  -0.6742  -0.6237  -0.5470   0.1164   0.2465   0.4119   0.5092
     0.6010   0.6311   0.7482   0.7552   0.7784   0.8988   1.0292   1.1629
     1.2625   1.2860   1.3240   1.3796   1.4547   1.5538   1.6406   1.7073
     1.8113   1.9455   2.0121   2.1634   2.3273   2.4814   2.6910   2.7209
     2.7700   2.8129   2.8544   2.8767   2.9636   3.0318   3.1949   3.2866
     3.3707   3.4704   3.8345   3.8534   3.9143   4.0407   4.1231   4.2193
     4.2400   4.4217   4.4686   4.5192   4.5654   4.6390   4.6912   4.7526
    11.1055  11.6990  12.2147  12.5579  12.7546  12.8674  13.0640  13.1337
    13.3437  13.3597

     occupation numbers 
     1.0000   1.0000   1.0000   1.0000   1.0000   1.0000   1.0000   1.0000
     1.0000   1.0000   1.0000   1.0000   1.0000   1.0000   1.0000   1.0000
     1.0000   1.0000   1.0000   1.0000   1.0000   1.0000   1.0000   1.0000
     1.0000   1.0000   1.0000   1.0000   1.0000   1.0000   1.0000   1.0000
     1.0000   1.0000   1.0000   1.0000   1.0000   1.0000   1.0000   1.0000
     1.0000   1.0000   1.0000   1.0000   1.0000   1.0000   1.0000   1.0000
     1.0000   1.0000   1.0000   1.0000   1.0000   1.0000   1.0000   1.0000
     1.0000   1.0000   1.0000   1.0000   1.0000   1.0000   1.0000   1.0000
     1.0000   1.0000   1.0000   1.0000   1.0000   1.0000   1.0000   1.0000
     1.0000   1.0000   1.0000   1.0000   1.0000   1.0000   1.0000   1.0000
     1.0000   1.0000   1.0000   1.0000   1.0000   1.0000   1.0000   1.0000
     1.0000   1.0000   1.0000   1.0000   1.0000   1.0000   1.0000   1.0000
     1.0000   1.0000   1.0000   1.0000   1.0000   1.0000   1.0000   1.0000
     0.0000   0.0000   0.0000   0.0000   0.0000   0.0000   0.0000   0.0000
     0.0000   0.0000

          k = 0.0000 0.2351 0.0000 ( 35823 PWs)   bands (ev):

   -84.9998 -84.9649 -84.9611 -84.6958 -51.1295 -51.0878 -51.0841 -50.9638
   -50.9543 -50.9234 -50.9218 -50.8891 -50.8523 -50.8512 -50.6504 -50.4863
   -44.8144 -16.8568 -16.8026 -16.7930 -16.1380 -15.9670 -15.7971 -15.7207
   -13.7968 -13.6765 -13.5595 -13.5185 -13.5128 -13.4465 -13.3340 -13.3018
   -13.2533 -13.2142 -13.1321 -13.0397  -4.0033  -3.5658  -3.3822  -3.0021
    -2.1860  -1.8809  -1.6945  -1.5520  -1.3706  -1.2840  -1.1670  -1.1122
    -0.9254  -0.8555  -0.5687  -0.3103  -0.2313  -0.0940   0.4115   0.4289
     0.4930   0.5369   0.6338   0.7390   0.8088   1.0400   1.1117   1.1885
     1.3414   1.4941   1.5174   1.6119   1.6771   1.7142   1.7450   1.8002
     2.0102   2.2069   2.3130   2.3793   2.4442   2.4784   2.5820   2.6188
     2.7705   2.7962   2.8524   2.8930   3.0312   3.2376   3.3212   3.3711
     3.4156   3.4821   3.5257   3.7091   3.7885   3.8688   3.9144   4.0548
     4.1277   4.2819   4.3504   4.4064   4.6084   4.7218   5.0451   5.0971
     9.5380  11.5030  11.9589  12.2201  12.5538  13.1307  13.4793  13.6586
    13.7333  13.9353

     occupation numbers 
     1.0000   1.0000   1.0000   1.0000   1.0000   1.0000   1.0000   1.0000
     1.0000   1.0000   1.0000   1.0000   1.0000   1.0000   1.0000   1.0000
     1.0000   1.0000   1.0000   1.0000   1.0000   1.0000   1.0000   1.0000
     1.0000   1.0000   1.0000   1.0000   1.0000   1.0000   1.0000   1.0000
     1.0000   1.0000   1.0000   1.0000   1.0000   1.0000   1.0000   1.0000
     1.0000   1.0000   1.0000   1.0000   1.0000   1.0000   1.0000   1.0000
     1.0000   1.0000   1.0000   1.0000   1.0000   1.0000   1.0000   1.0000
     1.0000   1.0000   1.0000   1.0000   1.0000   1.0000   1.0000   1.0000
     1.0000   1.0000   1.0000   1.0000   1.0000   1.0000   1.0000   1.0000
     1.0000   1.0000   1.0000   1.0000   1.0000   1.0000   1.0000   1.0000
     1.0000   1.0000   1.0000   1.0000   1.0000   1.0000   1.0000   1.0000
     1.0000   1.0000   1.0000   1.0000   1.0000   1.0000   1.0000   1.0000
     1.0000   1.0000   1.0000   1.0000   1.0000   1.0000   1.0000   1.0000
     0.0000   0.0000   0.0000   0.0000   0.0000   0.0000   0.0000   0.0000
     0.0000   0.0000

          k = 0.0000 0.2351 0.2298 ( 35841 PWs)   bands (ev):

   -84.9998 -84.9649 -84.9611 -84.6958 -51.1295 -51.0878 -51.0841 -50.9638
   -50.9543 -50.9234 -50.9218 -50.8891 -50.8523 -50.8512 -50.6504 -50.4863
   -44.8144 -16.8581 -16.8064 -16.7929 -16.1233 -15.9604 -15.7908 -15.7160
   -13.7981 -13.6807 -13.5777 -13.5225 -13.5079 -13.4506 -13.3421 -13.3026
   -13.2570 -13.2157 -13.1380 -13.0431  -3.9793  -3.5572  -3.3800  -3.0146
    -2.1424  -1.8567  -1.6913  -1.5412  -1.3639  -1.3007  -1.1579  -1.0695
    -0.9083  -0.8307  -0.6123  -0.3248  -0.2192  -0.0911   0.3963   0.4339
     0.5238   0.5554   0.6348   0.7442   0.7956   1.0227   1.1218   1.1933
     1.2981   1.4900   1.5212   1.5647   1.6672   1.6751   1.7278   1.7794
     2.1325   2.1951   2.2552   2.3594   2.4171   2.4878   2.5285   2.6182
     2.7506   2.8121   2.8553   2.9667   3.0312   3.2253   3.2565   3.3710
     3.3836   3.4822   3.5587   3.6560   3.7741   3.8807   3.9720   4.0575
     4.1487   4.2785   4.3863   4.3949   4.5903   4.7285   5.0299   5.0825
     9.6832  11.5744  12.0194  12.2482  12.5847  13.0733  13.4629  13.5452
    13.7078  13.8735

     occupation numbers 
     1.0000   1.0000   1.0000   1.0000   1.0000   1.0000   1.0000   1.0000
     1.0000   1.0000   1.0000   1.0000   1.0000   1.0000   1.0000   1.0000
     1.0000   1.0000   1.0000   1.0000   1.0000   1.0000   1.0000   1.0000
     1.0000   1.0000   1.0000   1.0000   1.0000   1.0000   1.0000   1.0000
     1.0000   1.0000   1.0000   1.0000   1.0000   1.0000   1.0000   1.0000
     1.0000   1.0000   1.0000   1.0000   1.0000   1.0000   1.0000   1.0000
     1.0000   1.0000   1.0000   1.0000   1.0000   1.0000   1.0000   1.0000
     1.0000   1.0000   1.0000   1.0000   1.0000   1.0000   1.0000   1.0000
     1.0000   1.0000   1.0000   1.0000   1.0000   1.0000   1.0000   1.0000
     1.0000   1.0000   1.0000   1.0000   1.0000   1.0000   1.0000   1.0000
     1.0000   1.0000   1.0000   1.0000   1.0000   1.0000   1.0000   1.0000
     1.0000   1.0000   1.0000   1.0000   1.0000   1.0000   1.0000   1.0000
     1.0000   1.0000   1.0000   1.0000   1.0000   1.0000   1.0000   1.0000
     0.0000   0.0000   0.0000   0.0000   0.0000   0.0000   0.0000   0.0000
     0.0000   0.0000

          k = 0.0000 0.2351 0.4597 ( 35884 PWs)   bands (ev):

   -84.9998 -84.9649 -84.9611 -84.6958 -51.1295 -51.0878 -51.0841 -50.9638
   -50.9543 -50.9234 -50.9218 -50.8891 -50.8523 -50.8512 -50.6504 -50.4863
   -44.8144 -16.8649 -16.8153 -16.7907 -16.0799 -15.9437 -15.7756 -15.7074
   -13.8041 -13.6928 -13.6183 -13.5338 -13.5030 -13.4581 -13.3731 -13.2956
   -13.2696 -13.2132 -13.1509 -13.0519  -3.9111  -3.5422  -3.3727  -3.0577
    -2.0227  -1.7967  -1.6789  -1.5283  -1.3461  -1.3118  -1.1477  -0.9541
    -0.8738  -0.7601  -0.7174  -0.3860  -0.1678  -0.0676   0.3855   0.4597
     0.5360   0.5605   0.7323   0.7482   0.8075   0.9789   1.1132   1.2098
     1.2349   1.4610   1.4876   1.5327   1.5714   1.6416   1.6829   1.7682
     2.0244   2.1352   2.2835   2.3227   2.3586   2.4047   2.5690   2.6164
     2.6939   2.8449   2.9272   2.9769   3.0594   3.1064   3.2275   3.2992
     3.3709   3.4776   3.6058   3.6788   3.7821   3.9050   4.0383   4.0782
     4.2023   4.2909   4.3529   4.4624   4.5682   4.7322   4.9808   5.0349
    10.0741  11.7603  12.1729  12.3356  12.6761  12.9869  13.2451  13.4658
    13.5060  13.6869

     occupation numbers 
     1.0000   1.0000   1.0000   1.0000   1.0000   1.0000   1.0000   1.0000
     1.0000   1.0000   1.0000   1.0000   1.0000   1.0000   1.0000   1.0000
     1.0000   1.0000   1.0000   1.0000   1.0000   1.0000   1.0000   1.0000
     1.0000   1.0000   1.0000   1.0000   1.0000   1.0000   1.0000   1.0000
     1.0000   1.0000   1.0000   1.0000   1.0000   1.0000   1.0000   1.0000
     1.0000   1.0000   1.0000   1.0000   1.0000   1.0000   1.0000   1.0000
     1.0000   1.0000   1.0000   1.0000   1.0000   1.0000   1.0000   1.0000
     1.0000   1.0000   1.0000   1.0000   1.0000   1.0000   1.0000   1.0000
     1.0000   1.0000   1.0000   1.0000   1.0000   1.0000   1.0000   1.0000
     1.0000   1.0000   1.0000   1.0000   1.0000   1.0000   1.0000   1.0000
     1.0000   1.0000   1.0000   1.0000   1.0000   1.0000   1.0000   1.0000
     1.0000   1.0000   1.0000   1.0000   1.0000   1.0000   1.0000   1.0000
     1.0000   1.0000   1.0000   1.0000   1.0000   1.0000   1.0000   1.0000
     0.0000   0.0000   0.0000   0.0000   0.0000   0.0000   0.0000   0.0000
     0.0000   0.0000

          k = 0.0000 0.2351 0.6895 ( 35919 PWs)   bands (ev):

   -84.9998 -84.9649 -84.9611 -84.6958 -51.1295 -51.0878 -51.0841 -50.9638
   -50.9543 -50.9234 -50.9218 -50.8891 -50.8523 -50.8512 -50.6504 -50.4863
   -44.8144 -16.8768 -16.8206 -16.7878 -16.0254 -15.9255 -15.7586 -15.7008
   -13.8152 -13.7083 -13.6604 -13.5466 -13.5055 -13.4640 -13.4070 -13.3047
   -13.2639 -13.2058 -13.1672 -13.0634  -3.8112  -3.5448  -3.3555  -3.1311
    -1.8797  -1.7434  -1.6381  -1.5307  -1.3273  -1.2763  -1.1315  -0.9409
    -0.8152  -0.7721  -0.6310  -0.4995  -0.0617   0.0119   0.3631   0.4854
     0.5092   0.6170   0.7426   0.8412   0.8845   0.9491   1.0453   1.1721
     1.2538   1.3596   1.4223   1.4759   1.5604   1.5984   1.6302   1.7342
     1.7824   1.9804   2.1607   2.2983   2.3200   2.5118   2.5498   2.6782
     2.6879   2.8353   2.8845   2.9718   3.0012   3.0688   3.1524   3.2859
     3.3570   3.4473   3.7264   3.7932   3.8554   3.9448   4.0524   4.1080
     4.2471   4.3063   4.3397   4.4728   4.6153   4.7324   4.9019   4.9587
    10.6184  12.0010  12.2263  12.4856  12.7573  12.9493  13.1243  13.2523
    13.3269  13.3892

     occupation numbers 
     1.0000   1.0000   1.0000   1.0000   1.0000   1.0000   1.0000   1.0000
     1.0000   1.0000   1.0000   1.0000   1.0000   1.0000   1.0000   1.0000
     1.0000   1.0000   1.0000   1.0000   1.0000   1.0000   1.0000   1.0000
     1.0000   1.0000   1.0000   1.0000   1.0000   1.0000   1.0000   1.0000
     1.0000   1.0000   1.0000   1.0000   1.0000   1.0000   1.0000   1.0000
     1.0000   1.0000   1.0000   1.0000   1.0000   1.0000   1.0000   1.0000
     1.0000   1.0000   1.0000   1.0000   1.0000   1.0000   1.0000   1.0000
     1.0000   1.0000   1.0000   1.0000   1.0000   1.0000   1.0000   1.0000
     1.0000   1.0000   1.0000   1.0000   1.0000   1.0000   1.0000   1.0000
     1.0000   1.0000   1.0000   1.0000   1.0000   1.0000   1.0000   1.0000
     1.0000   1.0000   1.0000   1.0000   1.0000   1.0000   1.0000   1.0000
     1.0000   1.0000   1.0000   1.0000   1.0000   1.0000   1.0000   1.0000
     1.0000   1.0000   1.0000   1.0000   1.0000   1.0000   1.0000   1.0000
     0.0000   0.0000   0.0000   0.0000   0.0000   0.0000   0.0000   0.0000
     0.0000   0.0000

          k = 0.0000 0.2351 0.9194 ( 35896 PWs)   bands (ev):

   -84.9998 -84.9649 -84.9611 -84.6958 -51.1295 -51.0879 -51.0841 -50.9638
   -50.9543 -50.9234 -50.9218 -50.8891 -50.8523 -50.8512 -50.6504 -50.4863
   -44.8144 -16.8863 -16.8222 -16.7857 -15.9853 -15.9122 -15.7506 -15.6982
   -13.8253 -13.7180 -13.6871 -13.5536 -13.5166 -13.4662 -13.4237 -13.3176
   -13.2483 -13.2036 -13.1770 -13.0721  -3.7080  -3.5807  -3.3321  -3.2006
    -1.7912  -1.7270  -1.5893  -1.5292  -1.2980  -1.1990  -1.1364  -1.0673
    -0.7564  -0.7001  -0.6224  -0.5346   0.0743   0.1718   0.2983   0.3614
     0.5904   0.7103   0.7456   0.8520   0.9018   0.9498   1.0480   1.1177
     1.2418   1.2788   1.3692   1.4162   1.4608   1.5536   1.6118   1.6538
     1.8114   1.9281   2.0244   2.1703   2.3476   2.4797   2.6255   2.6742
     2.7523   2.8075   2.8463   2.9193   2.9572   3.0431   3.1421   3.2824
     3.3518   3.4346   3.8030   3.8753   3.9316   4.0270   4.0634   4.1321
     4.2195   4.2750   4.4015   4.4887   4.6720   4.7209   4.8172   4.8870
    11.2231  11.8024  12.2969  12.6479  12.8042  12.9116  13.0826  13.1606
    13.2530  13.3651

     occupation numbers 
     1.0000   1.0000   1.0000   1.0000   1.0000   1.0000   1.0000   1.0000
     1.0000   1.0000   1.0000   1.0000   1.0000   1.0000   1.0000   1.0000
     1.0000   1.0000   1.0000   1.0000   1.0000   1.0000   1.0000   1.0000
     1.0000   1.0000   1.0000   1.0000   1.0000   1.0000   1.0000   1.0000
     1.0000   1.0000   1.0000   1.0000   1.0000   1.0000   1.0000   1.0000
     1.0000   1.0000   1.0000   1.0000   1.0000   1.0000   1.0000   1.0000
     1.0000   1.0000   1.0000   1.0000   1.0000   1.0000   1.0000   1.0000
     1.0000   1.0000   1.0000   1.0000   1.0000   1.0000   1.0000   1.0000
     1.0000   1.0000   1.0000   1.0000   1.0000   1.0000   1.0000   1.0000
     1.0000   1.0000   1.0000   1.0000   1.0000   1.0000   1.0000   1.0000
     1.0000   1.0000   1.0000   1.0000   1.0000   1.0000   1.0000   1.0000
     1.0000   1.0000   1.0000   1.0000   1.0000   1.0000   1.0000   1.0000
     1.0000   1.0000   1.0000   1.0000   1.0000   1.0000   1.0000   1.0000
     0.0000   0.0000   0.0000   0.0000   0.0000   0.0000   0.0000   0.0000
     0.0000   0.0000

          k = 0.0000 0.4701 0.0000 ( 35853 PWs)   bands (ev):

   -84.9998 -84.9649 -84.9611 -84.6958 -51.1295 -51.0878 -51.0841 -50.9638
   -50.9543 -50.9234 -50.9217 -50.8891 -50.8523 -50.8512 -50.6504 -50.4863
   -44.8144 -16.8569 -16.8039 -16.7930 -16.0915 -15.9617 -15.8035 -15.7582
   -13.7980 -13.6689 -13.5939 -13.5470 -13.5121 -13.4492 -13.3476 -13.2872
   -13.2445 -13.1708 -13.1394 -13.0473  -3.9369  -3.6246  -3.3153  -3.0326
    -2.1269  -1.9000  -1.6898  -1.5623  -1.3318  -1.2467  -1.1511  -1.0263
    -0.9201  -0.7564  -0.5376  -0.3566  -0.2168  -0.0015   0.3616   0.4208
     0.4784   0.5323   0.5637   0.6320   0.6929   0.9967   1.1843   1.2986
     1.3397   1.4003   1.4442   1.5178   1.5912   1.6495   1.7587   1.8565
     2.0696   2.1850   2.3186   2.3450   2.4311   2.4782   2.5331   2.5725
     2.7605   2.8151   2.8364   2.9211   3.0266   3.1845   3.2494   3.2858
     3.3471   3.4380   3.7040   3.7548   3.8315   3.8926   3.9443   4.0942
     4.1181   4.2016   4.3058   4.3869   4.5219   4.8430   5.0784   5.1144
     9.9567  11.7038  11.8811  12.1805  12.7088  13.2447  13.3775  13.5288
    13.8590  13.9436

     occupation numbers 
     1.0000   1.0000   1.0000   1.0000   1.0000   1.0000   1.0000   1.0000
     1.0000   1.0000   1.0000   1.0000   1.0000   1.0000   1.0000   1.0000
[...]
     atom   24 type  3   force =     0.00450415   -0.00090849   -0.00132241
     atom   25 type  3   force =    -0.00288098    0.00160403   -0.00148192
     The non-local contrib.  to forces
     atom    1 type  2   force =     0.07255611   -0.03916988    0.00155259
     atom    2 type  1   force =     0.07029629   -0.03054940    0.12367927
     atom    3 type  1   force =     0.05155822    0.00155707    0.09923784
     atom    4 type  1   force =    -0.16916389    0.06660656   -0.09530049
     atom    5 type  1   force =    -0.03878814   -0.01562843   -0.09579895
     atom    6 type  4   force =     0.00131367   -0.00039406   -0.02553519
     atom    7 type  4   force =     0.01703858    0.00300967    0.00064217
     atom    8 type  4   force =    -0.01915955   -0.00828385    0.02558748
     atom    9 type  4   force =     0.02369323    0.00105714    0.02769556
     atom   10 type  3   force =     0.31346396    0.01996827   -1.47361514
     atom   11 type  3   force =    -0.11883683    0.01698329   -1.40201821
     atom   12 type  3   force =    -0.39402088   -0.01882154    1.47813909
     atom   13 type  3   force =     0.25411196    0.01364430    1.47538161
     atom   14 type  3   force =     1.21976404    0.02021195   -0.63826145
     atom   15 type  3   force =    -1.18778478   -0.01876723   -0.77079190
     atom   16 type  3   force =    -1.20385292    0.04110652    0.33382328
     atom   17 type  3   force =     1.16802998    0.00868004    0.63550282
     atom   18 type  3   force =    -0.51948662   -1.11302464    0.77281286
     atom   19 type  3   force =     0.55805295    1.15144639    0.82970562
     atom   20 type  3   force =     0.58388732   -1.13896257   -0.71152324
     atom   21 type  3   force =    -0.64484541    1.06499377   -0.61800339
     atom   22 type  3   force =     0.51816537    1.11216865   -0.67718030
     atom   23 type  3   force =    -0.52189719   -1.08996163   -0.76211995
     atom   24 type  3   force =    -0.52580743    1.12524572    0.76343189
     atom   25 type  3   force =     0.51399430   -1.19441988    0.78046209
     The ionic contribution  to forces
     atom    1 type  2   force =    -2.38881657   -0.28485579    1.28795068
     atom    2 type  1   force =    -0.54162766    0.29057166   -0.48975861
     atom    3 type  1   force =    -8.31961294   -0.73960725   -0.59966604
     atom    4 type  1   force =     3.45504533   -0.90782657    0.12516494
     atom    5 type  1   force =     8.30194900    1.13248228    0.89047606
     atom    6 type  4   force =    -3.15273345    0.04016303    0.42558784
     atom    7 type  4   force =     0.33944979   -0.80335081    0.67826497
     atom    8 type  4   force =     4.54538833    0.00520399   -0.59283408
     atom    9 type  4   force =    -2.14604703    0.92659515   -0.89063512
     atom   10 type  3   force =   -10.34663490   -0.07000394    2.52675236
     atom   11 type  3   force =     4.13793812   -1.44181176    1.02042213
     atom   12 type  3   force =    12.02656147    0.18389607   -2.65651646
     atom   13 type  3   force =    -8.14293988    1.11492386   -2.07661915
     atom   14 type  3   force =     0.43794415    1.09871585    5.45333924
     atom   15 type  3   force =    -2.10208210    0.12712115    7.05868651
     atom   16 type  3   force =    -1.62005067   -1.82807221   -2.54225102
     atom   17 type  3   force =     3.56330160   -0.11699342   -6.24320877
     atom   18 type  3   force =    -3.98514146    2.74068927   -2.99881739
     atom   19 type  3   force =     1.02539005   -3.67221348   -2.94649052
     atom   20 type  3   force =     5.20375215    4.07224572    2.68286902
     atom   21 type  3   force =     0.67098548   -1.23325213    0.11256067
     atom   22 type  3   force =     5.06651506   -3.97214758    2.25746076
     atom   23 type  3   force =    -1.97779519    1.95565300    2.44971448
     atom   24 type  3   force =    -4.24522518   -2.89167126   -2.93450519
     atom   25 type  3   force =     0.19448653    4.27354518   -1.99794730
     The local contribution  to forces
     atom    1 type  2   force =     2.31636490    0.33523351   -1.28506388
     atom    2 type  1   force =     0.46623301   -0.26067804    0.36661678
     atom    3 type  1   force =     8.27477489    0.73730342    0.49918260
     atom    4 type  1   force =    -3.28601451    0.84110764   -0.02912943
     atom    5 type  1   force =    -8.27001781   -1.11693465   -0.79427349
     atom    6 type  4   force =     3.18315081   -0.04003303   -0.39707628
     atom    7 type  4   force =    -0.38028058    0.79940129   -0.67368894
     atom    8 type  4   force =    -4.56158202    0.00091707    0.56051678
     atom    9 type  4   force =     2.15435911   -0.92633007    0.85847245
     atom   10 type  3   force =    10.03257440    0.04943432   -1.06751473
     atom   11 type  3   force =    -4.02042288    1.42386054    0.36939770
     atom   12 type  3   force =   -11.63144279   -0.16578256    1.19379727
     atom   13 type  3   force =     7.88723698   -1.12885453    0.61388091
     atom   14 type  3   force =    -1.68298205   -1.12069523   -4.81203970
     atom   15 type  3   force =     3.31576057   -0.10797364   -6.28497026
     atom   16 type  3   force =     2.84663526    1.78667842    2.20509853
     atom   17 type  3   force =    -4.75392141    0.10795200    5.60467491
     atom   18 type  3   force =     4.50454100   -1.63662927    2.23213094
     atom   19 type  3   force =    -1.58254969    2.52741024    2.12358205
     atom   20 type  3   force =    -5.78749228   -2.94053948   -1.97809750
     atom   21 type  3   force =    -0.02616547    0.17717768    0.50007529
     atom   22 type  3   force =    -5.58327810    2.86579608   -1.58709893
     atom   23 type  3   force =     2.49767680   -0.87371621   -1.69345230
     atom   24 type  3   force =     4.77105385    1.77523525    2.17662607
     atom   25 type  3   force =    -0.70702673   -3.08788557    1.22306178
     The core correction contribution to forces
     atom    1 type  2   force =     0.00000000    0.00000000    0.00000000
     atom    2 type  1   force =    -0.00087515    0.00028726   -0.00037110
     atom    3 type  1   force =    -0.00003947   -0.00006386    0.00057513
     atom    4 type  1   force =     0.00302755   -0.00065430   -0.00039416
     atom    5 type  1   force =     0.00016852    0.00016187   -0.00016916
     atom    6 type  4   force =    -0.00071990    0.00003885    0.00145793
     atom    7 type  4   force =    -0.00019904   -0.00001672   -0.00049022
     atom    8 type  4   force =     0.00166526    0.00052964   -0.00128673
     atom    9 type  4   force =    -0.00233182   -0.00057121   -0.00127094
     atom   10 type  3   force =    -0.00335680   -0.00017929    0.01285555
     atom   11 type  3   force =     0.00172570   -0.00012762    0.01209468
     atom   12 type  3   force =     0.00407259    0.00019228   -0.01286176
     atom   13 type  3   force =    -0.00284274   -0.00011913   -0.01282038
     atom   14 type  3   force =    -0.00975702   -0.00018796    0.00595018
     atom   15 type  3   force =     0.00953053    0.00016396    0.00705000
     atom   16 type  3   force =     0.00958075   -0.00032174   -0.00321488
     atom   17 type  3   force =    -0.00943854   -0.00007257   -0.00587637
     atom   18 type  3   force =     0.00442536    0.00958403   -0.00699145
     atom   19 type  3   force =    -0.00473933   -0.00985976   -0.00752299
     atom   20 type  3   force =    -0.00504395    0.00981378    0.00639623
     atom   21 type  3   force =     0.00552382   -0.00924321    0.00560857
     atom   22 type  3   force =    -0.00445081   -0.00956883    0.00607982
     atom   23 type  3   force =     0.00444773    0.00940233    0.00694391
     atom   24 type  3   force =     0.00448783   -0.00971300   -0.00687847
     atom   25 type  3   force =    -0.00433430    0.01036998   -0.00705404
     The Hubbard contrib.    to forces
     atom    1 type  2   force =     0.00000000    0.00000000    0.00000000
     atom    2 type  1   force =     0.00000000    0.00000000    0.00000000
     atom    3 type  1   force =     0.00000000    0.00000000    0.00000000
     atom    4 type  1   force =     0.00000000    0.00000000    0.00000000
     atom    5 type  1   force =     0.00000000    0.00000000    0.00000000
     atom    6 type  4   force =     0.00000000    0.00000000    0.00000000
     atom    7 type  4   force =     0.00000000    0.00000000    0.00000000
     atom    8 type  4   force =     0.00000000    0.00000000    0.00000000
     atom    9 type  4   force =     0.00000000    0.00000000    0.00000000
     atom   10 type  3   force =     0.00000000    0.00000000    0.00000000
     atom   11 type  3   force =     0.00000000    0.00000000    0.00000000
     atom   12 type  3   force =     0.00000000    0.00000000    0.00000000
     atom   13 type  3   force =     0.00000000    0.00000000    0.00000000
     atom   14 type  3   force =     0.00000000    0.00000000    0.00000000
     atom   15 type  3   force =     0.00000000    0.00000000    0.00000000
     atom   16 type  3   force =     0.00000000    0.00000000    0.00000000
     atom   17 type  3   force =     0.00000000    0.00000000    0.00000000
     atom   18 type  3   force =     0.00000000    0.00000000    0.00000000
     atom   19 type  3   force =     0.00000000    0.00000000    0.00000000
     atom   20 type  3   force =     0.00000000    0.00000000    0.00000000
     atom   21 type  3   force =     0.00000000    0.00000000    0.00000000
     atom   22 type  3   force =     0.00000000    0.00000000    0.00000000
     atom   23 type  3   force =     0.00000000    0.00000000    0.00000000
     atom   24 type  3   force =     0.00000000    0.00000000    0.00000000
     atom   25 type  3   force =     0.00000000    0.00000000    0.00000000
     The SCF correction term to forces
     atom    1 type  2   force =     0.00000344    0.00000051    0.00000045
     atom    2 type  1   force =    -0.00000437   -0.00000007    0.00000020
     atom    3 type  1   force =    -0.00000691   -0.00000010   -0.00000010
     atom    4 type  1   force =     0.00000475    0.00000002    0.00000005
     atom    5 type  1   force =     0.00000525   -0.00000040   -0.00000024
     atom    6 type  4   force =    -0.00000478    0.00000006    0.00000065
     atom    7 type  4   force =     0.00000006    0.00000010   -0.00000053
     atom    8 type  4   force =     0.00000004    0.00000007   -0.00000036
     atom    9 type  4   force =     0.00000473   -0.00000009    0.00000052
     atom   10 type  3   force =    -0.00000812   -0.00000003   -0.00000433
     atom   11 type  3   force =    -0.00000186    0.00000002    0.00000223
     atom   12 type  3   force =     0.00000147    0.00000003    0.00000204
     atom   13 type  3   force =     0.00000748   -0.00000001   -0.00000317
     atom   14 type  3   force =     0.00000742   -0.00000012    0.00000227
     atom   15 type  3   force =    -0.00000027   -0.00000006   -0.00000186
     atom   16 type  3   force =     0.00000116    0.00000007   -0.00000077
     atom   17 type  3   force =    -0.00000691    0.00000010    0.00000227
     atom   18 type  3   force =    -0.00000505    0.00000536    0.00000420
     atom   19 type  3   force =    -0.00000094    0.00000621   -0.00000357
     atom   20 type  3   force =     0.00000122    0.00000493   -0.00000315
     atom   21 type  3   force =     0.00000457    0.00000349    0.00000303
     atom   22 type  3   force =     0.00000115   -0.00000501   -0.00000336
     atom   23 type  3   force =     0.00000458   -0.00000362    0.00000312
     atom   24 type  3   force =    -0.00000506   -0.00000535    0.00000425
     atom   25 type  3   force =    -0.00000093   -0.00000583   -0.00000347

     Total force =     0.095314     Total SCF correction =     0.000029


     Computing stress (Cartesian axis) and pressure


     negative rho (up, down):  0.000E+00 9.019E-04
          total   stress  (Ry/bohr**3)                   (kbar)     P=        5.45
   0.00012670   0.00001546  -0.00002704           18.64        2.27       -3.98
   0.00001546  -0.00009270  -0.00002298            2.27      -13.64       -3.38
  -0.00002704  -0.00002298   0.00007717           -3.98       -3.38       11.35

     kinetic stress (kbar)  26932.56     -7.06     -7.89
                               -7.06  27123.14     -4.98
                               -7.89     -4.98  26928.54

     local   stress (kbar)  -4980.75  -1767.26   1076.45
                            -1767.26 -13555.89    654.58
                             1076.45    654.58  -8157.99

     nonloc. stress (kbar)  -6871.09     -1.56      1.68
                               -1.56  -6805.52      0.84
                                1.68      0.84  -6820.29

     hartree stress (kbar)  12881.99    714.02   -431.20
                              714.02  17806.52   -260.15
                             -431.20   -260.15  14960.58

     exc-cor stress (kbar)  -2850.47      1.04     -0.76
                                1.04  -2858.55     -0.42
                               -0.76     -0.42  -2855.64

     corecor stress (kbar)  -3169.12     -0.33      0.73
                               -0.33  -3167.80      0.03
                                0.73      0.03  -3169.09

     ewald   stress (kbar) -21924.47   1063.44   -642.98
                             1063.44 -18555.54   -393.29
                             -642.98   -393.29 -20874.75

     hubbard stress (kbar)      0.00      0.00      0.00
                                0.00      0.00      0.00
                                0.00      0.00      0.00

     DFT-D   stress (kbar)      0.00      0.00      0.00
                                0.00      0.00      0.00
                                0.00      0.00      0.00

     XDM     stress (kbar)      0.00      0.00      0.00
                                0.00      0.00      0.00
                                0.00      0.00      0.00

     dft-nl  stress (kbar)      0.00      0.00      0.00
                                0.00      0.00      0.00
                                0.00      0.00      0.00

     TS-vdW  stress (kbar)      0.00      0.00      0.00
                                0.00      0.00      0.00
                                0.00      0.00      0.00



     init_run     :    188.49s CPU    192.62s WALL (       1 calls)
     electrons    :  16221.92s CPU  16458.71s WALL (       1 calls)
     forces       :    118.44s CPU    120.89s WALL (       1 calls)
     stress       :    793.16s CPU    798.66s WALL (       1 calls)

     Called by init_run:
     wfcinit      :    178.33s CPU    181.60s WALL (       1 calls)
     wfcinit:atom :      3.15s CPU      3.22s WALL (     316 calls)
     wfcinit:wfcr :    164.90s CPU    167.83s WALL (     316 calls)
     potinit      :      3.70s CPU      3.85s WALL (       1 calls)
     hinit0       :      3.29s CPU      3.38s WALL (       1 calls)

     Called by electrons:
     c_bands      :  14428.13s CPU  14595.93s WALL (      33 calls)
     sum_band     :   1691.94s CPU   1739.83s WALL (      33 calls)
     v_of_rho     :     30.98s CPU     32.28s WALL (      34 calls)
     v_h          :      1.44s CPU      1.51s WALL (      34 calls)
     v_xc         :     31.31s CPU     32.61s WALL (      36 calls)
     newd         :     48.82s CPU     68.55s WALL (      34 calls)
     PAW_pot      :     14.55s CPU     14.63s WALL (      34 calls)
     mix_rho      :      7.36s CPU      7.69s WALL (      33 calls)

     Called by c_bands:
     init_us_2    :    307.69s CPU    316.13s WALL (   21804 calls)
     cegterg      :  13954.55s CPU  14111.33s WALL (   10428 calls)

     Called by sum_band:
     sum_band:wei :      0.53s CPU      0.54s WALL (      33 calls)
     sum_band:loo :   1536.21s CPU   1556.82s WALL (      33 calls)
     sum_band:buf :     81.60s CPU     83.50s WALL (   10428 calls)
     sum_band:ini :    146.72s CPU    150.31s WALL (   10428 calls)
     sum_band:cal :    711.99s CPU    720.35s WALL (   10428 calls)
     sum_band:bec :      5.22s CPU      5.30s WALL (   10428 calls)
     addusdens    :    148.01s CPU    175.06s WALL (      33 calls)
     addusd:skk   :      0.81s CPU      0.85s WALL (      99 calls)
     addusd:dgemm :     68.47s CPU     91.18s WALL (     198 calls)
     addusd:qvan2 :     76.60s CPU     77.38s WALL (     198 calls)

     Called by *egterg:
     cdiaghg      :    869.04s CPU    893.62s WALL (   40965 calls)
     cegterg:over :   1360.42s CPU   1386.16s WALL (   30537 calls)
     cegterg:upda :    776.56s CPU    781.26s WALL (   30537 calls)
     cegterg:last :   1685.68s CPU   1695.83s WALL (   18511 calls)
     h_psi        :   6625.79s CPU   6695.29s WALL (   41281 calls)
     s_psi        :   1792.78s CPU   1803.23s WALL (   41281 calls)
     g_psi        :     14.89s CPU     15.09s WALL (   30537 calls)

     Called by h_psi:
     h_psi:calbec :   1886.55s CPU   1909.66s WALL (   41281 calls)
     vloc_psi     :   2668.72s CPU   2698.36s WALL (   41281 calls)
     add_vuspsi   :   1896.38s CPU   1907.47s WALL (   41281 calls)

     General routines
     calbec       :   2816.91s CPU   2850.11s WALL (   53289 calls)
     fft          :     29.31s CPU     30.95s WALL (     888 calls)
     ffts         :      0.47s CPU      0.53s WALL (     134 calls)
     fftw         :   3019.93s CPU   3053.06s WALL ( 6475110 calls)
     interpolate  :      1.95s CPU      2.13s WALL (      68 calls)

     Parallel routines
     fft_scatt_xy :    284.42s CPU    287.38s WALL ( 6476132 calls)
     fft_scatt_yz :    871.77s CPU    884.10s WALL ( 6476132 calls)

     PAW routines
     PAW_pot      :     14.55s CPU     14.63s WALL (      34 calls)

     PWSCF        :      4h48m CPU      4h52m WALL


   This run was terminated on:   0:13:28  19Dec2022            

=------------------------------------------------------------------------------=
   JOB DONE.
=------------------------------------------------------------------------------=
Note: The following floating-point exceptions are signalling: IEEE_INVALID_FLAG IEEE_UNDERFLOW_FLAG IEEE_DENORMAL
Note: The following floating-point exceptions are signalling: IEEE_DENORMAL
Note: The following floating-point exceptions are signalling: IEEE_DENORMAL
Note: The following floating-point exceptions are signalling: IEEE_DENORMAL
Note: The following floating-point exceptions are signalling: IEEE_DENORMAL
Note: The following floating-point exceptions are signalling: IEEE_DENORMAL
Note: The following floating-point exceptions are signalling: IEEE_DENORMAL
Note: The following floating-point exceptions are signalling: IEEE_DENORMAL
Note: The following floating-point exceptions are signalling: IEEE_DENORMAL
Note: The following floating-point exceptions are signalling: IEEE_DENORMAL
Note: The following floating-point exceptions are signalling: IEEE_DENORMAL
Note: The following floating-point exceptions are signalling: IEEE_INVALID_FLAG IEEE_DENORMAL
Note: The following floating-point exceptions are signalling: IEEE_DENORMAL
Note: The following floating-point exceptions are signalling: IEEE_DENORMAL
Note: The following floating-point exceptions are signalling: IEEE_DENORMAL
Note: The following floating-point exceptions are signalling: IEEE_DENORMAL
Note: The following floating-point exceptions are signalling: IEEE_DENORMAL
Note: The following floating-point exceptions are signalling: IEEE_DENORMAL
Note: The following floating-point exceptions are signalling: IEEE_DENORMAL
Note: The following floating-point exceptions are signalling: IEEE_DENORMAL
Note: The following floating-point exceptions are signalling: IEEE_DENORMAL
Note: The following floating-point exceptions are signalling: IEEE_DENORMAL
Note: The following floating-point exceptions are signalling: IEEE_DENORMAL
Note: The following floating-point exceptions are signalling: IEEE_DENORMAL
