
     Program PWSCF v.6.7MaX starts on 18Dec2022 at 19:56:59 

     This program is part of the open-source Quantum ESPRESSO suite
     for quantum simulation of materials; please cite
         "P. Giannozzi et al., J. Phys.:Condens. Matter 21 395502 (2009);
         "P. Giannozzi et al., J. Phys.:Condens. Matter 29 465901 (2017);
          URL http://www.quantum-espresso.org", 
     in publications or presentations arising from this work. More details at
     http://www.quantum-espresso.org/quote

     Parallel version (MPI), running on    24 processors

     MPI processes distributed on     1 nodes
     R & G space division:  proc/nbgrp/npool/nimage =      24
     Reading input from scale_1da-03.in

     Current dimensions of program PWSCF are:
     Max number of different atomic species (ntypx) = 10
     Max number of k-points (npk) =  40000
     Max angular momentum in pseudopotentials (lmaxx) =  3
     Message from routine read_pp_mesh:
     mesh size missing, using the one in header
     file Fe.pbe-spn-kjpaw_psl.0.2.1.UPF: wavefunction(s)  3D renormalized
     file O.pbe-n-kjpaw_psl.0.1.UPF: wavefunction(s)  2P renormalized

     Subspace diagonalization in iterative solution of the eigenvalue problem:
     a serial algorithm will be used


     Parallelization info
     --------------------
     sticks:   dense  smooth     PW     G-vecs:    dense   smooth      PW
     Min         841     311     84                54858    12367    1739
     Max         842     312     86                54860    12370    1740
     Sum       20195    7485   2029              1316619   296831   41755



     bravais-lattice index     =            0
     lattice parameter (alat)  =      19.9928  a.u.
     unit-cell volume          =    2196.3637 (a.u.)^3
     number of atoms/cell      =           25
     number of atomic types    =            4
     number of electrons       =       189.00
     number of Kohn-Sham states=          114
     kinetic-energy cutoff     =     100.0000  Ry
     charge density cutoff     =    1080.0000  Ry
     scf convergence threshold =      2.0E-10
     mixing beta               =       0.4000
     number of iterations used =            8  plain     mixing
     Exchange-correlation= PBE
                           (   1   4   3   4   0   0   0)

     celldm(1)=  19.992808  celldm(2)=   0.000000  celldm(3)=   0.000000
     celldm(4)=   0.000000  celldm(5)=   0.000000  celldm(6)=   0.000000

     crystal axes: (cart. coord. in units of alat)
               a(1) = (   1.000000   0.000000   0.000000 )  
               a(2) = (   0.000000   0.587793   0.000000 )  
               a(3) = (   0.000000   0.000000   0.467582 )  

     reciprocal axes: (cart. coord. in units 2 pi/alat)
               b(1) = (  1.000000  0.000000  0.000000 )  
               b(2) = (  0.000000  1.701278  0.000000 )  
               b(3) = (  0.000000  0.000000  2.138660 )  


     PseudoPot. # 1 for Fe read from file:
     /opt/QEpot/SSSP_precision_pseudos/Fe.pbe-spn-kjpaw_psl.0.2.1.UPF
     MD5 check sum: e86618425769142926afa95317d90200
     Pseudo is Projector augmented-wave + core cor, Zval = 16.0
     Generated using "atomic" code by A. Dal Corso  v.5.0.99 svn rev. 10869
     Shape of augmentation charge: PSQ
     Using radial grid of 1191 points,  6 beta functions with: 
                l(1) =   0
                l(2) =   0
                l(3) =   1
                l(4) =   1
                l(5) =   2
                l(6) =   2
     Q(r) pseudized with 0 coefficients 


     PseudoPot. # 2 for Na read from file:
     /opt/QEpot/SSSP_precision_pseudos/Na_ONCV_PBE-1.0.oncvpsp.upf
     MD5 check sum: 24a298df0a6742ae313db96548fdb2a4
     Pseudo is Norm-conserving, Zval =  9.0
     Generated using ONCVPSP code by D. R. Hamann
     Using radial grid of 1992 points,  4 beta functions with: 
                l(1) =   0
                l(2) =   0
                l(3) =   1
                l(4) =   1

     PseudoPot. # 3 for O  read from file:
     /opt/QEpot/SSSP_precision_pseudos/O.pbe-n-kjpaw_psl.0.1.UPF
     MD5 check sum: 0234752ac141de4415c5fc33072bef88
     Pseudo is Projector augmented-wave + core cor, Zval =  6.0
     Generated using "atomic" code by A. Dal Corso  v.5.0.99 svn rev. 10869
     Shape of augmentation charge: BESSEL
     Using radial grid of 1095 points,  4 beta functions with: 
                l(1) =   0
                l(2) =   0
                l(3) =   1
                l(4) =   1
     Q(r) pseudized with 0 coefficients 


     PseudoPot. # 4 for P  read from file:
     /opt/QEpot/SSSP_precision_pseudos/P.pbe-n-rrkjus_psl.1.0.0.UPF
     MD5 check sum: 8b930f418f0a4573dca56cd030ffe088
     Pseudo is Ultrasoft + core correction, Zval =  5.0
     Generated using "atomic" code by A. Dal Corso  v.5.1
     Using radial grid of 1147 points,  6 beta functions with: 
                l(1) =   0
                l(2) =   0
                l(3) =   1
                l(4) =   1
                l(5) =   2
                l(6) =   2
     Q(r) pseudized with 0 coefficients 


     atomic species   valence    mass     pseudopotential
        Fe            16.00    55.84500     Fe( 1.00)
        Na             9.00    22.98977     Na( 1.00)
        O              6.00    15.99940     O ( 1.00)
        P              5.00    30.97376     P ( 1.00)

     Starting magnetic structure 
     atomic species   magnetization
        Fe           0.312
        Na           0.000
        O            0.000
        P            0.000

     No symmetry found


                                    s                        frac. trans.

      isym =  1     identity                                     

 cryst.   s( 1) = (     1          0          0      )
                  (     0          1          0      )
                  (     0          0          1      )

 cart.    s( 1) = (  1.0000000  0.0000000  0.0000000 )
                  (  0.0000000  1.0000000  0.0000000 )
                  (  0.0000000  0.0000000  1.0000000 )


   Cartesian axes

     site n.     atom                  positions (alat units)
         1           Na  tau(   1) = (   0.5426070   0.2093544   0.2181165  )
         2           Fe  tau(   2) = (   0.2774940   0.4397176   0.4639414  )
         3           Fe  tau(   3) = (   0.2102570   0.1450715   0.2293866  )
         4           Fe  tau(   4) = (   0.7280950   0.1406302   0.0018951  )
         5           Fe  tau(   5) = (   0.7825800   0.4418931   0.2393798  )
         6           P   tau(   6) = (   0.1059480   0.4393620   0.2076431  )
         7           P   tau(   7) = (   0.3878490   0.1429402   0.4410911  )
         8           P   tau(   8) = (   0.8915560   0.1465046   0.2604808  )
         9           P   tau(   9) = (   0.6054980   0.4404553   0.0280199  )
        10           O   tau(  10) = (   0.1317880   0.4382646   0.3511904  )
        11           O   tau(  11) = (   0.3634070   0.1458315   0.1173146  )
        12           O   tau(  12) = (   0.8709790   0.1459168   0.1163284  )
        13           O   tau(  13) = (   0.6302560   0.4373382   0.3517777  )
        14           O   tau(  14) = (   0.4595490   0.4373847   0.0567308  )
        15           O   tau(  15) = (   0.0359180   0.1473051   0.2928170  )
        16           O   tau(  16) = (   0.5363260   0.1438501   0.4191021  )
        17           O   tau(  17) = (   0.9593080   0.4393132   0.1823838  )
        18           O   tau(  18) = (   0.1746370   0.5546747   0.1408457  )
        19           O   tau(  19) = (   0.3201300   0.0285873   0.3743694  )
        20           O   tau(  20) = (   0.8159810   0.2588501   0.3253238  )
        21           O   tau(  21) = (   0.6759000   0.3261095   0.0964562  )
        22           O   tau(  22) = (   0.8190690   0.0317267   0.3257324  )
        23           O   tau(  23) = (   0.6753190   0.5554518   0.0949286  )
        24           O   tau(  24) = (   0.1755980   0.3252707   0.1396346  )
        25           O   tau(  25) = (   0.3240220   0.2579255   0.3699274  )

   Crystallographic axes

     site n.     atom                  positions (cryst. coord.)
         1           Na  tau(   1) = (  0.5426070  0.3561700  0.4664770  )
         2           Fe  tau(   2) = (  0.2774940  0.7480820  0.9922130  )
         3           Fe  tau(   3) = (  0.2102570  0.2468070  0.4905800  )
         4           Fe  tau(   4) = (  0.7280950  0.2392510  0.0040530  )
         5           Fe  tau(   5) = (  0.7825800  0.7517830  0.5119520  )
         6           P   tau(   6) = (  0.1059480  0.7474770  0.4440780  )
         7           P   tau(   7) = (  0.3878490  0.2431810  0.9433440  )
         8           P   tau(   8) = (  0.8915560  0.2492450  0.5570800  )
         9           P   tau(   9) = (  0.6054980  0.7493370  0.0599250  )
        10           O   tau(  10) = (  0.1317880  0.7456100  0.7510770  )
        11           O   tau(  11) = (  0.3634070  0.2481000  0.2508960  )
        12           O   tau(  12) = (  0.8709790  0.2482450  0.2487870  )
        13           O   tau(  13) = (  0.6302560  0.7440340  0.7523330  )
        14           O   tau(  14) = (  0.4595490  0.7441130  0.1213280  )
        15           O   tau(  15) = (  0.0359180  0.2506070  0.6262360  )
        16           O   tau(  16) = (  0.5363260  0.2447290  0.8963170  )
        17           O   tau(  17) = (  0.9593080  0.7473940  0.3900570  )
        18           O   tau(  18) = (  0.1746370  0.9436560  0.3012210  )
        19           O   tau(  19) = (  0.3201300  0.0486350  0.8006490  )
        20           O   tau(  20) = (  0.8159810  0.4403760  0.6957570  )
        21           O   tau(  21) = (  0.6759000  0.5548030  0.2062870  )
        22           O   tau(  22) = (  0.8190690  0.0539760  0.6966310  )
        23           O   tau(  23) = (  0.6753190  0.9449780  0.2030200  )
        24           O   tau(  24) = (  0.1755980  0.5533760  0.2986310  )
        25           O   tau(  25) = (  0.3240220  0.4388030  0.7911490  )

     number of k points=   158  Marzari-Vanderbilt smearing, width (Ry)=  0.0073
                       cart. coord. in units 2pi/alat
        k(    1) = (   0.0000000   0.0000000   0.0000000), wk =   0.0031746
        k(    2) = (   0.0000000   0.0000000   0.2376289), wk =   0.0063492
        k(    3) = (   0.0000000   0.0000000   0.4752578), wk =   0.0063492
        k(    4) = (   0.0000000   0.0000000   0.7128867), wk =   0.0063492
        k(    5) = (   0.0000000   0.0000000   0.9505157), wk =   0.0063492
        k(    6) = (   0.0000000   0.2430397   0.0000000), wk =   0.0063492
        k(    7) = (   0.0000000   0.2430397   0.2376289), wk =   0.0063492
        k(    8) = (   0.0000000   0.2430397   0.4752578), wk =   0.0063492
        k(    9) = (   0.0000000   0.2430397   0.7128867), wk =   0.0063492
        k(   10) = (   0.0000000   0.2430397   0.9505157), wk =   0.0063492
        k(   11) = (   0.0000000   0.4860795   0.0000000), wk =   0.0063492
        k(   12) = (   0.0000000   0.4860795   0.2376289), wk =   0.0063492
        k(   13) = (   0.0000000   0.4860795   0.4752578), wk =   0.0063492
        k(   14) = (   0.0000000   0.4860795   0.7128867), wk =   0.0063492
        k(   15) = (   0.0000000   0.4860795   0.9505157), wk =   0.0063492
        k(   16) = (   0.0000000   0.7291192   0.0000000), wk =   0.0063492
        k(   17) = (   0.0000000   0.7291192   0.2376289), wk =   0.0063492
        k(   18) = (   0.0000000   0.7291192   0.4752578), wk =   0.0063492
        k(   19) = (   0.0000000   0.7291192   0.7128867), wk =   0.0063492
        k(   20) = (   0.0000000   0.7291192   0.9505157), wk =   0.0063492
        k(   21) = (   0.2000000   0.0000000   0.0000000), wk =   0.0063492
        k(   22) = (   0.2000000   0.0000000   0.2376289), wk =   0.0063492
        k(   23) = (   0.2000000   0.0000000   0.4752578), wk =   0.0063492
        k(   24) = (   0.2000000   0.0000000   0.7128867), wk =   0.0063492
        k(   25) = (   0.2000000   0.0000000   0.9505157), wk =   0.0063492
        k(   26) = (   0.2000000   0.2430397   0.0000000), wk =   0.0063492
        k(   27) = (   0.2000000   0.2430397   0.2376289), wk =   0.0063492
        k(   28) = (   0.2000000   0.2430397   0.4752578), wk =   0.0063492
        k(   29) = (   0.2000000   0.2430397   0.7128867), wk =   0.0063492
        k(   30) = (   0.2000000   0.2430397   0.9505157), wk =   0.0063492
        k(   31) = (   0.2000000   0.4860795   0.0000000), wk =   0.0063492
        k(   32) = (   0.2000000   0.4860795   0.2376289), wk =   0.0063492
        k(   33) = (   0.2000000   0.4860795   0.4752578), wk =   0.0063492
        k(   34) = (   0.2000000   0.4860795   0.7128867), wk =   0.0063492
        k(   35) = (   0.2000000   0.4860795   0.9505157), wk =   0.0063492
        k(   36) = (   0.2000000   0.7291192   0.0000000), wk =   0.0063492
        k(   37) = (   0.2000000   0.7291192   0.2376289), wk =   0.0063492
        k(   38) = (   0.2000000   0.7291192   0.4752578), wk =   0.0063492
        k(   39) = (   0.2000000   0.7291192   0.7128867), wk =   0.0063492
        k(   40) = (   0.2000000   0.7291192   0.9505157), wk =   0.0063492
        k(   41) = (   0.4000000   0.0000000   0.0000000), wk =   0.0063492
        k(   42) = (   0.4000000   0.0000000   0.2376289), wk =   0.0063492
        k(   43) = (   0.4000000   0.0000000   0.4752578), wk =   0.0063492
        k(   44) = (   0.4000000   0.0000000   0.7128867), wk =   0.0063492
        k(   45) = (   0.4000000   0.0000000   0.9505157), wk =   0.0063492
        k(   46) = (   0.4000000   0.2430397   0.0000000), wk =   0.0063492
        k(   47) = (   0.4000000   0.2430397   0.2376289), wk =   0.0063492
        k(   48) = (   0.4000000   0.2430397   0.4752578), wk =   0.0063492
        k(   49) = (   0.4000000   0.2430397   0.7128867), wk =   0.0063492
        k(   50) = (   0.4000000   0.2430397   0.9505157), wk =   0.0063492
        k(   51) = (   0.4000000   0.4860795   0.0000000), wk =   0.0063492
        k(   52) = (   0.4000000   0.4860795   0.2376289), wk =   0.0063492
        k(   53) = (   0.4000000   0.4860795   0.4752578), wk =   0.0063492
        k(   54) = (   0.4000000   0.4860795   0.7128867), wk =   0.0063492
        k(   55) = (   0.4000000   0.4860795   0.9505157), wk =   0.0063492
        k(   56) = (   0.4000000   0.7291192   0.0000000), wk =   0.0063492
        k(   57) = (   0.4000000   0.7291192   0.2376289), wk =   0.0063492
        k(   58) = (   0.4000000   0.7291192   0.4752578), wk =   0.0063492
        k(   59) = (   0.4000000   0.7291192   0.7128867), wk =   0.0063492
        k(   60) = (   0.4000000   0.7291192   0.9505157), wk =   0.0063492
        k(   61) = (   0.0000000  -0.2430397   0.2376289), wk =   0.0063492
        k(   62) = (   0.0000000  -0.2430397   0.4752578), wk =   0.0063492
        k(   63) = (   0.0000000  -0.2430397   0.7128867), wk =   0.0063492
        k(   64) = (   0.0000000  -0.2430397   0.9505157), wk =   0.0063492
        k(   65) = (   0.0000000  -0.4860795   0.2376289), wk =   0.0063492
        k(   66) = (   0.0000000  -0.4860795   0.4752578), wk =   0.0063492
        k(   67) = (   0.0000000  -0.4860795   0.7128867), wk =   0.0063492
        k(   68) = (   0.0000000  -0.4860795   0.9505157), wk =   0.0063492
        k(   69) = (   0.0000000  -0.7291192   0.2376289), wk =   0.0063492
        k(   70) = (   0.0000000  -0.7291192   0.4752578), wk =   0.0063492
        k(   71) = (   0.0000000  -0.7291192   0.7128867), wk =   0.0063492
        k(   72) = (   0.0000000  -0.7291192   0.9505157), wk =   0.0063492
        k(   73) = (  -0.2000000   0.0000000   0.2376289), wk =   0.0063492
        k(   74) = (  -0.2000000   0.0000000   0.4752578), wk =   0.0063492
        k(   75) = (  -0.2000000   0.0000000   0.7128867), wk =   0.0063492
        k(   76) = (  -0.2000000   0.0000000   0.9505157), wk =   0.0063492
        k(   77) = (  -0.2000000   0.2430397   0.0000000), wk =   0.0063492
        k(   78) = (  -0.2000000  -0.2430397   0.2376289), wk =   0.0063492
        k(   79) = (  -0.2000000   0.2430397  -0.2376289), wk =   0.0063492
        k(   80) = (   0.2000000  -0.2430397  -0.2376289), wk =   0.0063492
        k(   81) = (  -0.2000000  -0.2430397   0.4752578), wk =   0.0063492
        k(   82) = (  -0.2000000   0.2430397  -0.4752578), wk =   0.0063492
        k(   83) = (   0.2000000  -0.2430397  -0.4752578), wk =   0.0063492
        k(   84) = (  -0.2000000  -0.2430397   0.7128867), wk =   0.0063492
        k(   85) = (  -0.2000000   0.2430397  -0.7128867), wk =   0.0063492
        k(   86) = (   0.2000000  -0.2430397  -0.7128867), wk =   0.0063492
        k(   87) = (  -0.2000000  -0.2430397   0.9505157), wk =   0.0063492
        k(   88) = (  -0.2000000   0.2430397  -0.9505157), wk =   0.0063492
        k(   89) = (   0.2000000  -0.2430397  -0.9505157), wk =   0.0063492
        k(   90) = (  -0.2000000   0.4860795   0.0000000), wk =   0.0063492
        k(   91) = (  -0.2000000  -0.4860795   0.2376289), wk =   0.0063492
        k(   92) = (  -0.2000000   0.4860795  -0.2376289), wk =   0.0063492
        k(   93) = (   0.2000000  -0.4860795  -0.2376289), wk =   0.0063492
        k(   94) = (  -0.2000000  -0.4860795   0.4752578), wk =   0.0063492
        k(   95) = (  -0.2000000   0.4860795  -0.4752578), wk =   0.0063492
        k(   96) = (   0.2000000  -0.4860795  -0.4752578), wk =   0.0063492
        k(   97) = (  -0.2000000  -0.4860795   0.7128867), wk =   0.0063492
        k(   98) = (  -0.2000000   0.4860795  -0.7128867), wk =   0.0063492
        k(   99) = (   0.2000000  -0.4860795  -0.7128867), wk =   0.0063492
        k(  100) = (  -0.2000000  -0.4860795   0.9505157), wk =   0.0063492
        k(  101) = (  -0.2000000   0.4860795  -0.9505157), wk =   0.0063492
        k(  102) = (   0.2000000  -0.4860795  -0.9505157), wk =   0.0063492
        k(  103) = (  -0.2000000   0.7291192   0.0000000), wk =   0.0063492
        k(  104) = (  -0.2000000  -0.7291192   0.2376289), wk =   0.0063492
        k(  105) = (  -0.2000000   0.7291192  -0.2376289), wk =   0.0063492
        k(  106) = (   0.2000000  -0.7291192  -0.2376289), wk =   0.0063492
        k(  107) = (  -0.2000000  -0.7291192   0.4752578), wk =   0.0063492
        k(  108) = (  -0.2000000   0.7291192  -0.4752578), wk =   0.0063492
        k(  109) = (   0.2000000  -0.7291192  -0.4752578), wk =   0.0063492
        k(  110) = (  -0.2000000  -0.7291192   0.7128867), wk =   0.0063492
        k(  111) = (  -0.2000000   0.7291192  -0.7128867), wk =   0.0063492
        k(  112) = (   0.2000000  -0.7291192  -0.7128867), wk =   0.0063492
        k(  113) = (  -0.2000000  -0.7291192   0.9505157), wk =   0.0063492
        k(  114) = (  -0.2000000   0.7291192  -0.9505157), wk =   0.0063492
        k(  115) = (   0.2000000  -0.7291192  -0.9505157), wk =   0.0063492
        k(  116) = (  -0.4000000   0.0000000   0.2376289), wk =   0.0063492
        k(  117) = (  -0.4000000   0.0000000   0.4752578), wk =   0.0063492
        k(  118) = (  -0.4000000   0.0000000   0.7128867), wk =   0.0063492
        k(  119) = (  -0.4000000   0.0000000   0.9505157), wk =   0.0063492
        k(  120) = (  -0.4000000   0.2430397   0.0000000), wk =   0.0063492
        k(  121) = (  -0.4000000  -0.2430397   0.2376289), wk =   0.0063492
        k(  122) = (  -0.4000000   0.2430397  -0.2376289), wk =   0.0063492
        k(  123) = (   0.4000000  -0.2430397  -0.2376289), wk =   0.0063492
        k(  124) = (  -0.4000000  -0.2430397   0.4752578), wk =   0.0063492
        k(  125) = (  -0.4000000   0.2430397  -0.4752578), wk =   0.0063492
        k(  126) = (   0.4000000  -0.2430397  -0.4752578), wk =   0.0063492
        k(  127) = (  -0.4000000  -0.2430397   0.7128867), wk =   0.0063492
        k(  128) = (  -0.4000000   0.2430397  -0.7128867), wk =   0.0063492
        k(  129) = (   0.4000000  -0.2430397  -0.7128867), wk =   0.0063492
        k(  130) = (  -0.4000000  -0.2430397   0.9505157), wk =   0.0063492
        k(  131) = (  -0.4000000   0.2430397  -0.9505157), wk =   0.0063492
        k(  132) = (   0.4000000  -0.2430397  -0.9505157), wk =   0.0063492
        k(  133) = (  -0.4000000   0.4860795   0.0000000), wk =   0.0063492
        k(  134) = (  -0.4000000  -0.4860795   0.2376289), wk =   0.0063492
        k(  135) = (  -0.4000000   0.4860795  -0.2376289), wk =   0.0063492
        k(  136) = (   0.4000000  -0.4860795  -0.2376289), wk =   0.0063492
        k(  137) = (  -0.4000000  -0.4860795   0.4752578), wk =   0.0063492
        k(  138) = (  -0.4000000   0.4860795  -0.4752578), wk =   0.0063492
        k(  139) = (   0.4000000  -0.4860795  -0.4752578), wk =   0.0063492
        k(  140) = (  -0.4000000  -0.4860795   0.7128867), wk =   0.0063492
        k(  141) = (  -0.4000000   0.4860795  -0.7128867), wk =   0.0063492
        k(  142) = (   0.4000000  -0.4860795  -0.7128867), wk =   0.0063492
        k(  143) = (  -0.4000000  -0.4860795   0.9505157), wk =   0.0063492
        k(  144) = (  -0.4000000   0.4860795  -0.9505157), wk =   0.0063492
        k(  145) = (   0.4000000  -0.4860795  -0.9505157), wk =   0.0063492
        k(  146) = (  -0.4000000   0.7291192   0.0000000), wk =   0.0063492
        k(  147) = (  -0.4000000  -0.7291192   0.2376289), wk =   0.0063492
        k(  148) = (  -0.4000000   0.7291192  -0.2376289), wk =   0.0063492
        k(  149) = (   0.4000000  -0.7291192  -0.2376289), wk =   0.0063492
        k(  150) = (  -0.4000000  -0.7291192   0.4752578), wk =   0.0063492
        k(  151) = (  -0.4000000   0.7291192  -0.4752578), wk =   0.0063492
        k(  152) = (   0.4000000  -0.7291192  -0.4752578), wk =   0.0063492
        k(  153) = (  -0.4000000  -0.7291192   0.7128867), wk =   0.0063492
        k(  154) = (  -0.4000000   0.7291192  -0.7128867), wk =   0.0063492
        k(  155) = (   0.4000000  -0.7291192  -0.7128867), wk =   0.0063492
        k(  156) = (  -0.4000000  -0.7291192   0.9505157), wk =   0.0063492
        k(  157) = (  -0.4000000   0.7291192  -0.9505157), wk =   0.0063492
        k(  158) = (   0.4000000  -0.7291192  -0.9505157), wk =   0.0063492

                       cryst. coord.
        k(    1) = (   0.0000000   0.0000000   0.0000000), wk =   0.0031746
        k(    2) = (   0.0000000   0.0000000   0.1111111), wk =   0.0063492
        k(    3) = (   0.0000000   0.0000000   0.2222222), wk =   0.0063492
        k(    4) = (   0.0000000   0.0000000   0.3333333), wk =   0.0063492
        k(    5) = (   0.0000000   0.0000000   0.4444444), wk =   0.0063492
        k(    6) = (   0.0000000   0.1428571   0.0000000), wk =   0.0063492
        k(    7) = (   0.0000000   0.1428571   0.1111111), wk =   0.0063492
        k(    8) = (   0.0000000   0.1428571   0.2222222), wk =   0.0063492
        k(    9) = (   0.0000000   0.1428571   0.3333333), wk =   0.0063492
        k(   10) = (   0.0000000   0.1428571   0.4444444), wk =   0.0063492
        k(   11) = (   0.0000000   0.2857143   0.0000000), wk =   0.0063492
        k(   12) = (   0.0000000   0.2857143   0.1111111), wk =   0.0063492
        k(   13) = (   0.0000000   0.2857143   0.2222222), wk =   0.0063492
        k(   14) = (   0.0000000   0.2857143   0.3333333), wk =   0.0063492
        k(   15) = (   0.0000000   0.2857143   0.4444444), wk =   0.0063492
        k(   16) = (   0.0000000   0.4285714   0.0000000), wk =   0.0063492
        k(   17) = (   0.0000000   0.4285714   0.1111111), wk =   0.0063492
        k(   18) = (   0.0000000   0.4285714   0.2222222), wk =   0.0063492
        k(   19) = (   0.0000000   0.4285714   0.3333333), wk =   0.0063492
        k(   20) = (   0.0000000   0.4285714   0.4444444), wk =   0.0063492
        k(   21) = (   0.2000000   0.0000000   0.0000000), wk =   0.0063492
        k(   22) = (   0.2000000   0.0000000   0.1111111), wk =   0.0063492
        k(   23) = (   0.2000000   0.0000000   0.2222222), wk =   0.0063492
        k(   24) = (   0.2000000   0.0000000   0.3333333), wk =   0.0063492
        k(   25) = (   0.2000000   0.0000000   0.4444444), wk =   0.0063492
        k(   26) = (   0.2000000   0.1428571   0.0000000), wk =   0.0063492
        k(   27) = (   0.2000000   0.1428571   0.1111111), wk =   0.0063492
        k(   28) = (   0.2000000   0.1428571   0.2222222), wk =   0.0063492
        k(   29) = (   0.2000000   0.1428571   0.3333333), wk =   0.0063492
        k(   30) = (   0.2000000   0.1428571   0.4444444), wk =   0.0063492
        k(   31) = (   0.2000000   0.2857143   0.0000000), wk =   0.0063492
        k(   32) = (   0.2000000   0.2857143   0.1111111), wk =   0.0063492
        k(   33) = (   0.2000000   0.2857143   0.2222222), wk =   0.0063492
        k(   34) = (   0.2000000   0.2857143   0.3333333), wk =   0.0063492
        k(   35) = (   0.2000000   0.2857143   0.4444444), wk =   0.0063492
        k(   36) = (   0.2000000   0.4285714   0.0000000), wk =   0.0063492
        k(   37) = (   0.2000000   0.4285714   0.1111111), wk =   0.0063492
        k(   38) = (   0.2000000   0.4285714   0.2222222), wk =   0.0063492
        k(   39) = (   0.2000000   0.4285714   0.3333333), wk =   0.0063492
        k(   40) = (   0.2000000   0.4285714   0.4444444), wk =   0.0063492
        k(   41) = (   0.4000000   0.0000000   0.0000000), wk =   0.0063492
        k(   42) = (   0.4000000   0.0000000   0.1111111), wk =   0.0063492
        k(   43) = (   0.4000000   0.0000000   0.2222222), wk =   0.0063492
        k(   44) = (   0.4000000   0.0000000   0.3333333), wk =   0.0063492
        k(   45) = (   0.4000000   0.0000000   0.4444444), wk =   0.0063492
        k(   46) = (   0.4000000   0.1428571   0.0000000), wk =   0.0063492
        k(   47) = (   0.4000000   0.1428571   0.1111111), wk =   0.0063492
        k(   48) = (   0.4000000   0.1428571   0.2222222), wk =   0.0063492
        k(   49) = (   0.4000000   0.1428571   0.3333333), wk =   0.0063492
        k(   50) = (   0.4000000   0.1428571   0.4444444), wk =   0.0063492
        k(   51) = (   0.4000000   0.2857143   0.0000000), wk =   0.0063492
        k(   52) = (   0.4000000   0.2857143   0.1111111), wk =   0.0063492
        k(   53) = (   0.4000000   0.2857143   0.2222222), wk =   0.0063492
        k(   54) = (   0.4000000   0.2857143   0.3333333), wk =   0.0063492
        k(   55) = (   0.4000000   0.2857143   0.4444444), wk =   0.0063492
        k(   56) = (   0.4000000   0.4285714   0.0000000), wk =   0.0063492
        k(   57) = (   0.4000000   0.4285714   0.1111111), wk =   0.0063492
        k(   58) = (   0.4000000   0.4285714   0.2222222), wk =   0.0063492
        k(   59) = (   0.4000000   0.4285714   0.3333333), wk =   0.0063492
        k(   60) = (   0.4000000   0.4285714   0.4444444), wk =   0.0063492
        k(   61) = (   0.0000000  -0.1428571   0.1111111), wk =   0.0063492
        k(   62) = (   0.0000000  -0.1428571   0.2222222), wk =   0.0063492
        k(   63) = (   0.0000000  -0.1428571   0.3333333), wk =   0.0063492
        k(   64) = (   0.0000000  -0.1428571   0.4444444), wk =   0.0063492
        k(   65) = (   0.0000000  -0.2857143   0.1111111), wk =   0.0063492
        k(   66) = (   0.0000000  -0.2857143   0.2222222), wk =   0.0063492
        k(   67) = (   0.0000000  -0.2857143   0.3333333), wk =   0.0063492
        k(   68) = (   0.0000000  -0.2857143   0.4444444), wk =   0.0063492
        k(   69) = (   0.0000000  -0.4285714   0.1111111), wk =   0.0063492
        k(   70) = (   0.0000000  -0.4285714   0.2222222), wk =   0.0063492
        k(   71) = (   0.0000000  -0.4285714   0.3333333), wk =   0.0063492
        k(   72) = (   0.0000000  -0.4285714   0.4444444), wk =   0.0063492
        k(   73) = (  -0.2000000   0.0000000   0.1111111), wk =   0.0063492
        k(   74) = (  -0.2000000   0.0000000   0.2222222), wk =   0.0063492
        k(   75) = (  -0.2000000   0.0000000   0.3333333), wk =   0.0063492
        k(   76) = (  -0.2000000   0.0000000   0.4444444), wk =   0.0063492
        k(   77) = (  -0.2000000   0.1428571   0.0000000), wk =   0.0063492
        k(   78) = (  -0.2000000  -0.1428571   0.1111111), wk =   0.0063492
        k(   79) = (  -0.2000000   0.1428571  -0.1111111), wk =   0.0063492
        k(   80) = (   0.2000000  -0.1428571  -0.1111111), wk =   0.0063492
        k(   81) = (  -0.2000000  -0.1428571   0.2222222), wk =   0.0063492
        k(   82) = (  -0.2000000   0.1428571  -0.2222222), wk =   0.0063492
        k(   83) = (   0.2000000  -0.1428571  -0.2222222), wk =   0.0063492
        k(   84) = (  -0.2000000  -0.1428571   0.3333333), wk =   0.0063492
        k(   85) = (  -0.2000000   0.1428571  -0.3333333), wk =   0.0063492
        k(   86) = (   0.2000000  -0.1428571  -0.3333333), wk =   0.0063492
        k(   87) = (  -0.2000000  -0.1428571   0.4444444), wk =   0.0063492
        k(   88) = (  -0.2000000   0.1428571  -0.4444444), wk =   0.0063492
        k(   89) = (   0.2000000  -0.1428571  -0.4444444), wk =   0.0063492
        k(   90) = (  -0.2000000   0.2857143   0.0000000), wk =   0.0063492
        k(   91) = (  -0.2000000  -0.2857143   0.1111111), wk =   0.0063492
        k(   92) = (  -0.2000000   0.2857143  -0.1111111), wk =   0.0063492
        k(   93) = (   0.2000000  -0.2857143  -0.1111111), wk =   0.0063492
        k(   94) = (  -0.2000000  -0.2857143   0.2222222), wk =   0.0063492
        k(   95) = (  -0.2000000   0.2857143  -0.2222222), wk =   0.0063492
        k(   96) = (   0.2000000  -0.2857143  -0.2222222), wk =   0.0063492
        k(   97) = (  -0.2000000  -0.2857143   0.3333333), wk =   0.0063492
        k(   98) = (  -0.2000000   0.2857143  -0.3333333), wk =   0.0063492
        k(   99) = (   0.2000000  -0.2857143  -0.3333333), wk =   0.0063492
        k(  100) = (  -0.2000000  -0.2857143   0.4444444), wk =   0.0063492
        k(  101) = (  -0.2000000   0.2857143  -0.4444444), wk =   0.0063492
        k(  102) = (   0.2000000  -0.2857143  -0.4444444), wk =   0.0063492
        k(  103) = (  -0.2000000   0.4285714   0.0000000), wk =   0.0063492
        k(  104) = (  -0.2000000  -0.4285714   0.1111111), wk =   0.0063492
        k(  105) = (  -0.2000000   0.4285714  -0.1111111), wk =   0.0063492
        k(  106) = (   0.2000000  -0.4285714  -0.1111111), wk =   0.0063492
        k(  107) = (  -0.2000000  -0.4285714   0.2222222), wk =   0.0063492
        k(  108) = (  -0.2000000   0.4285714  -0.2222222), wk =   0.0063492
        k(  109) = (   0.2000000  -0.4285714  -0.2222222), wk =   0.0063492
        k(  110) = (  -0.2000000  -0.4285714   0.3333333), wk =   0.0063492
        k(  111) = (  -0.2000000   0.4285714  -0.3333333), wk =   0.0063492
        k(  112) = (   0.2000000  -0.4285714  -0.3333333), wk =   0.0063492
        k(  113) = (  -0.2000000  -0.4285714   0.4444444), wk =   0.0063492
        k(  114) = (  -0.2000000   0.4285714  -0.4444444), wk =   0.0063492
        k(  115) = (   0.2000000  -0.4285714  -0.4444444), wk =   0.0063492
        k(  116) = (  -0.4000000   0.0000000   0.1111111), wk =   0.0063492
        k(  117) = (  -0.4000000   0.0000000   0.2222222), wk =   0.0063492
        k(  118) = (  -0.4000000   0.0000000   0.3333333), wk =   0.0063492
        k(  119) = (  -0.4000000   0.0000000   0.4444444), wk =   0.0063492
        k(  120) = (  -0.4000000   0.1428571   0.0000000), wk =   0.0063492
        k(  121) = (  -0.4000000  -0.1428571   0.1111111), wk =   0.0063492
        k(  122) = (  -0.4000000   0.1428571  -0.1111111), wk =   0.0063492
        k(  123) = (   0.4000000  -0.1428571  -0.1111111), wk =   0.0063492
        k(  124) = (  -0.4000000  -0.1428571   0.2222222), wk =   0.0063492
        k(  125) = (  -0.4000000   0.1428571  -0.2222222), wk =   0.0063492
        k(  126) = (   0.4000000  -0.1428571  -0.2222222), wk =   0.0063492
        k(  127) = (  -0.4000000  -0.1428571   0.3333333), wk =   0.0063492
        k(  128) = (  -0.4000000   0.1428571  -0.3333333), wk =   0.0063492
        k(  129) = (   0.4000000  -0.1428571  -0.3333333), wk =   0.0063492
        k(  130) = (  -0.4000000  -0.1428571   0.4444444), wk =   0.0063492
        k(  131) = (  -0.4000000   0.1428571  -0.4444444), wk =   0.0063492
        k(  132) = (   0.4000000  -0.1428571  -0.4444444), wk =   0.0063492
        k(  133) = (  -0.4000000   0.2857143   0.0000000), wk =   0.0063492
        k(  134) = (  -0.4000000  -0.2857143   0.1111111), wk =   0.0063492
        k(  135) = (  -0.4000000   0.2857143  -0.1111111), wk =   0.0063492
        k(  136) = (   0.4000000  -0.2857143  -0.1111111), wk =   0.0063492
        k(  137) = (  -0.4000000  -0.2857143   0.2222222), wk =   0.0063492
        k(  138) = (  -0.4000000   0.2857143  -0.2222222), wk =   0.0063492
        k(  139) = (   0.4000000  -0.2857143  -0.2222222), wk =   0.0063492
        k(  140) = (  -0.4000000  -0.2857143   0.3333333), wk =   0.0063492
        k(  141) = (  -0.4000000   0.2857143  -0.3333333), wk =   0.0063492
        k(  142) = (   0.4000000  -0.2857143  -0.3333333), wk =   0.0063492
        k(  143) = (  -0.4000000  -0.2857143   0.4444444), wk =   0.0063492
        k(  144) = (  -0.4000000   0.2857143  -0.4444444), wk =   0.0063492
        k(  145) = (   0.4000000  -0.2857143  -0.4444444), wk =   0.0063492
        k(  146) = (  -0.4000000   0.4285714   0.0000000), wk =   0.0063492
        k(  147) = (  -0.4000000  -0.4285714   0.1111111), wk =   0.0063492
        k(  148) = (  -0.4000000   0.4285714  -0.1111111), wk =   0.0063492
        k(  149) = (   0.4000000  -0.4285714  -0.1111111), wk =   0.0063492
        k(  150) = (  -0.4000000  -0.4285714   0.2222222), wk =   0.0063492
        k(  151) = (  -0.4000000   0.4285714  -0.2222222), wk =   0.0063492
        k(  152) = (   0.4000000  -0.4285714  -0.2222222), wk =   0.0063492
        k(  153) = (  -0.4000000  -0.4285714   0.3333333), wk =   0.0063492
        k(  154) = (  -0.4000000   0.4285714  -0.3333333), wk =   0.0063492
        k(  155) = (   0.4000000  -0.4285714  -0.3333333), wk =   0.0063492
        k(  156) = (  -0.4000000  -0.4285714   0.4444444), wk =   0.0063492
        k(  157) = (  -0.4000000   0.4285714  -0.4444444), wk =   0.0063492
        k(  158) = (   0.4000000  -0.4285714  -0.4444444), wk =   0.0063492

     Dense  grid:  1316619 G-vectors     FFT dimensions: ( 216, 125, 100)

     Smooth grid:   296831 G-vectors     FFT dimensions: ( 128,  75,  60)

     Dynamical RAM for                 wfc:       2.69 MB

     Dynamical RAM for     wfc (w. buffer):     851.95 MB

     Dynamical RAM for           str. fact:       3.35 MB

     Dynamical RAM for           local pot:       0.00 MB

     Dynamical RAM for          nlocal pot:       6.60 MB

     Dynamical RAM for                qrad:      10.54 MB

     Dynamical RAM for          rho,v,vnew:      11.20 MB

     Dynamical RAM for               rhoin:       3.73 MB

     Dynamical RAM for            rho*nmix:      26.79 MB

     Dynamical RAM for           G-vectors:       3.23 MB

     Dynamical RAM for          h,s,v(r/c):       2.38 MB

     Dynamical RAM for          <psi|beta>:       0.49 MB

     Dynamical RAM for                 psi:       5.38 MB

     Dynamical RAM for                hpsi:       5.38 MB

     Dynamical RAM for                spsi:       5.38 MB

     Dynamical RAM for      wfcinit/wfcrot:       6.89 MB

     Dynamical RAM for           addusdens:     169.93 MB

     Dynamical RAM for          addusforce:     195.17 MB

     Dynamical RAM for         addusstress:     169.51 MB

     Estimated static dynamical RAM per process >     927.76 MB

     Estimated max dynamical RAM per process >       1.10 GB

     Estimated total dynamical RAM >      26.32 GB

     Check: negative core charge=   -0.000003
     Generating pointlists ...
     new r_m :   0.0755 (alat units)  1.5103 (a.u.) for type    1
     new r_m :   0.0872 (alat units)  1.7441 (a.u.) for type    2
     new r_m :   0.0601 (alat units)  1.2009 (a.u.) for type    3
     new r_m :   0.0601 (alat units)  1.2009 (a.u.) for type    4

     Initial potential from superposition of free atoms

     starting charge  188.99132, renormalised to  189.00000
     Starting wfcs are  137 randomized atomic wfcs
     Checking if some PAW data can be deallocated... 
       PAW data deallocated on   20 nodes for type:  1
       PAW data deallocated on    8 nodes for type:  3

     total cpu time spent up to now is      206.3 secs

     Self-consistent Calculation

     iteration #  1     ecut=   100.00 Ry     beta= 0.40
     Davidson diagonalization with overlap
     ethr =  1.00E-02,  avg # of iterations =  3.0

     negative rho (up, down):  0.000E+00 1.226E-04

     total cpu time spent up to now is      850.5 secs

     total energy              =   -2123.84152539 Ry
     estimated scf accuracy    <       7.04751374 Ry

     total magnetization       =    19.00 Bohr mag/cell
     absolute magnetization    =    19.00 Bohr mag/cell

     iteration #  2     ecut=   100.00 Ry     beta= 0.40
     Davidson diagonalization with overlap
     ethr =  3.73E-03,  avg # of iterations =  2.0

     negative rho (up, down):  0.000E+00 5.515E-05

     total cpu time spent up to now is     1435.9 secs

     total energy              =   -2120.42696301 Ry
     estimated scf accuracy    <      49.68414104 Ry

     total magnetization       =     6.77 Bohr mag/cell
     absolute magnetization    =     8.40 Bohr mag/cell

     iteration #  3     ecut=   100.00 Ry     beta= 0.40
     Davidson diagonalization with overlap
     ethr =  3.73E-03,  avg # of iterations =  3.1

     negative rho (up, down):  0.000E+00 2.711E-05

     total cpu time spent up to now is     1963.1 secs

     total energy              =   -2123.19886496 Ry
     estimated scf accuracy    <      64.49949254 Ry

     total magnetization       =     3.10 Bohr mag/cell
     absolute magnetization    =     7.28 Bohr mag/cell

     iteration #  4     ecut=   100.00 Ry     beta= 0.40
     Davidson diagonalization with overlap
     ethr =  3.73E-03,  avg # of iterations =  1.5

     negative rho (up, down):  0.000E+00 3.415E-05

     total cpu time spent up to now is     2413.7 secs

     total energy              =   -2124.49897359 Ry
     estimated scf accuracy    <      30.48561274 Ry

     total magnetization       =     9.00 Bohr mag/cell
     absolute magnetization    =     9.39 Bohr mag/cell

     iteration #  5     ecut=   100.00 Ry     beta= 0.40
     Davidson diagonalization with overlap
     ethr =  3.73E-03,  avg # of iterations =  1.9

     negative rho (up, down):  0.000E+00 1.133E-04

     total cpu time spent up to now is     3011.0 secs

     total energy              =   -2125.90534243 Ry
     estimated scf accuracy    <       2.62222530 Ry

     total magnetization       =    17.96 Bohr mag/cell
     absolute magnetization    =    17.97 Bohr mag/cell

     iteration #  6     ecut=   100.00 Ry     beta= 0.40
     Davidson diagonalization with overlap
     ethr =  1.39E-03,  avg # of iterations =  1.9

     negative rho (up, down):  0.000E+00 2.386E-04

     total cpu time spent up to now is     3495.9 secs

     total energy              =   -2126.04846959 Ry
     estimated scf accuracy    <       0.69354878 Ry

     total magnetization       =    19.00 Bohr mag/cell
     absolute magnetization    =    19.00 Bohr mag/cell

     iteration #  7     ecut=   100.00 Ry     beta= 0.40
     Davidson diagonalization with overlap
     ethr =  3.67E-04,  avg # of iterations =  2.0

     negative rho (up, down):  0.000E+00 3.245E-04

     total cpu time spent up to now is     3979.1 secs

     total energy              =   -2126.07628897 Ry
     estimated scf accuracy    <       0.50684070 Ry

     total magnetization       =    19.08 Bohr mag/cell
     absolute magnetization    =    19.08 Bohr mag/cell

     iteration #  8     ecut=   100.00 Ry     beta= 0.40
     Davidson diagonalization with overlap
     ethr =  2.68E-04,  avg # of iterations =  1.2

     negative rho (up, down):  0.000E+00 3.724E-04

     total cpu time spent up to now is     4401.3 secs

     total energy              =   -2126.09925889 Ry
     estimated scf accuracy    <       0.41460998 Ry

     total magnetization       =    19.00 Bohr mag/cell
     absolute magnetization    =    19.01 Bohr mag/cell

     iteration #  9     ecut=   100.00 Ry     beta= 0.40
     Davidson diagonalization with overlap
     ethr =  2.19E-04,  avg # of iterations =  1.4

     negative rho (up, down):  0.000E+00 7.037E-04

     total cpu time spent up to now is     4833.3 secs

     total energy              =   -2126.09651693 Ry
     estimated scf accuracy    <       0.13687733 Ry

     total magnetization       =    19.00 Bohr mag/cell
     absolute magnetization    =    19.01 Bohr mag/cell

     iteration # 10     ecut=   100.00 Ry     beta= 0.40
     Davidson diagonalization with overlap
     c_bands:  1 eigenvalues not converged
     c_bands:  1 eigenvalues not converged
     c_bands:  2 eigenvalues not converged
     ethr =  7.24E-05,  avg # of iterations = 13.1

     negative rho (up, down):  0.000E+00 7.653E-04

     total cpu time spent up to now is     5756.7 secs

     total energy              =   -2126.10407806 Ry
     estimated scf accuracy    <       0.53929787 Ry

     total magnetization       =    19.00 Bohr mag/cell
     absolute magnetization    =    19.02 Bohr mag/cell

     iteration # 11     ecut=   100.00 Ry     beta= 0.40
     Davidson diagonalization with overlap
     ethr =  7.24E-05,  avg # of iterations =  1.0

     negative rho (up, down):  0.000E+00 9.147E-04

     total cpu time spent up to now is     6171.6 secs

     total energy              =   -2126.11837043 Ry
     estimated scf accuracy    <       0.30581508 Ry

     total magnetization       =    19.00 Bohr mag/cell
     absolute magnetization    =    19.02 Bohr mag/cell

     iteration # 12     ecut=   100.00 Ry     beta= 0.40
     Davidson diagonalization with overlap
     ethr =  7.24E-05,  avg # of iterations =  1.0

     negative rho (up, down):  0.000E+00 7.965E-04

     total cpu time spent up to now is     6586.5 secs

     total energy              =   -2126.11905682 Ry
     estimated scf accuracy    <       0.40447379 Ry

     total magnetization       =    19.00 Bohr mag/cell
     absolute magnetization    =    19.03 Bohr mag/cell

     iteration # 13     ecut=   100.00 Ry     beta= 0.40
     Davidson diagonalization with overlap
     ethr =  7.24E-05,  avg # of iterations =  1.0

     negative rho (up, down):  0.000E+00 7.995E-04

     total cpu time spent up to now is     7000.2 secs

     total energy              =   -2126.12062923 Ry
     estimated scf accuracy    <       0.31524412 Ry

     total magnetization       =    19.00 Bohr mag/cell
     absolute magnetization    =    19.03 Bohr mag/cell

     iteration # 14     ecut=   100.00 Ry     beta= 0.40
     Davidson diagonalization with overlap
     ethr =  7.24E-05,  avg # of iterations =  1.0

     negative rho (up, down):  0.000E+00 7.863E-04

     total cpu time spent up to now is     7414.4 secs

     total energy              =   -2126.11827087 Ry
     estimated scf accuracy    <       0.31499549 Ry

     total magnetization       =    19.00 Bohr mag/cell
     absolute magnetization    =    19.03 Bohr mag/cell

     iteration # 15     ecut=   100.00 Ry     beta= 0.40
     Davidson diagonalization with overlap
     ethr =  7.24E-05,  avg # of iterations =  1.0

     negative rho (up, down):  0.000E+00 7.993E-04

     total cpu time spent up to now is     7836.4 secs

     total energy              =   -2126.11061928 Ry
     estimated scf accuracy    <       0.23214192 Ry

     total magnetization       =    19.00 Bohr mag/cell
     absolute magnetization    =    19.03 Bohr mag/cell

     iteration # 16     ecut=   100.00 Ry     beta= 0.40
     Davidson diagonalization with overlap
     ethr =  7.24E-05,  avg # of iterations =  1.0

     negative rho (up, down):  0.000E+00 8.751E-04

     total cpu time spent up to now is     8250.2 secs

     total energy              =   -2126.11165730 Ry
     estimated scf accuracy    <       0.06869759 Ry

     total magnetization       =    19.00 Bohr mag/cell
     absolute magnetization    =    19.04 Bohr mag/cell

     iteration # 17     ecut=   100.00 Ry     beta= 0.40
     Davidson diagonalization with overlap
     ethr =  3.63E-05,  avg # of iterations =  1.0

     negative rho (up, down):  0.000E+00 9.212E-04

     total cpu time spent up to now is     8664.9 secs

     total energy              =   -2126.11220515 Ry
     estimated scf accuracy    <       0.05563773 Ry

     total magnetization       =    19.00 Bohr mag/cell
     absolute magnetization    =    19.04 Bohr mag/cell

     iteration # 18     ecut=   100.00 Ry     beta= 0.40
     Davidson diagonalization with overlap
     ethr =  2.94E-05,  avg # of iterations =  1.0

     negative rho (up, down):  0.000E+00 9.238E-04

     total cpu time spent up to now is     9078.9 secs

     total energy              =   -2126.11319557 Ry
     estimated scf accuracy    <       0.00616986 Ry

     total magnetization       =    19.00 Bohr mag/cell
     absolute magnetization    =    19.04 Bohr mag/cell

     iteration # 19     ecut=   100.00 Ry     beta= 0.40
     Davidson diagonalization with overlap
     c_bands:  1 eigenvalues not converged
     c_bands:  1 eigenvalues not converged
     c_bands:  1 eigenvalues not converged
     c_bands:  1 eigenvalues not converged
     c_bands:  1 eigenvalues not converged
     c_bands:  1 eigenvalues not converged
     c_bands:  1 eigenvalues not converged
     c_bands:  1 eigenvalues not converged
     c_bands:  1 eigenvalues not converged
     c_bands:  1 eigenvalues not converged
     c_bands:  1 eigenvalues not converged
     c_bands:  2 eigenvalues not converged
     c_bands:  1 eigenvalues not converged
     c_bands:  2 eigenvalues not converged
     c_bands:  1 eigenvalues not converged
     c_bands:  1 eigenvalues not converged
     c_bands:  1 eigenvalues not converged
     c_bands:  1 eigenvalues not converged
     c_bands:  1 eigenvalues not converged
     c_bands:  1 eigenvalues not converged
     c_bands:  2 eigenvalues not converged
     c_bands:  1 eigenvalues not converged
     c_bands:  1 eigenvalues not converged
     c_bands:  1 eigenvalues not converged
     c_bands:  1 eigenvalues not converged
     c_bands:  1 eigenvalues not converged
     c_bands:  1 eigenvalues not converged
     c_bands:  1 eigenvalues not converged
     c_bands:  1 eigenvalues not converged
     c_bands:  1 eigenvalues not converged
     c_bands:  1 eigenvalues not converged
     c_bands:  1 eigenvalues not converged
     c_bands:  1 eigenvalues not converged
     c_bands:  1 eigenvalues not converged
     c_bands:  1 eigenvalues not converged
     c_bands:  1 eigenvalues not converged
     c_bands:  1 eigenvalues not converged
     c_bands:  1 eigenvalues not converged
     c_bands:  1 eigenvalues not converged
     c_bands:  1 eigenvalues not converged
     c_bands:  1 eigenvalues not converged
     c_bands:  1 eigenvalues not converged
     c_bands:  1 eigenvalues not converged
     c_bands:  1 eigenvalues not converged
     c_bands:  1 eigenvalues not converged
     c_bands:  1 eigenvalues not converged
     c_bands:  1 eigenvalues not converged
     c_bands:  1 eigenvalues not converged
     ethr =  3.26E-06,  avg # of iterations = 10.3

     negative rho (up, down):  0.000E+00 9.209E-04

     total cpu time spent up to now is     9738.0 secs

     total energy              =   -2126.11301958 Ry
     estimated scf accuracy    <       0.01581442 Ry

     total magnetization       =    19.00 Bohr mag/cell
     absolute magnetization    =    19.05 Bohr mag/cell

     iteration # 20     ecut=   100.00 Ry     beta= 0.40
     Davidson diagonalization with overlap
     c_bands:  1 eigenvalues not converged
     c_bands:  1 eigenvalues not converged
     ethr =  3.26E-06,  avg # of iterations =  2.0

     negative rho (up, down):  0.000E+00 9.257E-04

     total cpu time spent up to now is    10189.1 secs

     total energy              =   -2126.11340324 Ry
     estimated scf accuracy    <       0.00049514 Ry

     total magnetization       =    19.00 Bohr mag/cell
     absolute magnetization    =    19.05 Bohr mag/cell

     iteration # 21     ecut=   100.00 Ry     beta= 0.40
     Davidson diagonalization with overlap
     c_bands:  1 eigenvalues not converged
     c_bands:  1 eigenvalues not converged
     c_bands:  1 eigenvalues not converged
     ethr =  2.62E-07,  avg # of iterations =  4.0

     negative rho (up, down):  0.000E+00 9.186E-04

     total cpu time spent up to now is    10753.7 secs

     total energy              =   -2126.11352167 Ry
     estimated scf accuracy    <       0.00133656 Ry

     total magnetization       =    19.00 Bohr mag/cell
     absolute magnetization    =    19.05 Bohr mag/cell

     iteration # 22     ecut=   100.00 Ry     beta= 0.40
     Davidson diagonalization with overlap
     ethr =  2.62E-07,  avg # of iterations =  1.2

     negative rho (up, down):  0.000E+00 9.133E-04

     total cpu time spent up to now is    11180.3 secs

     total energy              =   -2126.11353496 Ry
     estimated scf accuracy    <       0.00141945 Ry

     total magnetization       =    19.00 Bohr mag/cell
     absolute magnetization    =    19.05 Bohr mag/cell

     iteration # 23     ecut=   100.00 Ry     beta= 0.40
     Davidson diagonalization with overlap
     ethr =  2.62E-07,  avg # of iterations =  1.0

     negative rho (up, down):  0.000E+00 9.132E-04

     total cpu time spent up to now is    11596.5 secs

     total energy              =   -2126.11354932 Ry
     estimated scf accuracy    <       0.00038334 Ry

     total magnetization       =    19.00 Bohr mag/cell
     absolute magnetization    =    19.05 Bohr mag/cell

     iteration # 24     ecut=   100.00 Ry     beta= 0.40
     Davidson diagonalization with overlap
     ethr =  2.03E-07,  avg # of iterations =  1.0

     negative rho (up, down):  0.000E+00 9.151E-04

     total cpu time spent up to now is    12009.7 secs

     total energy              =   -2126.11356254 Ry
     estimated scf accuracy    <       0.00002453 Ry

     total magnetization       =    19.00 Bohr mag/cell
     absolute magnetization    =    19.05 Bohr mag/cell

     iteration # 25     ecut=   100.00 Ry     beta= 0.40
     Davidson diagonalization with overlap
     c_bands:  1 eigenvalues not converged
     c_bands:  1 eigenvalues not converged
     ethr =  1.30E-08,  avg # of iterations =  5.1

     negative rho (up, down):  0.000E+00 9.152E-04

     total cpu time spent up to now is    12785.0 secs

     total energy              =   -2126.11357310 Ry
     estimated scf accuracy    <       0.00001617 Ry

     total magnetization       =    19.00 Bohr mag/cell
     absolute magnetization    =    19.05 Bohr mag/cell

     iteration # 26     ecut=   100.00 Ry     beta= 0.40
     Davidson diagonalization with overlap
     ethr =  8.56E-09,  avg # of iterations =  1.1

     negative rho (up, down):  0.000E+00 9.158E-04

     total cpu time spent up to now is    13204.6 secs

     total energy              =   -2126.11357408 Ry
     estimated scf accuracy    <       0.00000792 Ry

     total magnetization       =    19.00 Bohr mag/cell
     absolute magnetization    =    19.05 Bohr mag/cell

     iteration # 27     ecut=   100.00 Ry     beta= 0.40
     Davidson diagonalization with overlap
     ethr =  4.19E-09,  avg # of iterations =  1.7

     negative rho (up, down):  0.000E+00 9.159E-04

     total cpu time spent up to now is    13660.5 secs

     total energy              =   -2126.11357491 Ry
     estimated scf accuracy    <       0.00000178 Ry

     total magnetization       =    19.00 Bohr mag/cell
     absolute magnetization    =    19.05 Bohr mag/cell

     iteration # 28     ecut=   100.00 Ry     beta= 0.40
     Davidson diagonalization with overlap
     ethr =  9.42E-10,  avg # of iterations =  1.9

     negative rho (up, down):  0.000E+00 9.157E-04

     total cpu time spent up to now is    14131.2 secs

     total energy              =   -2126.11357519 Ry
     estimated scf accuracy    <       0.00000039 Ry

     total magnetization       =    19.00 Bohr mag/cell
     absolute magnetization    =    19.05 Bohr mag/cell

     iteration # 29     ecut=   100.00 Ry     beta= 0.40
     Davidson diagonalization with overlap
     ethr =  2.08E-10,  avg # of iterations =  4.0

     negative rho (up, down):  0.000E+00 9.155E-04

     total cpu time spent up to now is    14747.5 secs

     total energy              =   -2126.11357532 Ry
     estimated scf accuracy    <       0.00000150 Ry

     total magnetization       =    19.00 Bohr mag/cell
     absolute magnetization    =    19.05 Bohr mag/cell

     iteration # 30     ecut=   100.00 Ry     beta= 0.40
     Davidson diagonalization with overlap
     ethr =  2.08E-10,  avg # of iterations =  2.0

     negative rho (up, down):  0.000E+00 9.155E-04

     total cpu time spent up to now is    15247.3 secs

     total energy              =   -2126.11357540 Ry
     estimated scf accuracy    <       0.00000044 Ry

     total magnetization       =    19.00 Bohr mag/cell
     absolute magnetization    =    19.05 Bohr mag/cell

     iteration # 31     ecut=   100.00 Ry     beta= 0.40
     Davidson diagonalization with overlap
     ethr =  2.08E-10,  avg # of iterations =  1.0

     negative rho (up, down):  0.000E+00 9.154E-04

     total cpu time spent up to now is    15662.6 secs

     total energy              =   -2126.11357545 Ry
     estimated scf accuracy    <       0.00000018 Ry

     total magnetization       =    19.00 Bohr mag/cell
     absolute magnetization    =    19.05 Bohr mag/cell

     iteration # 32     ecut=   100.00 Ry     beta= 0.40
     Davidson diagonalization with overlap
     ethr =  9.73E-11,  avg # of iterations =  2.0

     negative rho (up, down):  0.000E+00 9.153E-04

     total cpu time spent up to now is    16152.1 secs

     total energy              =   -2126.11357548 Ry
     estimated scf accuracy    <       0.00000002 Ry

     total magnetization       =    19.00 Bohr mag/cell
     absolute magnetization    =    19.05 Bohr mag/cell

     iteration # 33     ecut=   100.00 Ry     beta= 0.40
     Davidson diagonalization with overlap
     ethr =  9.31E-12,  avg # of iterations =  4.3

     negative rho (up, down):  0.000E+00 9.153E-04

     total cpu time spent up to now is    16856.2 secs

     total energy              =   -2126.11357549 Ry
     estimated scf accuracy    <       0.00000005 Ry

     total magnetization       =    19.00 Bohr mag/cell
     absolute magnetization    =    19.05 Bohr mag/cell

     iteration # 34     ecut=   100.00 Ry     beta= 0.40
     Davidson diagonalization with overlap
     ethr =  9.31E-12,  avg # of iterations =  2.0

     negative rho (up, down):  0.000E+00 9.153E-04

     total cpu time spent up to now is    17355.9 secs

     total energy              =   -2126.11357549 Ry
     estimated scf accuracy    <       0.00000003 Ry

     total magnetization       =    19.00 Bohr mag/cell
     absolute magnetization    =    19.05 Bohr mag/cell

     iteration # 35     ecut=   100.00 Ry     beta= 0.40
     Davidson diagonalization with overlap
     ethr =  9.31E-12,  avg # of iterations =  1.1

     negative rho (up, down):  0.000E+00 9.152E-04

     total cpu time spent up to now is    17773.5 secs

     total energy              =   -2126.11357549 Ry
     estimated scf accuracy    <          4.0E-09 Ry

     total magnetization       =    19.00 Bohr mag/cell
     absolute magnetization    =    19.05 Bohr mag/cell

     iteration # 36     ecut=   100.00 Ry     beta= 0.40
     Davidson diagonalization with overlap
     ethr =  2.10E-12,  avg # of iterations =  2.2

     negative rho (up, down):  0.000E+00 9.152E-04

     total cpu time spent up to now is    18293.8 secs

     total energy              =   -2126.11357549 Ry
     estimated scf accuracy    <          3.1E-09 Ry

     total magnetization       =    19.00 Bohr mag/cell
     absolute magnetization    =    19.05 Bohr mag/cell

     iteration # 37     ecut=   100.00 Ry     beta= 0.40
     Davidson diagonalization with overlap
     ethr =  1.62E-12,  avg # of iterations =  2.0

     negative rho (up, down):  0.000E+00 9.152E-04

     total cpu time spent up to now is    18798.4 secs

     total energy              =   -2126.11357550 Ry
     estimated scf accuracy    <          9.9E-10 Ry

     total magnetization       =    19.00 Bohr mag/cell
     absolute magnetization    =    19.05 Bohr mag/cell

     iteration # 38     ecut=   100.00 Ry     beta= 0.40
     Davidson diagonalization with overlap
     ethr =  5.23E-13,  avg # of iterations =  2.9

     negative rho (up, down):  0.000E+00 9.152E-04

     total cpu time spent up to now is    19329.0 secs

     total energy              =   -2126.11357550 Ry
     estimated scf accuracy    <          4.2E-10 Ry

     total magnetization       =    19.00 Bohr mag/cell
     absolute magnetization    =    19.05 Bohr mag/cell

     iteration # 39     ecut=   100.00 Ry     beta= 0.40
     Davidson diagonalization with overlap
     ethr =  2.20E-13,  avg # of iterations =  2.8

     negative rho (up, down):  0.000E+00 9.152E-04

     total cpu time spent up to now is    19878.6 secs

     total energy              =   -2126.11357550 Ry
     estimated scf accuracy    <          3.9E-10 Ry

     total magnetization       =    19.00 Bohr mag/cell
     absolute magnetization    =    19.05 Bohr mag/cell

     iteration # 40     ecut=   100.00 Ry     beta= 0.40
     Davidson diagonalization with overlap
     ethr =  2.04E-13,  avg # of iterations =  2.0

     negative rho (up, down):  0.000E+00 9.152E-04

     total cpu time spent up to now is    20386.6 secs

     total energy              =   -2126.11357550 Ry
     estimated scf accuracy    <          4.6E-10 Ry

     total magnetization       =    19.00 Bohr mag/cell
     absolute magnetization    =    19.05 Bohr mag/cell

     iteration # 41     ecut=   100.00 Ry     beta= 0.40
     Davidson diagonalization with overlap
     ethr =  2.04E-13,  avg # of iterations =  2.0

     negative rho (up, down):  0.000E+00 9.152E-04

     Magnetic moment per site:
     atom:    1    charge:    7.9018    magn:    0.0005    constr:    0.0000
     atom:    2    charge:   12.8901    magn:    3.6805    constr:    0.0000
     atom:    3    charge:   12.8972    magn:    3.6631    constr:    0.0000
     atom:    4    charge:   12.9245    magn:    3.5989    constr:    0.0000
     atom:    5    charge:   12.8980    magn:    3.6652    constr:    0.0000
     atom:    6    charge:    0.8431    magn:    0.0103    constr:    0.0000
     atom:    7    charge:    0.8475    magn:    0.0082    constr:    0.0000
     atom:    8    charge:    0.8447    magn:    0.0109    constr:    0.0000
     atom:    9    charge:    0.8415    magn:    0.0086    constr:    0.0000
     atom:   10    charge:    4.2675    magn:    0.1359    constr:    0.0000
     atom:   11    charge:    4.2827    magn:    0.0852    constr:    0.0000
     atom:   12    charge:    4.2708    magn:    0.1282    constr:    0.0000
     atom:   13    charge:    4.2667    magn:    0.1014    constr:    0.0000
     atom:   14    charge:    4.2411    magn:    0.1100    constr:    0.0000
     atom:   15    charge:    4.2490    magn:    0.1336    constr:    0.0000
     atom:   16    charge:    4.2507    magn:    0.0802    constr:    0.0000
     atom:   17    charge:    4.2444    magn:    0.1438    constr:    0.0000
     atom:   18    charge:    4.2397    magn:    0.1523    constr:    0.0000
     atom:   19    charge:    4.2452    magn:    0.1323    constr:    0.0000
     atom:   20    charge:    4.2426    magn:    0.1407    constr:    0.0000
     atom:   21    charge:    4.2470    magn:    0.1184    constr:    0.0000
     atom:   22    charge:    4.2457    magn:    0.1515    constr:    0.0000
     atom:   23    charge:    4.2395    magn:    0.1339    constr:    0.0000
     atom:   24    charge:    4.2391    magn:    0.1495    constr:    0.0000
     atom:   25    charge:    4.2401    magn:    0.1272    constr:    0.0000

     total cpu time spent up to now is    20889.4 secs

     End of self-consistent calculation

 ------ SPIN UP ------------


          k = 0.0000 0.0000 0.0000 ( 37059 PWs)   bands (ev):

   -85.4971 -85.4320 -85.4311 -85.2029 -51.5867 -51.5765 -51.5499 -51.4687
   -51.4515 -51.4065 -51.3731 -51.3593 -51.3380 -51.3227 -51.1611 -50.9798
   -45.1671 -17.1889 -17.1421 -17.1299 -16.2811 -16.1221 -15.9623 -15.8587
   -13.9078 -13.8858 -13.7550 -13.6721 -13.6389 -13.5964 -13.5862 -13.5446
   -13.4803 -13.4529 -13.4093 -13.3699  -4.2736  -3.7677  -3.7536  -3.3312
    -2.3586  -2.0183  -1.9938  -1.8351  -1.6339  -1.5021  -1.4054  -1.3703
    -1.2694  -1.0572  -0.8610  -0.6230  -0.4796  -0.4700   0.0233   0.0902
     0.1868   0.2436   0.3688   0.5478   0.6250   0.6598   0.7832   0.8627
     0.9499   1.1183   1.1380   1.2881   1.4528   1.4561   1.5336   1.5577
     1.6882   1.8308   1.9338   2.0109   2.0652   2.1320   2.1914   2.2965
     2.4236   2.4762   2.5189   2.6375   2.7059   2.8033   2.8607   2.9743
     3.0701   3.1334   3.1879   3.2224   3.2832   3.4864   3.5067   3.6501
     3.7418   3.8459   3.8956   3.9501   4.1187   4.2187   4.5287   4.6400
     8.6909  10.7284  11.2189  11.5604  11.8066  12.5469  12.6952  12.9995
    13.1421  13.3199

     occupation numbers 
     1.0000   1.0000   1.0000   1.0000   1.0000   1.0000   1.0000   1.0000
     1.0000   1.0000   1.0000   1.0000   1.0000   1.0000   1.0000   1.0000
     1.0000   1.0000   1.0000   1.0000   1.0000   1.0000   1.0000   1.0000
     1.0000   1.0000   1.0000   1.0000   1.0000   1.0000   1.0000   1.0000
     1.0000   1.0000   1.0000   1.0000   1.0000   1.0000   1.0000   1.0000
     1.0000   1.0000   1.0000   1.0000   1.0000   1.0000   1.0000   1.0000
     1.0000   1.0000   1.0000   1.0000   1.0000   1.0000   1.0000   1.0000
     1.0000   1.0000   1.0000   1.0000   1.0000   1.0000   1.0000   1.0000
     1.0000   1.0000   1.0000   1.0000   1.0000   1.0000   1.0000   1.0000
     1.0000   1.0000   1.0000   1.0000   1.0000   1.0000   1.0000   1.0000
     1.0000   1.0000   1.0000   1.0000   1.0000   1.0000   1.0000   1.0000
     1.0000   1.0000   1.0000   1.0000   1.0000   1.0000   1.0000   1.0000
     1.0000   1.0000   1.0000   1.0000   1.0000   1.0000   1.0000   1.0000
     0.0000   0.0000   0.0000   0.0000   0.0000   0.0000   0.0000   0.0000
     0.0000   0.0000

          k = 0.0000 0.0000 0.2376 ( 37071 PWs)   bands (ev):

   -85.4971 -85.4320 -85.4311 -85.2029 -51.5867 -51.5765 -51.5499 -51.4687
   -51.4515 -51.4065 -51.3731 -51.3593 -51.3380 -51.3227 -51.1611 -50.9798
   -45.1671 -17.1894 -17.1445 -17.1307 -16.2649 -16.1138 -15.9565 -15.8561
   -13.9223 -13.8950 -13.7682 -13.6789 -13.6374 -13.6008 -13.5848 -13.5433
   -13.4798 -13.4558 -13.4114 -13.3737  -4.2512  -3.7672  -3.7452  -3.3414
    -2.3135  -2.0172  -1.9627  -1.8195  -1.6290  -1.5184  -1.4345  -1.2948
    -1.2548  -1.0249  -0.9062  -0.5988  -0.5164  -0.4596   0.0366   0.1058
     0.1868   0.2794   0.3676   0.5438   0.6152   0.6468   0.7578   0.8776
     0.9448   1.1139   1.1262   1.2756   1.4126   1.4214   1.4853   1.5370
     1.7738   1.7992   1.8741   1.9903   2.0566   2.1094   2.1777   2.3485
     2.3868   2.4954   2.5361   2.6190   2.7668   2.7961   2.8372   2.9287
     3.0730   3.0942   3.2025   3.2215   3.2535   3.5088   3.5437   3.6534
     3.7650   3.8470   3.9316   3.9455   4.1109   4.2177   4.5040   4.6174
     8.8381  10.8011  11.2643  11.5664  11.8631  12.4409  12.7558  12.9216
    13.0524  13.2637

     occupation numbers 
     1.0000   1.0000   1.0000   1.0000   1.0000   1.0000   1.0000   1.0000
     1.0000   1.0000   1.0000   1.0000   1.0000   1.0000   1.0000   1.0000
     1.0000   1.0000   1.0000   1.0000   1.0000   1.0000   1.0000   1.0000
     1.0000   1.0000   1.0000   1.0000   1.0000   1.0000   1.0000   1.0000
     1.0000   1.0000   1.0000   1.0000   1.0000   1.0000   1.0000   1.0000
     1.0000   1.0000   1.0000   1.0000   1.0000   1.0000   1.0000   1.0000
     1.0000   1.0000   1.0000   1.0000   1.0000   1.0000   1.0000   1.0000
     1.0000   1.0000   1.0000   1.0000   1.0000   1.0000   1.0000   1.0000
     1.0000   1.0000   1.0000   1.0000   1.0000   1.0000   1.0000   1.0000
     1.0000   1.0000   1.0000   1.0000   1.0000   1.0000   1.0000   1.0000
     1.0000   1.0000   1.0000   1.0000   1.0000   1.0000   1.0000   1.0000
     1.0000   1.0000   1.0000   1.0000   1.0000   1.0000   1.0000   1.0000
     1.0000   1.0000   1.0000   1.0000   1.0000   1.0000   1.0000   1.0000
     0.0000   0.0000   0.0000   0.0000   0.0000   0.0000   0.0000   0.0000
     0.0000   0.0000

          k = 0.0000 0.0000 0.4753 ( 37078 PWs)   bands (ev):

   -85.4971 -85.4320 -85.4311 -85.2029 -51.5867 -51.5765 -51.5499 -51.4687
   -51.4515 -51.4065 -51.3731 -51.3593 -51.3380 -51.3227 -51.1611 -50.9798
   -45.1671 -17.1915 -17.1519 -17.1304 -16.2216 -16.0928 -15.9414 -15.8510
   -13.9573 -13.9214 -13.8017 -13.7057 -13.6287 -13.6078 -13.5804 -13.5384
   -13.4814 -13.4609 -13.4164 -13.3842  -4.1860  -3.7654  -3.7290  -3.3813
    -2.1882  -2.0044  -1.8865  -1.7990  -1.6098  -1.5419  -1.4362  -1.2531
    -1.1235  -1.0241  -0.9352  -0.6428  -0.5177  -0.4022   0.0793   0.1420
     0.2038   0.3412   0.3762   0.5447   0.5791   0.6292   0.6757   0.9028
     0.9452   1.0782   1.1349   1.2305   1.2918   1.3438   1.4481   1.5072
     1.5947   1.7274   1.9447   1.9752   2.0142   2.0429   2.2340   2.2891
     2.4243   2.4848   2.5575   2.6256   2.6480   2.7679   2.8538   2.9153
     2.9713   3.1288   3.2447   3.2656   3.3000   3.5236   3.6110   3.6618
     3.8239   3.8868   3.9307   3.9922   4.0952   4.2194   4.4286   4.5490
     9.2317  10.9957  11.3559  11.6112  12.0048  12.3115  12.6049  12.8239
    12.8819  12.9911

     occupation numbers 
     1.0000   1.0000   1.0000   1.0000   1.0000   1.0000   1.0000   1.0000
     1.0000   1.0000   1.0000   1.0000   1.0000   1.0000   1.0000   1.0000
     1.0000   1.0000   1.0000   1.0000   1.0000   1.0000   1.0000   1.0000
     1.0000   1.0000   1.0000   1.0000   1.0000   1.0000   1.0000   1.0000
     1.0000   1.0000   1.0000   1.0000   1.0000   1.0000   1.0000   1.0000
     1.0000   1.0000   1.0000   1.0000   1.0000   1.0000   1.0000   1.0000
     1.0000   1.0000   1.0000   1.0000   1.0000   1.0000   1.0000   1.0000
     1.0000   1.0000   1.0000   1.0000   1.0000   1.0000   1.0000   1.0000
     1.0000   1.0000   1.0000   1.0000   1.0000   1.0000   1.0000   1.0000
     1.0000   1.0000   1.0000   1.0000   1.0000   1.0000   1.0000   1.0000
     1.0000   1.0000   1.0000   1.0000   1.0000   1.0000   1.0000   1.0000
     1.0000   1.0000   1.0000   1.0000   1.0000   1.0000   1.0000   1.0000
     1.0000   1.0000   1.0000   1.0000   1.0000   1.0000   1.0000   1.0000
     0.0000   0.0000   0.0000   0.0000   0.0000   0.0000   0.0000   0.0000
     0.0000   0.0000

          k = 0.0000 0.0000 0.7129 ( 37102 PWs)   bands (ev):

   -85.4971 -85.4320 -85.4311 -85.2029 -51.5867 -51.5765 -51.5499 -51.4687
   -51.4515 -51.4065 -51.3731 -51.3593 -51.3380 -51.3227 -51.1611 -50.9798
   -45.1671 -17.1961 -17.1588 -17.1287 -16.1667 -16.0708 -15.9228 -15.8487
   -13.9963 -13.9540 -13.8407 -13.7451 -13.6192 -13.6044 -13.5752 -13.5319
   -13.4898 -13.4609 -13.4219 -13.3982  -4.0869  -3.7828  -3.7034  -3.4550
    -2.0557  -1.9446  -1.8298  -1.7716  -1.5737  -1.5445  -1.4202  -1.2391
    -1.1424  -0.9493  -0.8151  -0.7986  -0.3877  -0.2899   0.1415   0.1850
     0.2279   0.3227   0.4352   0.5078   0.5523   0.5654   0.6621   0.8905
     0.9605   1.0049   1.1093   1.1744   1.1894   1.2385   1.3183   1.4225
     1.5286   1.6121   1.8530   1.9341   2.0186   2.1616   2.1851   2.3565
     2.4071   2.4491   2.4857   2.5085   2.6562   2.6634   2.7609   2.8829
     2.9915   3.1483   3.3261   3.3893   3.5080   3.5598   3.6317   3.6745
     3.8801   3.9166   3.9527   4.0312   4.1112   4.2210   4.3005   4.4358
     9.7705  11.2233  11.3485  11.7353  12.0810  12.2584  12.4417  12.6310
    12.7595  12.8138

     occupation numbers 
     1.0000   1.0000   1.0000   1.0000   1.0000   1.0000   1.0000   1.0000
     1.0000   1.0000   1.0000   1.0000   1.0000   1.0000   1.0000   1.0000
     1.0000   1.0000   1.0000   1.0000   1.0000   1.0000   1.0000   1.0000
     1.0000   1.0000   1.0000   1.0000   1.0000   1.0000   1.0000   1.0000
     1.0000   1.0000   1.0000   1.0000   1.0000   1.0000   1.0000   1.0000
     1.0000   1.0000   1.0000   1.0000   1.0000   1.0000   1.0000   1.0000
     1.0000   1.0000   1.0000   1.0000   1.0000   1.0000   1.0000   1.0000
     1.0000   1.0000   1.0000   1.0000   1.0000   1.0000   1.0000   1.0000
     1.0000   1.0000   1.0000   1.0000   1.0000   1.0000   1.0000   1.0000
     1.0000   1.0000   1.0000   1.0000   1.0000   1.0000   1.0000   1.0000
     1.0000   1.0000   1.0000   1.0000   1.0000   1.0000   1.0000   1.0000
     1.0000   1.0000   1.0000   1.0000   1.0000   1.0000   1.0000   1.0000
     1.0000   1.0000   1.0000   1.0000   1.0000   1.0000   1.0000   1.0000
     0.0000   0.0000   0.0000   0.0000   0.0000   0.0000   0.0000   0.0000
     0.0000   0.0000

          k = 0.0000 0.0000 0.9505 ( 37140 PWs)   bands (ev):

   -85.4971 -85.4320 -85.4311 -85.2029 -51.5867 -51.5765 -51.5499 -51.4687
   -51.4515 -51.4065 -51.3731 -51.3593 -51.3380 -51.3227 -51.1611 -50.9798
   -45.1671 -17.2004 -17.1619 -17.1273 -16.1233 -16.0614 -15.9080 -15.8514
   -14.0214 -13.9757 -13.8670 -13.7736 -13.6181 -13.5901 -13.5721 -13.5320
   -13.4947 -13.4588 -13.4255 -13.4093  -3.9766  -3.8418  -3.6612  -3.5343
    -1.9984  -1.9001  -1.7913  -1.7162  -1.5608  -1.4766  -1.4216  -1.3502
    -1.0910  -0.9623  -0.8329  -0.7138  -0.2029  -0.0959   0.1032   0.1603
     0.2535   0.2854   0.4068   0.4323   0.5137   0.6125   0.7321   0.8005
     0.9337   0.9480   1.0103   1.1000   1.1116   1.1982   1.2484   1.4133
     1.5781   1.6108   1.7192   1.8482   2.0339   2.1497   2.2883   2.3142
     2.3969   2.4174   2.4533   2.4922   2.5628   2.5977   2.7318   2.8687
     3.0105   3.1494   3.3805   3.5091   3.5641   3.6350   3.6776   3.8056
     3.8519   3.9258   4.0352   4.0554   4.1218   4.1658   4.2170   4.3001
    10.3546  10.9234  11.5674  11.9060  11.9866  12.1556  12.4113  12.5625
    12.7548  12.8066

     occupation numbers 
     1.0000   1.0000   1.0000   1.0000   1.0000   1.0000   1.0000   1.0000
     1.0000   1.0000   1.0000   1.0000   1.0000   1.0000   1.0000   1.0000
     1.0000   1.0000   1.0000   1.0000   1.0000   1.0000   1.0000   1.0000
     1.0000   1.0000   1.0000   1.0000   1.0000   1.0000   1.0000   1.0000
     1.0000   1.0000   1.0000   1.0000   1.0000   1.0000   1.0000   1.0000
     1.0000   1.0000   1.0000   1.0000   1.0000   1.0000   1.0000   1.0000
     1.0000   1.0000   1.0000   1.0000   1.0000   1.0000   1.0000   1.0000
     1.0000   1.0000   1.0000   1.0000   1.0000   1.0000   1.0000   1.0000
     1.0000   1.0000   1.0000   1.0000   1.0000   1.0000   1.0000   1.0000
     1.0000   1.0000   1.0000   1.0000   1.0000   1.0000   1.0000   1.0000
     1.0000   1.0000   1.0000   1.0000   1.0000   1.0000   1.0000   1.0000
     1.0000   1.0000   1.0000   1.0000   1.0000   1.0000   1.0000   1.0000
     1.0000   1.0000   1.0000   1.0000   1.0000   1.0000   1.0000   1.0000
     0.0000   0.0000   0.0000   0.0000   0.0000   0.0000   0.0000   0.0000
     0.0000   0.0000

          k = 0.0000 0.2430 0.0000 ( 37033 PWs)   bands (ev):

   -85.4971 -85.4320 -85.4311 -85.2029 -51.5867 -51.5765 -51.5499 -51.4687
   -51.4515 -51.4065 -51.3731 -51.3593 -51.3380 -51.3227 -51.1611 -50.9798
   -45.1671 -17.1888 -17.1426 -17.1299 -16.2648 -16.1196 -15.9610 -15.8746
   -13.9050 -13.8850 -13.7585 -13.6820 -13.6614 -13.6040 -13.5948 -13.5521
   -13.4588 -13.4305 -13.4096 -13.3679  -4.2470  -3.7820  -3.7354  -3.3408
    -2.3308  -2.0095  -1.9995  -1.8397  -1.6143  -1.4971  -1.3829  -1.3652
    -1.2235  -1.0617  -0.8446  -0.6059  -0.5332  -0.4251   0.0644   0.1224
     0.1818   0.2320   0.2883   0.4129   0.5278   0.7568   0.8433   0.8891
     1.0363   1.1183   1.1249   1.2604   1.3374   1.3407   1.4533   1.5256
     1.6990   1.9350   1.9871   2.0521   2.0683   2.1429   2.1856   2.2414
     2.4382   2.4452   2.4878   2.5620   2.6584   2.8429   2.9236   3.0150
     3.0430   3.0775   3.1281   3.2824   3.3494   3.4844   3.5109   3.6535
     3.7289   3.8017   3.9098   3.9685   4.0725   4.2348   4.5532   4.6240
     8.8487  10.8191  11.2925  11.4798  11.8888  12.5751  12.6813  13.0342
    13.0912  13.2927

     occupation numbers 
     1.0000   1.0000   1.0000   1.0000   1.0000   1.0000   1.0000   1.0000
     1.0000   1.0000   1.0000   1.0000   1.0000   1.0000   1.0000   1.0000
     1.0000   1.0000   1.0000   1.0000   1.0000   1.0000   1.0000   1.0000
     1.0000   1.0000   1.0000   1.0000   1.0000   1.0000   1.0000   1.0000
     1.0000   1.0000   1.0000   1.0000   1.0000   1.0000   1.0000   1.0000
     1.0000   1.0000   1.0000   1.0000   1.0000   1.0000   1.0000   1.0000
     1.0000   1.0000   1.0000   1.0000   1.0000   1.0000   1.0000   1.0000
     1.0000   1.0000   1.0000   1.0000   1.0000   1.0000   1.0000   1.0000
     1.0000   1.0000   1.0000   1.0000   1.0000   1.0000   1.0000   1.0000
     1.0000   1.0000   1.0000   1.0000   1.0000   1.0000   1.0000   1.0000
     1.0000   1.0000   1.0000   1.0000   1.0000   1.0000   1.0000   1.0000
     1.0000   1.0000   1.0000   1.0000   1.0000   1.0000   1.0000   1.0000
     1.0000   1.0000   1.0000   1.0000   1.0000   1.0000   1.0000   1.0000
     0.0000   0.0000   0.0000   0.0000   0.0000   0.0000   0.0000   0.0000
     0.0000   0.0000

          k = 0.0000 0.2430 0.2376 ( 37055 PWs)   bands (ev):

   -85.4971 -85.4320 -85.4311 -85.2029 -51.5867 -51.5765 -51.5499 -51.4687
   -51.4515 -51.4065 -51.3731 -51.3593 -51.3380 -51.3227 -51.1611 -50.9798
   -45.1671 -17.1891 -17.1444 -17.1310 -16.2509 -16.1112 -15.9551 -15.8701
   -13.9217 -13.8927 -13.7731 -13.6855 -13.6598 -13.6112 -13.5879 -13.5525
   -13.4591 -13.4351 -13.4111 -13.3722  -4.2248  -3.7774  -3.7295  -3.3512
    -2.2870  -2.0060  -1.9679  -1.8251  -1.6075  -1.5162  -1.4069  -1.2902
    -1.2096  -1.0301  -0.8883  -0.6212  -0.5293  -0.4194   0.0724   0.1182
     0.1922   0.2503   0.2964   0.4214   0.5147   0.7500   0.8139   0.8933
     1.0163   1.0902   1.1429   1.2363   1.3064   1.3336   1.4307   1.5151
     1.8017   1.8642   1.9845   2.0210   2.0494   2.0988   2.1719   2.2913
     2.3881   2.4667   2.5145   2.5858   2.6566   2.7982   2.8859   2.9985
     3.0404   3.0573   3.1640   3.2500   3.3194   3.5046   3.5562   3.6600
     3.7358   3.8180   3.9376   3.9618   4.0647   4.2412   4.5379   4.6092
     8.9903  10.8922  11.3304  11.5156  11.9259  12.4720  12.7511  12.8916
    13.0819  13.2513

     occupation numbers 
     1.0000   1.0000   1.0000   1.0000   1.0000   1.0000   1.0000   1.0000
     1.0000   1.0000   1.0000   1.0000   1.0000   1.0000   1.0000   1.0000
     1.0000   1.0000   1.0000   1.0000   1.0000   1.0000   1.0000   1.0000
     1.0000   1.0000   1.0000   1.0000   1.0000   1.0000   1.0000   1.0000
     1.0000   1.0000   1.0000   1.0000   1.0000   1.0000   1.0000   1.0000
     1.0000   1.0000   1.0000   1.0000   1.0000   1.0000   1.0000   1.0000
     1.0000   1.0000   1.0000   1.0000   1.0000   1.0000   1.0000   1.0000
     1.0000   1.0000   1.0000   1.0000   1.0000   1.0000   1.0000   1.0000
     1.0000   1.0000   1.0000   1.0000   1.0000   1.0000   1.0000   1.0000
     1.0000   1.0000   1.0000   1.0000   1.0000   1.0000   1.0000   1.0000
     1.0000   1.0000   1.0000   1.0000   1.0000   1.0000   1.0000   1.0000
     1.0000   1.0000   1.0000   1.0000   1.0000   1.0000   1.0000   1.0000
     1.0000   1.0000   1.0000   1.0000   1.0000   1.0000   1.0000   1.0000
     0.0000   0.0000   0.0000   0.0000   0.0000   0.0000   0.0000   0.0000
     0.0000   0.0000

          k = 0.0000 0.2430 0.4753 ( 37078 PWs)   bands (ev):

   -85.4971 -85.4320 -85.4311 -85.2029 -51.5867 -51.5765 -51.5499 -51.4687
   -51.4515 -51.4065 -51.3731 -51.3593 -51.3380 -51.3227 -51.1611 -50.9798
   -45.1671 -17.1910 -17.1515 -17.1308 -16.2102 -16.0908 -15.9395 -15.8615
   -13.9593 -13.9193 -13.8101 -13.7102 -13.6496 -13.6181 -13.5800 -13.5488
   -13.4683 -13.4355 -13.4155 -13.3814  -4.1611  -3.7723  -3.7130  -3.3895
    -2.1661  -1.9879  -1.8911  -1.8032  -1.5867  -1.5389  -1.4074  -1.2166
    -1.1192  -1.0040  -0.9377  -0.6982  -0.4846  -0.3901   0.0931   0.1313
     0.2103   0.2309   0.3617   0.4587   0.5198   0.7093   0.7645   0.8982
     0.9629   1.0841   1.1392   1.1831   1.2391   1.3164   1.3778   1.5127
     1.6548   1.8285   1.9340   1.9932   2.0222   2.0352   2.2409   2.2706
     2.3615   2.4973   2.5405   2.5681   2.6518   2.7119   2.8168   2.9175
     3.0082   3.0884   3.2065   3.2958   3.3273   3.5316   3.6014   3.6792
     3.7845   3.8621   3.9258   3.9883   4.0805   4.2464   4.4909   4.5590
     9.3703  11.0848  11.4216  11.6066  12.0436  12.3565  12.6218  12.7831
    12.9159  13.0443

     occupation numbers 
     1.0000   1.0000   1.0000   1.0000   1.0000   1.0000   1.0000   1.0000
     1.0000   1.0000   1.0000   1.0000   1.0000   1.0000   1.0000   1.0000
     1.0000   1.0000   1.0000   1.0000   1.0000   1.0000   1.0000   1.0000
     1.0000   1.0000   1.0000   1.0000   1.0000   1.0000   1.0000   1.0000
     1.0000   1.0000   1.0000   1.0000   1.0000   1.0000   1.0000   1.0000
     1.0000   1.0000   1.0000   1.0000   1.0000   1.0000   1.0000   1.0000
     1.0000   1.0000   1.0000   1.0000   1.0000   1.0000   1.0000   1.0000
     1.0000   1.0000   1.0000   1.0000   1.0000   1.0000   1.0000   1.0000
     1.0000   1.0000   1.0000   1.0000   1.0000   1.0000   1.0000   1.0000
     1.0000   1.0000   1.0000   1.0000   1.0000   1.0000   1.0000   1.0000
     1.0000   1.0000   1.0000   1.0000   1.0000   1.0000   1.0000   1.0000
     1.0000   1.0000   1.0000   1.0000   1.0000   1.0000   1.0000   1.0000
     1.0000   1.0000   1.0000   1.0000   1.0000   1.0000   1.0000   1.0000
     0.0000   0.0000   0.0000   0.0000   0.0000   0.0000   0.0000   0.0000
     0.0000   0.0000

          k = 0.0000 0.2430 0.7129 ( 37105 PWs)   bands (ev):

   -85.4971 -85.4320 -85.4311 -85.2029 -51.5867 -51.5765 -51.5499 -51.4687
   -51.4515 -51.4065 -51.3731 -51.3593 -51.3380 -51.3227 -51.1611 -50.9798
   -45.1671 -17.1954 -17.1585 -17.1290 -16.1575 -16.0695 -15.9206 -15.8554
   -14.0002 -13.9531 -13.8515 -13.7491 -13.6413 -13.6129 -13.5725 -13.5417
   -13.4829 -13.4316 -13.4207 -13.3929  -4.0652  -3.7856  -3.6864  -3.4595
    -2.0345  -1.9320  -1.8262  -1.7755  -1.5626  -1.5274  -1.3939  -1.2112
    -1.1168  -0.9539  -0.8278  -0.8094  -0.3863  -0.3140   0.0602   0.1718
     0.1888   0.2651   0.4191   0.5453   0.5583   0.6522   0.7001   0.8834
     0.9352   1.0529   1.0801   1.1629   1.1823   1.2704   1.2773   1.4022
     1.5185   1.6822   1.8181   1.9608   2.0291   2.1418   2.1711   2.3258
     2.3399   2.4922   2.4983   2.5507   2.5904   2.6349   2.7516   2.8619
     2.9928   3.0910   3.2994   3.4063   3.4583   3.5600   3.6154   3.6954
     3.8212   3.8814   3.9355   4.0095   4.1433   4.2468   4.4155   4.4767
     9.8952  11.3289  11.4086  11.7629  12.1394  12.3081  12.4596  12.6484
    12.7435  12.8087

     occupation numbers 
     1.0000   1.0000   1.0000   1.0000   1.0000   1.0000   1.0000   1.0000
     1.0000   1.0000   1.0000   1.0000   1.0000   1.0000   1.0000   1.0000
     1.0000   1.0000   1.0000   1.0000   1.0000   1.0000   1.0000   1.0000
     1.0000   1.0000   1.0000   1.0000   1.0000   1.0000   1.0000   1.0000
     1.0000   1.0000   1.0000   1.0000   1.0000   1.0000   1.0000   1.0000
     1.0000   1.0000   1.0000   1.0000   1.0000   1.0000   1.0000   1.0000
     1.0000   1.0000   1.0000   1.0000   1.0000   1.0000   1.0000   1.0000
[...]
     atom   24 type  3   force =    -0.00248550    0.00324422    0.00163817
     atom   25 type  3   force =     0.00326455   -0.00211253    0.00165256
     The non-local contrib.  to forces
     atom    1 type  2   force =     0.06837038   -0.03241484   -0.01754472
     atom    2 type  1   force =     0.08119477   -0.03251220    0.12949364
     atom    3 type  1   force =     0.04052616    0.00196799    0.10915297
     atom    4 type  1   force =    -0.18627739    0.06677619   -0.09232805
     atom    5 type  1   force =    -0.02797008   -0.01441608   -0.10289712
     atom    6 type  4   force =    -0.05044545   -0.00056948   -0.05061530
     atom    7 type  4   force =     0.06667384    0.00070438   -0.02355277
     atom    8 type  4   force =     0.03026789   -0.00687567    0.05581851
     atom    9 type  4   force =    -0.02724006    0.00116026    0.05427279
     atom   10 type  3   force =     0.30442697    0.02068697   -1.50808390
     atom   11 type  3   force =    -0.09997374    0.01402811   -1.44023521
     atom   12 type  3   force =    -0.39031064   -0.01880794    1.51132056
     atom   13 type  3   force =     0.23944763    0.01237647    1.50871002
     atom   14 type  3   force =     1.25132779    0.01566630   -0.60784770
     atom   15 type  3   force =    -1.21850781   -0.01892100   -0.74682965
     atom   16 type  3   force =    -1.23050571    0.04567808    0.30199427
     atom   17 type  3   force =     1.19514515    0.00860931    0.61422291
     atom   18 type  3   force =    -0.54132228   -1.07921435    0.77139511
     atom   19 type  3   force =     0.57771245    1.11310295    0.82922941
     atom   20 type  3   force =     0.61044428   -1.09971330   -0.69810192
     atom   21 type  3   force =    -0.66942496    1.03064579   -0.61400899
     atom   22 type  3   force =     0.53852184    1.07633630   -0.66896132
     atom   23 type  3   force =    -0.54204417   -1.05469729   -0.75950209
     atom   24 type  3   force =    -0.54823654    1.09110714    0.76086010
     atom   25 type  3   force =     0.52978271   -1.16229967    0.78749205
     The ionic contribution  to forces
     atom    1 type  2   force =    -2.71776927   -0.34785556    1.14466267
     atom    2 type  1   force =     0.14516439    0.20689793   -0.30028366
     atom    3 type  1   force =    -9.01702682   -0.61048880   -0.32562233
     atom    4 type  1   force =     2.79698773   -0.78170370    0.11112325
     atom    5 type  1   force =     9.29235818    0.96266132    0.61791293
     atom    6 type  4   force =    -4.02548172    0.02934577    0.20437516
     atom    7 type  4   force =     1.12866804   -0.78895142    0.45885882
     atom    8 type  4   force =     5.35712454    0.03814560   -0.32920928
     atom    9 type  4   force =    -2.95295144    0.91748636   -0.64994442
     atom   10 type  3   force =   -10.32105466   -0.07365604    2.90911266
     atom   11 type  3   force =     4.18847397   -1.32970018    1.56217788
     atom   12 type  3   force =    11.98745173    0.19125049   -3.01442839
     atom   13 type  3   force =    -8.04011985    1.11045796   -2.45793376
     atom   14 type  3   force =     0.38237763    1.11759252    5.00271963
     atom   15 type  3   force =    -2.09651643    0.11479725    6.52676155
     atom   16 type  3   force =    -1.64791344   -1.85403085   -2.18876609
     atom   17 type  3   force =     3.53920568   -0.11310003   -5.76955838
     atom   18 type  3   force =    -4.30060186    2.62477095   -3.03467196
     atom   19 type  3   force =     1.26455728   -3.48752978   -3.01736203
     atom   20 type  3   force =     5.44941391    3.88408111    2.62733563
     atom   21 type  3   force =     0.40818788   -1.22199179    0.26643396
     atom   22 type  3   force =     5.40720510   -3.76931806    2.26879654
     atom   23 type  3   force =    -2.20953305    1.87352623    2.50294788
     atom   24 type  3   force =    -4.51107694   -2.78665290   -2.95874594
     atom   25 type  3   force =     0.49286944    4.09396560   -2.15669231
     The local contribution  to forces
     atom    1 type  2   force =     2.64533998    0.39058077   -1.12795861
     atom    2 type  1   force =    -0.22540102   -0.17518278    0.16808397
     atom    3 type  1   force =     8.97033570    0.60856690    0.21672363
     atom    4 type  1   force =    -2.61020185    0.71511500   -0.01390221
     atom    5 type  1   force =    -9.25698443   -0.94950652   -0.51586544
     atom    6 type  4   force =     4.04803166   -0.02920579   -0.16426731
     atom    7 type  4   force =    -1.16626160    0.78740977   -0.44084542
     atom    8 type  4   force =    -5.36301194   -0.03160384    0.28543506
     atom    9 type  4   force =     2.95496737   -0.91810302    0.60531967
     atom   10 type  3   force =    10.02530591    0.05270729   -1.41171721
     atom   11 type  3   force =    -4.09147582    1.31584238   -0.13133637
     atom   12 type  3   force =   -11.60665172   -0.17360376    1.51333492
     atom   13 type  3   force =     7.80586878   -1.12322508    0.96030747
     atom   14 type  3   force =    -1.59297652   -1.13433607   -4.40609774
     atom   15 type  3   force =     3.27799725   -0.09627461   -5.79720650
     atom   16 type  3   force =     2.83485782    1.80820260    1.89342985
     atom   17 type  3   force =    -4.69675460    0.10448089    5.16819906
     atom   18 type  3   force =     4.83462261   -1.55825668    2.27244119
     atom   19 type  3   force =    -1.83422835    2.38412692    2.19825369
     atom   20 type  3   force =    -6.05010696   -2.79698492   -1.93813059
     atom   21 type  3   force =     0.25153462    0.20299319    0.34127876
     atom   22 type  3   force =    -5.93667897    2.70349637   -1.60820377
     atom   23 type  3   force =     2.74266054   -0.83000755   -1.75204068
     atom   24 type  3   force =     5.05200123    1.70830261    2.20647159
     atom   25 type  3   force =    -1.01480090   -2.94395608    1.37806930
     The core correction contribution to forces
     atom    1 type  2   force =     0.00000000    0.00000000    0.00000000
     atom    2 type  1   force =    -0.00125901    0.00028324   -0.00054394
     atom    3 type  1   force =    -0.00011996   -0.00004136   -0.00000913
     atom    4 type  1   force =     0.00333922   -0.00069573   -0.00012348
     atom    5 type  1   force =    -0.00007671    0.00021046    0.00018784
     atom    6 type  4   force =     0.00451736    0.00005710    0.00387520
     atom    7 type  4   force =    -0.00539183    0.00014888    0.00180738
     atom    8 type  4   force =    -0.00324582    0.00039506   -0.00421488
     atom    9 type  4   force =     0.00279949   -0.00051767   -0.00384803
     atom   10 type  3   force =    -0.00341168   -0.00019134    0.01319010
     atom   11 type  3   force =     0.00159823   -0.00011515    0.01245236
     atom   12 type  3   force =     0.00418704    0.00019908   -0.01316635
     atom   13 type  3   force =    -0.00282009   -0.00011003   -0.01315575
     atom   14 type  3   force =    -0.01107072   -0.00016475    0.00599239
     atom   15 type  3   force =     0.01079859    0.00017937    0.00725192
     atom   16 type  3   force =     0.01085050   -0.00036658   -0.00310662
     atom   17 type  3   force =    -0.01066145   -0.00007858   -0.00602580
     atom   18 type  3   force =     0.00475826    0.00938454   -0.00706934
     atom   19 type  3   force =    -0.00504923   -0.00961152   -0.00761954
     atom   20 type  3   force =    -0.00545508    0.00958434    0.00635595
     atom   21 type  3   force =     0.00591374   -0.00901820    0.00563652
     atom   22 type  3   force =    -0.00477994   -0.00936356    0.00607778
     atom   23 type  3   force =     0.00476399    0.00918395    0.00701336
     atom   24 type  3   force =     0.00482953   -0.00951439   -0.00694653
     atom   25 type  3   force =    -0.00459063    0.01017757   -0.00721612
     The Hubbard contrib.    to forces
     atom    1 type  2   force =     0.00000000    0.00000000    0.00000000
     atom    2 type  1   force =     0.00000000    0.00000000    0.00000000
     atom    3 type  1   force =     0.00000000    0.00000000    0.00000000
     atom    4 type  1   force =     0.00000000    0.00000000    0.00000000
     atom    5 type  1   force =     0.00000000    0.00000000    0.00000000
     atom    6 type  4   force =     0.00000000    0.00000000    0.00000000
     atom    7 type  4   force =     0.00000000    0.00000000    0.00000000
     atom    8 type  4   force =     0.00000000    0.00000000    0.00000000
     atom    9 type  4   force =     0.00000000    0.00000000    0.00000000
     atom   10 type  3   force =     0.00000000    0.00000000    0.00000000
     atom   11 type  3   force =     0.00000000    0.00000000    0.00000000
     atom   12 type  3   force =     0.00000000    0.00000000    0.00000000
     atom   13 type  3   force =     0.00000000    0.00000000    0.00000000
     atom   14 type  3   force =     0.00000000    0.00000000    0.00000000
     atom   15 type  3   force =     0.00000000    0.00000000    0.00000000
     atom   16 type  3   force =     0.00000000    0.00000000    0.00000000
     atom   17 type  3   force =     0.00000000    0.00000000    0.00000000
     atom   18 type  3   force =     0.00000000    0.00000000    0.00000000
     atom   19 type  3   force =     0.00000000    0.00000000    0.00000000
     atom   20 type  3   force =     0.00000000    0.00000000    0.00000000
     atom   21 type  3   force =     0.00000000    0.00000000    0.00000000
     atom   22 type  3   force =     0.00000000    0.00000000    0.00000000
     atom   23 type  3   force =     0.00000000    0.00000000    0.00000000
     atom   24 type  3   force =     0.00000000    0.00000000    0.00000000
     atom   25 type  3   force =     0.00000000    0.00000000    0.00000000
     The SCF correction term to forces
     atom    1 type  2   force =     0.00000607   -0.00000036   -0.00000040
     atom    2 type  1   force =     0.00000326    0.00000003   -0.00000023
     atom    3 type  1   force =    -0.00000127   -0.00000008    0.00000078
     atom    4 type  1   force =    -0.00000079   -0.00000039    0.00000095
     atom    5 type  1   force =    -0.00000348    0.00000067   -0.00000027
     atom    6 type  4   force =    -0.00000272    0.00000004    0.00000025
     atom    7 type  4   force =     0.00000377   -0.00000008   -0.00000004
     atom    8 type  4   force =    -0.00000348   -0.00000014    0.00000027
     atom    9 type  4   force =     0.00000276    0.00000035    0.00000043
     atom   10 type  3   force =    -0.00000371    0.00000004   -0.00000095
     atom   11 type  3   force =     0.00000611   -0.00000005   -0.00000161
     atom   12 type  3   force =    -0.00000536   -0.00000027   -0.00000157
     atom   13 type  3   force =     0.00000289    0.00000019   -0.00000017
     atom   14 type  3   force =     0.00000512    0.00000007    0.00000077
     atom   15 type  3   force =    -0.00000665   -0.00000001    0.00000065
     atom   16 type  3   force =     0.00000546   -0.00000016    0.00000092
     atom   17 type  3   force =    -0.00000379    0.00000012    0.00000066
     atom   18 type  3   force =    -0.00000284   -0.00000180    0.00000004
     atom   19 type  3   force =     0.00000372    0.00000008    0.00000062
     atom   20 type  3   force =    -0.00000286   -0.00000057    0.00000107
     atom   21 type  3   force =     0.00000168   -0.00000101   -0.00000043
     atom   22 type  3   force =    -0.00000306    0.00000050    0.00000116
     atom   23 type  3   force =     0.00000178    0.00000145   -0.00000066
     atom   24 type  3   force =    -0.00000281    0.00000165    0.00000008
     atom   25 type  3   force =     0.00000390   -0.00000005    0.00000077

     Total force =     0.079385     Total SCF correction =     0.000020


     Computing stress (Cartesian axis) and pressure


     negative rho (up, down):  0.000E+00 9.152E-04
          total   stress  (Ry/bohr**3)                   (kbar)     P=      -51.02
  -0.00067846   0.00000877  -0.00002736          -99.80        1.29       -4.02
   0.00000877  -0.00026542  -0.00002182            1.29      -39.04       -3.21
  -0.00002736  -0.00002182  -0.00009656           -4.02       -3.21      -14.20

     kinetic stress (kbar)  25862.15     -7.09     -9.28
                               -7.09  26125.11     -4.74
                               -9.28     -4.74  25942.80

     local   stress (kbar)  -3868.51  -1682.26   1063.73
                            -1682.26 -14517.03    647.25
                             1063.73    647.25  -8535.05

     nonloc. stress (kbar)  -6584.09     -1.77     -1.25
                               -1.77  -6535.90      1.06
                               -1.25      1.06  -6532.13

     hartree stress (kbar)  12063.48    680.88   -428.21
                              680.88  17766.61   -257.01
                             -428.21   -257.01  14728.80

     exc-cor stress (kbar)  -2746.87      0.97     -0.86
                                0.97  -2753.71     -0.42
                               -0.86     -0.42  -2751.32

     corecor stress (kbar)  -3062.94     -0.28      1.00
                               -0.28  -3062.78      0.03
                                1.00      0.03  -3064.78

     ewald   stress (kbar) -21763.02   1010.85   -629.16
                             1010.85 -17061.34   -389.39
                             -629.16   -389.39 -19802.53

     hubbard stress (kbar)      0.00      0.00      0.00
                                0.00      0.00      0.00
                                0.00      0.00      0.00

     DFT-D   stress (kbar)      0.00      0.00      0.00
                                0.00      0.00      0.00
                                0.00      0.00      0.00

     XDM     stress (kbar)      0.00      0.00      0.00
                                0.00      0.00      0.00
                                0.00      0.00      0.00

     dft-nl  stress (kbar)      0.00      0.00      0.00
                                0.00      0.00      0.00
                                0.00      0.00      0.00

     TS-vdW  stress (kbar)      0.00      0.00      0.00
                                0.00      0.00      0.00
                                0.00      0.00      0.00



     init_run     :    200.51s CPU    205.20s WALL (       1 calls)
     electrons    :  20393.90s CPU  20683.10s WALL (       1 calls)
     forces       :    128.95s CPU    131.32s WALL (       1 calls)
     stress       :    804.64s CPU    811.07s WALL (       1 calls)

     Called by init_run:
     wfcinit      :    189.98s CPU    193.75s WALL (       1 calls)
     wfcinit:atom :      3.29s CPU      3.38s WALL (     316 calls)
     wfcinit:wfcr :    176.29s CPU    179.70s WALL (     316 calls)
     potinit      :      3.68s CPU      3.81s WALL (       1 calls)
     hinit0       :      3.52s CPU      3.69s WALL (       1 calls)

     Called by electrons:
     c_bands      :  18043.47s CPU  18244.19s WALL (      41 calls)
     sum_band     :   2222.56s CPU   2283.48s WALL (      41 calls)
     v_of_rho     :     37.68s CPU     39.39s WALL (      42 calls)
     v_h          :      1.70s CPU      1.80s WALL (      42 calls)
     v_xc         :     37.71s CPU     39.38s WALL (      44 calls)
     newd         :     60.07s CPU     85.68s WALL (      42 calls)
     PAW_pot      :     19.81s CPU     19.89s WALL (      42 calls)
     mix_rho      :      8.78s CPU      9.20s WALL (      41 calls)

     Called by c_bands:
     init_us_2    :    387.97s CPU    398.00s WALL (   26860 calls)
     cegterg      :  17438.32s CPU  17625.75s WALL (   12956 calls)

     Called by sum_band:
     sum_band:wei :      0.71s CPU      0.72s WALL (      41 calls)
     sum_band:loo :   2021.03s CPU   2047.40s WALL (      41 calls)
     sum_band:buf :    102.71s CPU    105.03s WALL (   12956 calls)
     sum_band:ini :    187.91s CPU    192.33s WALL (   12956 calls)
     sum_band:cal :    967.93s CPU    977.98s WALL (   12956 calls)
     sum_band:bec :      7.32s CPU      7.45s WALL (   12956 calls)
     addusdens    :    190.43s CPU    224.69s WALL (      41 calls)
     addusd:skk   :      1.30s CPU      1.35s WALL (     123 calls)
     addusd:dgemm :     86.12s CPU    113.93s WALL (     246 calls)
     addusd:qvan2 :    100.30s CPU    101.15s WALL (     246 calls)

     Called by *egterg:
     cdiaghg      :   1041.23s CPU   1063.87s WALL (   44141 calls)
     cegterg:over :   1727.20s CPU   1756.24s WALL (   31185 calls)
     cegterg:upda :    959.00s CPU    964.50s WALL (   31185 calls)
     cegterg:last :   1991.98s CPU   2003.57s WALL (   20860 calls)
     h_psi        :   8349.33s CPU   8441.90s WALL (   44457 calls)
     s_psi        :   2289.48s CPU   2301.76s WALL (   44457 calls)
     g_psi        :     19.57s CPU     19.84s WALL (   31185 calls)

     Called by h_psi:
     h_psi:calbec :   2393.16s CPU   2419.84s WALL (   44457 calls)
     vloc_psi     :   3295.10s CPU   3341.07s WALL (   44457 calls)
     add_vuspsi   :   2441.50s CPU   2455.11s WALL (   44457 calls)

     General routines
     calbec       :   3474.92s CPU   3513.29s WALL (   58993 calls)
     fft          :     35.36s CPU     37.58s WALL (    1088 calls)
     ffts         :      0.68s CPU      0.78s WALL (     166 calls)
     fftw         :   3730.26s CPU   3781.08s WALL ( 7867662 calls)
     interpolate  :      2.80s CPU      3.01s WALL (      84 calls)

     Parallel routines
     fft_scatt_xy :    440.40s CPU    445.58s WALL ( 7868916 calls)
     fft_scatt_yz :   1227.62s CPU   1251.31s WALL ( 7868916 calls)

     PAW routines
     PAW_pot      :     19.81s CPU     19.89s WALL (      42 calls)

     PWSCF        :      5h58m CPU      6h 3m WALL


   This run was terminated on:   2: 0:51  19Dec2022            

=------------------------------------------------------------------------------=
   JOB DONE.
=------------------------------------------------------------------------------=
Note: The following floating-point exceptions are signalling: IEEE_UNDERFLOW_FLAG IEEE_DENORMAL
Note: The following floating-point exceptions are signalling: IEEE_DENORMAL
Note: The following floating-point exceptions are signalling: IEEE_DENORMAL
Note: The following floating-point exceptions are signalling: IEEE_DENORMAL
Note: The following floating-point exceptions are signalling: IEEE_DENORMAL
Note: The following floating-point exceptions are signalling: IEEE_DENORMAL
Note: The following floating-point exceptions are signalling: IEEE_DENORMAL
Note: The following floating-point exceptions are signalling: IEEE_DENORMAL
Note: The following floating-point exceptions are signalling: IEEE_INVALID_FLAG IEEE_DENORMAL
Note: The following floating-point exceptions are signalling: IEEE_DENORMAL
Note: The following floating-point exceptions are signalling: IEEE_INVALID_FLAG IEEE_DENORMAL
Note: The following floating-point exceptions are signalling: IEEE_DENORMAL
Note: The following floating-point exceptions are signalling: IEEE_DENORMAL
Note: The following floating-point exceptions are signalling: IEEE_INVALID_FLAG IEEE_DENORMAL
Note: The following floating-point exceptions are signalling: IEEE_DENORMAL
Note: The following floating-point exceptions are signalling: IEEE_DENORMAL
Note: The following floating-point exceptions are signalling: IEEE_DENORMAL
Note: The following floating-point exceptions are signalling: IEEE_DENORMAL
Note: The following floating-point exceptions are signalling: IEEE_DENORMAL
Note: The following floating-point exceptions are signalling: IEEE_DENORMAL
Note: The following floating-point exceptions are signalling: IEEE_DENORMAL
Note: The following floating-point exceptions are signalling: IEEE_DENORMAL
Note: The following floating-point exceptions are signalling: IEEE_DENORMAL
Note: The following floating-point exceptions are signalling: IEEE_DENORMAL
