
     Program PWSCF v.6.7MaX starts on 19Dec2022 at 15:14:54 

     This program is part of the open-source Quantum ESPRESSO suite
     for quantum simulation of materials; please cite
         "P. Giannozzi et al., J. Phys.:Condens. Matter 21 395502 (2009);
         "P. Giannozzi et al., J. Phys.:Condens. Matter 29 465901 (2017);
          URL http://www.quantum-espresso.org", 
     in publications or presentations arising from this work. More details at
     http://www.quantum-espresso.org/quote

     Parallel version (MPI), running on    24 processors

     MPI processes distributed on     1 nodes
     R & G space division:  proc/nbgrp/npool/nimage =      24
     Reading input from scale_1da-00.in

     Current dimensions of program PWSCF are:
     Max number of different atomic species (ntypx) = 10
     Max number of k-points (npk) =  40000
     Max angular momentum in pseudopotentials (lmaxx) =  3
     Message from routine read_pp_mesh:
     mesh size missing, using the one in header
     file Fe.pbe-spn-kjpaw_psl.0.2.1.UPF: wavefunction(s)  3D renormalized
     file O.pbe-n-kjpaw_psl.0.1.UPF: wavefunction(s)  2P renormalized

     Subspace diagonalization in iterative solution of the eigenvalue problem:
     a serial algorithm will be used

     Message from routine find_sym:
     Not a group! Trying with lower acceptance parameter...
     Message from routine find_sym:
     Symmetry operations form a group
     Message from routine setup:
     using ibrav=0 with symmetry is DISCOURAGED, use correct ibrav instead

     Parallelization info
     --------------------
     sticks:   dense  smooth     PW     G-vecs:    dense   smooth      PW
     Min         786     291     78                51256    11557    1624
     Max         787     292     79                51257    11560    1627
     Sum       18873    6997   1891              1230153   277403   39017



     bravais-lattice index     =            0
     lattice parameter (alat)  =      18.6818  a.u.
     unit-cell volume          =    2052.3399 (a.u.)^3
     number of atoms/cell      =           28
     number of atomic types    =            4
     number of electrons       =       216.00
     number of Kohn-Sham states=          130
     kinetic-energy cutoff     =     100.0000  Ry
     charge density cutoff     =    1080.0000  Ry
     scf convergence threshold =      2.0E-10
     mixing beta               =       0.4000
     number of iterations used =            8  plain     mixing
     Exchange-correlation= PBE
                           (   1   4   3   4   0   0   0)

     celldm(1)=  18.681804  celldm(2)=   0.000000  celldm(3)=   0.000000
     celldm(4)=   0.000000  celldm(5)=   0.000000  celldm(6)=   0.000000

     crystal axes: (cart. coord. in units of alat)
               a(1) = (   1.000000   0.000000   0.000000 )  
               a(2) = (   0.000000   0.629042   0.000000 )  
               a(3) = (   0.000000   0.000000   0.500395 )  

     reciprocal axes: (cart. coord. in units 2 pi/alat)
               b(1) = (  1.000000  0.000000  0.000000 )  
               b(2) = (  0.000000  1.589719  0.000000 )  
               b(3) = (  0.000000  0.000000  1.998420 )  


     PseudoPot. # 1 for Fe read from file:
     /opt/QEpot/SSSP_precision_pseudos/Fe.pbe-spn-kjpaw_psl.0.2.1.UPF
     MD5 check sum: e86618425769142926afa95317d90200
     Pseudo is Projector augmented-wave + core cor, Zval = 16.0
     Generated using "atomic" code by A. Dal Corso  v.5.0.99 svn rev. 10869
     Shape of augmentation charge: PSQ
     Using radial grid of 1191 points,  6 beta functions with: 
                l(1) =   0
                l(2) =   0
                l(3) =   1
                l(4) =   1
                l(5) =   2
                l(6) =   2
     Q(r) pseudized with 0 coefficients 


     PseudoPot. # 2 for Na read from file:
     /opt/QEpot/SSSP_precision_pseudos/Na_ONCV_PBE-1.0.oncvpsp.upf
     MD5 check sum: 24a298df0a6742ae313db96548fdb2a4
     Pseudo is Norm-conserving, Zval =  9.0
     Generated using ONCVPSP code by D. R. Hamann
     Using radial grid of 1992 points,  4 beta functions with: 
                l(1) =   0
                l(2) =   0
                l(3) =   1
                l(4) =   1

     PseudoPot. # 3 for O  read from file:
     /opt/QEpot/SSSP_precision_pseudos/O.pbe-n-kjpaw_psl.0.1.UPF
     MD5 check sum: 0234752ac141de4415c5fc33072bef88
     Pseudo is Projector augmented-wave + core cor, Zval =  6.0
     Generated using "atomic" code by A. Dal Corso  v.5.0.99 svn rev. 10869
     Shape of augmentation charge: BESSEL
     Using radial grid of 1095 points,  4 beta functions with: 
                l(1) =   0
                l(2) =   0
                l(3) =   1
                l(4) =   1
     Q(r) pseudized with 0 coefficients 


     PseudoPot. # 4 for P  read from file:
     /opt/QEpot/SSSP_precision_pseudos/P.pbe-n-rrkjus_psl.1.0.0.UPF
     MD5 check sum: 8b930f418f0a4573dca56cd030ffe088
     Pseudo is Ultrasoft + core correction, Zval =  5.0
     Generated using "atomic" code by A. Dal Corso  v.5.1
     Using radial grid of 1147 points,  6 beta functions with: 
                l(1) =   0
                l(2) =   0
                l(3) =   1
                l(4) =   1
                l(5) =   2
                l(6) =   2
     Q(r) pseudized with 0 coefficients 


     atomic species   valence    mass     pseudopotential
        Fe            16.00    55.84500     Fe( 1.00)
        Na             9.00    22.98977     Na( 1.00)
        O              6.00    15.99940     O ( 1.00)
        P              5.00    30.97376     P ( 1.00)

     Starting magnetic structure 
     atomic species   magnetization
        Fe           0.312
        Na           0.000
        O            0.000
        P            0.000

      2 Sym. Ops., with inversion, found ( 1 have fractional translation)


                                    s                        frac. trans.

      isym =  1     identity                                     

 cryst.   s( 1) = (     1          0          0      )
                  (     0          1          0      )
                  (     0          0          1      )

 cart.    s( 1) = (  1.0000000  0.0000000  0.0000000 )
                  (  0.0000000  1.0000000  0.0000000 )
                  (  0.0000000  0.0000000  1.0000000 )


      isym =  2     inversion                                    

 cryst.   s( 2) = (    -1          0          0      )    f =( -0.0000060 )
                  (     0         -1          0      )       ( -0.0000040 )
                  (     0          0         -1      )       ( -0.0000060 )

 cart.    s( 2) = ( -1.0000000  0.0000000  0.0000000 )    f =( -0.0000060 )
                  (  0.0000000 -1.0000000  0.0000000 )       ( -0.0000025 )
                  (  0.0000000  0.0000000 -1.0000000 )       ( -0.0000030 )


   Cartesian axes

     site n.     atom                  positions (alat units)
         1           Na  tau(   1) = (   0.0000030   0.0000013   0.0000015  )
         2           Na  tau(   2) = (   0.5000030   0.0000013   0.2501991  )
         3           Na  tau(   3) = (   0.0000030   0.3145223   0.0000015  )
         4           Na  tau(   4) = (   0.5000030   0.3145223   0.2501991  )
         5           Fe  tau(   5) = (   0.2868420   0.4717809   0.4912786  )
         6           Fe  tau(   6) = (   0.2131640   0.1572637   0.2410809  )
         7           Fe  tau(   7) = (   0.7131640   0.1572637   0.0091197  )
         8           Fe  tau(   8) = (   0.7868410   0.4717809   0.2593173  )
         9           P   tau(   9) = (   0.1082720   0.4717840   0.2212247  )
        10           P   tau(  10) = (   0.3917330   0.1572611   0.4714229  )
        11           P   tau(  11) = (   0.8917330   0.1572611   0.2791735  )
        12           P   tau(  12) = (   0.6082730   0.4717840   0.0289754  )
        13           O   tau(  13) = (   0.1122130   0.4717828   0.3770328  )
        14           O   tau(  14) = (   0.3877920   0.1572624   0.1268352  )
        15           O   tau(  15) = (   0.8877930   0.1572624   0.1233654  )
        16           O   tau(  16) = (   0.6122130   0.4717828   0.3735631  )
        17           O   tau(  17) = (   0.4671820   0.4717828   0.0815754  )
        18           O   tau(  18) = (   0.0328240   0.1572618   0.3317731  )
        19           O   tau(  19) = (   0.5328240   0.1572618   0.4188228  )
        20           O   tau(  20) = (   0.9671820   0.4717828   0.1686247  )
        21           O   tau(  21) = (   0.1790170   0.5967244   0.1562284  )
        22           O   tau(  22) = (   0.3209880   0.0323208   0.4064260  )
        23           O   tau(  23) = (   0.8209870   0.2822008   0.3441709  )
        24           O   tau(  24) = (   0.6790190   0.3468443   0.0939732  )
        25           O   tau(  25) = (   0.8209880   0.0323208   0.3441699  )
        26           O   tau(  26) = (   0.6790180   0.5967244   0.0939722  )
        27           O   tau(  27) = (   0.1790190   0.3468443   0.1562274  )
        28           O   tau(  28) = (   0.3209870   0.2822008   0.4064250  )

   Crystallographic axes

     site n.     atom                  positions (cryst. coord.)
         1           Na  tau(   1) = (  0.0000030  0.0000020  0.0000030  )
         2           Na  tau(   2) = (  0.5000030  0.0000020  0.5000030  )
         3           Na  tau(   3) = (  0.0000030  0.5000020  0.0000030  )
         4           Na  tau(   4) = (  0.5000030  0.5000020  0.5000030  )
         5           Fe  tau(   5) = (  0.2868420  0.7499990  0.9817810  )
         6           Fe  tau(   6) = (  0.2131640  0.2500050  0.4817810  )
         7           Fe  tau(   7) = (  0.7131640  0.2500050  0.0182250  )
         8           Fe  tau(   8) = (  0.7868410  0.7499990  0.5182250  )
         9           P   tau(   9) = (  0.1082720  0.7500040  0.4421000  )
        10           P   tau(  10) = (  0.3917330  0.2500010  0.9421010  )
        11           P   tau(  11) = (  0.8917330  0.2500010  0.5579060  )
        12           P   tau(  12) = (  0.6082730  0.7500040  0.0579050  )
        13           O   tau(  13) = (  0.1122130  0.7500020  0.7534700  )
        14           O   tau(  14) = (  0.3877920  0.2500030  0.2534700  )
        15           O   tau(  15) = (  0.8877930  0.2500030  0.2465360  )
        16           O   tau(  16) = (  0.6122130  0.7500020  0.7465360  )
        17           O   tau(  17) = (  0.4671820  0.7500020  0.1630220  )
        18           O   tau(  18) = (  0.0328240  0.2500020  0.6630220  )
        19           O   tau(  19) = (  0.5328240  0.2500020  0.8369840  )
        20           O   tau(  20) = (  0.9671820  0.7500020  0.3369830  )
        21           O   tau(  21) = (  0.1790170  0.9486240  0.3122100  )
        22           O   tau(  22) = (  0.3209880  0.0513810  0.8122100  )
        23           O   tau(  23) = (  0.8209870  0.4486200  0.6877980  )
        24           O   tau(  24) = (  0.6790190  0.5513850  0.1877980  )
        25           O   tau(  25) = (  0.8209880  0.0513810  0.6877960  )
        26           O   tau(  26) = (  0.6790180  0.9486240  0.1877960  )
        27           O   tau(  27) = (  0.1790190  0.5513850  0.3122080  )
        28           O   tau(  28) = (  0.3209870  0.4486200  0.8122080  )

     number of k points=   158  Marzari-Vanderbilt smearing, width (Ry)=  0.0073
                       cart. coord. in units 2pi/alat
        k(    1) = (   0.0000000   0.0000000   0.0000000), wk =   0.0031746
        k(    2) = (   0.0000000   0.0000000   0.2220467), wk =   0.0063492
        k(    3) = (   0.0000000   0.0000000   0.4440934), wk =   0.0063492
        k(    4) = (   0.0000000   0.0000000   0.6661401), wk =   0.0063492
        k(    5) = (   0.0000000   0.0000000   0.8881868), wk =   0.0063492
        k(    6) = (   0.0000000   0.2271027   0.0000000), wk =   0.0063492
        k(    7) = (   0.0000000   0.2271027   0.2220467), wk =   0.0063492
        k(    8) = (   0.0000000   0.2271027   0.4440934), wk =   0.0063492
        k(    9) = (   0.0000000   0.2271027   0.6661401), wk =   0.0063492
        k(   10) = (   0.0000000   0.2271027   0.8881868), wk =   0.0063492
        k(   11) = (   0.0000000   0.4542054   0.0000000), wk =   0.0063492
        k(   12) = (   0.0000000   0.4542054   0.2220467), wk =   0.0063492
        k(   13) = (   0.0000000   0.4542054   0.4440934), wk =   0.0063492
        k(   14) = (   0.0000000   0.4542054   0.6661401), wk =   0.0063492
        k(   15) = (   0.0000000   0.4542054   0.8881868), wk =   0.0063492
        k(   16) = (   0.0000000   0.6813081   0.0000000), wk =   0.0063492
        k(   17) = (   0.0000000   0.6813081   0.2220467), wk =   0.0063492
        k(   18) = (   0.0000000   0.6813081   0.4440934), wk =   0.0063492
        k(   19) = (   0.0000000   0.6813081   0.6661401), wk =   0.0063492
        k(   20) = (   0.0000000   0.6813081   0.8881868), wk =   0.0063492
        k(   21) = (   0.2000000   0.0000000   0.0000000), wk =   0.0063492
        k(   22) = (   0.2000000   0.0000000   0.2220467), wk =   0.0063492
        k(   23) = (   0.2000000   0.0000000   0.4440934), wk =   0.0063492
        k(   24) = (   0.2000000   0.0000000   0.6661401), wk =   0.0063492
        k(   25) = (   0.2000000   0.0000000   0.8881868), wk =   0.0063492
        k(   26) = (   0.2000000   0.2271027   0.0000000), wk =   0.0063492
        k(   27) = (   0.2000000   0.2271027   0.2220467), wk =   0.0063492
        k(   28) = (   0.2000000   0.2271027   0.4440934), wk =   0.0063492
        k(   29) = (   0.2000000   0.2271027   0.6661401), wk =   0.0063492
        k(   30) = (   0.2000000   0.2271027   0.8881868), wk =   0.0063492
        k(   31) = (   0.2000000   0.4542054   0.0000000), wk =   0.0063492
        k(   32) = (   0.2000000   0.4542054   0.2220467), wk =   0.0063492
        k(   33) = (   0.2000000   0.4542054   0.4440934), wk =   0.0063492
        k(   34) = (   0.2000000   0.4542054   0.6661401), wk =   0.0063492
        k(   35) = (   0.2000000   0.4542054   0.8881868), wk =   0.0063492
        k(   36) = (   0.2000000   0.6813081   0.0000000), wk =   0.0063492
        k(   37) = (   0.2000000   0.6813081   0.2220467), wk =   0.0063492
        k(   38) = (   0.2000000   0.6813081   0.4440934), wk =   0.0063492
        k(   39) = (   0.2000000   0.6813081   0.6661401), wk =   0.0063492
        k(   40) = (   0.2000000   0.6813081   0.8881868), wk =   0.0063492
        k(   41) = (   0.4000000   0.0000000   0.0000000), wk =   0.0063492
        k(   42) = (   0.4000000   0.0000000   0.2220467), wk =   0.0063492
        k(   43) = (   0.4000000   0.0000000   0.4440934), wk =   0.0063492
        k(   44) = (   0.4000000   0.0000000   0.6661401), wk =   0.0063492
        k(   45) = (   0.4000000   0.0000000   0.8881868), wk =   0.0063492
        k(   46) = (   0.4000000   0.2271027   0.0000000), wk =   0.0063492
        k(   47) = (   0.4000000   0.2271027   0.2220467), wk =   0.0063492
        k(   48) = (   0.4000000   0.2271027   0.4440934), wk =   0.0063492
        k(   49) = (   0.4000000   0.2271027   0.6661401), wk =   0.0063492
        k(   50) = (   0.4000000   0.2271027   0.8881868), wk =   0.0063492
        k(   51) = (   0.4000000   0.4542054   0.0000000), wk =   0.0063492
        k(   52) = (   0.4000000   0.4542054   0.2220467), wk =   0.0063492
        k(   53) = (   0.4000000   0.4542054   0.4440934), wk =   0.0063492
        k(   54) = (   0.4000000   0.4542054   0.6661401), wk =   0.0063492
        k(   55) = (   0.4000000   0.4542054   0.8881868), wk =   0.0063492
        k(   56) = (   0.4000000   0.6813081   0.0000000), wk =   0.0063492
        k(   57) = (   0.4000000   0.6813081   0.2220467), wk =   0.0063492
        k(   58) = (   0.4000000   0.6813081   0.4440934), wk =   0.0063492
        k(   59) = (   0.4000000   0.6813081   0.6661401), wk =   0.0063492
        k(   60) = (   0.4000000   0.6813081   0.8881868), wk =   0.0063492
        k(   61) = (   0.0000000   0.2271027  -0.2220467), wk =   0.0063492
        k(   62) = (   0.0000000   0.2271027  -0.4440934), wk =   0.0063492
        k(   63) = (   0.0000000   0.2271027  -0.6661401), wk =   0.0063492
        k(   64) = (   0.0000000   0.2271027  -0.8881868), wk =   0.0063492
        k(   65) = (   0.0000000   0.4542054  -0.2220467), wk =   0.0063492
        k(   66) = (   0.0000000   0.4542054  -0.4440934), wk =   0.0063492
        k(   67) = (   0.0000000   0.4542054  -0.6661401), wk =   0.0063492
        k(   68) = (   0.0000000   0.4542054  -0.8881868), wk =   0.0063492
        k(   69) = (   0.0000000   0.6813081  -0.2220467), wk =   0.0063492
        k(   70) = (   0.0000000   0.6813081  -0.4440934), wk =   0.0063492
        k(   71) = (   0.0000000   0.6813081  -0.6661401), wk =   0.0063492
        k(   72) = (   0.0000000   0.6813081  -0.8881868), wk =   0.0063492
        k(   73) = (   0.2000000   0.0000000  -0.2220467), wk =   0.0063492
        k(   74) = (   0.2000000   0.0000000  -0.4440934), wk =   0.0063492
        k(   75) = (   0.2000000   0.0000000  -0.6661401), wk =   0.0063492
        k(   76) = (   0.2000000   0.0000000  -0.8881868), wk =   0.0063492
        k(   77) = (  -0.2000000   0.2271027   0.0000000), wk =   0.0063492
        k(   78) = (  -0.2000000   0.2271027  -0.2220467), wk =   0.0063492
        k(   79) = (   0.2000000  -0.2271027  -0.2220467), wk =   0.0063492
        k(   80) = (  -0.2000000  -0.2271027   0.2220467), wk =   0.0063492
        k(   81) = (  -0.2000000   0.2271027  -0.4440934), wk =   0.0063492
        k(   82) = (   0.2000000  -0.2271027  -0.4440934), wk =   0.0063492
        k(   83) = (  -0.2000000  -0.2271027   0.4440934), wk =   0.0063492
        k(   84) = (  -0.2000000   0.2271027  -0.6661401), wk =   0.0063492
        k(   85) = (   0.2000000  -0.2271027  -0.6661401), wk =   0.0063492
        k(   86) = (  -0.2000000  -0.2271027   0.6661401), wk =   0.0063492
        k(   87) = (  -0.2000000   0.2271027  -0.8881868), wk =   0.0063492
        k(   88) = (   0.2000000  -0.2271027  -0.8881868), wk =   0.0063492
        k(   89) = (  -0.2000000  -0.2271027   0.8881868), wk =   0.0063492
        k(   90) = (  -0.2000000   0.4542054   0.0000000), wk =   0.0063492
        k(   91) = (  -0.2000000   0.4542054  -0.2220467), wk =   0.0063492
        k(   92) = (   0.2000000  -0.4542054  -0.2220467), wk =   0.0063492
        k(   93) = (  -0.2000000  -0.4542054   0.2220467), wk =   0.0063492
        k(   94) = (  -0.2000000   0.4542054  -0.4440934), wk =   0.0063492
        k(   95) = (   0.2000000  -0.4542054  -0.4440934), wk =   0.0063492
        k(   96) = (  -0.2000000  -0.4542054   0.4440934), wk =   0.0063492
        k(   97) = (  -0.2000000   0.4542054  -0.6661401), wk =   0.0063492
        k(   98) = (   0.2000000  -0.4542054  -0.6661401), wk =   0.0063492
        k(   99) = (  -0.2000000  -0.4542054   0.6661401), wk =   0.0063492
        k(  100) = (  -0.2000000   0.4542054  -0.8881868), wk =   0.0063492
        k(  101) = (   0.2000000  -0.4542054  -0.8881868), wk =   0.0063492
        k(  102) = (  -0.2000000  -0.4542054   0.8881868), wk =   0.0063492
        k(  103) = (  -0.2000000   0.6813081   0.0000000), wk =   0.0063492
        k(  104) = (  -0.2000000   0.6813081  -0.2220467), wk =   0.0063492
        k(  105) = (   0.2000000  -0.6813081  -0.2220467), wk =   0.0063492
        k(  106) = (  -0.2000000  -0.6813081   0.2220467), wk =   0.0063492
        k(  107) = (  -0.2000000   0.6813081  -0.4440934), wk =   0.0063492
        k(  108) = (   0.2000000  -0.6813081  -0.4440934), wk =   0.0063492
        k(  109) = (  -0.2000000  -0.6813081   0.4440934), wk =   0.0063492
        k(  110) = (  -0.2000000   0.6813081  -0.6661401), wk =   0.0063492
        k(  111) = (   0.2000000  -0.6813081  -0.6661401), wk =   0.0063492
        k(  112) = (  -0.2000000  -0.6813081   0.6661401), wk =   0.0063492
        k(  113) = (  -0.2000000   0.6813081  -0.8881868), wk =   0.0063492
        k(  114) = (   0.2000000  -0.6813081  -0.8881868), wk =   0.0063492
        k(  115) = (  -0.2000000  -0.6813081   0.8881868), wk =   0.0063492
        k(  116) = (   0.4000000   0.0000000  -0.2220467), wk =   0.0063492
        k(  117) = (   0.4000000   0.0000000  -0.4440934), wk =   0.0063492
        k(  118) = (   0.4000000   0.0000000  -0.6661401), wk =   0.0063492
        k(  119) = (   0.4000000   0.0000000  -0.8881868), wk =   0.0063492
        k(  120) = (  -0.4000000   0.2271027   0.0000000), wk =   0.0063492
        k(  121) = (  -0.4000000   0.2271027  -0.2220467), wk =   0.0063492
        k(  122) = (   0.4000000  -0.2271027  -0.2220467), wk =   0.0063492
        k(  123) = (  -0.4000000  -0.2271027   0.2220467), wk =   0.0063492
        k(  124) = (  -0.4000000   0.2271027  -0.4440934), wk =   0.0063492
        k(  125) = (   0.4000000  -0.2271027  -0.4440934), wk =   0.0063492
        k(  126) = (  -0.4000000  -0.2271027   0.4440934), wk =   0.0063492
        k(  127) = (  -0.4000000   0.2271027  -0.6661401), wk =   0.0063492
        k(  128) = (   0.4000000  -0.2271027  -0.6661401), wk =   0.0063492
        k(  129) = (  -0.4000000  -0.2271027   0.6661401), wk =   0.0063492
        k(  130) = (  -0.4000000   0.2271027  -0.8881868), wk =   0.0063492
        k(  131) = (   0.4000000  -0.2271027  -0.8881868), wk =   0.0063492
        k(  132) = (  -0.4000000  -0.2271027   0.8881868), wk =   0.0063492
        k(  133) = (  -0.4000000   0.4542054   0.0000000), wk =   0.0063492
        k(  134) = (  -0.4000000   0.4542054  -0.2220467), wk =   0.0063492
        k(  135) = (   0.4000000  -0.4542054  -0.2220467), wk =   0.0063492
        k(  136) = (  -0.4000000  -0.4542054   0.2220467), wk =   0.0063492
        k(  137) = (  -0.4000000   0.4542054  -0.4440934), wk =   0.0063492
        k(  138) = (   0.4000000  -0.4542054  -0.4440934), wk =   0.0063492
        k(  139) = (  -0.4000000  -0.4542054   0.4440934), wk =   0.0063492
        k(  140) = (  -0.4000000   0.4542054  -0.6661401), wk =   0.0063492
        k(  141) = (   0.4000000  -0.4542054  -0.6661401), wk =   0.0063492
        k(  142) = (  -0.4000000  -0.4542054   0.6661401), wk =   0.0063492
        k(  143) = (  -0.4000000   0.4542054  -0.8881868), wk =   0.0063492
        k(  144) = (   0.4000000  -0.4542054  -0.8881868), wk =   0.0063492
        k(  145) = (  -0.4000000  -0.4542054   0.8881868), wk =   0.0063492
        k(  146) = (  -0.4000000   0.6813081   0.0000000), wk =   0.0063492
        k(  147) = (  -0.4000000   0.6813081  -0.2220467), wk =   0.0063492
        k(  148) = (   0.4000000  -0.6813081  -0.2220467), wk =   0.0063492
        k(  149) = (  -0.4000000  -0.6813081   0.2220467), wk =   0.0063492
        k(  150) = (  -0.4000000   0.6813081  -0.4440934), wk =   0.0063492
        k(  151) = (   0.4000000  -0.6813081  -0.4440934), wk =   0.0063492
        k(  152) = (  -0.4000000  -0.6813081   0.4440934), wk =   0.0063492
        k(  153) = (  -0.4000000   0.6813081  -0.6661401), wk =   0.0063492
        k(  154) = (   0.4000000  -0.6813081  -0.6661401), wk =   0.0063492
        k(  155) = (  -0.4000000  -0.6813081   0.6661401), wk =   0.0063492
        k(  156) = (  -0.4000000   0.6813081  -0.8881868), wk =   0.0063492
        k(  157) = (   0.4000000  -0.6813081  -0.8881868), wk =   0.0063492
        k(  158) = (  -0.4000000  -0.6813081   0.8881868), wk =   0.0063492

                       cryst. coord.
        k(    1) = (   0.0000000   0.0000000   0.0000000), wk =   0.0031746
        k(    2) = (   0.0000000   0.0000000   0.1111111), wk =   0.0063492
        k(    3) = (   0.0000000   0.0000000   0.2222222), wk =   0.0063492
        k(    4) = (   0.0000000   0.0000000   0.3333333), wk =   0.0063492
        k(    5) = (   0.0000000   0.0000000   0.4444444), wk =   0.0063492
        k(    6) = (   0.0000000   0.1428571   0.0000000), wk =   0.0063492
        k(    7) = (   0.0000000   0.1428571   0.1111111), wk =   0.0063492
        k(    8) = (   0.0000000   0.1428571   0.2222222), wk =   0.0063492
        k(    9) = (   0.0000000   0.1428571   0.3333333), wk =   0.0063492
        k(   10) = (   0.0000000   0.1428571   0.4444444), wk =   0.0063492
        k(   11) = (   0.0000000   0.2857143   0.0000000), wk =   0.0063492
        k(   12) = (   0.0000000   0.2857143   0.1111111), wk =   0.0063492
        k(   13) = (   0.0000000   0.2857143   0.2222222), wk =   0.0063492
        k(   14) = (   0.0000000   0.2857143   0.3333333), wk =   0.0063492
        k(   15) = (   0.0000000   0.2857143   0.4444444), wk =   0.0063492
        k(   16) = (   0.0000000   0.4285714   0.0000000), wk =   0.0063492
        k(   17) = (   0.0000000   0.4285714   0.1111111), wk =   0.0063492
        k(   18) = (   0.0000000   0.4285714   0.2222222), wk =   0.0063492
        k(   19) = (   0.0000000   0.4285714   0.3333333), wk =   0.0063492
        k(   20) = (   0.0000000   0.4285714   0.4444444), wk =   0.0063492
        k(   21) = (   0.2000000   0.0000000   0.0000000), wk =   0.0063492
        k(   22) = (   0.2000000   0.0000000   0.1111111), wk =   0.0063492
        k(   23) = (   0.2000000   0.0000000   0.2222222), wk =   0.0063492
        k(   24) = (   0.2000000   0.0000000   0.3333333), wk =   0.0063492
        k(   25) = (   0.2000000   0.0000000   0.4444444), wk =   0.0063492
        k(   26) = (   0.2000000   0.1428571   0.0000000), wk =   0.0063492
        k(   27) = (   0.2000000   0.1428571   0.1111111), wk =   0.0063492
        k(   28) = (   0.2000000   0.1428571   0.2222222), wk =   0.0063492
        k(   29) = (   0.2000000   0.1428571   0.3333333), wk =   0.0063492
        k(   30) = (   0.2000000   0.1428571   0.4444444), wk =   0.0063492
        k(   31) = (   0.2000000   0.2857143   0.0000000), wk =   0.0063492
        k(   32) = (   0.2000000   0.2857143   0.1111111), wk =   0.0063492
        k(   33) = (   0.2000000   0.2857143   0.2222222), wk =   0.0063492
        k(   34) = (   0.2000000   0.2857143   0.3333333), wk =   0.0063492
        k(   35) = (   0.2000000   0.2857143   0.4444444), wk =   0.0063492
        k(   36) = (   0.2000000   0.4285714   0.0000000), wk =   0.0063492
        k(   37) = (   0.2000000   0.4285714   0.1111111), wk =   0.0063492
        k(   38) = (   0.2000000   0.4285714   0.2222222), wk =   0.0063492
        k(   39) = (   0.2000000   0.4285714   0.3333333), wk =   0.0063492
        k(   40) = (   0.2000000   0.4285714   0.4444444), wk =   0.0063492
        k(   41) = (   0.4000000   0.0000000   0.0000000), wk =   0.0063492
        k(   42) = (   0.4000000   0.0000000   0.1111111), wk =   0.0063492
        k(   43) = (   0.4000000   0.0000000   0.2222222), wk =   0.0063492
        k(   44) = (   0.4000000   0.0000000   0.3333333), wk =   0.0063492
        k(   45) = (   0.4000000   0.0000000   0.4444444), wk =   0.0063492
        k(   46) = (   0.4000000   0.1428571   0.0000000), wk =   0.0063492
        k(   47) = (   0.4000000   0.1428571   0.1111111), wk =   0.0063492
        k(   48) = (   0.4000000   0.1428571   0.2222222), wk =   0.0063492
        k(   49) = (   0.4000000   0.1428571   0.3333333), wk =   0.0063492
        k(   50) = (   0.4000000   0.1428571   0.4444444), wk =   0.0063492
        k(   51) = (   0.4000000   0.2857143   0.0000000), wk =   0.0063492
        k(   52) = (   0.4000000   0.2857143   0.1111111), wk =   0.0063492
        k(   53) = (   0.4000000   0.2857143   0.2222222), wk =   0.0063492
        k(   54) = (   0.4000000   0.2857143   0.3333333), wk =   0.0063492
        k(   55) = (   0.4000000   0.2857143   0.4444444), wk =   0.0063492
        k(   56) = (   0.4000000   0.4285714   0.0000000), wk =   0.0063492
        k(   57) = (   0.4000000   0.4285714   0.1111111), wk =   0.0063492
        k(   58) = (   0.4000000   0.4285714   0.2222222), wk =   0.0063492
        k(   59) = (   0.4000000   0.4285714   0.3333333), wk =   0.0063492
        k(   60) = (   0.4000000   0.4285714   0.4444444), wk =   0.0063492
        k(   61) = (   0.0000000   0.1428571  -0.1111111), wk =   0.0063492
        k(   62) = (   0.0000000   0.1428571  -0.2222222), wk =   0.0063492
        k(   63) = (   0.0000000   0.1428571  -0.3333333), wk =   0.0063492
        k(   64) = (   0.0000000   0.1428571  -0.4444444), wk =   0.0063492
        k(   65) = (   0.0000000   0.2857143  -0.1111111), wk =   0.0063492
        k(   66) = (   0.0000000   0.2857143  -0.2222222), wk =   0.0063492
        k(   67) = (   0.0000000   0.2857143  -0.3333333), wk =   0.0063492
        k(   68) = (   0.0000000   0.2857143  -0.4444444), wk =   0.0063492
        k(   69) = (   0.0000000   0.4285714  -0.1111111), wk =   0.0063492
        k(   70) = (   0.0000000   0.4285714  -0.2222222), wk =   0.0063492
        k(   71) = (   0.0000000   0.4285714  -0.3333333), wk =   0.0063492
        k(   72) = (   0.0000000   0.4285714  -0.4444444), wk =   0.0063492
        k(   73) = (   0.2000000   0.0000000  -0.1111111), wk =   0.0063492
        k(   74) = (   0.2000000   0.0000000  -0.2222222), wk =   0.0063492
        k(   75) = (   0.2000000   0.0000000  -0.3333333), wk =   0.0063492
        k(   76) = (   0.2000000   0.0000000  -0.4444444), wk =   0.0063492
        k(   77) = (  -0.2000000   0.1428571   0.0000000), wk =   0.0063492
        k(   78) = (  -0.2000000   0.1428571  -0.1111111), wk =   0.0063492
        k(   79) = (   0.2000000  -0.1428571  -0.1111111), wk =   0.0063492
        k(   80) = (  -0.2000000  -0.1428571   0.1111111), wk =   0.0063492
        k(   81) = (  -0.2000000   0.1428571  -0.2222222), wk =   0.0063492
        k(   82) = (   0.2000000  -0.1428571  -0.2222222), wk =   0.0063492
        k(   83) = (  -0.2000000  -0.1428571   0.2222222), wk =   0.0063492
        k(   84) = (  -0.2000000   0.1428571  -0.3333333), wk =   0.0063492
        k(   85) = (   0.2000000  -0.1428571  -0.3333333), wk =   0.0063492
        k(   86) = (  -0.2000000  -0.1428571   0.3333333), wk =   0.0063492
        k(   87) = (  -0.2000000   0.1428571  -0.4444444), wk =   0.0063492
        k(   88) = (   0.2000000  -0.1428571  -0.4444444), wk =   0.0063492
        k(   89) = (  -0.2000000  -0.1428571   0.4444444), wk =   0.0063492
        k(   90) = (  -0.2000000   0.2857143   0.0000000), wk =   0.0063492
        k(   91) = (  -0.2000000   0.2857143  -0.1111111), wk =   0.0063492
        k(   92) = (   0.2000000  -0.2857143  -0.1111111), wk =   0.0063492
        k(   93) = (  -0.2000000  -0.2857143   0.1111111), wk =   0.0063492
        k(   94) = (  -0.2000000   0.2857143  -0.2222222), wk =   0.0063492
        k(   95) = (   0.2000000  -0.2857143  -0.2222222), wk =   0.0063492
        k(   96) = (  -0.2000000  -0.2857143   0.2222222), wk =   0.0063492
        k(   97) = (  -0.2000000   0.2857143  -0.3333333), wk =   0.0063492
        k(   98) = (   0.2000000  -0.2857143  -0.3333333), wk =   0.0063492
        k(   99) = (  -0.2000000  -0.2857143   0.3333333), wk =   0.0063492
        k(  100) = (  -0.2000000   0.2857143  -0.4444444), wk =   0.0063492
        k(  101) = (   0.2000000  -0.2857143  -0.4444444), wk =   0.0063492
        k(  102) = (  -0.2000000  -0.2857143   0.4444444), wk =   0.0063492
        k(  103) = (  -0.2000000   0.4285714   0.0000000), wk =   0.0063492
        k(  104) = (  -0.2000000   0.4285714  -0.1111111), wk =   0.0063492
        k(  105) = (   0.2000000  -0.4285714  -0.1111111), wk =   0.0063492
        k(  106) = (  -0.2000000  -0.4285714   0.1111111), wk =   0.0063492
        k(  107) = (  -0.2000000   0.4285714  -0.2222222), wk =   0.0063492
        k(  108) = (   0.2000000  -0.4285714  -0.2222222), wk =   0.0063492
        k(  109) = (  -0.2000000  -0.4285714   0.2222222), wk =   0.0063492
        k(  110) = (  -0.2000000   0.4285714  -0.3333333), wk =   0.0063492
        k(  111) = (   0.2000000  -0.4285714  -0.3333333), wk =   0.0063492
        k(  112) = (  -0.2000000  -0.4285714   0.3333333), wk =   0.0063492
        k(  113) = (  -0.2000000   0.4285714  -0.4444444), wk =   0.0063492
        k(  114) = (   0.2000000  -0.4285714  -0.4444444), wk =   0.0063492
        k(  115) = (  -0.2000000  -0.4285714   0.4444444), wk =   0.0063492
        k(  116) = (   0.4000000   0.0000000  -0.1111111), wk =   0.0063492
        k(  117) = (   0.4000000   0.0000000  -0.2222222), wk =   0.0063492
        k(  118) = (   0.4000000   0.0000000  -0.3333333), wk =   0.0063492
        k(  119) = (   0.4000000   0.0000000  -0.4444444), wk =   0.0063492
        k(  120) = (  -0.4000000   0.1428571   0.0000000), wk =   0.0063492
        k(  121) = (  -0.4000000   0.1428571  -0.1111111), wk =   0.0063492
        k(  122) = (   0.4000000  -0.1428571  -0.1111111), wk =   0.0063492
        k(  123) = (  -0.4000000  -0.1428571   0.1111111), wk =   0.0063492
        k(  124) = (  -0.4000000   0.1428571  -0.2222222), wk =   0.0063492
        k(  125) = (   0.4000000  -0.1428571  -0.2222222), wk =   0.0063492
        k(  126) = (  -0.4000000  -0.1428571   0.2222222), wk =   0.0063492
        k(  127) = (  -0.4000000   0.1428571  -0.3333333), wk =   0.0063492
        k(  128) = (   0.4000000  -0.1428571  -0.3333333), wk =   0.0063492
        k(  129) = (  -0.4000000  -0.1428571   0.3333333), wk =   0.0063492
        k(  130) = (  -0.4000000   0.1428571  -0.4444444), wk =   0.0063492
        k(  131) = (   0.4000000  -0.1428571  -0.4444444), wk =   0.0063492
        k(  132) = (  -0.4000000  -0.1428571   0.4444444), wk =   0.0063492
        k(  133) = (  -0.4000000   0.2857143   0.0000000), wk =   0.0063492
        k(  134) = (  -0.4000000   0.2857143  -0.1111111), wk =   0.0063492
        k(  135) = (   0.4000000  -0.2857143  -0.1111111), wk =   0.0063492
        k(  136) = (  -0.4000000  -0.2857143   0.1111111), wk =   0.0063492
        k(  137) = (  -0.4000000   0.2857143  -0.2222222), wk =   0.0063492
        k(  138) = (   0.4000000  -0.2857143  -0.2222222), wk =   0.0063492
        k(  139) = (  -0.4000000  -0.2857143   0.2222222), wk =   0.0063492
        k(  140) = (  -0.4000000   0.2857143  -0.3333333), wk =   0.0063492
        k(  141) = (   0.4000000  -0.2857143  -0.3333333), wk =   0.0063492
        k(  142) = (  -0.4000000  -0.2857143   0.3333333), wk =   0.0063492
        k(  143) = (  -0.4000000   0.2857143  -0.4444444), wk =   0.0063492
        k(  144) = (   0.4000000  -0.2857143  -0.4444444), wk =   0.0063492
        k(  145) = (  -0.4000000  -0.2857143   0.4444444), wk =   0.0063492
        k(  146) = (  -0.4000000   0.4285714   0.0000000), wk =   0.0063492
        k(  147) = (  -0.4000000   0.4285714  -0.1111111), wk =   0.0063492
        k(  148) = (   0.4000000  -0.4285714  -0.1111111), wk =   0.0063492
        k(  149) = (  -0.4000000  -0.4285714   0.1111111), wk =   0.0063492
        k(  150) = (  -0.4000000   0.4285714  -0.2222222), wk =   0.0063492
        k(  151) = (   0.4000000  -0.4285714  -0.2222222), wk =   0.0063492
        k(  152) = (  -0.4000000  -0.4285714   0.2222222), wk =   0.0063492
        k(  153) = (  -0.4000000   0.4285714  -0.3333333), wk =   0.0063492
        k(  154) = (   0.4000000  -0.4285714  -0.3333333), wk =   0.0063492
        k(  155) = (  -0.4000000  -0.4285714   0.3333333), wk =   0.0063492
        k(  156) = (  -0.4000000   0.4285714  -0.4444444), wk =   0.0063492
        k(  157) = (   0.4000000  -0.4285714  -0.4444444), wk =   0.0063492
        k(  158) = (  -0.4000000  -0.4285714   0.4444444), wk =   0.0063492

     Dense  grid:  1230153 G-vectors     FFT dimensions: ( 200, 125, 100)

     Smooth grid:   277403 G-vectors     FFT dimensions: ( 120,  75,  60)

     Dynamical RAM for                 wfc:       2.86 MB

     Dynamical RAM for     wfc (w. buffer):     908.01 MB

     Dynamical RAM for           str. fact:       3.13 MB

     Dynamical RAM for           local pot:       0.00 MB

     Dynamical RAM for          nlocal pot:       6.70 MB

     Dynamical RAM for                qrad:      10.54 MB

     Dynamical RAM for          rho,v,vnew:      10.41 MB

     Dynamical RAM for               rhoin:       3.47 MB

     Dynamical RAM for            rho*nmix:      25.03 MB

     Dynamical RAM for           G-vectors:       3.02 MB

     Dynamical RAM for          h,s,v(r/c):       3.09 MB

     Dynamical RAM for          <psi|beta>:       0.60 MB

     Dynamical RAM for                 psi:       5.73 MB

     Dynamical RAM for                hpsi:       5.73 MB

     Dynamical RAM for                spsi:       5.73 MB

     Dynamical RAM for      wfcinit/wfcrot:       7.23 MB

     Dynamical RAM for           addusdens:     158.77 MB

     Dynamical RAM for          addusforce:     182.36 MB

     Dynamical RAM for         addusstress:     158.38 MB

     Estimated static dynamical RAM per process >     979.95 MB

     Estimated max dynamical RAM per process >       1.14 GB

     Estimated total dynamical RAM >      27.24 GB

     Check: negative core charge=   -0.000003
     Generating pointlists ...
     new r_m :   0.0833 (alat units)  1.5556 (a.u.) for type    1
     new r_m :   0.0946 (alat units)  1.7664 (a.u.) for type    2
     new r_m :   0.0621 (alat units)  1.1604 (a.u.) for type    3
     new r_m :   0.0621 (alat units)  1.1604 (a.u.) for type    4

     Initial potential from superposition of free atoms

     starting charge  215.97252, renormalised to  216.00000
     Starting wfcs are  152 randomized atomic wfcs
     Checking if some PAW data can be deallocated... 
       PAW data deallocated on   22 nodes for type:  1
       PAW data deallocated on    8 nodes for type:  3

     total cpu time spent up to now is      210.5 secs

     Self-consistent Calculation

     iteration #  1     ecut=   100.00 Ry     beta= 0.40
     Davidson diagonalization with overlap
     ethr =  1.00E-02,  avg # of iterations =  3.6

     negative rho (up, down):  0.000E+00 2.498E-07

     total cpu time spent up to now is      941.0 secs

     total energy              =   -2380.63592874 Ry
     estimated scf accuracy    <       5.64382951 Ry

     total magnetization       =    16.00 Bohr mag/cell
     absolute magnetization    =    16.01 Bohr mag/cell

     iteration #  2     ecut=   100.00 Ry     beta= 0.40
     Davidson diagonalization with overlap
     ethr =  2.61E-03,  avg # of iterations =  2.0

     negative rho (up, down):  0.000E+00 1.007E-04

     total cpu time spent up to now is     2054.7 secs

     total energy              =   -2381.96783744 Ry
     estimated scf accuracy    <       0.47899349 Ry

     total magnetization       =    16.00 Bohr mag/cell
     absolute magnetization    =    16.01 Bohr mag/cell

     iteration #  3     ecut=   100.00 Ry     beta= 0.40
     Davidson diagonalization with overlap
     ethr =  2.22E-04,  avg # of iterations =  8.8

     negative rho (up, down):  0.000E+00 1.138E-04

     total cpu time spent up to now is     3294.9 secs

     total energy              =   -2381.96289413 Ry
     estimated scf accuracy    <       3.61888348 Ry

     total magnetization       =    15.89 Bohr mag/cell
     absolute magnetization    =    15.94 Bohr mag/cell

     iteration #  4     ecut=   100.00 Ry     beta= 0.40
     Davidson diagonalization with overlap
     ethr =  2.22E-04,  avg # of iterations =  2.0

     negative rho (up, down):  0.000E+00 2.584E-04

     total cpu time spent up to now is     3844.3 secs

     total energy              =   -2382.02844694 Ry
     estimated scf accuracy    <       1.34151051 Ry

     total magnetization       =    16.00 Bohr mag/cell
     absolute magnetization    =    16.07 Bohr mag/cell

     iteration #  5     ecut=   100.00 Ry     beta= 0.40
     Davidson diagonalization with overlap
     ethr =  2.22E-04,  avg # of iterations =  1.5

     negative rho (up, down):  0.000E+00 4.977E-04

     total cpu time spent up to now is     4342.6 secs

     total energy              =   -2382.02219522 Ry
     estimated scf accuracy    <       1.90136212 Ry

     total magnetization       =    16.00 Bohr mag/cell
     absolute magnetization    =    16.07 Bohr mag/cell

     iteration #  6     ecut=   100.00 Ry     beta= 0.40
     Davidson diagonalization with overlap
     ethr =  2.22E-04,  avg # of iterations =  1.8

     negative rho (up, down):  0.000E+00 5.291E-04

     total cpu time spent up to now is     4860.8 secs

     total energy              =   -2382.09503317 Ry
     estimated scf accuracy    <       1.96170364 Ry

     total magnetization       =    16.00 Bohr mag/cell
     absolute magnetization    =    16.09 Bohr mag/cell

     iteration #  7     ecut=   100.00 Ry     beta= 0.40
     Davidson diagonalization with overlap
     ethr =  2.22E-04,  avg # of iterations =  1.0

     negative rho (up, down):  0.000E+00 5.455E-04

     total cpu time spent up to now is     5302.3 secs

     total energy              =   -2382.12524540 Ry
     estimated scf accuracy    <       0.03017301 Ry

     total magnetization       =    16.00 Bohr mag/cell
     absolute magnetization    =    16.05 Bohr mag/cell

     iteration #  8     ecut=   100.00 Ry     beta= 0.40
     Davidson diagonalization with overlap
     c_bands:  1 eigenvalues not converged
     c_bands:  1 eigenvalues not converged
     c_bands:  1 eigenvalues not converged
     c_bands:  1 eigenvalues not converged
     c_bands:  1 eigenvalues not converged
     c_bands:  1 eigenvalues not converged
     c_bands:  1 eigenvalues not converged
     c_bands:  1 eigenvalues not converged
     ethr =  1.40E-05,  avg # of iterations =  6.6

     negative rho (up, down):  0.000E+00 5.468E-04

     total cpu time spent up to now is     5940.5 secs

     total energy              =   -2382.12942926 Ry
     estimated scf accuracy    <       0.15999168 Ry

     total magnetization       =    16.00 Bohr mag/cell
     absolute magnetization    =    16.06 Bohr mag/cell

     iteration #  9     ecut=   100.00 Ry     beta= 0.40
     Davidson diagonalization with overlap
     ethr =  1.40E-05,  avg # of iterations =  1.3

     negative rho (up, down):  0.000E+00 5.473E-04

     total cpu time spent up to now is     6403.8 secs

     total energy              =   -2382.12655474 Ry
     estimated scf accuracy    <       0.18266373 Ry

     total magnetization       =    16.00 Bohr mag/cell
     absolute magnetization    =    16.06 Bohr mag/cell

     iteration # 10     ecut=   100.00 Ry     beta= 0.40
     Davidson diagonalization with overlap
     ethr =  1.40E-05,  avg # of iterations =  1.6

     negative rho (up, down):  0.000E+00 5.457E-04

     total cpu time spent up to now is     6897.0 secs

     total energy              =   -2382.13643778 Ry
     estimated scf accuracy    <       0.04546060 Ry

     total magnetization       =    16.00 Bohr mag/cell
     absolute magnetization    =    16.06 Bohr mag/cell

     iteration # 11     ecut=   100.00 Ry     beta= 0.40
     Davidson diagonalization with overlap
     ethr =  1.40E-05,  avg # of iterations =  1.0

     negative rho (up, down):  0.000E+00 5.451E-04

     total cpu time spent up to now is     7338.6 secs

     total energy              =   -2382.13868315 Ry
     estimated scf accuracy    <       0.11805549 Ry

     total magnetization       =    16.00 Bohr mag/cell
     absolute magnetization    =    16.06 Bohr mag/cell

     iteration # 12     ecut=   100.00 Ry     beta= 0.40
     Davidson diagonalization with overlap
     ethr =  1.40E-05,  avg # of iterations =  1.1

     negative rho (up, down):  0.000E+00 5.457E-04

     total cpu time spent up to now is     7783.7 secs

     total energy              =   -2382.14112665 Ry
     estimated scf accuracy    <       0.05181881 Ry

     total magnetization       =    16.00 Bohr mag/cell
     absolute magnetization    =    16.06 Bohr mag/cell

     iteration # 13     ecut=   100.00 Ry     beta= 0.40
     Davidson diagonalization with overlap
     ethr =  1.40E-05,  avg # of iterations =  1.0

     negative rho (up, down):  0.000E+00 5.486E-04

     total cpu time spent up to now is     8224.7 secs

     total energy              =   -2382.14332191 Ry
     estimated scf accuracy    <       0.04120592 Ry

     total magnetization       =    16.00 Bohr mag/cell
     absolute magnetization    =    16.06 Bohr mag/cell

     iteration # 14     ecut=   100.00 Ry     beta= 0.40
     Davidson diagonalization with overlap
     ethr =  1.40E-05,  avg # of iterations =  1.5

     negative rho (up, down):  0.000E+00 5.553E-04

     total cpu time spent up to now is     8704.0 secs

     total energy              =   -2382.14411903 Ry
     estimated scf accuracy    <       0.01654461 Ry

     total magnetization       =    16.00 Bohr mag/cell
     absolute magnetization    =    16.06 Bohr mag/cell

     iteration # 15     ecut=   100.00 Ry     beta= 0.40
     Davidson diagonalization with overlap
     ethr =  7.66E-06,  avg # of iterations =  1.3

     negative rho (up, down):  0.000E+00 5.580E-04

     total cpu time spent up to now is     9160.8 secs

     total energy              =   -2382.14416399 Ry
     estimated scf accuracy    <       0.01548807 Ry

     total magnetization       =    16.00 Bohr mag/cell
     absolute magnetization    =    16.06 Bohr mag/cell

     iteration # 16     ecut=   100.00 Ry     beta= 0.40
     Davidson diagonalization with overlap
     ethr =  7.17E-06,  avg # of iterations =  1.0

     negative rho (up, down):  0.000E+00 5.595E-04

     total cpu time spent up to now is     9603.0 secs

     total energy              =   -2382.14383497 Ry
     estimated scf accuracy    <       0.01250329 Ry

     total magnetization       =    16.00 Bohr mag/cell
     absolute magnetization    =    16.06 Bohr mag/cell

     iteration # 17     ecut=   100.00 Ry     beta= 0.40
     Davidson diagonalization with overlap
     c_bands:  1 eigenvalues not converged
     c_bands:  1 eigenvalues not converged
     c_bands:  1 eigenvalues not converged
     c_bands:  1 eigenvalues not converged
     ethr =  5.79E-06,  avg # of iterations =  1.5

     negative rho (up, down):  0.000E+00 5.598E-04

     total cpu time spent up to now is    10061.0 secs

     total energy              =   -2382.14385432 Ry
     estimated scf accuracy    <       0.00272879 Ry

     total magnetization       =    16.00 Bohr mag/cell
     absolute magnetization    =    16.06 Bohr mag/cell

     iteration # 18     ecut=   100.00 Ry     beta= 0.40
     Davidson diagonalization with overlap
     c_bands:  1 eigenvalues not converged
     c_bands:  1 eigenvalues not converged
     c_bands:  1 eigenvalues not converged
     c_bands:  1 eigenvalues not converged
     c_bands:  1 eigenvalues not converged
     c_bands:  1 eigenvalues not converged
     c_bands:  1 eigenvalues not converged
     c_bands:  1 eigenvalues not converged
     c_bands:  2 eigenvalues not converged
     c_bands:  1 eigenvalues not converged
     c_bands:  1 eigenvalues not converged
     c_bands:  1 eigenvalues not converged
     c_bands:  1 eigenvalues not converged
     c_bands:  1 eigenvalues not converged
     c_bands:  1 eigenvalues not converged
     c_bands:  1 eigenvalues not converged
     c_bands:  1 eigenvalues not converged
     c_bands:  1 eigenvalues not converged
     c_bands:  1 eigenvalues not converged
     c_bands:  1 eigenvalues not converged
     c_bands:  1 eigenvalues not converged
     c_bands:  1 eigenvalues not converged
     c_bands:  1 eigenvalues not converged
     c_bands:  1 eigenvalues not converged
     c_bands:  1 eigenvalues not converged
     c_bands:  1 eigenvalues not converged
     c_bands:  1 eigenvalues not converged
     c_bands:  1 eigenvalues not converged
     c_bands:  1 eigenvalues not converged
     c_bands:  1 eigenvalues not converged
     c_bands:  1 eigenvalues not converged
     c_bands:  1 eigenvalues not converged
     c_bands:  1 eigenvalues not converged
     c_bands:  1 eigenvalues not converged
     ethr =  1.26E-06,  avg # of iterations =  9.0

     negative rho (up, down):  0.000E+00 5.645E-04

     total cpu time spent up to now is    10740.7 secs

     total energy              =   -2382.14410429 Ry
     estimated scf accuracy    <       0.00169649 Ry

     total magnetization       =    16.00 Bohr mag/cell
     absolute magnetization    =    16.06 Bohr mag/cell

     iteration # 19     ecut=   100.00 Ry     beta= 0.40
     Davidson diagonalization with overlap
     c_bands:  1 eigenvalues not converged
     ethr =  7.85E-07,  avg # of iterations =  1.6

     negative rho (up, down):  0.000E+00 5.642E-04

     total cpu time spent up to now is    11206.0 secs

     total energy              =   -2382.14414347 Ry
     estimated scf accuracy    <       0.00162615 Ry

     total magnetization       =    16.00 Bohr mag/cell
     absolute magnetization    =    16.06 Bohr mag/cell

     iteration # 20     ecut=   100.00 Ry     beta= 0.40
     Davidson diagonalization with overlap
     ethr =  7.53E-07,  avg # of iterations =  1.0

     negative rho (up, down):  0.000E+00 5.602E-04

     total cpu time spent up to now is    11648.5 secs

     total energy              =   -2382.14411246 Ry
     estimated scf accuracy    <       0.00157769 Ry

     total magnetization       =    16.00 Bohr mag/cell
     absolute magnetization    =    16.06 Bohr mag/cell

     iteration # 21     ecut=   100.00 Ry     beta= 0.40
     Davidson diagonalization with overlap
     ethr =  7.30E-07,  avg # of iterations =  1.0

     negative rho (up, down):  0.000E+00 5.570E-04

     total cpu time spent up to now is    12090.1 secs

     total energy              =   -2382.14412833 Ry
     estimated scf accuracy    <       0.00015793 Ry

     total magnetization       =    16.00 Bohr mag/cell
     absolute magnetization    =    16.06 Bohr mag/cell

     iteration # 22     ecut=   100.00 Ry     beta= 0.40
     Davidson diagonalization with overlap
     ethr =  7.31E-08,  avg # of iterations =  2.7

     negative rho (up, down):  0.000E+00 5.557E-04

     total cpu time spent up to now is    12638.5 secs

     total energy              =   -2382.14415261 Ry
     estimated scf accuracy    <       0.00018016 Ry

     total magnetization       =    16.00 Bohr mag/cell
     absolute magnetization    =    16.06 Bohr mag/cell

     iteration # 23     ecut=   100.00 Ry     beta= 0.40
     Davidson diagonalization with overlap
     ethr =  7.31E-08,  avg # of iterations =  1.0

     negative rho (up, down):  0.000E+00 5.557E-04

     total cpu time spent up to now is    13083.7 secs

     total energy              =   -2382.14415263 Ry
     estimated scf accuracy    <       0.00013087 Ry

     total magnetization       =    16.00 Bohr mag/cell
     absolute magnetization    =    16.06 Bohr mag/cell

     iteration # 24     ecut=   100.00 Ry     beta= 0.40
     Davidson diagonalization with overlap
     ethr =  6.06E-08,  avg # of iterations =  1.0

     negative rho (up, down):  0.000E+00 5.542E-04

     total cpu time spent up to now is    13525.6 secs

     total energy              =   -2382.14415732 Ry
     estimated scf accuracy    <       0.00000550 Ry

     total magnetization       =    16.00 Bohr mag/cell
     absolute magnetization    =    16.06 Bohr mag/cell

     iteration # 25     ecut=   100.00 Ry     beta= 0.40
     Davidson diagonalization with overlap
     c_bands:  1 eigenvalues not converged
     ethr =  2.54E-09,  avg # of iterations =  6.0

     negative rho (up, down):  0.000E+00 5.515E-04

     total cpu time spent up to now is    14567.2 secs

     total energy              =   -2382.14415299 Ry
     estimated scf accuracy    <       0.00000534 Ry

     total magnetization       =    16.00 Bohr mag/cell
     absolute magnetization    =    16.06 Bohr mag/cell

     iteration # 26     ecut=   100.00 Ry     beta= 0.40
     Davidson diagonalization with overlap
     ethr =  2.47E-09,  avg # of iterations =  3.4

     negative rho (up, down):  0.000E+00 5.499E-04

     total cpu time spent up to now is    15268.7 secs

     total energy              =   -2382.14415705 Ry
     estimated scf accuracy    <       0.00000367 Ry

     total magnetization       =    16.00 Bohr mag/cell
     absolute magnetization    =    16.06 Bohr mag/cell

     iteration # 27     ecut=   100.00 Ry     beta= 0.40
     Davidson diagonalization with overlap
     ethr =  1.70E-09,  avg # of iterations =  4.0

     negative rho (up, down):  0.000E+00 5.505E-04

     total cpu time spent up to now is    15999.7 secs

     total energy              =   -2382.14417840 Ry
     estimated scf accuracy    <       0.00000156 Ry

     total magnetization       =    16.00 Bohr mag/cell
     absolute magnetization    =    16.06 Bohr mag/cell

     iteration # 28     ecut=   100.00 Ry     beta= 0.40
     Davidson diagonalization with overlap
     ethr =  7.23E-10,  avg # of iterations =  2.3

     negative rho (up, down):  0.000E+00 5.503E-04

     total cpu time spent up to now is    16628.7 secs

     total energy              =   -2382.14418029 Ry
     estimated scf accuracy    <       0.00000019 Ry

     total magnetization       =    16.00 Bohr mag/cell
     absolute magnetization    =    16.06 Bohr mag/cell

     iteration # 29     ecut=   100.00 Ry     beta= 0.40
     Davidson diagonalization with overlap
     ethr =  8.63E-11,  avg # of iterations =  5.2

     negative rho (up, down):  0.000E+00 5.507E-04

     total cpu time spent up to now is    17518.6 secs

     total energy              =   -2382.14418376 Ry
     estimated scf accuracy    <       0.00000021 Ry

     total magnetization       =    16.00 Bohr mag/cell
     absolute magnetization    =    16.06 Bohr mag/cell

     iteration # 30     ecut=   100.00 Ry     beta= 0.40
     Davidson diagonalization with overlap
     ethr =  8.63E-11,  avg # of iterations =  1.5

     negative rho (up, down):  0.000E+00 5.507E-04

     total cpu time spent up to now is    18009.0 secs

     total energy              =   -2382.14418401 Ry
     estimated scf accuracy    <       0.00000006 Ry

     total magnetization       =    16.00 Bohr mag/cell
     absolute magnetization    =    16.06 Bohr mag/cell

     iteration # 31     ecut=   100.00 Ry     beta= 0.40
     Davidson diagonalization with overlap
     ethr =  2.57E-11,  avg # of iterations =  2.9

     negative rho (up, down):  0.000E+00 5.507E-04

     total cpu time spent up to now is    18654.1 secs

     total energy              =   -2382.14418426 Ry
     estimated scf accuracy    <       0.00000004 Ry

     total magnetization       =    16.00 Bohr mag/cell
     absolute magnetization    =    16.06 Bohr mag/cell

     iteration # 32     ecut=   100.00 Ry     beta= 0.40
     Davidson diagonalization with overlap
     ethr =  2.01E-11,  avg # of iterations =  3.5

     negative rho (up, down):  0.000E+00 5.506E-04

     total cpu time spent up to now is    22747.1 secs

     total energy              =   -2382.14418442 Ry
     estimated scf accuracy    <       0.00000004 Ry

     total magnetization       =    16.00 Bohr mag/cell
     absolute magnetization    =    16.06 Bohr mag/cell

     iteration # 33     ecut=   100.00 Ry     beta= 0.40
     Davidson diagonalization with overlap
     ethr =  1.71E-11,  avg # of iterations =  3.0

     negative rho (up, down):  0.000E+00 5.505E-04

     total cpu time spent up to now is    27024.0 secs

     total energy              =   -2382.14418442 Ry
     estimated scf accuracy    <       0.00000008 Ry

     total magnetization       =    16.00 Bohr mag/cell
     absolute magnetization    =    16.06 Bohr mag/cell

     iteration # 34     ecut=   100.00 Ry     beta= 0.40
     Davidson diagonalization with overlap
     ethr =  1.71E-11,  avg # of iterations =  3.7

     negative rho (up, down):  0.000E+00 5.505E-04

     total cpu time spent up to now is    31513.1 secs

     total energy              =   -2382.14418454 Ry
     estimated scf accuracy    <       0.00000002 Ry

     total magnetization       =    16.00 Bohr mag/cell
     absolute magnetization    =    16.06 Bohr mag/cell

     iteration # 35     ecut=   100.00 Ry     beta= 0.40
     Davidson diagonalization with overlap
     ethr =  8.73E-12,  avg # of iterations =  3.2

     negative rho (up, down):  0.000E+00 5.505E-04

     total cpu time spent up to now is    35798.9 secs

     total energy              =   -2382.14418461 Ry
     estimated scf accuracy    <          2.5E-09 Ry

     total magnetization       =    16.00 Bohr mag/cell
     absolute magnetization    =    16.06 Bohr mag/cell

     iteration # 36     ecut=   100.00 Ry     beta= 0.40
     Davidson diagonalization with overlap
     ethr =  1.17E-12,  avg # of iterations =  4.3

     negative rho (up, down):  0.000E+00 5.505E-04

     total cpu time spent up to now is    40505.9 secs

     total energy              =   -2382.14418463 Ry
     estimated scf accuracy    <          6.8E-10 Ry

     total magnetization       =    16.00 Bohr mag/cell
     absolute magnetization    =    16.06 Bohr mag/cell

     iteration # 37     ecut=   100.00 Ry     beta= 0.40
     Davidson diagonalization with overlap
     ethr =  3.17E-13,  avg # of iterations =  2.2

     negative rho (up, down):  0.000E+00 5.505E-04

     Magnetic moment per site:
     atom:    1    charge:    7.9478    magn:    0.0000    constr:    0.0000
     atom:    2    charge:    7.9478    magn:    0.0000    constr:    0.0000
     atom:    3    charge:    7.9479    magn:    0.0000    constr:    0.0000
     atom:    4    charge:    7.9479    magn:    0.0000    constr:    0.0000
     atom:    5    charge:   13.2028    magn:    3.2810    constr:    0.0000
     atom:    6    charge:   13.2028    magn:    3.2810    constr:    0.0000
     atom:    7    charge:   13.2028    magn:    3.2810    constr:    0.0000
     atom:    8    charge:   13.2028    magn:    3.2810    constr:    0.0000
     atom:    9    charge:    0.7799    magn:    0.0063    constr:    0.0000
     atom:   10    charge:    0.7799    magn:    0.0063    constr:    0.0000
     atom:   11    charge:    0.7799    magn:    0.0063    constr:    0.0000
     atom:   12    charge:    0.7799    magn:    0.0063    constr:    0.0000
     atom:   13    charge:    4.1081    magn:    0.0328    constr:    0.0000
     atom:   14    charge:    4.1081    magn:    0.0328    constr:    0.0000
     atom:   15    charge:    4.1081    magn:    0.0328    constr:    0.0000
     atom:   16    charge:    4.1081    magn:    0.0328    constr:    0.0000
     atom:   17    charge:    4.1529    magn:    0.0418    constr:    0.0000
     atom:   18    charge:    4.1529    magn:    0.0418    constr:    0.0000
     atom:   19    charge:    4.1529    magn:    0.0418    constr:    0.0000
     atom:   20    charge:    4.1529    magn:    0.0418    constr:    0.0000
     atom:   21    charge:    4.0950    magn:    0.0773    constr:    0.0000
     atom:   22    charge:    4.0949    magn:    0.0773    constr:    0.0000
     atom:   23    charge:    4.0954    magn:    0.0773    constr:    0.0000
     atom:   24    charge:    4.0954    magn:    0.0773    constr:    0.0000
     atom:   25    charge:    4.0949    magn:    0.0773    constr:    0.0000
     atom:   26    charge:    4.0949    magn:    0.0773    constr:    0.0000
     atom:   27    charge:    4.0954    magn:    0.0773    constr:    0.0000
     atom:   28    charge:    4.0954    magn:    0.0773    constr:    0.0000

     total cpu time spent up to now is    43858.9 secs

     End of self-consistent calculation

 ------ SPIN UP ------------


          k = 0.0000 0.0000 0.0000 ( 34615 PWs)   bands (ev):

   -80.1452 -80.1451 -80.1451 -80.1450 -47.1061 -47.1060 -47.1052 -47.1051
   -45.8675 -45.8674 -45.8672 -45.8671 -45.6454 -45.6453 -45.6449 -45.6448
   -42.2703 -42.2703 -42.2620 -42.2620 -14.6781 -14.6535 -14.3466 -14.3431
   -14.3108 -14.3006 -14.2985 -14.2933 -14.2813 -14.2404 -14.2398 -14.2071
   -14.2068 -14.0803 -13.6561 -13.5771 -11.6417 -11.4719 -11.4341 -11.4133
   -11.3719 -11.3600 -11.3375 -11.2825 -11.2767 -11.2353 -11.1412 -11.0688
    -1.5708  -1.0799  -0.9656  -0.9156  -0.0650   0.4716   0.5237   0.6079
     0.7124   0.8983   1.2323   1.2468   1.2751   1.3682   1.3729   1.7098
     2.4695   2.6444   2.9216   3.0055   3.1290   3.2745   3.3349   3.4494
     3.5455   3.5530   3.7176   3.7798   3.8200   3.9986   4.0225   4.0508
     4.0784   4.2601   4.2646   4.2996   4.3356   4.4433   4.6526   4.8222
     4.8641   4.8988   4.9756   5.2982   5.3166   5.5094   5.8872   6.0292
     6.3085   6.3207   6.3675   6.6071   6.6804   6.7066   6.7469   6.8154
     6.8552   7.0914   7.4478   7.4525   7.4742   7.5202   7.6150   7.8786
     7.8994   8.1634   8.2920   8.3183  11.3342  13.3986  13.5982  14.0833
    14.5743  14.6095  15.1423  15.7565  15.8694  16.0139  16.1185  16.1891
    16.2604  16.3030

     occupation numbers 
     1.0000   1.0000   1.0000   1.0000   1.0000   1.0000   1.0000   1.0000
     1.0000   1.0000   1.0000   1.0000   1.0000   1.0000   1.0000   1.0000
     1.0000   1.0000   1.0000   1.0000   1.0000   1.0000   1.0000   1.0000
     1.0000   1.0000   1.0000   1.0000   1.0000   1.0000   1.0000   1.0000
     1.0000   1.0000   1.0000   1.0000   1.0000   1.0000   1.0000   1.0000
     1.0000   1.0000   1.0000   1.0000   1.0000   1.0000   1.0000   1.0000
     1.0000   1.0000   1.0000   1.0000   1.0000   1.0000   1.0000   1.0000
     1.0000   1.0000   1.0000   1.0000   1.0000   1.0000   1.0000   1.0000
     1.0000   1.0000   1.0000   1.0000   1.0000   1.0000   1.0000   1.0000
     1.0000   1.0000   1.0000   1.0000   1.0000   1.0000   1.0000   1.0000
     1.0000   1.0000   1.0000   1.0000   1.0000   1.0000   1.0000   1.0000
     1.0000   1.0000   1.0000   1.0000   1.0000   1.0000   1.0000   1.0000
     1.0000   1.0000   1.0000   1.0000   1.0000   1.0000   1.0000   1.0000
     1.0000   1.0000   1.0000   1.0000   1.0000   1.0000   1.0000   1.0000
     1.0000   1.0000   1.0000   1.0000   0.0000   0.0000   0.0000   0.0000
     0.0000   0.0000   0.0000   0.0000   0.0000   0.0000   0.0000   0.0000
     0.0000   0.0000

          k = 0.0000 0.0000 0.2220 ( 34593 PWs)   bands (ev):

   -80.1452 -80.1451 -80.1451 -80.1450 -47.1061 -47.1060 -47.1053 -47.1052
   -45.8675 -45.8674 -45.8672 -45.8671 -45.6454 -45.6453 -45.6450 -45.6448
   -42.2703 -42.2703 -42.2620 -42.2620 -14.6726 -14.6476 -14.4086 -14.3768
   -14.3301 -14.3082 -14.2985 -14.2937 -14.2405 -14.2399 -14.2072 -14.2069
   -14.1711 -14.0235 -13.6703 -13.5959 -11.6472 -11.4637 -11.4396 -11.4285
   -11.3831 -11.3511 -11.3330 -11.2909 -11.2721 -11.2503 -11.1450 -11.0772
    -1.5490  -1.0851  -0.9804  -0.9026   0.0057   0.4950   0.5776   0.6622
     0.7170   0.9176   1.2443   1.2579   1.2747   1.3371   1.3496   1.6960
     2.4714   2.6397   2.9246   2.9656   3.1425   3.2251   3.3455   3.4010
     3.4264   3.4620   3.7357   3.7883   3.8536   3.9292   3.9891   4.0516
     4.0679   4.1469   4.3785   4.4227   4.4374   4.4772   4.5747   4.7878
     4.8345   4.9360   5.0199   5.2935   5.3348   5.5447   5.8729   6.0066
     6.2931   6.3246   6.3543   6.6075   6.6656   6.6939   6.7240   6.7514
     6.8955   7.1065   7.4584   7.4990   7.5213   7.5295   7.6100   7.8517
     7.8773   8.1274   8.2897   8.3321  11.4846  13.4262  13.6730  14.0607
    14.5209  14.6385  15.2919  15.4865  15.8335  15.8590  15.9392  16.1863
    16.3388  16.3794

     occupation numbers 
     1.0000   1.0000   1.0000   1.0000   1.0000   1.0000   1.0000   1.0000
     1.0000   1.0000   1.0000   1.0000   1.0000   1.0000   1.0000   1.0000
     1.0000   1.0000   1.0000   1.0000   1.0000   1.0000   1.0000   1.0000
     1.0000   1.0000   1.0000   1.0000   1.0000   1.0000   1.0000   1.0000
     1.0000   1.0000   1.0000   1.0000   1.0000   1.0000   1.0000   1.0000
     1.0000   1.0000   1.0000   1.0000   1.0000   1.0000   1.0000   1.0000
     1.0000   1.0000   1.0000   1.0000   1.0000   1.0000   1.0000   1.0000
     1.0000   1.0000   1.0000   1.0000   1.0000   1.0000   1.0000   1.0000
     1.0000   1.0000   1.0000   1.0000   1.0000   1.0000   1.0000   1.0000
     1.0000   1.0000   1.0000   1.0000   1.0000   1.0000   1.0000   1.0000
     1.0000   1.0000   1.0000   1.0000   1.0000   1.0000   1.0000   1.0000
     1.0000   1.0000   1.0000   1.0000   1.0000   1.0000   1.0000   1.0000
     1.0000   1.0000   1.0000   1.0000   1.0000   1.0000   1.0000   1.0000
     1.0000   1.0000   1.0000   1.0000   1.0000   1.0000   1.0000   1.0000
     1.0000   1.0000   1.0000   1.0000   0.0000   0.0000   0.0000   0.0000
     0.0000   0.0000   0.0000   0.0000   0.0000   0.0000   0.0000   0.0000
     0.0000   0.0000

          k = 0.0000 0.0000 0.4441 ( 34664 PWs)   bands (ev):

   -80.1452 -80.1451 -80.1451 -80.1450 -47.1060 -47.1059 -47.1053 -47.1052
   -45.8675 -45.8674 -45.8672 -45.8672 -45.6453 -45.6453 -45.6450 -45.6449
   -42.2703 -42.2702 -42.2620 -42.2620 -14.6694 -14.6425 -14.4545 -14.4259
   -14.3271 -14.3086 -14.2985 -14.2946 -14.2407 -14.2403 -14.2074 -14.2072
   -14.0411 -13.9303 -13.7043 -13.6404 -11.6559 -11.4966 -11.4488 -11.4394
   -11.3941 -11.3341 -11.3256 -11.3251 -11.2667 -11.2591 -11.1562 -11.1014
    -1.4858  -1.0924  -1.0133  -0.9023   0.2145   0.5722   0.7083   0.7361
     0.7954   0.9616   1.2406   1.2808   1.2823   1.2988   1.3229   1.6487
     2.4711   2.6320   2.8709   2.9331   3.1412   3.1662   3.1668   3.3016
     3.3165   3.3607   3.7059   3.7762   3.8034   3.8513   3.8992   3.9902
     3.9996   4.1047   4.4304   4.5554   4.5695   4.6449   4.6611   4.7314
     4.7894   4.9895   5.0484   5.2761   5.4078   5.6386   5.8263   5.9574
     6.2763   6.3235   6.3251   6.5783   6.5864   6.6278   6.6469   6.7582
     7.0005   7.1609   7.4901   7.5487   7.5686   7.6039   7.6304   7.7732
     7.8111   8.0571   8.2866   8.3466  11.8814  13.5023  13.7721  14.1041
    14.4981  14.6682  15.1132  15.5146  15.6353  15.7154  15.8224  15.8366
    16.2127  16.3890

     occupation numbers 
     1.0000   1.0000   1.0000   1.0000   1.0000   1.0000   1.0000   1.0000
     1.0000   1.0000   1.0000   1.0000   1.0000   1.0000   1.0000   1.0000
     1.0000   1.0000   1.0000   1.0000   1.0000   1.0000   1.0000   1.0000
     1.0000   1.0000   1.0000   1.0000   1.0000   1.0000   1.0000   1.0000
     1.0000   1.0000   1.0000   1.0000   1.0000   1.0000   1.0000   1.0000
     1.0000   1.0000   1.0000   1.0000   1.0000   1.0000   1.0000   1.0000
     1.0000   1.0000   1.0000   1.0000   1.0000   1.0000   1.0000   1.0000
     1.0000   1.0000   1.0000   1.0000   1.0000   1.0000   1.0000   1.0000
     1.0000   1.0000   1.0000   1.0000   1.0000   1.0000   1.0000   1.0000
     1.0000   1.0000   1.0000   1.0000   1.0000   1.0000   1.0000   1.0000
     1.0000   1.0000   1.0000   1.0000   1.0000   1.0000   1.0000   1.0000
     1.0000   1.0000   1.0000   1.0000   1.0000   1.0000   1.0000   1.0000
     1.0000   1.0000   1.0000   1.0000   1.0000   1.0000   1.0000   1.0000
     1.0000   1.0000   1.0000   1.0000   1.0000   1.0000   1.0000   1.0000
     1.0000   1.0000   1.0000   1.0000   0.0000   0.0000   0.0000   0.0000
     0.0000   0.0000   0.0000   0.0000   0.0000   0.0000   0.0000   0.0000
     0.0000   0.0000

          k = 0.0000 0.0000 0.6661 ( 34722 PWs)   bands (ev):

   -80.1452 -80.1451 -80.1451 -80.1450 -47.1059 -47.1058 -47.1055 -47.1054
   -45.8674 -45.8673 -45.8672 -45.8672 -45.6453 -45.6452 -45.6451 -45.6449
   -42.2703 -42.2702 -42.2620 -42.2620 -14.6830 -14.6598 -14.4417 -14.4301
   -14.3195 -14.3044 -14.2984 -14.2958 -14.2409 -14.2406 -14.2077 -14.2074
   -13.9484 -13.8859 -13.7252 -13.6719 -11.6562 -11.5622 -11.4826 -11.4600
   -11.3737 -11.3731 -11.3213 -11.2870 -11.2777 -11.2391 -11.1744 -11.1382
    -1.3881  -1.0866  -1.0674  -0.9452   0.5182   0.7044   0.7811   0.8209
     0.9449   1.0013   1.1099   1.2005   1.3090   1.4262   1.4469   1.5648
     2.4574   2.6457   2.7511   2.9511   2.9531   3.0021   3.1552   3.2059
     3.2399   3.2867   3.3631   3.6354   3.7852   3.8167   3.9155   3.9947
     3.9975   4.1450   4.2864   4.5351   4.6795   4.7617   4.7927   4.8017
     4.9345   5.0285   5.1065   5.2354   5.4582   5.6866   5.8073   5.9383
     6.2850   6.2928   6.3300   6.4657   6.5035   6.5102   6.6710   6.7724
     7.1472   7.2666   7.5383   7.5630   7.5735   7.6308   7.6495   7.7037
     7.7480   7.9883   8.2915   8.3450  12.4067  13.6343  13.6523  14.2956
    14.5652  14.5921  15.0109  15.3681  15.4926  15.5896  15.6773  15.7520
    15.9094  16.3125

     occupation numbers 
     1.0000   1.0000   1.0000   1.0000   1.0000   1.0000   1.0000   1.0000
     1.0000   1.0000   1.0000   1.0000   1.0000   1.0000   1.0000   1.0000
     1.0000   1.0000   1.0000   1.0000   1.0000   1.0000   1.0000   1.0000
     1.0000   1.0000   1.0000   1.0000   1.0000   1.0000   1.0000   1.0000
     1.0000   1.0000   1.0000   1.0000   1.0000   1.0000   1.0000   1.0000
     1.0000   1.0000   1.0000   1.0000   1.0000   1.0000   1.0000   1.0000
     1.0000   1.0000   1.0000   1.0000   1.0000   1.0000   1.0000   1.0000
     1.0000   1.0000   1.0000   1.0000   1.0000   1.0000   1.0000   1.0000
     1.0000   1.0000   1.0000   1.0000   1.0000   1.0000   1.0000   1.0000
     1.0000   1.0000   1.0000   1.0000   1.0000   1.0000   1.0000   1.0000
     1.0000   1.0000   1.0000   1.0000   1.0000   1.0000   1.0000   1.0000
     1.0000   1.0000   1.0000   1.0000   1.0000   1.0000   1.0000   1.0000
     1.0000   1.0000   1.0000   1.0000   1.0000   1.0000   1.0000   1.0000
     1.0000   1.0000   1.0000   1.0000   1.0000   1.0000   1.0000   1.0000
     1.0000   1.0000   1.0000   1.0000   0.0000   0.0000   0.0000   0.0000
     0.0000   0.0000   0.0000   0.0000   0.0000   0.0000   0.0000   0.0000
     0.0000   0.0000

          k = 0.0000 0.0000 0.8882 ( 34692 PWs)   bands (ev):

   -80.1452 -80.1451 -80.1451 -80.1450 -47.1058 -47.1057 -47.1056 -47.1055
   -45.8674 -45.8673 -45.8673 -45.8672 -45.6452 -45.6452 -45.6451 -45.6450
   -42.2703 -42.2702 -42.2620 -42.2620 -14.6934 -14.6845 -14.4146 -14.4128
   -14.3072 -14.3006 -14.2979 -14.2970 -14.2410 -14.2409 -14.2077 -14.2076
   -13.9232 -13.9057 -13.6997 -13.6762 -11.6429 -11.6136 -11.5110 -11.5014
   -11.3689 -11.3613 -11.3124 -11.2938 -11.2413 -11.2139 -11.2005 -11.1806
    -1.2695  -1.1537  -1.0595  -1.0093   0.7582   0.8400   0.8610   0.8981
     0.9751   1.0291   1.0368   1.0933   1.3704   1.4622   1.5751   1.5875
     2.4728   2.5968   2.7070   2.8203   2.8463   2.8920   3.0021   3.0817
     3.2301   3.2492   3.3398   3.4629   3.7978   3.8055   3.9413   3.9669
     4.0535   4.1563   4.2525   4.4001   4.7535   4.8033   4.8281   4.8328
     5.0792   5.1633   5.1639   5.2599   5.4207   5.5472   5.9072   5.9557
     6.3034   6.3292   6.3500   6.3874   6.3919   6.4111   6.7134   6.7535
     7.3177   7.4103   7.4920   7.5642   7.5660   7.5675   7.5914   7.6284
     7.8470   7.9232   8.3082   8.3296  12.9390  13.3733  13.8377  14.0940
    14.6945  14.8306  14.9314  15.1509  15.4400  15.5819  15.5832  15.6580
    15.8084  16.0274

     occupation numbers 
     1.0000   1.0000   1.0000   1.0000   1.0000   1.0000   1.0000   1.0000
     1.0000   1.0000   1.0000   1.0000   1.0000   1.0000   1.0000   1.0000
     1.0000   1.0000   1.0000   1.0000   1.0000   1.0000   1.0000   1.0000
     1.0000   1.0000   1.0000   1.0000   1.0000   1.0000   1.0000   1.0000
     1.0000   1.0000   1.0000   1.0000   1.0000   1.0000   1.0000   1.0000
     1.0000   1.0000   1.0000   1.0000   1.0000   1.0000   1.0000   1.0000
     1.0000   1.0000   1.0000   1.0000   1.0000   1.0000   1.0000   1.0000
     1.0000   1.0000   1.0000   1.0000   1.0000   1.0000   1.0000   1.0000
     1.0000   1.0000   1.0000   1.0000   1.0000   1.0000   1.0000   1.0000
     1.0000   1.0000   1.0000   1.0000   1.0000   1.0000   1.0000   1.0000
     1.0000   1.0000   1.0000   1.0000   1.0000   1.0000   1.0000   1.0000
     1.0000   1.0000   1.0000   1.0000   1.0000   1.0000   1.0000   1.0000
     1.0000   1.0000   1.0000   1.0000   1.0000   1.0000   1.0000   1.0000
     1.0000   1.0000   1.0000   1.0000   1.0000   1.0000   1.0000   1.0000
     1.0000   1.0000   1.0000   1.0000   0.0000   0.0000   0.0000   0.0000
     0.0000   0.0000   0.0000   0.0000   0.0000   0.0000   0.0000   0.0000
     0.0000   0.0000

          k = 0.0000 0.2271 0.0000 ( 34607 PWs)   bands (ev):

   -80.1452 -80.1451 -80.1451 -80.1450 -47.1061 -47.1060 -47.1053 -47.1052
   -45.8675 -45.8674 -45.8672 -45.8671 -45.6454 -45.6453 -45.6450 -45.6448
   -42.2699 -42.2698 -42.2624 -42.2624 -14.6653 -14.6438 -14.3658 -14.3427
   -14.3389 -14.3263 -14.3063 -14.2972 -14.2766 -14.2662 -14.2181 -14.2157
   -14.1559 -14.0235 -13.6663 -13.6035 -11.6455 -11.4671 -11.4659 -11.4128
   -11.3741 -11.3624 -11.3214 -11.2851 -11.2441 -11.2430 -11.1380 -11.0854
    -1.5384  -1.0566  -0.9931  -0.9038  -0.0217   0.4841   0.5391   0.5848
     0.7681   0.9031   1.1608   1.2271   1.3609   1.3703   1.4127   1.6755
     2.4877   2.6540   2.8915   2.9689   3.0530   3.2142   3.3480   3.4196
     3.5267   3.5363   3.7324   3.7367   3.8172   3.8837   4.0626   4.0996
     4.1139   4.1883   4.2829   4.3687   4.4064   4.5141   4.5905   4.8044
     4.9054   4.9164   4.9470   5.2885   5.3333   5.4740   5.8142   6.0046
     6.2865   6.2886   6.3646   6.5021   6.5921   6.7294   6.7822   6.9124
     6.9186   7.0590   7.4488   7.4915   7.5187   7.5229   7.6633   7.7500
     7.7511   8.2677   8.3347   8.3735  11.4941  13.4868  13.6865  14.0574
    14.6693  14.7082  15.1085  15.6192  15.8671  15.9564  16.0959  16.1658
    16.1787  16.5176

     occupation numbers 
     1.0000   1.0000   1.0000   1.0000   1.0000   1.0000   1.0000   1.0000
     1.0000   1.0000   1.0000   1.0000   1.0000   1.0000   1.0000   1.0000
     1.0000   1.0000   1.0000   1.0000   1.0000   1.0000   1.0000   1.0000
     1.0000   1.0000   1.0000   1.0000   1.0000   1.0000   1.0000   1.0000
     1.0000   1.0000   1.0000   1.0000   1.0000   1.0000   1.0000   1.0000
     1.0000   1.0000   1.0000   1.0000   1.0000   1.0000   1.0000   1.0000
     1.0000   1.0000   1.0000   1.0000   1.0000   1.0000   1.0000   1.0000
     1.0000   1.0000   1.0000   1.0000   1.0000   1.0000   1.0000   1.0000
     1.0000   1.0000   1.0000   1.0000   1.0000   1.0000   1.0000   1.0000
     1.0000   1.0000   1.0000   1.0000   1.0000   1.0000   1.0000   1.0000
     1.0000   1.0000   1.0000   1.0000   1.0000   1.0000   1.0000   1.0000
     1.0000   1.0000   1.0000   1.0000   1.0000   1.0000   1.0000   1.0000
     1.0000   1.0000   1.0000   1.0000   1.0000   1.0000   1.0000   1.0000
     1.0000   1.0000   1.0000   1.0000   1.0000   1.0000   1.0000   1.0000
     1.0000   1.0000   1.0000   1.0000   0.0000   0.0000   0.0000   0.0000
     0.0000   0.0000   0.0000   0.0000   0.0000   0.0000   0.0000   0.0000
     0.0000   0.0000

          k = 0.0000 0.2271 0.2220 ( 34613 PWs)   bands (ev):

   -80.1452 -80.1451 -80.1451 -80.1450 -47.1061 -47.1060 -47.1053 -47.1052
   -45.8675 -45.8674 -45.8672 -45.8672 -45.6453 -45.6453 -45.6450 -45.6449
   -42.2699 -42.2698 -42.2624 -42.2624 -14.6598 -14.6378 -14.4185 -14.3815
   -14.3319 -14.3177 -14.2989 -14.2980 -14.2636 -14.2591 -14.2158 -14.2152
   -14.1103 -13.9830 -13.6789 -13.6193 -11.6490 -11.4603 -11.4601 -11.4359
   -11.3831 -11.3650 -11.3102 -11.2951 -11.2582 -11.2416 -11.1426 -11.0913
    -1.5169  -1.0614  -0.9979  -0.8980   0.0463   0.5073   0.5873   0.6417
     0.7732   0.9224   1.1782   1.2388   1.3484   1.3563   1.3788   1.6610
     2.4899   2.6413   2.8863   2.9783   3.0056   3.2104   3.2617   3.3730
     3.4475   3.5455   3.7236   3.7439   3.8172   3.8561   4.0348   4.0752
     4.1468   4.1611   4.2945   4.4507   4.4675   4.4826   4.6210   4.7791
     4.8679   4.9456   4.9873   5.3009   5.3302   5.5049   5.7992   5.9814
     6.2760   6.2848   6.3654   6.5125   6.5978   6.7155   6.7686   6.8735
     6.9024   7.0703   7.4596   7.5303   7.5334   7.5625   7.6655   7.7184
     7.7327   8.2341   8.3333   8.3868  11.6395  13.5161  13.7649  14.0651
    14.6014  14.7195  15.2747  15.3582  15.8317  15.8679  15.9321  16.1901
    16.3179  16.4516

     occupation numbers 
     1.0000   1.0000   1.0000   1.0000   1.0000   1.0000   1.0000   1.0000
     1.0000   1.0000   1.0000   1.0000   1.0000   1.0000   1.0000   1.0000
     1.0000   1.0000   1.0000   1.0000   1.0000   1.0000   1.0000   1.0000
     1.0000   1.0000   1.0000   1.0000   1.0000   1.0000   1.0000   1.0000
     1.0000   1.0000   1.0000   1.0000   1.0000   1.0000   1.0000   1.0000
     1.0000   1.0000   1.0000   1.0000   1.0000   1.0000   1.0000   1.0000
     1.0000   1.0000   1.0000   1.0000   1.0000   1.0000   1.0000   1.0000
     1.0000   1.0000   1.0000   1.0000   1.0000   1.0000   1.0000   1.0000
     1.0000   1.0000   1.0000   1.0000   1.0000   1.0000   1.0000   1.0000
     1.0000   1.0000   1.0000   1.0000   1.0000   1.0000   1.0000   1.0000
     1.0000   1.0000   1.0000   1.0000   1.0000   1.0000   1.0000   1.0000
     1.0000   1.0000   1.0000   1.0000   1.0000   1.0000   1.0000   1.0000
     1.0000   1.0000   1.0000   1.0000   1.0000   1.0000   1.0000   1.0000
     1.0000   1.0000   1.0000   1.0000   1.0000   1.0000   1.0000   1.0000
     1.0000   1.0000   1.0000   1.0000   0.0000   0.0000   0.0000   0.0000
     0.0000   0.0000   0.0000   0.0000   0.0000   0.0000   0.0000   0.0000
     0.0000   0.0000

          k = 0.0000 0.2271 0.4441 ( 34660 PWs)   bands (ev):

   -80.1452 -80.1451 -80.1451 -80.1450 -47.1060 -47.1059 -47.1054 -47.1053
   -45.8675 -45.8673 -45.8672 -45.8672 -45.6453 -45.6453 -45.6450 -45.6449
   -42.2699 -42.2698 -42.2624 -42.2624 -14.6562 -14.6318 -14.4545 -14.4263
   -14.3282 -14.3152 -14.2981 -14.2981 -14.2557 -14.2547 -14.2155 -14.2151
   -14.0085 -13.9068 -13.7089 -13.6561 -11.6539 -11.4916 -11.4481 -11.4467
   -11.4147 -11.3589 -11.3418 -11.2837 -11.2753 -11.2349 -11.1556 -11.1094
    -1.4547  -1.0687  -1.0145  -0.9050   0.2482   0.5815   0.7131   0.7506
     0.8167   0.9652   1.2307   1.2765   1.3005   1.3044   1.3521   1.6147
     2.4826   2.6230   2.8477   2.9311   2.9889   3.0862   3.1273   3.3285
     3.3527   3.4999   3.6279   3.7085   3.8089   3.8309   3.9209   3.9955
     4.1082   4.1127   4.3569   4.4846   4.6022   4.6437   4.7163   4.7629
     4.8165   4.9971   5.0100   5.3080   5.3703   5.5844   5.7546   5.9252
     6.2592   6.2777   6.3692   6.5226   6.6147   6.6756   6.6784   6.8118
     6.9514   7.1078   7.4914   7.5554   7.5971   7.6083   7.6416   7.6673
     7.7192   8.1669   8.3330   8.4002  12.0254  13.5948  13.8721  14.1658
    14.5706  14.7353  15.0098  15.5273  15.6713  15.6743  15.8559  15.9058
    16.1832  16.3706

     occupation numbers 
     1.0000   1.0000   1.0000   1.0000   1.0000   1.0000   1.0000   1.0000
     1.0000   1.0000   1.0000   1.0000   1.0000   1.0000   1.0000   1.0000
     1.0000   1.0000   1.0000   1.0000   1.0000   1.0000   1.0000   1.0000
     1.0000   1.0000   1.0000   1.0000   1.0000   1.0000   1.0000   1.0000
     1.0000   1.0000   1.0000   1.0000   1.0000   1.0000   1.0000   1.0000
     1.0000   1.0000   1.0000   1.0000   1.0000   1.0000   1.0000   1.0000
     1.0000   1.0000   1.0000   1.0000   1.0000   1.0000   1.0000   1.0000
     1.0000   1.0000   1.0000   1.0000   1.0000   1.0000   1.0000   1.0000
     1.0000   1.0000   1.0000   1.0000   1.0000   1.0000   1.0000   1.0000
     1.0000   1.0000   1.0000   1.0000   1.0000   1.0000   1.0000   1.0000
     1.0000   1.0000   1.0000   1.0000   1.0000   1.0000   1.0000   1.0000
     1.0000   1.0000   1.0000   1.0000   1.0000   1.0000   1.0000   1.0000
     1.0000   1.0000   1.0000   1.0000   1.0000   1.0000   1.0000   1.0000
     1.0000   1.0000   1.0000   1.0000   1.0000   1.0000   1.0000   1.0000
     1.0000   1.0000   1.0000   1.0000   0.0000   0.0000   0.0000   0.0000
     0.0000   0.0000   0.0000   0.0000   0.0000   0.0000   0.0000   0.0000
     0.0000   0.0000

          k = 0.0000 0.2271 0.6661 ( 34677 PWs)   bands (ev):

   -80.1452 -80.1451 -80.1451 -80.1450 -47.1059 -47.1058 -47.1055 -47.1054
[...]
     atom   14 type  3   force =    -0.21039720   -0.00000950   -1.45932529
     atom   15 type  3   force =    -0.21039856   -0.00000909    1.45932239
     atom   16 type  3   force =     0.21039720    0.00000950    1.45932529
     atom   17 type  3   force =     1.19829703    0.00000400   -0.73166924
     atom   18 type  3   force =    -1.19830363   -0.00000132   -0.73166337
     atom   19 type  3   force =    -1.19829703   -0.00000400    0.73166924
     atom   20 type  3   force =     1.19830363    0.00000132    0.73166337
     atom   21 type  3   force =    -0.64580817   -1.04612117    0.70164951
     atom   22 type  3   force =     0.64581288    1.04612123    0.70165813
     atom   23 type  3   force =     0.64579842   -1.04610671   -0.70162976
     atom   24 type  3   force =    -0.64579622    1.04610926   -0.70163964
     atom   25 type  3   force =     0.64580817    1.04612117   -0.70164951
     atom   26 type  3   force =    -0.64581288   -1.04612123   -0.70165813
     atom   27 type  3   force =    -0.64579842    1.04610671    0.70162976
     atom   28 type  3   force =     0.64579622   -1.04610926    0.70163964
     The ionic contribution  to forces
     atom    1 type  2   force =    -0.00004228    0.00001591   -0.00003905
     atom    2 type  2   force =    -0.00008242    0.00005443   -0.00003189
     atom    3 type  2   force =     0.00001965    0.00000505   -0.00003101
     atom    4 type  2   force =    -0.00002708   -0.00003811   -0.00001235
     atom    5 type  1   force =     2.73808572    0.00052169   -1.39148660
     atom    6 type  1   force =    -2.73813869   -0.00038612   -1.39143614
     atom    7 type  1   force =    -2.73811068   -0.00036033    1.39152901
     atom    8 type  1   force =     2.73838659    0.00048496    1.39146906
     atom    9 type  4   force =     0.13160400    0.00007487    2.01900054
     atom   10 type  4   force =    -0.13153238   -0.00012111    2.01891370
     atom   11 type  4   force =    -0.13155936   -0.00011343   -2.01895719
     atom   12 type  4   force =     0.13154564    0.00012216   -2.01891497
     atom   13 type  3   force =    -4.23650106    0.00011789    0.64591714
     atom   14 type  3   force =     4.23658911   -0.00014881    0.64593343
     atom   15 type  3   force =     4.23652732   -0.00013207   -0.64593193
     atom   16 type  3   force =    -4.23660670    0.00012386   -0.64591256
     atom   17 type  3   force =    -1.24036809    0.00010096    3.62949420
     atom   18 type  3   force =     1.24035401   -0.00009629    3.62948497
     atom   19 type  3   force =     1.24031634   -0.00010511   -3.62948187
     atom   20 type  3   force =    -1.24057494    0.00007811   -3.62943604
     atom   21 type  3   force =     0.75769139    1.78707668   -1.17076219
     atom   22 type  3   force =    -0.75765796   -1.78713551   -1.17071391
     atom   23 type  3   force =    -0.75744028    1.78701725    1.17055486
     atom   24 type  3   force =     0.75747520   -1.78707582    1.17048037
     atom   25 type  3   force =    -0.75762138   -1.78716507    1.17068740
     atom   26 type  3   force =     0.75765369    1.78709756    1.17073710
     atom   27 type  3   force =     0.75749422   -1.78699552   -1.17047192
     atom   28 type  3   force =    -0.75747958    1.78698192   -1.17058213
     The local contribution  to forces
     atom    1 type  2   force =     0.00000000    0.00000000    0.00000000
     atom    2 type  2   force =    -0.00000000    0.00000000   -0.00000000
     atom    3 type  2   force =     0.00000000   -0.00000000    0.00000000
     atom    4 type  2   force =    -0.00000000   -0.00000000   -0.00000000
     atom    5 type  1   force =    -2.69538491   -0.00044108    1.35701501
     atom    6 type  1   force =     2.69729416    0.00043563    1.35698189
     atom    7 type  1   force =     2.69538491    0.00044108   -1.35701501
     atom    8 type  1   force =    -2.69379711   -0.00043563   -1.35693590
     atom    9 type  4   force =    -0.14141974   -0.00009354   -1.99913031
     atom   10 type  4   force =     0.14137265    0.00011568   -1.99907270
     atom   11 type  4   force =     0.14141186    0.00008794    1.99913071
     atom   12 type  4   force =    -0.14137265   -0.00012128    1.99907270
     atom   13 type  3   force =     4.01888573   -0.00039126    0.79507230
     atom   14 type  3   force =    -4.01859738   -0.00011251    0.79511132
     atom   15 type  3   force =    -4.01888573   -0.00012428   -0.79507230
     atom   16 type  3   force =     4.01934947   -0.00040302   -0.79505949
     atom   17 type  3   force =    -0.06223880   -0.00010772   -2.86128293
     atom   18 type  3   force =     0.06215110    0.00008973   -2.86105700
     atom   19 type  3   force =     0.06223880    0.00010772    2.86128293
     atom   20 type  3   force =    -0.06212627   -0.00008973    2.86146022
     atom   21 type  3   force =    -0.09416919   -0.73676614    0.47352181
     atom   22 type  3   force =     0.09459646    0.73632134    0.47346594
     atom   23 type  3   force =     0.09439516   -0.73664997   -0.47331895
     atom   24 type  3   force =    -0.09443357    0.73624750   -0.47328822
     atom   25 type  3   force =     0.09500419    0.73629650   -0.47346235
     atom   26 type  3   force =    -0.09457038   -0.73674952   -0.47350377
     atom   27 type  3   force =    -0.09442123    0.73622178    0.47328112
     atom   28 type  3   force =     0.09440749   -0.73667569    0.47332605
     The core correction contribution to forces
     atom    1 type  2   force =     0.00000000    0.00000000    0.00000000
     atom    2 type  2   force =     0.00000000    0.00000000    0.00000000
     atom    3 type  2   force =     0.00000000    0.00000000    0.00000000
     atom    4 type  2   force =     0.00000000    0.00000000    0.00000000
     atom    5 type  1   force =     0.00318604   -0.00000409   -0.00221488
     atom    6 type  1   force =    -0.00324883    0.00000411   -0.00221437
     atom    7 type  1   force =    -0.00318604    0.00000409    0.00221488
     atom    8 type  1   force =     0.00312232   -0.00000411    0.00221652
     atom    9 type  4   force =    -0.00918356    0.00000107   -0.00444766
     atom   10 type  4   force =     0.00918145    0.00000057   -0.00444682
     atom   11 type  4   force =     0.00918080    0.00000035    0.00444749
     atom   12 type  4   force =    -0.00918145    0.00000085    0.00444682
     atom   13 type  3   force =    -0.00247106   -0.00000021    0.01253145
     atom   14 type  3   force =     0.00247132   -0.00000005    0.01253134
     atom   15 type  3   force =     0.00247106   -0.00000006   -0.01253145
     atom   16 type  3   force =    -0.00247072   -0.00000022   -0.01253142
     atom   17 type  3   force =    -0.00827574   -0.00000002    0.00631923
     atom   18 type  3   force =     0.00827569   -0.00000002    0.00631929
     atom   19 type  3   force =     0.00827574    0.00000002   -0.00631923
     atom   20 type  3   force =    -0.00827564    0.00000002   -0.00631896
     atom   21 type  3   force =     0.00528445    0.00871435   -0.00630423
     atom   22 type  3   force =    -0.00528439   -0.00871495   -0.00630432
     atom   23 type  3   force =    -0.00528413    0.00871421    0.00630394
     atom   24 type  3   force =     0.00528422   -0.00871489    0.00630412
     atom   25 type  3   force =    -0.00528406   -0.00871483    0.00630410
     atom   26 type  3   force =     0.00528428    0.00871430    0.00630424
     atom   27 type  3   force =     0.00528424   -0.00871486   -0.00630402
     atom   28 type  3   force =    -0.00528411    0.00871423   -0.00630404
     The Hubbard contrib.    to forces
     atom    1 type  2   force =     0.00000000    0.00000000    0.00000000
     atom    2 type  2   force =     0.00000000    0.00000000    0.00000000
     atom    3 type  2   force =     0.00000000    0.00000000    0.00000000
     atom    4 type  2   force =     0.00000000    0.00000000    0.00000000
     atom    5 type  1   force =     0.00000000    0.00000000    0.00000000
     atom    6 type  1   force =     0.00000000    0.00000000    0.00000000
     atom    7 type  1   force =     0.00000000    0.00000000    0.00000000
     atom    8 type  1   force =     0.00000000    0.00000000    0.00000000
     atom    9 type  4   force =     0.00000000    0.00000000    0.00000000
     atom   10 type  4   force =     0.00000000    0.00000000    0.00000000
     atom   11 type  4   force =     0.00000000    0.00000000    0.00000000
     atom   12 type  4   force =     0.00000000    0.00000000    0.00000000
     atom   13 type  3   force =     0.00000000    0.00000000    0.00000000
     atom   14 type  3   force =     0.00000000    0.00000000    0.00000000
     atom   15 type  3   force =     0.00000000    0.00000000    0.00000000
     atom   16 type  3   force =     0.00000000    0.00000000    0.00000000
     atom   17 type  3   force =     0.00000000    0.00000000    0.00000000
     atom   18 type  3   force =     0.00000000    0.00000000    0.00000000
     atom   19 type  3   force =     0.00000000    0.00000000    0.00000000
     atom   20 type  3   force =     0.00000000    0.00000000    0.00000000
     atom   21 type  3   force =     0.00000000    0.00000000    0.00000000
     atom   22 type  3   force =     0.00000000    0.00000000    0.00000000
     atom   23 type  3   force =     0.00000000    0.00000000    0.00000000
     atom   24 type  3   force =     0.00000000    0.00000000    0.00000000
     atom   25 type  3   force =     0.00000000    0.00000000    0.00000000
     atom   26 type  3   force =     0.00000000    0.00000000    0.00000000
     atom   27 type  3   force =     0.00000000    0.00000000    0.00000000
     atom   28 type  3   force =     0.00000000    0.00000000    0.00000000
     The SCF correction term to forces
     atom    1 type  2   force =    -0.00000000    0.00000000   -0.00000000
     atom    2 type  2   force =    -0.00000000    0.00000000   -0.00000000
     atom    3 type  2   force =     0.00000000    0.00000000   -0.00000000
     atom    4 type  2   force =    -0.00000000   -0.00000000   -0.00000000
     atom    5 type  1   force =    -0.00000187    0.00000005   -0.00000280
     atom    6 type  1   force =    -0.00000220    0.00000002    0.00000118
     atom    7 type  1   force =     0.00000187   -0.00000005    0.00000280
     atom    8 type  1   force =     0.00000220   -0.00000002   -0.00000118
     atom    9 type  4   force =     0.00000008   -0.00000007    0.00000057
     atom   10 type  4   force =     0.00000059    0.00000000   -0.00000040
     atom   11 type  4   force =    -0.00000008    0.00000007   -0.00000057
     atom   12 type  4   force =    -0.00000059   -0.00000000    0.00000040
     atom   13 type  3   force =     0.00000150   -0.00000002    0.00000130
     atom   14 type  3   force =     0.00000313   -0.00000018   -0.00000066
     atom   15 type  3   force =    -0.00000150    0.00000002   -0.00000130
     atom   16 type  3   force =    -0.00000313    0.00000018    0.00000066
     atom   17 type  3   force =    -0.00000230    0.00000018   -0.00000078
     atom   18 type  3   force =    -0.00000194   -0.00000002    0.00000033
     atom   19 type  3   force =     0.00000230   -0.00000018    0.00000078
     atom   20 type  3   force =     0.00000194    0.00000002   -0.00000033
     atom   21 type  3   force =    -0.00000053   -0.00000349   -0.00000091
     atom   22 type  3   force =     0.00000056   -0.00000231    0.00000062
     atom   23 type  3   force =     0.00000100   -0.00000257    0.00000057
     atom   24 type  3   force =    -0.00000076   -0.00000308   -0.00000124
     atom   25 type  3   force =     0.00000053    0.00000349    0.00000091
     atom   26 type  3   force =    -0.00000056    0.00000231   -0.00000062
     atom   27 type  3   force =    -0.00000100    0.00000257   -0.00000057
     atom   28 type  3   force =     0.00000076    0.00000308    0.00000124

     Total force =     0.309346     Total SCF correction =     0.000013


     Computing stress (Cartesian axis) and pressure


     negative rho (up, down):  0.000E+00 5.505E-04
          total   stress  (Ry/bohr**3)                   (kbar)     P=      130.03
   0.00145042  -0.00000001   0.00000001          213.36       -0.00        0.00
  -0.00000001   0.00058870  -0.00000000           -0.00       86.60       -0.00
   0.00000001  -0.00000000   0.00061262            0.00       -0.00       90.12

     kinetic stress (kbar)  34281.06     -0.01      0.00
                               -0.01  33992.58     -0.00
                                0.00     -0.00  34039.07

     local   stress (kbar)  -4667.92     -0.09     -0.01
                               -0.09  -4132.33      0.02
                               -0.01      0.02   -976.45

     nonloc. stress (kbar) -10228.01     -0.00      0.00
                               -0.00 -10348.06     -0.00
                                0.00     -0.00 -10189.37

     hartree stress (kbar)  15624.71      0.03      0.00
                                0.03  15533.77     -0.01
                                0.00     -0.01  13909.66

     exc-cor stress (kbar)  -3856.47     -0.00      0.00
                               -0.00  -3865.26     -0.00
                                0.00     -0.00  -3855.93

     corecor stress (kbar)  -3291.36      0.00     -0.00
                                0.00  -3268.19      0.00
                               -0.00      0.00  -3291.76

     ewald   stress (kbar) -27648.64      0.08      0.00
                                0.08 -27825.91     -0.01
                                0.00     -0.01 -29545.11

     hubbard stress (kbar)      0.00      0.00      0.00
                                0.00      0.00      0.00
                                0.00      0.00      0.00

     DFT-D   stress (kbar)      0.00      0.00      0.00
                                0.00      0.00      0.00
                                0.00      0.00      0.00

     XDM     stress (kbar)      0.00      0.00      0.00
                                0.00      0.00      0.00
                                0.00      0.00      0.00

     dft-nl  stress (kbar)      0.00      0.00      0.00
                                0.00      0.00      0.00
                                0.00      0.00      0.00

     TS-vdW  stress (kbar)      0.00      0.00      0.00
                                0.00      0.00      0.00
                                0.00      0.00      0.00



     init_run     :    204.17s CPU    209.23s WALL (       1 calls)
     electrons    :  41606.92s CPU  43648.53s WALL (       1 calls)
     forces       :    179.66s CPU    182.74s WALL (       1 calls)
     stress       :    953.31s CPU   1014.70s WALL (       1 calls)

     Called by init_run:
     wfcinit      :    194.30s CPU    198.43s WALL (       1 calls)
     wfcinit:atom :      3.28s CPU      3.38s WALL (     316 calls)
     wfcinit:wfcr :    180.20s CPU    183.95s WALL (     316 calls)
     potinit      :      3.79s CPU      3.94s WALL (       1 calls)
     hinit0       :      3.07s CPU      3.21s WALL (       1 calls)

     Called by electrons:
     c_bands      :  36519.08s CPU  38236.27s WALL (      37 calls)
     sum_band     :   4959.90s CPU   5259.61s WALL (      37 calls)
     v_of_rho     :     33.14s CPU     34.78s WALL (      38 calls)
     v_h          :      1.57s CPU      1.67s WALL (      38 calls)
     v_xc         :     35.45s CPU     37.02s WALL (      40 calls)
     newd         :     49.66s CPU     72.32s WALL (      38 calls)
     PAW_pot      :     31.86s CPU     31.99s WALL (      38 calls)
     mix_rho      :     11.33s CPU     11.75s WALL (      37 calls)

     Called by c_bands:
     init_us_2    :    337.68s CPU    349.26s WALL (   24332 calls)
     cegterg      :  35489.60s CPU  37162.87s WALL (   11692 calls)

     Called by sum_band:
     sum_band:wei :      0.63s CPU      0.64s WALL (      37 calls)
     sum_band:loo :   4802.56s CPU   5060.87s WALL (      37 calls)
     sum_band:buf :     91.03s CPU     93.89s WALL (   11692 calls)
     sum_band:ini :    164.32s CPU    169.80s WALL (   11692 calls)
     sum_band:cal :   1040.39s CPU   1070.11s WALL (   11692 calls)
     sum_band:bec :      9.31s CPU      9.57s WALL (   11692 calls)
     addusdens    :    146.46s CPU    187.20s WALL (      37 calls)
     addusd:skk   :      1.32s CPU      1.37s WALL (     111 calls)
     addusd:dgemm :     65.40s CPU     99.24s WALL (     222 calls)
     addusd:qvan2 :     76.86s CPU     78.40s WALL (     222 calls)

     Called by *egterg:
     cdiaghg      :   2060.40s CPU   2156.68s WALL (   43701 calls)
     cegterg:over :   2858.47s CPU   2969.05s WALL (   32009 calls)
     cegterg:upda :   1249.18s CPU   1274.06s WALL (   32009 calls)
     cegterg:last :   2185.40s CPU   2233.42s WALL (   19681 calls)
     h_psi        :  23030.93s CPU  24316.54s WALL (   44017 calls)
     s_psi        :   2172.47s CPU   2211.63s WALL (   44017 calls)
     g_psi        :     18.25s CPU     18.71s WALL (   32009 calls)

     Called by h_psi:
     h_psi:calbec :   2867.62s CPU   2958.49s WALL (   44017 calls)
     vloc_psi     :  17670.89s CPU  18809.30s WALL (   44017 calls)
     add_vuspsi   :   2282.47s CPU   2331.41s WALL (   44017 calls)

     General routines
     calbec       :   4221.54s CPU   4349.40s WALL (   57289 calls)
     fft          :     32.67s CPU     34.58s WALL (     988 calls)
     ffts         :      1.18s CPU      1.30s WALL (     150 calls)
     fftw         :  20866.82s CPU  22221.57s WALL ( 8634824 calls)
     interpolate  :      3.06s CPU      3.28s WALL (      76 calls)

     Parallel routines
     fft_scatt_xy :    352.82s CPU    356.18s WALL ( 8635962 calls)
     fft_scatt_yz :  18403.56s CPU  19737.45s WALL ( 8635962 calls)

     PAW routines
     PAW_pot      :     31.86s CPU     31.99s WALL (      38 calls)
     PAW_symme    :      0.54s CPU      0.54s WALL (      75 calls)

     PWSCF        :     11h55m CPU     12h30m WALL


   This run was terminated on:   3:45:51  20Dec2022            

=------------------------------------------------------------------------------=
   JOB DONE.
=------------------------------------------------------------------------------=
Note: The following floating-point exceptions are signalling: IEEE_DENORMAL
Note: The following floating-point exceptions are signalling: IEEE_DENORMAL
Note: The following floating-point exceptions are signalling: IEEE_DENORMAL
Note: The following floating-point exceptions are signalling: IEEE_INVALID_FLAG IEEE_DENORMAL
Note: The following floating-point exceptions are signalling: IEEE_DENORMAL
Note: The following floating-point exceptions are signalling: IEEE_UNDERFLOW_FLAG IEEE_DENORMAL
Note: The following floating-point exceptions are signalling: IEEE_INVALID_FLAG IEEE_DENORMAL
Note: The following floating-point exceptions are signalling: IEEE_DENORMAL
Note: The following floating-point exceptions are signalling: IEEE_DENORMAL
Note: The following floating-point exceptions are signalling: IEEE_DENORMAL
Note: The following floating-point exceptions are signalling: IEEE_DENORMAL
Note: The following floating-point exceptions are signalling: IEEE_DENORMAL
Note: The following floating-point exceptions are signalling: IEEE_INVALID_FLAG IEEE_DENORMAL
Note: The following floating-point exceptions are signalling: IEEE_DENORMAL
Note: The following floating-point exceptions are signalling: IEEE_DENORMAL
Note: The following floating-point exceptions are signalling: IEEE_DENORMAL
Note: The following floating-point exceptions are signalling: IEEE_DENORMAL
Note: The following floating-point exceptions are signalling: IEEE_INVALID_FLAG IEEE_DENORMAL
Note: The following floating-point exceptions are signalling: IEEE_DENORMAL
Note: The following floating-point exceptions are signalling: IEEE_INVALID_FLAG IEEE_DENORMAL
