
     Program PWSCF v.6.7MaX starts on 24Dec2022 at 11:17:36 

     This program is part of the open-source Quantum ESPRESSO suite
     for quantum simulation of materials; please cite
         "P. Giannozzi et al., J. Phys.:Condens. Matter 21 395502 (2009);
         "P. Giannozzi et al., J. Phys.:Condens. Matter 29 465901 (2017);
          URL http://www.quantum-espresso.org", 
     in publications or presentations arising from this work. More details at
     http://www.quantum-espresso.org/quote

     Parallel version (MPI), running on    48 processors

     MPI processes distributed on     2 nodes
     R & G space division:  proc/nbgrp/npool/nimage =      48
     Reading input from scale_3d-03.in

     Current dimensions of program PWSCF are:
     Max number of different atomic species (ntypx) = 10
     Max number of k-points (npk) =  40000
     Max angular momentum in pseudopotentials (lmaxx) =  3
     Message from routine read_pp_mesh:
     mesh size missing, using the one in header
     file Fe.pbe-spn-kjpaw_psl.0.2.1.UPF: wavefunction(s)  3D renormalized
     file O.pbe-n-kjpaw_psl.0.1.UPF: wavefunction(s)  2P renormalized

     Subspace diagonalization in iterative solution of the eigenvalue problem:
     a serial algorithm will be used

     Message from routine find_sym:
     Not a group! Trying with lower acceptance parameter...
     Message from routine find_sym:
     Symmetry operations form a group
     Message from routine setup:
     using ibrav=0 with symmetry is DISCOURAGED, use correct ibrav instead

     Parallelization info
     --------------------
     sticks:   dense  smooth     PW     G-vecs:    dense   smooth      PW
     Min         427     158     42                28349     6390     896
     Max         428     159     43                28354     6393     899
     Sum       20521    7599   2049              1360823   306739   43063



     bravais-lattice index     =            0
     lattice parameter (alat)  =      19.9928  a.u.
     unit-cell volume          =    2270.1860 (a.u.)^3
     number of atoms/cell      =           28
     number of atomic types    =            4
     number of electrons       =       216.00
     number of Kohn-Sham states=          130
     kinetic-energy cutoff     =     100.0000  Ry
     charge density cutoff     =    1080.0000  Ry
     scf convergence threshold =      2.0E-10
     mixing beta               =       0.4000
     number of iterations used =            8  plain     mixing
     Exchange-correlation= PBE
                           (   1   4   3   4   0   0   0)

     celldm(1)=  19.992808  celldm(2)=   0.000000  celldm(3)=   0.000000
     celldm(4)=   0.000000  celldm(5)=   0.000000  celldm(6)=   0.000000

     crystal axes: (cart. coord. in units of alat)
               a(1) = (   1.000000   0.000000   0.000000 )  
               a(2) = (   0.000000   0.597590   0.000000 )  
               a(3) = (   0.000000   0.000000   0.475375 )  

     reciprocal axes: (cart. coord. in units 2 pi/alat)
               b(1) = (  1.000000  0.000000  0.000000 )  
               b(2) = (  0.000000  1.673388  0.000000 )  
               b(3) = (  0.000000  0.000000  2.103600 )  


     PseudoPot. # 1 for Fe read from file:
     /opt/QEpot/SSSP_precision_pseudos/Fe.pbe-spn-kjpaw_psl.0.2.1.UPF
     MD5 check sum: e86618425769142926afa95317d90200
     Pseudo is Projector augmented-wave + core cor, Zval = 16.0
     Generated using "atomic" code by A. Dal Corso  v.5.0.99 svn rev. 10869
     Shape of augmentation charge: PSQ
     Using radial grid of 1191 points,  6 beta functions with: 
                l(1) =   0
                l(2) =   0
                l(3) =   1
                l(4) =   1
                l(5) =   2
                l(6) =   2
     Q(r) pseudized with 0 coefficients 


     PseudoPot. # 2 for Na read from file:
     /opt/QEpot/SSSP_precision_pseudos/Na_ONCV_PBE-1.0.oncvpsp.upf
     MD5 check sum: 24a298df0a6742ae313db96548fdb2a4
     Pseudo is Norm-conserving, Zval =  9.0
     Generated using ONCVPSP code by D. R. Hamann
     Using radial grid of 1992 points,  4 beta functions with: 
                l(1) =   0
                l(2) =   0
                l(3) =   1
                l(4) =   1

     PseudoPot. # 3 for O  read from file:
     /opt/QEpot/SSSP_precision_pseudos/O.pbe-n-kjpaw_psl.0.1.UPF
     MD5 check sum: 0234752ac141de4415c5fc33072bef88
     Pseudo is Projector augmented-wave + core cor, Zval =  6.0
     Generated using "atomic" code by A. Dal Corso  v.5.0.99 svn rev. 10869
     Shape of augmentation charge: BESSEL
     Using radial grid of 1095 points,  4 beta functions with: 
                l(1) =   0
                l(2) =   0
                l(3) =   1
                l(4) =   1
     Q(r) pseudized with 0 coefficients 


     PseudoPot. # 4 for P  read from file:
     /opt/QEpot/SSSP_precision_pseudos/P.pbe-n-rrkjus_psl.1.0.0.UPF
     MD5 check sum: 8b930f418f0a4573dca56cd030ffe088
     Pseudo is Ultrasoft + core correction, Zval =  5.0
     Generated using "atomic" code by A. Dal Corso  v.5.1
     Using radial grid of 1147 points,  6 beta functions with: 
                l(1) =   0
                l(2) =   0
                l(3) =   1
                l(4) =   1
                l(5) =   2
                l(6) =   2
     Q(r) pseudized with 0 coefficients 


     atomic species   valence    mass     pseudopotential
        Fe            16.00    55.84500     Fe( 1.00)
        Na             9.00    22.98977     Na( 1.00)
        O              6.00    15.99940     O ( 1.00)
        P              5.00    30.97376     P ( 1.00)

     Starting magnetic structure 
     atomic species   magnetization
        Fe           0.312
        Na           0.000
        O            0.000
        P            0.000

      2 Sym. Ops., with inversion, found ( 1 have fractional translation)


                                    s                        frac. trans.

      isym =  1     identity                                     

 cryst.   s( 1) = (     1          0          0      )
                  (     0          1          0      )
                  (     0          0          1      )

 cart.    s( 1) = (  1.0000000  0.0000000  0.0000000 )
                  (  0.0000000  1.0000000  0.0000000 )
                  (  0.0000000  0.0000000  1.0000000 )


      isym =  2     inversion                                    

 cryst.   s( 2) = (    -1          0          0      )    f =( -0.0000060 )
                  (     0         -1          0      )       ( -0.0000040 )
                  (     0          0         -1      )       ( -0.0000060 )

 cart.    s( 2) = ( -1.0000000  0.0000000  0.0000000 )    f =( -0.0000060 )
                  (  0.0000000 -1.0000000  0.0000000 )       ( -0.0000024 )
                  (  0.0000000  0.0000000 -1.0000000 )       ( -0.0000029 )


   Cartesian axes

     site n.     atom                  positions (alat units)
         1           Na  tau(   1) = (   0.0000030   0.0000012   0.0000014  )
         2           Na  tau(   2) = (   0.5000030   0.0000012   0.2376892  )
         3           Na  tau(   3) = (   0.0000030   0.2987962   0.0000014  )
         4           Na  tau(   4) = (   0.5000030   0.2987962   0.2376892  )
         5           Fe  tau(   5) = (   0.2868420   0.4481918   0.4667146  )
         6           Fe  tau(   6) = (   0.2131640   0.1494005   0.2290269  )
         7           Fe  tau(   7) = (   0.7131640   0.1494005   0.0086637  )
         8           Fe  tau(   8) = (   0.7868410   0.4481918   0.2463515  )
         9           P   tau(   9) = (   0.1082720   0.4481948   0.2101635  )
        10           P   tau(  10) = (   0.3917330   0.1493981   0.4478517  )
        11           P   tau(  11) = (   0.8917330   0.1493981   0.2652148  )
        12           P   tau(  12) = (   0.6082730   0.4481948   0.0275266  )
        13           O   tau(  13) = (   0.1122130   0.4481936   0.3581812  )
        14           O   tau(  14) = (   0.3877920   0.1493993   0.1204934  )
        15           O   tau(  15) = (   0.8877930   0.1493993   0.1171972  )
        16           O   tau(  16) = (   0.6122130   0.4481936   0.3548849  )
        17           O   tau(  17) = (   0.4671820   0.4481936   0.0774967  )
        18           O   tau(  18) = (   0.0328240   0.1493987   0.3151844  )
        19           O   tau(  19) = (   0.5328240   0.1493987   0.3978817  )
        20           O   tau(  20) = (   0.9671820   0.4481936   0.1601935  )
        21           O   tau(  21) = (   0.1790170   0.5668881   0.1484170  )
        22           O   tau(  22) = (   0.3209880   0.0307048   0.3861047  )
        23           O   tau(  23) = (   0.8209870   0.2680908   0.3269623  )
        24           O   tau(  24) = (   0.6790190   0.3295021   0.0892746  )
        25           O   tau(  25) = (   0.8209880   0.0307048   0.3269614  )
        26           O   tau(  26) = (   0.6790180   0.5668881   0.0892736  )
        27           O   tau(  27) = (   0.1790190   0.3295021   0.1484160  )
        28           O   tau(  28) = (   0.3209870   0.2680908   0.3861038  )

   Crystallographic axes

     site n.     atom                  positions (cryst. coord.)
         1           Na  tau(   1) = (  0.0000030  0.0000020  0.0000030  )
         2           Na  tau(   2) = (  0.5000030  0.0000020  0.5000030  )
         3           Na  tau(   3) = (  0.0000030  0.5000020  0.0000030  )
         4           Na  tau(   4) = (  0.5000030  0.5000020  0.5000030  )
         5           Fe  tau(   5) = (  0.2868420  0.7499990  0.9817810  )
         6           Fe  tau(   6) = (  0.2131640  0.2500050  0.4817810  )
         7           Fe  tau(   7) = (  0.7131640  0.2500050  0.0182250  )
         8           Fe  tau(   8) = (  0.7868410  0.7499990  0.5182250  )
         9           P   tau(   9) = (  0.1082720  0.7500040  0.4421000  )
        10           P   tau(  10) = (  0.3917330  0.2500010  0.9421010  )
        11           P   tau(  11) = (  0.8917330  0.2500010  0.5579060  )
        12           P   tau(  12) = (  0.6082730  0.7500040  0.0579050  )
        13           O   tau(  13) = (  0.1122130  0.7500020  0.7534700  )
        14           O   tau(  14) = (  0.3877920  0.2500030  0.2534700  )
        15           O   tau(  15) = (  0.8877930  0.2500030  0.2465360  )
        16           O   tau(  16) = (  0.6122130  0.7500020  0.7465360  )
        17           O   tau(  17) = (  0.4671820  0.7500020  0.1630220  )
        18           O   tau(  18) = (  0.0328240  0.2500020  0.6630220  )
        19           O   tau(  19) = (  0.5328240  0.2500020  0.8369840  )
        20           O   tau(  20) = (  0.9671820  0.7500020  0.3369830  )
        21           O   tau(  21) = (  0.1790170  0.9486240  0.3122100  )
        22           O   tau(  22) = (  0.3209880  0.0513810  0.8122100  )
        23           O   tau(  23) = (  0.8209870  0.4486200  0.6877980  )
        24           O   tau(  24) = (  0.6790190  0.5513850  0.1877980  )
        25           O   tau(  25) = (  0.8209880  0.0513810  0.6877960  )
        26           O   tau(  26) = (  0.6790180  0.9486240  0.1877960  )
        27           O   tau(  27) = (  0.1790190  0.5513850  0.3122080  )
        28           O   tau(  28) = (  0.3209870  0.4486200  0.8122080  )

     number of k points=   158  Marzari-Vanderbilt smearing, width (Ry)=  0.0073
                       cart. coord. in units 2pi/alat
        k(    1) = (   0.0000000   0.0000000   0.0000000), wk =   0.0031746
        k(    2) = (   0.0000000   0.0000000   0.2337334), wk =   0.0063492
        k(    3) = (   0.0000000   0.0000000   0.4674667), wk =   0.0063492
        k(    4) = (   0.0000000   0.0000000   0.7012001), wk =   0.0063492
        k(    5) = (   0.0000000   0.0000000   0.9349334), wk =   0.0063492
        k(    6) = (   0.0000000   0.2390555   0.0000000), wk =   0.0063492
        k(    7) = (   0.0000000   0.2390555   0.2337334), wk =   0.0063492
        k(    8) = (   0.0000000   0.2390555   0.4674667), wk =   0.0063492
        k(    9) = (   0.0000000   0.2390555   0.7012001), wk =   0.0063492
        k(   10) = (   0.0000000   0.2390555   0.9349334), wk =   0.0063492
        k(   11) = (   0.0000000   0.4781110   0.0000000), wk =   0.0063492
        k(   12) = (   0.0000000   0.4781110   0.2337334), wk =   0.0063492
        k(   13) = (   0.0000000   0.4781110   0.4674667), wk =   0.0063492
        k(   14) = (   0.0000000   0.4781110   0.7012001), wk =   0.0063492
        k(   15) = (   0.0000000   0.4781110   0.9349334), wk =   0.0063492
        k(   16) = (   0.0000000   0.7171664   0.0000000), wk =   0.0063492
        k(   17) = (   0.0000000   0.7171664   0.2337334), wk =   0.0063492
        k(   18) = (   0.0000000   0.7171664   0.4674667), wk =   0.0063492
        k(   19) = (   0.0000000   0.7171664   0.7012001), wk =   0.0063492
        k(   20) = (   0.0000000   0.7171664   0.9349334), wk =   0.0063492
        k(   21) = (   0.2000000   0.0000000   0.0000000), wk =   0.0063492
        k(   22) = (   0.2000000   0.0000000   0.2337334), wk =   0.0063492
        k(   23) = (   0.2000000   0.0000000   0.4674667), wk =   0.0063492
        k(   24) = (   0.2000000   0.0000000   0.7012001), wk =   0.0063492
        k(   25) = (   0.2000000   0.0000000   0.9349334), wk =   0.0063492
        k(   26) = (   0.2000000   0.2390555   0.0000000), wk =   0.0063492
        k(   27) = (   0.2000000   0.2390555   0.2337334), wk =   0.0063492
        k(   28) = (   0.2000000   0.2390555   0.4674667), wk =   0.0063492
        k(   29) = (   0.2000000   0.2390555   0.7012001), wk =   0.0063492
        k(   30) = (   0.2000000   0.2390555   0.9349334), wk =   0.0063492
        k(   31) = (   0.2000000   0.4781110   0.0000000), wk =   0.0063492
        k(   32) = (   0.2000000   0.4781110   0.2337334), wk =   0.0063492
        k(   33) = (   0.2000000   0.4781110   0.4674667), wk =   0.0063492
        k(   34) = (   0.2000000   0.4781110   0.7012001), wk =   0.0063492
        k(   35) = (   0.2000000   0.4781110   0.9349334), wk =   0.0063492
        k(   36) = (   0.2000000   0.7171664   0.0000000), wk =   0.0063492
        k(   37) = (   0.2000000   0.7171664   0.2337334), wk =   0.0063492
        k(   38) = (   0.2000000   0.7171664   0.4674667), wk =   0.0063492
        k(   39) = (   0.2000000   0.7171664   0.7012001), wk =   0.0063492
        k(   40) = (   0.2000000   0.7171664   0.9349334), wk =   0.0063492
        k(   41) = (   0.4000000   0.0000000   0.0000000), wk =   0.0063492
        k(   42) = (   0.4000000   0.0000000   0.2337334), wk =   0.0063492
        k(   43) = (   0.4000000   0.0000000   0.4674667), wk =   0.0063492
        k(   44) = (   0.4000000   0.0000000   0.7012001), wk =   0.0063492
        k(   45) = (   0.4000000   0.0000000   0.9349334), wk =   0.0063492
        k(   46) = (   0.4000000   0.2390555   0.0000000), wk =   0.0063492
        k(   47) = (   0.4000000   0.2390555   0.2337334), wk =   0.0063492
        k(   48) = (   0.4000000   0.2390555   0.4674667), wk =   0.0063492
        k(   49) = (   0.4000000   0.2390555   0.7012001), wk =   0.0063492
        k(   50) = (   0.4000000   0.2390555   0.9349334), wk =   0.0063492
        k(   51) = (   0.4000000   0.4781110   0.0000000), wk =   0.0063492
        k(   52) = (   0.4000000   0.4781110   0.2337334), wk =   0.0063492
        k(   53) = (   0.4000000   0.4781110   0.4674667), wk =   0.0063492
        k(   54) = (   0.4000000   0.4781110   0.7012001), wk =   0.0063492
        k(   55) = (   0.4000000   0.4781110   0.9349334), wk =   0.0063492
        k(   56) = (   0.4000000   0.7171664   0.0000000), wk =   0.0063492
        k(   57) = (   0.4000000   0.7171664   0.2337334), wk =   0.0063492
        k(   58) = (   0.4000000   0.7171664   0.4674667), wk =   0.0063492
        k(   59) = (   0.4000000   0.7171664   0.7012001), wk =   0.0063492
        k(   60) = (   0.4000000   0.7171664   0.9349334), wk =   0.0063492
        k(   61) = (   0.0000000   0.2390555  -0.2337334), wk =   0.0063492
        k(   62) = (   0.0000000   0.2390555  -0.4674667), wk =   0.0063492
        k(   63) = (   0.0000000   0.2390555  -0.7012001), wk =   0.0063492
        k(   64) = (   0.0000000   0.2390555  -0.9349334), wk =   0.0063492
        k(   65) = (   0.0000000   0.4781110  -0.2337334), wk =   0.0063492
        k(   66) = (   0.0000000   0.4781110  -0.4674667), wk =   0.0063492
        k(   67) = (   0.0000000   0.4781110  -0.7012001), wk =   0.0063492
        k(   68) = (   0.0000000   0.4781110  -0.9349334), wk =   0.0063492
        k(   69) = (   0.0000000   0.7171664  -0.2337334), wk =   0.0063492
        k(   70) = (   0.0000000   0.7171664  -0.4674667), wk =   0.0063492
        k(   71) = (   0.0000000   0.7171664  -0.7012001), wk =   0.0063492
        k(   72) = (   0.0000000   0.7171664  -0.9349334), wk =   0.0063492
        k(   73) = (   0.2000000   0.0000000  -0.2337334), wk =   0.0063492
        k(   74) = (   0.2000000   0.0000000  -0.4674667), wk =   0.0063492
        k(   75) = (   0.2000000   0.0000000  -0.7012001), wk =   0.0063492
        k(   76) = (   0.2000000   0.0000000  -0.9349334), wk =   0.0063492
        k(   77) = (  -0.2000000   0.2390555   0.0000000), wk =   0.0063492
        k(   78) = (  -0.2000000   0.2390555  -0.2337334), wk =   0.0063492
        k(   79) = (   0.2000000  -0.2390555  -0.2337334), wk =   0.0063492
        k(   80) = (  -0.2000000  -0.2390555   0.2337334), wk =   0.0063492
        k(   81) = (  -0.2000000   0.2390555  -0.4674667), wk =   0.0063492
        k(   82) = (   0.2000000  -0.2390555  -0.4674667), wk =   0.0063492
        k(   83) = (  -0.2000000  -0.2390555   0.4674667), wk =   0.0063492
        k(   84) = (  -0.2000000   0.2390555  -0.7012001), wk =   0.0063492
        k(   85) = (   0.2000000  -0.2390555  -0.7012001), wk =   0.0063492
        k(   86) = (  -0.2000000  -0.2390555   0.7012001), wk =   0.0063492
        k(   87) = (  -0.2000000   0.2390555  -0.9349334), wk =   0.0063492
        k(   88) = (   0.2000000  -0.2390555  -0.9349334), wk =   0.0063492
        k(   89) = (  -0.2000000  -0.2390555   0.9349334), wk =   0.0063492
        k(   90) = (  -0.2000000   0.4781110   0.0000000), wk =   0.0063492
        k(   91) = (  -0.2000000   0.4781110  -0.2337334), wk =   0.0063492
        k(   92) = (   0.2000000  -0.4781110  -0.2337334), wk =   0.0063492
        k(   93) = (  -0.2000000  -0.4781110   0.2337334), wk =   0.0063492
        k(   94) = (  -0.2000000   0.4781110  -0.4674667), wk =   0.0063492
        k(   95) = (   0.2000000  -0.4781110  -0.4674667), wk =   0.0063492
        k(   96) = (  -0.2000000  -0.4781110   0.4674667), wk =   0.0063492
        k(   97) = (  -0.2000000   0.4781110  -0.7012001), wk =   0.0063492
        k(   98) = (   0.2000000  -0.4781110  -0.7012001), wk =   0.0063492
        k(   99) = (  -0.2000000  -0.4781110   0.7012001), wk =   0.0063492
        k(  100) = (  -0.2000000   0.4781110  -0.9349334), wk =   0.0063492
        k(  101) = (   0.2000000  -0.4781110  -0.9349334), wk =   0.0063492
        k(  102) = (  -0.2000000  -0.4781110   0.9349334), wk =   0.0063492
        k(  103) = (  -0.2000000   0.7171664   0.0000000), wk =   0.0063492
        k(  104) = (  -0.2000000   0.7171664  -0.2337334), wk =   0.0063492
        k(  105) = (   0.2000000  -0.7171664  -0.2337334), wk =   0.0063492
        k(  106) = (  -0.2000000  -0.7171664   0.2337334), wk =   0.0063492
        k(  107) = (  -0.2000000   0.7171664  -0.4674667), wk =   0.0063492
        k(  108) = (   0.2000000  -0.7171664  -0.4674667), wk =   0.0063492
        k(  109) = (  -0.2000000  -0.7171664   0.4674667), wk =   0.0063492
        k(  110) = (  -0.2000000   0.7171664  -0.7012001), wk =   0.0063492
        k(  111) = (   0.2000000  -0.7171664  -0.7012001), wk =   0.0063492
        k(  112) = (  -0.2000000  -0.7171664   0.7012001), wk =   0.0063492
        k(  113) = (  -0.2000000   0.7171664  -0.9349334), wk =   0.0063492
        k(  114) = (   0.2000000  -0.7171664  -0.9349334), wk =   0.0063492
        k(  115) = (  -0.2000000  -0.7171664   0.9349334), wk =   0.0063492
        k(  116) = (   0.4000000   0.0000000  -0.2337334), wk =   0.0063492
        k(  117) = (   0.4000000   0.0000000  -0.4674667), wk =   0.0063492
        k(  118) = (   0.4000000   0.0000000  -0.7012001), wk =   0.0063492
        k(  119) = (   0.4000000   0.0000000  -0.9349334), wk =   0.0063492
        k(  120) = (  -0.4000000   0.2390555   0.0000000), wk =   0.0063492
        k(  121) = (  -0.4000000   0.2390555  -0.2337334), wk =   0.0063492
        k(  122) = (   0.4000000  -0.2390555  -0.2337334), wk =   0.0063492
        k(  123) = (  -0.4000000  -0.2390555   0.2337334), wk =   0.0063492
        k(  124) = (  -0.4000000   0.2390555  -0.4674667), wk =   0.0063492
        k(  125) = (   0.4000000  -0.2390555  -0.4674667), wk =   0.0063492
        k(  126) = (  -0.4000000  -0.2390555   0.4674667), wk =   0.0063492
        k(  127) = (  -0.4000000   0.2390555  -0.7012001), wk =   0.0063492
        k(  128) = (   0.4000000  -0.2390555  -0.7012001), wk =   0.0063492
        k(  129) = (  -0.4000000  -0.2390555   0.7012001), wk =   0.0063492
        k(  130) = (  -0.4000000   0.2390555  -0.9349334), wk =   0.0063492
        k(  131) = (   0.4000000  -0.2390555  -0.9349334), wk =   0.0063492
        k(  132) = (  -0.4000000  -0.2390555   0.9349334), wk =   0.0063492
        k(  133) = (  -0.4000000   0.4781110   0.0000000), wk =   0.0063492
        k(  134) = (  -0.4000000   0.4781110  -0.2337334), wk =   0.0063492
        k(  135) = (   0.4000000  -0.4781110  -0.2337334), wk =   0.0063492
        k(  136) = (  -0.4000000  -0.4781110   0.2337334), wk =   0.0063492
        k(  137) = (  -0.4000000   0.4781110  -0.4674667), wk =   0.0063492
        k(  138) = (   0.4000000  -0.4781110  -0.4674667), wk =   0.0063492
        k(  139) = (  -0.4000000  -0.4781110   0.4674667), wk =   0.0063492
        k(  140) = (  -0.4000000   0.4781110  -0.7012001), wk =   0.0063492
        k(  141) = (   0.4000000  -0.4781110  -0.7012001), wk =   0.0063492
        k(  142) = (  -0.4000000  -0.4781110   0.7012001), wk =   0.0063492
        k(  143) = (  -0.4000000   0.4781110  -0.9349334), wk =   0.0063492
        k(  144) = (   0.4000000  -0.4781110  -0.9349334), wk =   0.0063492
        k(  145) = (  -0.4000000  -0.4781110   0.9349334), wk =   0.0063492
        k(  146) = (  -0.4000000   0.7171664   0.0000000), wk =   0.0063492
        k(  147) = (  -0.4000000   0.7171664  -0.2337334), wk =   0.0063492
        k(  148) = (   0.4000000  -0.7171664  -0.2337334), wk =   0.0063492
        k(  149) = (  -0.4000000  -0.7171664   0.2337334), wk =   0.0063492
        k(  150) = (  -0.4000000   0.7171664  -0.4674667), wk =   0.0063492
        k(  151) = (   0.4000000  -0.7171664  -0.4674667), wk =   0.0063492
        k(  152) = (  -0.4000000  -0.7171664   0.4674667), wk =   0.0063492
        k(  153) = (  -0.4000000   0.7171664  -0.7012001), wk =   0.0063492
        k(  154) = (   0.4000000  -0.7171664  -0.7012001), wk =   0.0063492
        k(  155) = (  -0.4000000  -0.7171664   0.7012001), wk =   0.0063492
        k(  156) = (  -0.4000000   0.7171664  -0.9349334), wk =   0.0063492
        k(  157) = (   0.4000000  -0.7171664  -0.9349334), wk =   0.0063492
        k(  158) = (  -0.4000000  -0.7171664   0.9349334), wk =   0.0063492

                       cryst. coord.
        k(    1) = (   0.0000000   0.0000000   0.0000000), wk =   0.0031746
        k(    2) = (   0.0000000   0.0000000   0.1111111), wk =   0.0063492
        k(    3) = (   0.0000000   0.0000000   0.2222222), wk =   0.0063492
        k(    4) = (   0.0000000   0.0000000   0.3333333), wk =   0.0063492
        k(    5) = (   0.0000000   0.0000000   0.4444444), wk =   0.0063492
        k(    6) = (   0.0000000   0.1428571   0.0000000), wk =   0.0063492
        k(    7) = (   0.0000000   0.1428571   0.1111111), wk =   0.0063492
        k(    8) = (   0.0000000   0.1428571   0.2222222), wk =   0.0063492
        k(    9) = (   0.0000000   0.1428571   0.3333333), wk =   0.0063492
        k(   10) = (   0.0000000   0.1428571   0.4444444), wk =   0.0063492
        k(   11) = (   0.0000000   0.2857143   0.0000000), wk =   0.0063492
        k(   12) = (   0.0000000   0.2857143   0.1111111), wk =   0.0063492
        k(   13) = (   0.0000000   0.2857143   0.2222222), wk =   0.0063492
        k(   14) = (   0.0000000   0.2857143   0.3333333), wk =   0.0063492
        k(   15) = (   0.0000000   0.2857143   0.4444444), wk =   0.0063492
        k(   16) = (   0.0000000   0.4285714   0.0000000), wk =   0.0063492
        k(   17) = (   0.0000000   0.4285714   0.1111111), wk =   0.0063492
        k(   18) = (   0.0000000   0.4285714   0.2222222), wk =   0.0063492
        k(   19) = (   0.0000000   0.4285714   0.3333333), wk =   0.0063492
        k(   20) = (   0.0000000   0.4285714   0.4444444), wk =   0.0063492
        k(   21) = (   0.2000000   0.0000000   0.0000000), wk =   0.0063492
        k(   22) = (   0.2000000   0.0000000   0.1111111), wk =   0.0063492
        k(   23) = (   0.2000000   0.0000000   0.2222222), wk =   0.0063492
        k(   24) = (   0.2000000   0.0000000   0.3333333), wk =   0.0063492
        k(   25) = (   0.2000000   0.0000000   0.4444444), wk =   0.0063492
        k(   26) = (   0.2000000   0.1428571   0.0000000), wk =   0.0063492
        k(   27) = (   0.2000000   0.1428571   0.1111111), wk =   0.0063492
        k(   28) = (   0.2000000   0.1428571   0.2222222), wk =   0.0063492
        k(   29) = (   0.2000000   0.1428571   0.3333333), wk =   0.0063492
        k(   30) = (   0.2000000   0.1428571   0.4444444), wk =   0.0063492
        k(   31) = (   0.2000000   0.2857143   0.0000000), wk =   0.0063492
        k(   32) = (   0.2000000   0.2857143   0.1111111), wk =   0.0063492
        k(   33) = (   0.2000000   0.2857143   0.2222222), wk =   0.0063492
        k(   34) = (   0.2000000   0.2857143   0.3333333), wk =   0.0063492
        k(   35) = (   0.2000000   0.2857143   0.4444444), wk =   0.0063492
        k(   36) = (   0.2000000   0.4285714   0.0000000), wk =   0.0063492
        k(   37) = (   0.2000000   0.4285714   0.1111111), wk =   0.0063492
        k(   38) = (   0.2000000   0.4285714   0.2222222), wk =   0.0063492
        k(   39) = (   0.2000000   0.4285714   0.3333333), wk =   0.0063492
        k(   40) = (   0.2000000   0.4285714   0.4444444), wk =   0.0063492
        k(   41) = (   0.4000000   0.0000000   0.0000000), wk =   0.0063492
        k(   42) = (   0.4000000   0.0000000   0.1111111), wk =   0.0063492
        k(   43) = (   0.4000000   0.0000000   0.2222222), wk =   0.0063492
        k(   44) = (   0.4000000   0.0000000   0.3333333), wk =   0.0063492
        k(   45) = (   0.4000000   0.0000000   0.4444444), wk =   0.0063492
        k(   46) = (   0.4000000   0.1428571   0.0000000), wk =   0.0063492
        k(   47) = (   0.4000000   0.1428571   0.1111111), wk =   0.0063492
        k(   48) = (   0.4000000   0.1428571   0.2222222), wk =   0.0063492
        k(   49) = (   0.4000000   0.1428571   0.3333333), wk =   0.0063492
        k(   50) = (   0.4000000   0.1428571   0.4444444), wk =   0.0063492
        k(   51) = (   0.4000000   0.2857143   0.0000000), wk =   0.0063492
        k(   52) = (   0.4000000   0.2857143   0.1111111), wk =   0.0063492
        k(   53) = (   0.4000000   0.2857143   0.2222222), wk =   0.0063492
        k(   54) = (   0.4000000   0.2857143   0.3333333), wk =   0.0063492
        k(   55) = (   0.4000000   0.2857143   0.4444444), wk =   0.0063492
        k(   56) = (   0.4000000   0.4285714   0.0000000), wk =   0.0063492
        k(   57) = (   0.4000000   0.4285714   0.1111111), wk =   0.0063492
        k(   58) = (   0.4000000   0.4285714   0.2222222), wk =   0.0063492
        k(   59) = (   0.4000000   0.4285714   0.3333333), wk =   0.0063492
        k(   60) = (   0.4000000   0.4285714   0.4444444), wk =   0.0063492
        k(   61) = (   0.0000000   0.1428571  -0.1111111), wk =   0.0063492
        k(   62) = (   0.0000000   0.1428571  -0.2222222), wk =   0.0063492
        k(   63) = (   0.0000000   0.1428571  -0.3333333), wk =   0.0063492
        k(   64) = (   0.0000000   0.1428571  -0.4444444), wk =   0.0063492
        k(   65) = (   0.0000000   0.2857143  -0.1111111), wk =   0.0063492
        k(   66) = (   0.0000000   0.2857143  -0.2222222), wk =   0.0063492
        k(   67) = (   0.0000000   0.2857143  -0.3333333), wk =   0.0063492
        k(   68) = (   0.0000000   0.2857143  -0.4444444), wk =   0.0063492
        k(   69) = (   0.0000000   0.4285714  -0.1111111), wk =   0.0063492
        k(   70) = (   0.0000000   0.4285714  -0.2222222), wk =   0.0063492
        k(   71) = (   0.0000000   0.4285714  -0.3333333), wk =   0.0063492
        k(   72) = (   0.0000000   0.4285714  -0.4444444), wk =   0.0063492
        k(   73) = (   0.2000000   0.0000000  -0.1111111), wk =   0.0063492
        k(   74) = (   0.2000000   0.0000000  -0.2222222), wk =   0.0063492
        k(   75) = (   0.2000000   0.0000000  -0.3333333), wk =   0.0063492
        k(   76) = (   0.2000000   0.0000000  -0.4444444), wk =   0.0063492
        k(   77) = (  -0.2000000   0.1428571   0.0000000), wk =   0.0063492
        k(   78) = (  -0.2000000   0.1428571  -0.1111111), wk =   0.0063492
        k(   79) = (   0.2000000  -0.1428571  -0.1111111), wk =   0.0063492
        k(   80) = (  -0.2000000  -0.1428571   0.1111111), wk =   0.0063492
        k(   81) = (  -0.2000000   0.1428571  -0.2222222), wk =   0.0063492
        k(   82) = (   0.2000000  -0.1428571  -0.2222222), wk =   0.0063492
        k(   83) = (  -0.2000000  -0.1428571   0.2222222), wk =   0.0063492
        k(   84) = (  -0.2000000   0.1428571  -0.3333333), wk =   0.0063492
        k(   85) = (   0.2000000  -0.1428571  -0.3333333), wk =   0.0063492
        k(   86) = (  -0.2000000  -0.1428571   0.3333333), wk =   0.0063492
        k(   87) = (  -0.2000000   0.1428571  -0.4444444), wk =   0.0063492
        k(   88) = (   0.2000000  -0.1428571  -0.4444444), wk =   0.0063492
        k(   89) = (  -0.2000000  -0.1428571   0.4444444), wk =   0.0063492
        k(   90) = (  -0.2000000   0.2857143   0.0000000), wk =   0.0063492
        k(   91) = (  -0.2000000   0.2857143  -0.1111111), wk =   0.0063492
        k(   92) = (   0.2000000  -0.2857143  -0.1111111), wk =   0.0063492
        k(   93) = (  -0.2000000  -0.2857143   0.1111111), wk =   0.0063492
        k(   94) = (  -0.2000000   0.2857143  -0.2222222), wk =   0.0063492
        k(   95) = (   0.2000000  -0.2857143  -0.2222222), wk =   0.0063492
        k(   96) = (  -0.2000000  -0.2857143   0.2222222), wk =   0.0063492
        k(   97) = (  -0.2000000   0.2857143  -0.3333333), wk =   0.0063492
        k(   98) = (   0.2000000  -0.2857143  -0.3333333), wk =   0.0063492
        k(   99) = (  -0.2000000  -0.2857143   0.3333333), wk =   0.0063492
        k(  100) = (  -0.2000000   0.2857143  -0.4444444), wk =   0.0063492
        k(  101) = (   0.2000000  -0.2857143  -0.4444444), wk =   0.0063492
        k(  102) = (  -0.2000000  -0.2857143   0.4444444), wk =   0.0063492
        k(  103) = (  -0.2000000   0.4285714   0.0000000), wk =   0.0063492
        k(  104) = (  -0.2000000   0.4285714  -0.1111111), wk =   0.0063492
        k(  105) = (   0.2000000  -0.4285714  -0.1111111), wk =   0.0063492
        k(  106) = (  -0.2000000  -0.4285714   0.1111111), wk =   0.0063492
        k(  107) = (  -0.2000000   0.4285714  -0.2222222), wk =   0.0063492
        k(  108) = (   0.2000000  -0.4285714  -0.2222222), wk =   0.0063492
        k(  109) = (  -0.2000000  -0.4285714   0.2222222), wk =   0.0063492
        k(  110) = (  -0.2000000   0.4285714  -0.3333333), wk =   0.0063492
        k(  111) = (   0.2000000  -0.4285714  -0.3333333), wk =   0.0063492
        k(  112) = (  -0.2000000  -0.4285714   0.3333333), wk =   0.0063492
        k(  113) = (  -0.2000000   0.4285714  -0.4444444), wk =   0.0063492
        k(  114) = (   0.2000000  -0.4285714  -0.4444444), wk =   0.0063492
        k(  115) = (  -0.2000000  -0.4285714   0.4444444), wk =   0.0063492
        k(  116) = (   0.4000000   0.0000000  -0.1111111), wk =   0.0063492
        k(  117) = (   0.4000000   0.0000000  -0.2222222), wk =   0.0063492
        k(  118) = (   0.4000000   0.0000000  -0.3333333), wk =   0.0063492
        k(  119) = (   0.4000000   0.0000000  -0.4444444), wk =   0.0063492
        k(  120) = (  -0.4000000   0.1428571   0.0000000), wk =   0.0063492
        k(  121) = (  -0.4000000   0.1428571  -0.1111111), wk =   0.0063492
        k(  122) = (   0.4000000  -0.1428571  -0.1111111), wk =   0.0063492
        k(  123) = (  -0.4000000  -0.1428571   0.1111111), wk =   0.0063492
        k(  124) = (  -0.4000000   0.1428571  -0.2222222), wk =   0.0063492
        k(  125) = (   0.4000000  -0.1428571  -0.2222222), wk =   0.0063492
        k(  126) = (  -0.4000000  -0.1428571   0.2222222), wk =   0.0063492
        k(  127) = (  -0.4000000   0.1428571  -0.3333333), wk =   0.0063492
        k(  128) = (   0.4000000  -0.1428571  -0.3333333), wk =   0.0063492
        k(  129) = (  -0.4000000  -0.1428571   0.3333333), wk =   0.0063492
        k(  130) = (  -0.4000000   0.1428571  -0.4444444), wk =   0.0063492
        k(  131) = (   0.4000000  -0.1428571  -0.4444444), wk =   0.0063492
        k(  132) = (  -0.4000000  -0.1428571   0.4444444), wk =   0.0063492
        k(  133) = (  -0.4000000   0.2857143   0.0000000), wk =   0.0063492
        k(  134) = (  -0.4000000   0.2857143  -0.1111111), wk =   0.0063492
        k(  135) = (   0.4000000  -0.2857143  -0.1111111), wk =   0.0063492
        k(  136) = (  -0.4000000  -0.2857143   0.1111111), wk =   0.0063492
        k(  137) = (  -0.4000000   0.2857143  -0.2222222), wk =   0.0063492
        k(  138) = (   0.4000000  -0.2857143  -0.2222222), wk =   0.0063492
        k(  139) = (  -0.4000000  -0.2857143   0.2222222), wk =   0.0063492
        k(  140) = (  -0.4000000   0.2857143  -0.3333333), wk =   0.0063492
        k(  141) = (   0.4000000  -0.2857143  -0.3333333), wk =   0.0063492
        k(  142) = (  -0.4000000  -0.2857143   0.3333333), wk =   0.0063492
        k(  143) = (  -0.4000000   0.2857143  -0.4444444), wk =   0.0063492
        k(  144) = (   0.4000000  -0.2857143  -0.4444444), wk =   0.0063492
        k(  145) = (  -0.4000000  -0.2857143   0.4444444), wk =   0.0063492
        k(  146) = (  -0.4000000   0.4285714   0.0000000), wk =   0.0063492
        k(  147) = (  -0.4000000   0.4285714  -0.1111111), wk =   0.0063492
        k(  148) = (   0.4000000  -0.4285714  -0.1111111), wk =   0.0063492
        k(  149) = (  -0.4000000  -0.4285714   0.1111111), wk =   0.0063492
        k(  150) = (  -0.4000000   0.4285714  -0.2222222), wk =   0.0063492
        k(  151) = (   0.4000000  -0.4285714  -0.2222222), wk =   0.0063492
        k(  152) = (  -0.4000000  -0.4285714   0.2222222), wk =   0.0063492
        k(  153) = (  -0.4000000   0.4285714  -0.3333333), wk =   0.0063492
        k(  154) = (   0.4000000  -0.4285714  -0.3333333), wk =   0.0063492
        k(  155) = (  -0.4000000  -0.4285714   0.3333333), wk =   0.0063492
        k(  156) = (  -0.4000000   0.4285714  -0.4444444), wk =   0.0063492
        k(  157) = (   0.4000000  -0.4285714  -0.4444444), wk =   0.0063492
        k(  158) = (  -0.4000000  -0.4285714   0.4444444), wk =   0.0063492

     Dense  grid:  1360823 G-vectors     FFT dimensions: ( 216, 125, 100)

     Smooth grid:   306739 G-vectors     FFT dimensions: ( 128,  80,  64)

     Dynamical RAM for                 wfc:       1.58 MB

     Dynamical RAM for     wfc (w. buffer):     501.79 MB

     Dynamical RAM for           str. fact:       1.73 MB

     Dynamical RAM for           local pot:       0.00 MB

     Dynamical RAM for          nlocal pot:       3.70 MB

     Dynamical RAM for                qrad:      10.54 MB

     Dynamical RAM for          rho,v,vnew:       6.30 MB

     Dynamical RAM for               rhoin:       2.10 MB

     Dynamical RAM for            rho*nmix:      13.84 MB

     Dynamical RAM for           G-vectors:       1.67 MB

     Dynamical RAM for          h,s,v(r/c):       3.09 MB

     Dynamical RAM for          <psi|beta>:       0.60 MB

     Dynamical RAM for                 psi:       3.17 MB

     Dynamical RAM for                hpsi:       3.17 MB

     Dynamical RAM for                spsi:       3.17 MB

     Dynamical RAM for      wfcinit/wfcrot:       4.23 MB

     Dynamical RAM for           addusdens:      87.82 MB

     Dynamical RAM for          addusforce:     100.92 MB

     Dynamical RAM for         addusstress:      87.60 MB

     Estimated static dynamical RAM per process >     547.56 MB

     Estimated max dynamical RAM per process >     648.48 MB

     Estimated total dynamical RAM >      30.40 GB

     Check: negative core charge=   -0.000003
     Generating pointlists ...
     new r_m :   0.0824 (alat units)  1.6483 (a.u.) for type    1
     new r_m :   0.0910 (alat units)  1.8189 (a.u.) for type    2
     new r_m :   0.0611 (alat units)  1.2211 (a.u.) for type    3
     new r_m :   0.0611 (alat units)  1.2211 (a.u.) for type    4

     Initial potential from superposition of free atoms

     starting charge  215.97252, renormalised to  216.00000
     Starting wfcs are  152 randomized atomic wfcs
     Checking if some PAW data can be deallocated... 
       PAW data deallocated on   40 nodes for type:  1
       PAW data deallocated on   24 nodes for type:  3

     total cpu time spent up to now is     2732.7 secs

     Self-consistent Calculation

     iteration #  1     ecut=   100.00 Ry     beta= 0.40
     Davidson diagonalization with overlap
     ethr =  1.00E-02,  avg # of iterations =  3.1

     negative rho (up, down):  0.000E+00 5.969E-05

     total cpu time spent up to now is    10338.7 secs

     total energy              =   -2380.62109741 Ry
     estimated scf accuracy    <       5.69369179 Ry

     total magnetization       =    16.00 Bohr mag/cell
     absolute magnetization    =    16.01 Bohr mag/cell

     iteration #  2     ecut=   100.00 Ry     beta= 0.40
     Davidson diagonalization with overlap
     ethr =  2.64E-03,  avg # of iterations =  2.0

     negative rho (up, down):  0.000E+00 1.600E-04

     total cpu time spent up to now is    17536.2 secs

     total energy              =   -2382.03524100 Ry
     estimated scf accuracy    <       0.57050524 Ry

     total magnetization       =    16.00 Bohr mag/cell
     absolute magnetization    =    16.01 Bohr mag/cell

     iteration #  3     ecut=   100.00 Ry     beta= 0.40
     Davidson diagonalization with overlap
     ethr =  2.64E-04,  avg # of iterations =  9.4

     negative rho (up, down):  0.000E+00 1.746E-04

     total cpu time spent up to now is    25776.9 secs

     total energy              =   -2382.04361831 Ry
     estimated scf accuracy    <       3.62964334 Ry

     total magnetization       =    16.00 Bohr mag/cell
     absolute magnetization    =    16.04 Bohr mag/cell

     iteration #  4     ecut=   100.00 Ry     beta= 0.40
     Davidson diagonalization with overlap
     ethr =  2.64E-04,  avg # of iterations =  2.0

     negative rho (up, down):  0.000E+00 3.111E-04

     total cpu time spent up to now is    31980.2 secs

     total energy              =   -2382.09081817 Ry
     estimated scf accuracy    <       1.50699190 Ry

     total magnetization       =    16.00 Bohr mag/cell
     absolute magnetization    =    16.05 Bohr mag/cell

     iteration #  5     ecut=   100.00 Ry     beta= 0.40
     Davidson diagonalization with overlap
     ethr =  2.64E-04,  avg # of iterations =  1.5

     negative rho (up, down):  0.000E+00 5.193E-04

     total cpu time spent up to now is    37936.5 secs

     total energy              =   -2382.07411944 Ry
     estimated scf accuracy    <       2.21017977 Ry

     total magnetization       =    16.00 Bohr mag/cell
     absolute magnetization    =    16.05 Bohr mag/cell

     iteration #  6     ecut=   100.00 Ry     beta= 0.40
     Davidson diagonalization with overlap
     ethr =  2.64E-04,  avg # of iterations =  1.9

     negative rho (up, down):  0.000E+00 5.396E-04

     total cpu time spent up to now is    43940.1 secs

     total energy              =   -2382.16120104 Ry
     estimated scf accuracy    <       2.29131113 Ry

     total magnetization       =    16.00 Bohr mag/cell
     absolute magnetization    =    16.07 Bohr mag/cell

     iteration #  7     ecut=   100.00 Ry     beta= 0.40
     Davidson diagonalization with overlap
     ethr =  2.64E-04,  avg # of iterations =  1.0

     negative rho (up, down):  0.000E+00 5.597E-04

     total cpu time spent up to now is    49733.7 secs

     total energy              =   -2382.20629406 Ry
     estimated scf accuracy    <       0.07221151 Ry

     total magnetization       =    16.00 Bohr mag/cell
     absolute magnetization    =    16.06 Bohr mag/cell

     iteration #  8     ecut=   100.00 Ry     beta= 0.40
     Davidson diagonalization with overlap
     c_bands:  1 eigenvalues not converged
     c_bands:  1 eigenvalues not converged
     c_bands:  1 eigenvalues not converged
     c_bands:  1 eigenvalues not converged
     c_bands:  1 eigenvalues not converged
     c_bands:  1 eigenvalues not converged
     c_bands:  1 eigenvalues not converged
     c_bands:  1 eigenvalues not converged
     c_bands:  1 eigenvalues not converged
     ethr =  3.34E-05,  avg # of iterations =  4.4

     negative rho (up, down):  0.000E+00 5.589E-04

     total cpu time spent up to now is    56067.3 secs

     total energy              =   -2382.21525976 Ry
     estimated scf accuracy    <       0.35240466 Ry

     total magnetization       =    16.00 Bohr mag/cell
     absolute magnetization    =    16.06 Bohr mag/cell

     iteration #  9     ecut=   100.00 Ry     beta= 0.40
     Davidson diagonalization with overlap
     ethr =  3.34E-05,  avg # of iterations =  1.7

     negative rho (up, down):  0.000E+00 5.582E-04

     total cpu time spent up to now is    61994.6 secs

     total energy              =   -2382.20271044 Ry
     estimated scf accuracy    <       0.53582087 Ry

     total magnetization       =    16.00 Bohr mag/cell
     absolute magnetization    =    16.07 Bohr mag/cell

     iteration # 10     ecut=   100.00 Ry     beta= 0.40
     Davidson diagonalization with overlap
     ethr =  3.34E-05,  avg # of iterations =  1.0

     negative rho (up, down):  0.000E+00 5.568E-04

     total cpu time spent up to now is    67815.1 secs

     total energy              =   -2382.21025732 Ry
     estimated scf accuracy    <       0.08585601 Ry

     total magnetization       =    16.00 Bohr mag/cell
     absolute magnetization    =    16.07 Bohr mag/cell

     iteration # 11     ecut=   100.00 Ry     beta= 0.40
     Davidson diagonalization with overlap
     ethr =  3.34E-05,  avg # of iterations =  1.0

     negative rho (up, down):  0.000E+00 5.502E-04

     total cpu time spent up to now is    73616.9 secs

     total energy              =   -2382.21215874 Ry
     estimated scf accuracy    <       0.07386884 Ry

     total magnetization       =    16.00 Bohr mag/cell
     absolute magnetization    =    16.07 Bohr mag/cell

     iteration # 12     ecut=   100.00 Ry     beta= 0.40
     Davidson diagonalization with overlap
     ethr =  3.34E-05,  avg # of iterations =  1.0

     negative rho (up, down):  0.000E+00 5.463E-04

     total cpu time spent up to now is    79422.7 secs

     total energy              =   -2382.21361420 Ry
     estimated scf accuracy    <       0.05085917 Ry

     total magnetization       =    16.00 Bohr mag/cell
     absolute magnetization    =    16.07 Bohr mag/cell

     iteration # 13     ecut=   100.00 Ry     beta= 0.40
     Davidson diagonalization with overlap
     ethr =  2.35E-05,  avg # of iterations =  1.1

     negative rho (up, down):  0.000E+00 5.468E-04

     total cpu time spent up to now is    85241.6 secs

     total energy              =   -2382.21402861 Ry
     estimated scf accuracy    <       0.04660906 Ry

     total magnetization       =    16.00 Bohr mag/cell
     absolute magnetization    =    16.07 Bohr mag/cell

     iteration # 14     ecut=   100.00 Ry     beta= 0.40
     Davidson diagonalization with overlap
     ethr =  2.16E-05,  avg # of iterations =  1.0

     negative rho (up, down):  0.000E+00 5.439E-04

     total cpu time spent up to now is    91028.5 secs

     total energy              =   -2382.21437086 Ry
     estimated scf accuracy    <       0.04929135 Ry

     total magnetization       =    16.00 Bohr mag/cell
     absolute magnetization    =    16.08 Bohr mag/cell

     iteration # 15     ecut=   100.00 Ry     beta= 0.40
     Davidson diagonalization with overlap
     ethr =  2.16E-05,  avg # of iterations =  1.0

     negative rho (up, down):  0.000E+00 5.415E-04

     total cpu time spent up to now is    96846.7 secs

     total energy              =   -2382.21914447 Ry
     estimated scf accuracy    <       0.04704006 Ry

     total magnetization       =    16.00 Bohr mag/cell
     absolute magnetization    =    16.08 Bohr mag/cell

     iteration # 16     ecut=   100.00 Ry     beta= 0.40
     Davidson diagonalization with overlap
     ethr =  2.16E-05,  avg # of iterations =  2.0

     negative rho (up, down):  0.000E+00 5.416E-04

     total cpu time spent up to now is   103025.8 secs

     total energy              =   -2382.22432008 Ry
     estimated scf accuracy    <       0.02014251 Ry

     total magnetization       =    16.00 Bohr mag/cell
     absolute magnetization    =    16.08 Bohr mag/cell

     iteration # 17     ecut=   100.00 Ry     beta= 0.40
     Davidson diagonalization with overlap
     c_bands:  1 eigenvalues not converged
     c_bands:  1 eigenvalues not converged
     c_bands:  1 eigenvalues not converged
     c_bands:  1 eigenvalues not converged
     c_bands:  1 eigenvalues not converged
     ethr =  9.33E-06,  avg # of iterations =  3.1

     negative rho (up, down):  0.000E+00 5.467E-04

     total cpu time spent up to now is   109185.6 secs

     total energy              =   -2382.22546479 Ry
     estimated scf accuracy    <       0.00562516 Ry

     total magnetization       =    16.00 Bohr mag/cell
     absolute magnetization    =    16.08 Bohr mag/cell

     iteration # 18     ecut=   100.00 Ry     beta= 0.40
     Davidson diagonalization with overlap
     c_bands:  1 eigenvalues not converged
     c_bands:  1 eigenvalues not converged
     c_bands:  1 eigenvalues not converged
     c_bands:  1 eigenvalues not converged
     c_bands:  1 eigenvalues not converged
     c_bands:  1 eigenvalues not converged
     c_bands:  1 eigenvalues not converged
     c_bands:  1 eigenvalues not converged
     c_bands:  1 eigenvalues not converged
     c_bands:  1 eigenvalues not converged
     c_bands:  1 eigenvalues not converged
     c_bands:  1 eigenvalues not converged
     c_bands:  1 eigenvalues not converged
     c_bands:  1 eigenvalues not converged
     c_bands:  1 eigenvalues not converged
     c_bands:  1 eigenvalues not converged
     ethr =  2.60E-06,  avg # of iterations = 10.4

     negative rho (up, down):  0.000E+00 5.505E-04

     total cpu time spent up to now is   116816.4 secs

     total energy              =   -2382.22558963 Ry
     estimated scf accuracy    <       0.00102385 Ry

     total magnetization       =    16.00 Bohr mag/cell
     absolute magnetization    =    16.08 Bohr mag/cell

     iteration # 19     ecut=   100.00 Ry     beta= 0.40
     Davidson diagonalization with overlap
     ethr =  4.74E-07,  avg # of iterations =  2.8

     negative rho (up, down):  0.000E+00 5.492E-04

     total cpu time spent up to now is   123567.9 secs

     total energy              =   -2382.22594547 Ry
     estimated scf accuracy    <       0.00335771 Ry

     total magnetization       =    16.00 Bohr mag/cell
     absolute magnetization    =    16.08 Bohr mag/cell

     iteration # 20     ecut=   100.00 Ry     beta= 0.40
     Davidson diagonalization with overlap
     c_bands:  1 eigenvalues not converged
     ethr =  4.74E-07,  avg # of iterations =  2.1

     negative rho (up, down):  0.000E+00 5.559E-04

     total cpu time spent up to now is   129613.8 secs

     total energy              =   -2382.22608258 Ry
     estimated scf accuracy    <       0.00023864 Ry

     total magnetization       =    16.00 Bohr mag/cell
     absolute magnetization    =    16.08 Bohr mag/cell

     iteration # 21     ecut=   100.00 Ry     beta= 0.40
     Davidson diagonalization with overlap
     ethr =  1.10E-07,  avg # of iterations =  2.2

     negative rho (up, down):  0.000E+00 5.580E-04

     total cpu time spent up to now is   136204.1 secs

     total energy              =   -2382.22618783 Ry
     estimated scf accuracy    <       0.00017270 Ry

     total magnetization       =    16.00 Bohr mag/cell
     absolute magnetization    =    16.07 Bohr mag/cell

     iteration # 22     ecut=   100.00 Ry     beta= 0.40
     Davidson diagonalization with overlap
     ethr =  8.00E-08,  avg # of iterations =  1.8

     negative rho (up, down):  0.000E+00 5.594E-04

     total cpu time spent up to now is   142182.9 secs

     total energy              =   -2382.22624285 Ry
     estimated scf accuracy    <       0.00010418 Ry

     total magnetization       =    16.00 Bohr mag/cell
     absolute magnetization    =    16.07 Bohr mag/cell

     iteration # 23     ecut=   100.00 Ry     beta= 0.40
     Davidson diagonalization with overlap
     ethr =  4.82E-08,  avg # of iterations =  2.0

     negative rho (up, down):  0.000E+00 5.603E-04

     total cpu time spent up to now is   148536.0 secs

     total energy              =   -2382.22625085 Ry
     estimated scf accuracy    <       0.00005469 Ry

     total magnetization       =    16.00 Bohr mag/cell
     absolute magnetization    =    16.07 Bohr mag/cell

     iteration # 24     ecut=   100.00 Ry     beta= 0.40
     Davidson diagonalization with overlap
     ethr =  2.53E-08,  avg # of iterations =  3.3

     negative rho (up, down):  0.000E+00 5.598E-04

     total cpu time spent up to now is   155981.6 secs

     total energy              =   -2382.22619535 Ry
     estimated scf accuracy    <       0.00004403 Ry

     total magnetization       =    16.00 Bohr mag/cell
     absolute magnetization    =    16.07 Bohr mag/cell

     iteration # 25     ecut=   100.00 Ry     beta= 0.40
     Davidson diagonalization with overlap
     ethr =  2.04E-08,  avg # of iterations =  4.0

     negative rho (up, down):  0.000E+00 5.593E-04

     total cpu time spent up to now is   163808.3 secs

     total energy              =   -2382.22647819 Ry
     estimated scf accuracy    <       0.00001148 Ry

     total magnetization       =    16.00 Bohr mag/cell
     absolute magnetization    =    16.07 Bohr mag/cell

     iteration # 26     ecut=   100.00 Ry     beta= 0.40
     Davidson diagonalization with overlap
     ethr =  5.31E-09,  avg # of iterations =  3.6

     negative rho (up, down):  0.000E+00 5.594E-04

     total cpu time spent up to now is   171476.7 secs

     total energy              =   -2382.22648344 Ry
     estimated scf accuracy    <       0.00001002 Ry

     total magnetization       =    16.00 Bohr mag/cell
     absolute magnetization    =    16.07 Bohr mag/cell

     iteration # 27     ecut=   100.00 Ry     beta= 0.40
     Davidson diagonalization with overlap
     ethr =  4.64E-09,  avg # of iterations =  3.8

     negative rho (up, down):  0.000E+00 5.595E-04

     total cpu time spent up to now is   179232.3 secs

     total energy              =   -2382.22654748 Ry
     estimated scf accuracy    <       0.00000360 Ry

     total magnetization       =    16.00 Bohr mag/cell
     absolute magnetization    =    16.07 Bohr mag/cell

     iteration # 28     ecut=   100.00 Ry     beta= 0.40
     Davidson diagonalization with overlap
     ethr =  1.67E-09,  avg # of iterations =  3.3

     negative rho (up, down):  0.000E+00 5.600E-04

     total cpu time spent up to now is   186743.1 secs

     total energy              =   -2382.22656850 Ry
     estimated scf accuracy    <       0.00000400 Ry

     total magnetization       =    16.00 Bohr mag/cell
     absolute magnetization    =    16.07 Bohr mag/cell

     iteration # 29     ecut=   100.00 Ry     beta= 0.40
     Davidson diagonalization with overlap
     ethr =  1.67E-09,  avg # of iterations =  2.0

     negative rho (up, down):  0.000E+00 5.600E-04

     total cpu time spent up to now is   193071.5 secs

     total energy              =   -2382.22657541 Ry
     estimated scf accuracy    <       0.00000018 Ry

     total magnetization       =    16.00 Bohr mag/cell
     absolute magnetization    =    16.07 Bohr mag/cell

     iteration # 30     ecut=   100.00 Ry     beta= 0.40
     Davidson diagonalization with overlap
     ethr =  8.48E-11,  avg # of iterations =  5.1

     negative rho (up, down):  0.000E+00 5.600E-04

     total cpu time spent up to now is   202799.6 secs

     total energy              =   -2382.22657724 Ry
     estimated scf accuracy    <       0.00000010 Ry

     total magnetization       =    16.00 Bohr mag/cell
     absolute magnetization    =    16.07 Bohr mag/cell

     iteration # 31     ecut=   100.00 Ry     beta= 0.40
     Davidson diagonalization with overlap
     ethr =  4.57E-11,  avg # of iterations =  2.0

     negative rho (up, down):  0.000E+00 5.600E-04

     total cpu time spent up to now is   208934.0 secs

     total energy              =   -2382.22657782 Ry
     estimated scf accuracy    <       0.00000007 Ry

     total magnetization       =    16.00 Bohr mag/cell
     absolute magnetization    =    16.07 Bohr mag/cell

     iteration # 32     ecut=   100.00 Ry     beta= 0.40
     Davidson diagonalization with overlap
     ethr =  3.06E-11,  avg # of iterations =  2.0

     negative rho (up, down):  0.000E+00 5.599E-04

     total cpu time spent up to now is   215293.4 secs

     total energy              =   -2382.22657815 Ry
     estimated scf accuracy    <       0.00000005 Ry

     total magnetization       =    16.00 Bohr mag/cell
     absolute magnetization    =    16.07 Bohr mag/cell

     iteration # 33     ecut=   100.00 Ry     beta= 0.40
     Davidson diagonalization with overlap
     ethr =  2.15E-11,  avg # of iterations =  2.1

     negative rho (up, down):  0.000E+00 5.599E-04

     total cpu time spent up to now is   221752.1 secs

     total energy              =   -2382.22657826 Ry
     estimated scf accuracy    <       0.00000004 Ry

     total magnetization       =    16.00 Bohr mag/cell
     absolute magnetization    =    16.07 Bohr mag/cell

     iteration # 34     ecut=   100.00 Ry     beta= 0.40
     Davidson diagonalization with overlap
     ethr =  1.75E-11,  avg # of iterations =  3.6

     negative rho (up, down):  0.000E+00 5.599E-04

     total cpu time spent up to now is   229091.8 secs

     total energy              =   -2382.22657837 Ry
     estimated scf accuracy    <       0.00000001 Ry

     total magnetization       =    16.00 Bohr mag/cell
     absolute magnetization    =    16.07 Bohr mag/cell

     iteration # 35     ecut=   100.00 Ry     beta= 0.40
     Davidson diagonalization with overlap
     ethr =  5.41E-12,  avg # of iterations =  3.6

     negative rho (up, down):  0.000E+00 5.599E-04

     total cpu time spent up to now is   236562.7 secs

     total energy              =   -2382.22657840 Ry
     estimated scf accuracy    <       0.00000001 Ry

     total magnetization       =    16.00 Bohr mag/cell
     absolute magnetization    =    16.07 Bohr mag/cell

     iteration # 36     ecut=   100.00 Ry     beta= 0.40
     Davidson diagonalization with overlap
     ethr =  4.88E-12,  avg # of iterations =  3.2

     negative rho (up, down):  0.000E+00 5.599E-04

     total cpu time spent up to now is   243947.6 secs

     total energy              =   -2382.22657844 Ry
     estimated scf accuracy    <          2.0E-09 Ry

     total magnetization       =    16.00 Bohr mag/cell
     absolute magnetization    =    16.07 Bohr mag/cell

     iteration # 37     ecut=   100.00 Ry     beta= 0.40
     Davidson diagonalization with overlap
     ethr =  9.08E-13,  avg # of iterations =  4.1

     negative rho (up, down):  0.000E+00 5.599E-04

     total cpu time spent up to now is   251541.1 secs

     total energy              =   -2382.22657844 Ry
     estimated scf accuracy    <          6.9E-10 Ry

     total magnetization       =    16.00 Bohr mag/cell
     absolute magnetization    =    16.07 Bohr mag/cell

     iteration # 38     ecut=   100.00 Ry     beta= 0.40
     Davidson diagonalization with overlap
     ethr =  3.21E-13,  avg # of iterations =  3.8

     negative rho (up, down):  0.000E+00 5.599E-04

     total cpu time spent up to now is   259075.7 secs

     total energy              =   -2382.22657845 Ry
     estimated scf accuracy    <          4.7E-10 Ry

     total magnetization       =    16.00 Bohr mag/cell
     absolute magnetization    =    16.07 Bohr mag/cell

     iteration # 39     ecut=   100.00 Ry     beta= 0.40
     Davidson diagonalization with overlap
     ethr =  2.17E-13,  avg # of iterations =  2.0

     negative rho (up, down):  0.000E+00 5.599E-04

     Magnetic moment per site:
     atom:    1    charge:    7.9676    magn:    0.0001    constr:    0.0000
     atom:    2    charge:    7.9676    magn:    0.0001    constr:    0.0000
     atom:    3    charge:    7.9676    magn:    0.0001    constr:    0.0000
     atom:    4    charge:    7.9676    magn:    0.0001    constr:    0.0000
     atom:    5    charge:   13.4278    magn:    3.3822    constr:    0.0000
     atom:    6    charge:   13.4278    magn:    3.3822    constr:    0.0000
     atom:    7    charge:   13.4278    magn:    3.3822    constr:    0.0000
     atom:    8    charge:   13.4278    magn:    3.3822    constr:    0.0000
     atom:    9    charge:    0.8907    magn:    0.0066    constr:    0.0000
     atom:   10    charge:    0.8907    magn:    0.0066    constr:    0.0000
     atom:   11    charge:    0.8907    magn:    0.0066    constr:    0.0000
     atom:   12    charge:    0.8907    magn:    0.0066    constr:    0.0000
     atom:   13    charge:    4.3492    magn:    0.0302    constr:    0.0000
     atom:   14    charge:    4.3492    magn:    0.0302    constr:    0.0000
     atom:   15    charge:    4.3492    magn:    0.0302    constr:    0.0000
     atom:   16    charge:    4.3492    magn:    0.0302    constr:    0.0000
     atom:   17    charge:    4.3464    magn:    0.0400    constr:    0.0000
     atom:   18    charge:    4.3464    magn:    0.0400    constr:    0.0000
     atom:   19    charge:    4.3464    magn:    0.0400    constr:    0.0000
     atom:   20    charge:    4.3464    magn:    0.0400    constr:    0.0000
     atom:   21    charge:    4.3284    magn:    0.0726    constr:    0.0000
     atom:   22    charge:    4.3284    magn:    0.0726    constr:    0.0000
     atom:   23    charge:    4.3281    magn:    0.0726    constr:    0.0000
     atom:   24    charge:    4.3281    magn:    0.0726    constr:    0.0000
     atom:   25    charge:    4.3284    magn:    0.0726    constr:    0.0000
     atom:   26    charge:    4.3284    magn:    0.0726    constr:    0.0000
     atom:   27    charge:    4.3281    magn:    0.0726    constr:    0.0000
     atom:   28    charge:    4.3281    magn:    0.0726    constr:    0.0000

     total cpu time spent up to now is   265507.5 secs

     End of self-consistent calculation

 ------ SPIN UP ------------


          k = 0.0000 0.0000 0.0000 ( 38251 PWs)   bands (ev):

   -81.6868 -81.6868 -81.6867 -81.6866 -48.6498 -48.6496 -48.6491 -48.6490
   -47.4713 -47.4711 -47.4710 -47.4710 -47.0890 -47.0889 -47.0886 -47.0885
   -43.5445 -43.5445 -43.5380 -43.5379 -15.7005 -15.6958 -15.5813 -15.5769
   -15.5457 -15.5440 -15.5263 -15.5245 -15.4880 -15.4879 -15.4615 -15.4615
   -14.7128 -14.5354 -14.3949 -14.2716 -12.2815 -12.2663 -12.2456 -12.2217
   -12.2191 -12.1767 -12.1095 -12.0658 -12.0451 -12.0430 -12.0286 -12.0023
    -2.5926  -2.2430  -2.0631  -2.0619  -0.7240  -0.4024  -0.2732  -0.1579
    -0.0242   0.1213   0.3692   0.3769   0.4157   0.4689   0.5021   0.7823
     1.6491   1.7964   2.0434   2.1645   2.3178   2.4538   2.4641   2.4996
     2.5418   2.6943   2.6977   2.9039   2.9641   3.0192   3.0477   3.1787
     3.2426   3.2496   3.2704   3.4063   3.4183   3.4308   3.7077   3.7127
     3.7451   3.8378   4.0188   4.2133   4.2879   4.2979   4.6239   4.6645
     4.8542   4.8825   5.0513   5.1454   5.1881   5.2609   5.2967   5.3042
     5.3116   5.5346   5.7676   5.9060   5.9720   6.0369   6.0576   6.3510
     6.3539   6.3885   6.5147   6.5449   9.4263  11.4184  11.7316  12.3654
    12.6829  13.1197  13.3331  13.5718  14.0754  14.1661  14.1732  14.2758
    14.3155  14.5502

     occupation numbers 
     1.0000   1.0000   1.0000   1.0000   1.0000   1.0000   1.0000   1.0000
     1.0000   1.0000   1.0000   1.0000   1.0000   1.0000   1.0000   1.0000
     1.0000   1.0000   1.0000   1.0000   1.0000   1.0000   1.0000   1.0000
     1.0000   1.0000   1.0000   1.0000   1.0000   1.0000   1.0000   1.0000
     1.0000   1.0000   1.0000   1.0000   1.0000   1.0000   1.0000   1.0000
     1.0000   1.0000   1.0000   1.0000   1.0000   1.0000   1.0000   1.0000
     1.0000   1.0000   1.0000   1.0000   1.0000   1.0000   1.0000   1.0000
     1.0000   1.0000   1.0000   1.0000   1.0000   1.0000   1.0000   1.0000
     1.0000   1.0000   1.0000   1.0000   1.0000   1.0000   1.0000   1.0000
     1.0000   1.0000   1.0000   1.0000   1.0000   1.0000   1.0000   1.0000
     1.0000   1.0000   1.0000   1.0000   1.0000   1.0000   1.0000   1.0000
     1.0000   1.0000   1.0000   1.0000   1.0000   1.0000   1.0000   1.0000
     1.0000   1.0000   1.0000   1.0000   1.0000   1.0000   1.0000   1.0000
     1.0000   1.0000   1.0000   1.0000   1.0000   1.0000   1.0000   1.0000
     1.0000   1.0000   1.0000   1.0000   0.0000   0.0000   0.0000   0.0000
     0.0000   0.0000   0.0000   0.0000   0.0000   0.0000   0.0000   0.0000
     0.0000   0.0000

          k = 0.0000 0.0000 0.2337 ( 38277 PWs)   bands (ev):

   -81.6868 -81.6868 -81.6867 -81.6866 -48.6497 -48.6496 -48.6492 -48.6490
   -47.4713 -47.4711 -47.4710 -47.4710 -47.0890 -47.0889 -47.0886 -47.0885
   -43.5445 -43.5445 -43.5380 -43.5379 -15.6958 -15.6915 -15.5841 -15.5804
   -15.5458 -15.5441 -15.5321 -15.5289 -15.4880 -15.4880 -15.4616 -15.4616
   -14.6856 -14.5180 -14.3971 -14.2814 -12.2941 -12.2745 -12.2663 -12.2152
   -12.2149 -12.1724 -12.1244 -12.0558 -12.0558 -12.0467 -12.0222 -12.0087
    -2.5769  -2.2458  -2.0851  -2.0493  -0.6607  -0.3733  -0.2162  -0.1033
    -0.0215   0.1366   0.3767   0.3870   0.4231   0.4558   0.4744   0.7643
     1.6481   1.7884   2.0511   2.1189   2.3202   2.3722   2.4483   2.4817
     2.4856   2.6544   2.7381   2.8352   2.9401   2.9655   3.1189   3.1466
     3.1551   3.2535   3.3925   3.4264   3.4475   3.5066   3.6479   3.6828
     3.7240   3.8861   4.0387   4.2387   4.2841   4.3263   4.6131   4.6565
     4.8347   4.8904   5.0048   5.1470   5.2208   5.2322   5.2510   5.2517
     5.3579   5.5521   5.8077   5.9494   5.9784   6.0480   6.0694   6.3257
     6.3272   6.3664   6.5229   6.5385   9.5818  11.4702  11.8062  12.3477
    12.7229  12.9640  13.4126  13.5417  13.9598  14.0647  14.0899  14.2773
    14.3284  14.4139

     occupation numbers 
     1.0000   1.0000   1.0000   1.0000   1.0000   1.0000   1.0000   1.0000
     1.0000   1.0000   1.0000   1.0000   1.0000   1.0000   1.0000   1.0000
     1.0000   1.0000   1.0000   1.0000   1.0000   1.0000   1.0000   1.0000
     1.0000   1.0000   1.0000   1.0000   1.0000   1.0000   1.0000   1.0000
     1.0000   1.0000   1.0000   1.0000   1.0000   1.0000   1.0000   1.0000
     1.0000   1.0000   1.0000   1.0000   1.0000   1.0000   1.0000   1.0000
     1.0000   1.0000   1.0000   1.0000   1.0000   1.0000   1.0000   1.0000
     1.0000   1.0000   1.0000   1.0000   1.0000   1.0000   1.0000   1.0000
     1.0000   1.0000   1.0000   1.0000   1.0000   1.0000   1.0000   1.0000
     1.0000   1.0000   1.0000   1.0000   1.0000   1.0000   1.0000   1.0000
     1.0000   1.0000   1.0000   1.0000   1.0000   1.0000   1.0000   1.0000
     1.0000   1.0000   1.0000   1.0000   1.0000   1.0000   1.0000   1.0000
     1.0000   1.0000   1.0000   1.0000   1.0000   1.0000   1.0000   1.0000
     1.0000   1.0000   1.0000   1.0000   1.0000   1.0000   1.0000   1.0000
     1.0000   1.0000   1.0000   1.0000   0.0000   0.0000   0.0000   0.0000
     0.0000   0.0000   0.0000   0.0000   0.0000   0.0000   0.0000   0.0000
     0.0000   0.0000

          k = 0.0000 0.0000 0.4675 ( 38350 PWs)   bands (ev):

   -81.6868 -81.6868 -81.6867 -81.6866 -48.6497 -48.6496 -48.6492 -48.6491
   -47.4712 -47.4711 -47.4710 -47.4710 -47.0889 -47.0889 -47.0887 -47.0885
   -43.5445 -43.5445 -43.5380 -43.5379 -15.6848 -15.6815 -15.5945 -15.5917
   -15.5458 -15.5444 -15.5402 -15.5353 -15.4881 -15.4880 -15.4619 -15.4618
   -14.6154 -14.4761 -14.4021 -14.3082 -12.3299 -12.3026 -12.2917 -12.2323
   -12.1955 -12.1600 -12.1484 -12.0775 -12.0578 -12.0346 -12.0271 -12.0116
    -2.5300  -2.2474  -2.1191  -2.0587  -0.4765  -0.2870  -0.0832  -0.0085
     0.0350   0.1731   0.3818   0.3981   0.4139   0.4545   0.4694   0.7106
     1.6403   1.7707   2.0069   2.0748   2.2470   2.3190   2.3448   2.3483
     2.4452   2.5433   2.7659   2.8093   2.8561   2.9234   2.9382   3.1033
     3.1395   3.2414   3.4572   3.5113   3.5929   3.6099   3.6193   3.6607
     3.7291   3.9588   4.0239   4.2734   4.3119   4.3999   4.6092   4.6308
     4.8087   4.8968   4.9281   5.1144   5.1254   5.1460   5.2273   5.2714
     5.4755   5.6175   5.8736   5.9987   6.0308   6.0653   6.1075   6.2508
     6.2807   6.3004   6.5233   6.5317   9.9914  11.6142  11.9492  12.3614
    12.8207  12.8356  13.0934  13.6603  13.8695  13.8793  13.8987  14.0283
    14.3253  14.3429

     occupation numbers 
     1.0000   1.0000   1.0000   1.0000   1.0000   1.0000   1.0000   1.0000
     1.0000   1.0000   1.0000   1.0000   1.0000   1.0000   1.0000   1.0000
     1.0000   1.0000   1.0000   1.0000   1.0000   1.0000   1.0000   1.0000
     1.0000   1.0000   1.0000   1.0000   1.0000   1.0000   1.0000   1.0000
     1.0000   1.0000   1.0000   1.0000   1.0000   1.0000   1.0000   1.0000
     1.0000   1.0000   1.0000   1.0000   1.0000   1.0000   1.0000   1.0000
     1.0000   1.0000   1.0000   1.0000   1.0000   1.0000   1.0000   1.0000
     1.0000   1.0000   1.0000   1.0000   1.0000   1.0000   1.0000   1.0000
     1.0000   1.0000   1.0000   1.0000   1.0000   1.0000   1.0000   1.0000
     1.0000   1.0000   1.0000   1.0000   1.0000   1.0000   1.0000   1.0000
     1.0000   1.0000   1.0000   1.0000   1.0000   1.0000   1.0000   1.0000
     1.0000   1.0000   1.0000   1.0000   1.0000   1.0000   1.0000   1.0000
     1.0000   1.0000   1.0000   1.0000   1.0000   1.0000   1.0000   1.0000
     1.0000   1.0000   1.0000   1.0000   1.0000   1.0000   1.0000   1.0000
     1.0000   1.0000   1.0000   1.0000   0.0000   0.0000   0.0000   0.0000
     0.0000   0.0000   0.0000   0.0000   0.0000   0.0000   0.0000   0.0000
     0.0000   0.0000

          k = 0.0000 0.0000 0.7012 ( 38330 PWs)   bands (ev):

   -81.6868 -81.6868 -81.6867 -81.6866 -48.6496 -48.6495 -48.6493 -48.6492
   -47.4712 -47.4711 -47.4710 -47.4710 -47.0889 -47.0888 -47.0887 -47.0886
   -43.5445 -43.5445 -43.5380 -43.5379 -15.6751 -15.6728 -15.6078 -15.6060
   -15.5457 -15.5448 -15.5410 -15.5371 -15.4882 -15.4882 -15.4622 -15.4621
   -14.5278 -14.4329 -14.4058 -14.3460 -12.3699 -12.3393 -12.3100 -12.2797
   -12.1661 -12.1505 -12.1411 -12.1014 -12.0752 -12.0553 -12.0147 -12.0024
    -2.4541  -2.2357  -2.1737  -2.1003  -0.2110  -0.1565   0.0193   0.0257
     0.1808   0.2195   0.2924   0.3651   0.4052   0.5871   0.5908   0.6281
     1.6141   1.7654   1.8589   2.0826   2.1177   2.1918   2.2740   2.3018
     2.3623   2.4097   2.5015   2.7176   2.8453   2.9474   2.9544   3.0491
     3.1488   3.1938   3.3839   3.4008   3.6815   3.6998   3.7436   3.7799
     3.8178   4.0230   4.0611   4.2464   4.2913   4.4541   4.6141   4.6994
     4.8068   4.8560   4.9019   5.0013   5.0152   5.1046   5.2251   5.2928
     5.6265   5.7395   5.9220   6.0276   6.0575   6.0877   6.1305   6.1698
     6.1932   6.2600   6.5100   6.5296  10.5381  11.8322  11.9007  12.5376
    12.7616  12.8031  13.0367  13.4547  13.4662  13.7959  13.8395  13.9608
    14.0001  14.2838

     occupation numbers 
     1.0000   1.0000   1.0000   1.0000   1.0000   1.0000   1.0000   1.0000
     1.0000   1.0000   1.0000   1.0000   1.0000   1.0000   1.0000   1.0000
     1.0000   1.0000   1.0000   1.0000   1.0000   1.0000   1.0000   1.0000
     1.0000   1.0000   1.0000   1.0000   1.0000   1.0000   1.0000   1.0000
     1.0000   1.0000   1.0000   1.0000   1.0000   1.0000   1.0000   1.0000
     1.0000   1.0000   1.0000   1.0000   1.0000   1.0000   1.0000   1.0000
     1.0000   1.0000   1.0000   1.0000   1.0000   1.0000   1.0000   1.0000
     1.0000   1.0000   1.0000   1.0000   1.0000   1.0000   1.0000   1.0000
     1.0000   1.0000   1.0000   1.0000   1.0000   1.0000   1.0000   1.0000
     1.0000   1.0000   1.0000   1.0000   1.0000   1.0000   1.0000   1.0000
     1.0000   1.0000   1.0000   1.0000   1.0000   1.0000   1.0000   1.0000
     1.0000   1.0000   1.0000   1.0000   1.0000   1.0000   1.0000   1.0000
     1.0000   1.0000   1.0000   1.0000   1.0000   1.0000   1.0000   1.0000
     1.0000   1.0000   1.0000   1.0000   1.0000   1.0000   1.0000   1.0000
     1.0000   1.0000   1.0000   1.0000   0.0000   0.0000   0.0000   0.0000
     0.0000   0.0000   0.0000   0.0000   0.0000   0.0000   0.0000   0.0000
     0.0000   0.0000

          k = 0.0000 0.0000 0.9349 ( 38332 PWs)   bands (ev):

   -81.6868 -81.6868 -81.6867 -81.6866 -48.6495 -48.6494 -48.6494 -48.6493
   -47.4712 -47.4711 -47.4710 -47.4710 -47.0889 -47.0888 -47.0888 -47.0886
   -43.5445 -43.5445 -43.5380 -43.5379 -15.6715 -15.6705 -15.6141 -15.6136
   -15.5456 -15.5453 -15.5383 -15.5368 -15.4883 -15.4883 -15.4623 -15.4623
   -14.4490 -14.4096 -14.4058 -14.3907 -12.3887 -12.3737 -12.3211 -12.3146
   -12.1396 -12.1309 -12.1226 -12.1177 -12.0983 -12.0889 -12.0021 -11.9984
    -2.3572  -2.2561  -2.2047  -2.1565  -0.0446   0.0272   0.0503   0.0895
     0.1824   0.1827   0.2947   0.3593   0.4567   0.5357   0.7290   0.7325
     1.5991   1.6904   1.7965   1.9076   2.0921   2.1439   2.1844   2.2597
     2.2650   2.2960   2.4746   2.5714   2.9069   2.9467   2.9938   3.0104
     3.1834   3.2110   3.2637   3.3022   3.7281   3.7554   3.7615   3.7989
     4.0101   4.1029   4.1717   4.1883   4.2179   4.3746   4.6801   4.7594
     4.8412   4.8716   4.9083   4.9141   4.9467   5.0053   5.2525   5.2812
     5.7996   5.8939   5.9628   5.9747   6.0064   6.0525   6.0744   6.0976
     6.2279   6.2554   6.5090   6.5190  11.1099  11.5999  12.1054  12.3848
    12.8520  12.9210  13.0728  13.2396  13.3487  13.6046  13.7986  13.8717
    13.8813  14.0685

     occupation numbers 
     1.0000   1.0000   1.0000   1.0000   1.0000   1.0000   1.0000   1.0000
     1.0000   1.0000   1.0000   1.0000   1.0000   1.0000   1.0000   1.0000
     1.0000   1.0000   1.0000   1.0000   1.0000   1.0000   1.0000   1.0000
     1.0000   1.0000   1.0000   1.0000   1.0000   1.0000   1.0000   1.0000
     1.0000   1.0000   1.0000   1.0000   1.0000   1.0000   1.0000   1.0000
     1.0000   1.0000   1.0000   1.0000   1.0000   1.0000   1.0000   1.0000
     1.0000   1.0000   1.0000   1.0000   1.0000   1.0000   1.0000   1.0000
     1.0000   1.0000   1.0000   1.0000   1.0000   1.0000   1.0000   1.0000
     1.0000   1.0000   1.0000   1.0000   1.0000   1.0000   1.0000   1.0000
     1.0000   1.0000   1.0000   1.0000   1.0000   1.0000   1.0000   1.0000
     1.0000   1.0000   1.0000   1.0000   1.0000   1.0000   1.0000   1.0000
     1.0000   1.0000   1.0000   1.0000   1.0000   1.0000   1.0000   1.0000
     1.0000   1.0000   1.0000   1.0000   1.0000   1.0000   1.0000   1.0000
     1.0000   1.0000   1.0000   1.0000   1.0000   1.0000   1.0000   1.0000
     1.0000   1.0000   1.0000   1.0000   0.0000   0.0000   0.0000   0.0000
     0.0000   0.0000   0.0000   0.0000   0.0000   0.0000   0.0000   0.0000
     0.0000   0.0000

          k = 0.0000 0.2391 0.0000 ( 38300 PWs)   bands (ev):

   -81.6868 -81.6868 -81.6867 -81.6866 -48.6497 -48.6496 -48.6492 -48.6491
   -47.4713 -47.4711 -47.4710 -47.4710 -47.0890 -47.0889 -47.0887 -47.0885
   -43.5442 -43.5442 -43.5383 -43.5383 -15.6913 -15.6872 -15.5793 -15.5751
   -15.5478 -15.5458 -15.5232 -15.5216 -15.5004 -15.4996 -15.4652 -15.4651
   -14.6888 -14.5241 -14.3978 -14.2922 -12.2757 -12.2666 -12.2556 -12.2195
   -12.2105 -12.2021 -12.1353 -12.0637 -12.0295 -12.0250 -12.0172 -12.0167
    -2.5615  -2.2209  -2.0834  -2.0544  -0.6833  -0.3818  -0.2580  -0.1700
     0.0170   0.1242   0.3120   0.3601   0.4715   0.4748   0.5266   0.7562
     1.6586   1.8024   2.0643   2.0871   2.2207   2.4018   2.4060   2.5035
     2.5794   2.6598   2.7840   2.9010   2.9153   2.9364   3.0604   3.2254
     3.2320   3.2692   3.3261   3.3502   3.4925   3.5207   3.5903   3.7516
     3.7673   3.8516   3.9966   4.1849   4.2723   4.2897   4.5874   4.6732
     4.8231   4.8872   4.9297   5.0202   5.1476   5.2718   5.2978   5.3952
     5.4183   5.5054   5.8861   5.9337   5.9730   6.0274   6.0574   6.1909
     6.1914   6.5101   6.5768   6.5957   9.5964  11.5105  11.8254  12.3161
    12.7630  13.1984  13.2812  13.5147  14.0767  14.1488  14.2144  14.2561
    14.3343  14.6136

     occupation numbers 
     1.0000   1.0000   1.0000   1.0000   1.0000   1.0000   1.0000   1.0000
     1.0000   1.0000   1.0000   1.0000   1.0000   1.0000   1.0000   1.0000
     1.0000   1.0000   1.0000   1.0000   1.0000   1.0000   1.0000   1.0000
     1.0000   1.0000   1.0000   1.0000   1.0000   1.0000   1.0000   1.0000
     1.0000   1.0000   1.0000   1.0000   1.0000   1.0000   1.0000   1.0000
     1.0000   1.0000   1.0000   1.0000   1.0000   1.0000   1.0000   1.0000
     1.0000   1.0000   1.0000   1.0000   1.0000   1.0000   1.0000   1.0000
     1.0000   1.0000   1.0000   1.0000   1.0000   1.0000   1.0000   1.0000
     1.0000   1.0000   1.0000   1.0000   1.0000   1.0000   1.0000   1.0000
     1.0000   1.0000   1.0000   1.0000   1.0000   1.0000   1.0000   1.0000
     1.0000   1.0000   1.0000   1.0000   1.0000   1.0000   1.0000   1.0000
     1.0000   1.0000   1.0000   1.0000   1.0000   1.0000   1.0000   1.0000
     1.0000   1.0000   1.0000   1.0000   1.0000   1.0000   1.0000   1.0000
     1.0000   1.0000   1.0000   1.0000   1.0000   1.0000   1.0000   1.0000
     1.0000   1.0000   1.0000   1.0000   0.0000   0.0000   0.0000   0.0000
     0.0000   0.0000   0.0000   0.0000   0.0000   0.0000   0.0000   0.0000
     0.0000   0.0000

          k = 0.0000 0.2391 0.2337 ( 38294 PWs)   bands (ev):

   -81.6868 -81.6868 -81.6867 -81.6866 -48.6497 -48.6496 -48.6492 -48.6491
   -47.4713 -47.4711 -47.4710 -47.4710 -47.0890 -47.0889 -47.0887 -47.0885
   -43.5442 -43.5442 -43.5383 -43.5383 -15.6868 -15.6830 -15.5820 -15.5784
   -15.5479 -15.5462 -15.5293 -15.5262 -15.4990 -15.4986 -15.4654 -15.4653
   -14.6637 -14.5081 -14.3993 -14.3001 -12.2886 -12.2785 -12.2733 -12.2166
   -12.2017 -12.1951 -12.1487 -12.0560 -12.0477 -12.0248 -12.0197 -12.0129
    -2.5462  -2.2236  -2.0926  -2.0522  -0.6215  -0.3534  -0.2025  -0.1163
     0.0190   0.1388   0.3232   0.3770   0.4563   0.4734   0.5022   0.7390
     1.6554   1.7874   2.0443   2.0981   2.1721   2.3619   2.3805   2.4562
     2.5255   2.7121   2.7784   2.8304   2.8790   2.9255   3.1379   3.1680
     3.2162   3.2364   3.3489   3.4297   3.5353   3.5423   3.5520   3.7341
     3.7391   3.8942   4.0088   4.1993   4.2941   4.2967   4.5794   4.6626
     4.8117   4.8585   4.9297   5.0432   5.1541   5.2814   5.2889   5.3428
     5.3943   5.5177   5.9260   5.9734   5.9798   6.0408   6.0684   6.1569
     6.1777   6.4875   6.5719   6.6007   9.7455  11.5638  11.9054  12.3323
    12.7769  13.0125  13.3578  13.5217  14.0175  14.0295  14.0916  14.3308
    14.3617  14.4767

     occupation numbers 
     1.0000   1.0000   1.0000   1.0000   1.0000   1.0000   1.0000   1.0000
     1.0000   1.0000   1.0000   1.0000   1.0000   1.0000   1.0000   1.0000
     1.0000   1.0000   1.0000   1.0000   1.0000   1.0000   1.0000   1.0000
     1.0000   1.0000   1.0000   1.0000   1.0000   1.0000   1.0000   1.0000
     1.0000   1.0000   1.0000   1.0000   1.0000   1.0000   1.0000   1.0000
     1.0000   1.0000   1.0000   1.0000   1.0000   1.0000   1.0000   1.0000
     1.0000   1.0000   1.0000   1.0000   1.0000   1.0000   1.0000   1.0000
     1.0000   1.0000   1.0000   1.0000   1.0000   1.0000   1.0000   1.0000
     1.0000   1.0000   1.0000   1.0000   1.0000   1.0000   1.0000   1.0000
     1.0000   1.0000   1.0000   1.0000   1.0000   1.0000   1.0000   1.0000
     1.0000   1.0000   1.0000   1.0000   1.0000   1.0000   1.0000   1.0000
     1.0000   1.0000   1.0000   1.0000   1.0000   1.0000   1.0000   1.0000
     1.0000   1.0000   1.0000   1.0000   1.0000   1.0000   1.0000   1.0000
     1.0000   1.0000   1.0000   1.0000   1.0000   1.0000   1.0000   1.0000
     1.0000   1.0000   1.0000   1.0000   0.0000   0.0000   0.0000   0.0000
     0.0000   0.0000   0.0000   0.0000   0.0000   0.0000   0.0000   0.0000
     0.0000   0.0000

          k = 0.0000 0.2391 0.4675 ( 38323 PWs)   bands (ev):

   -81.6868 -81.6868 -81.6867 -81.6866 -48.6497 -48.6496 -48.6492 -48.6491
   -47.4712 -47.4711 -47.4710 -47.4710 -47.0889 -47.0889 -47.0887 -47.0886
   -43.5442 -43.5442 -43.5383 -43.5383 -15.6762 -15.6733 -15.5916 -15.5889
   -15.5482 -15.5472 -15.5369 -15.5327 -15.4976 -15.4975 -15.4661 -15.4659
   -14.5986 -14.4694 -14.4027 -14.3219 -12.3251 -12.3070 -12.2998 -12.2366
   -12.1831 -12.1757 -12.1654 -12.0731 -12.0432 -12.0399 -12.0301 -12.0029
    -2.5005  -2.2256  -2.1163  -2.0641  -0.4419  -0.2707  -0.0720  -0.0027
     0.0538   0.1715   0.3510   0.4148   0.4251   0.4630   0.4867   0.6894
     1.6369   1.7609   1.9684   2.0787   2.1194   2.2683   2.2918   2.3644
     2.4841   2.6509   2.7387   2.7679   2.8681   2.8981   2.9814   3.1147
     3.2037   3.2174   3.4187   3.4627   3.5824   3.6141   3.6581   3.6945
     3.7585   3.9638   3.9833   4.2273   4.3311   4.3564   4.5581   4.6427
     4.7917   4.8058   4.9296   5.0610   5.1712   5.2229   5.2627   5.2849
     5.4329   5.5565   5.9829   6.0001   6.0474   6.0660   6.0895   6.1150
     6.1173   6.4364   6.5617   6.6044  10.1418  11.7107  12.0719  12.3994
    12.8441  12.8905  13.0460  13.6884  13.8396  13.9040  13.9870  14.0479
    14.3037  14.3340

     occupation numbers 
     1.0000   1.0000   1.0000   1.0000   1.0000   1.0000   1.0000   1.0000
     1.0000   1.0000   1.0000   1.0000   1.0000   1.0000   1.0000   1.0000
     1.0000   1.0000   1.0000   1.0000   1.0000   1.0000   1.0000   1.0000
     1.0000   1.0000   1.0000   1.0000   1.0000   1.0000   1.0000   1.0000
     1.0000   1.0000   1.0000   1.0000   1.0000   1.0000   1.0000   1.0000
     1.0000   1.0000   1.0000   1.0000   1.0000   1.0000   1.0000   1.0000
     1.0000   1.0000   1.0000   1.0000   1.0000   1.0000   1.0000   1.0000
     1.0000   1.0000   1.0000   1.0000   1.0000   1.0000   1.0000   1.0000
     1.0000   1.0000   1.0000   1.0000   1.0000   1.0000   1.0000   1.0000
     1.0000   1.0000   1.0000   1.0000   1.0000   1.0000   1.0000   1.0000
     1.0000   1.0000   1.0000   1.0000   1.0000   1.0000   1.0000   1.0000
     1.0000   1.0000   1.0000   1.0000   1.0000   1.0000   1.0000   1.0000
     1.0000   1.0000   1.0000   1.0000   1.0000   1.0000   1.0000   1.0000
     1.0000   1.0000   1.0000   1.0000   1.0000   1.0000   1.0000   1.0000
     1.0000   1.0000   1.0000   1.0000   0.0000   0.0000   0.0000   0.0000
[...]
     atom   10 type  4   force =     0.77119409   -0.00010542    1.45345921
     atom   11 type  4   force =     0.77116966   -0.00009829   -1.45350065
     atom   12 type  4   force =    -0.77118121    0.00010204   -1.45345993
     atom   13 type  3   force =    -3.76817740    0.00009827    1.24130971
     atom   14 type  3   force =     3.76826307   -0.00013033    1.24133268
     atom   15 type  3   force =     3.76820862   -0.00011521   -1.24132137
     atom   16 type  3   force =    -3.76828387    0.00010443   -1.24130926
     atom   17 type  3   force =    -1.20472720    0.00008280    2.62726530
     atom   18 type  3   force =     1.20471014   -0.00007569    2.62725732
     atom   19 type  3   force =     1.20467618   -0.00008435   -2.62725310
     atom   20 type  3   force =    -1.20491368    0.00006285   -2.62721201
     atom   21 type  3   force =     0.44656521    1.53213671   -1.36776105
     atom   22 type  3   force =    -0.44653571   -1.53219316   -1.36771310
     atom   23 type  3   force =    -0.44631651    1.53207015    1.36756924
     atom   24 type  3   force =     0.44635192   -1.53212536    1.36749808
     atom   25 type  3   force =    -0.44649676   -1.53222268    1.36768634
     atom   26 type  3   force =     0.44653100    1.53215726    1.36773229
     atom   27 type  3   force =     0.44637104   -1.53204464   -1.36749160
     atom   28 type  3   force =    -0.44635709    1.53203501   -1.36759658
     The local contribution  to forces
     atom    1 type  2   force =    -0.00000000    0.00000000    0.00000000
     atom    2 type  2   force =    -0.00000000   -0.00000000   -0.00000000
     atom    3 type  2   force =     0.00000000    0.00000000    0.00000000
     atom    4 type  2   force =    -0.00000000    0.00000000   -0.00000000
     atom    5 type  1   force =    -2.87109422   -0.00043774    0.87542166
     atom    6 type  1   force =     2.87314176    0.00043310    0.87539790
     atom    7 type  1   force =     2.87109422    0.00043774   -0.87542166
     atom    8 type  1   force =    -2.86935334   -0.00043311   -0.87536900
     atom    9 type  4   force =     0.75044360   -0.00007650   -1.42265501
     atom   10 type  4   force =    -0.75048260    0.00009698   -1.42260357
     atom   11 type  4   force =    -0.75044480    0.00007021    1.42266060
     atom   12 type  4   force =     0.75048260   -0.00010327    1.42260358
     atom   13 type  3   force =     3.58669911   -0.00037720    0.21965620
     atom   14 type  3   force =    -3.58636818   -0.00013449    0.21967754
     atom   15 type  3   force =    -3.58669912   -0.00014500   -0.21965620
     atom   16 type  3   force =     3.58718034   -0.00038771   -0.21963725
     atom   17 type  3   force =    -0.02699841   -0.00008681   -1.98202753
     atom   18 type  3   force =     0.02691118    0.00007057   -1.98180084
     atom   19 type  3   force =     0.02699841    0.00008681    1.98202753
     atom   20 type  3   force =    -0.02688913   -0.00007057    1.98220588
     atom   21 type  3   force =     0.24677010   -0.55835480    0.68750150
     atom   22 type  3   force =    -0.24630934    0.55788619    0.68745099
     atom   23 type  3   force =    -0.24651200   -0.55822994   -0.68731650
     atom   24 type  3   force =     0.24647148    0.55780442   -0.68729261
     atom   25 type  3   force =    -0.24587885    0.55787485   -0.68744307
     atom   26 type  3   force =     0.24633290   -0.55832670   -0.68748734
     atom   27 type  3   force =     0.24648844    0.55778942    0.68728015
     atom   28 type  3   force =    -0.24649504   -0.55824494    0.68732896
     The core correction contribution to forces
     atom    1 type  2   force =     0.00000000    0.00000000    0.00000000
     atom    2 type  2   force =     0.00000000    0.00000000    0.00000000
     atom    3 type  2   force =     0.00000000    0.00000000    0.00000000
     atom    4 type  2   force =     0.00000000    0.00000000    0.00000000
     atom    5 type  1   force =     0.00297239   -0.00000328   -0.00201737
     atom    6 type  1   force =    -0.00303913    0.00000336   -0.00201658
     atom    7 type  1   force =    -0.00297238    0.00000328    0.00201739
     atom    8 type  1   force =     0.00290497   -0.00000336    0.00201877
     atom    9 type  4   force =    -0.00175190    0.00000109    0.00111639
     atom   10 type  4   force =     0.00175000    0.00000049    0.00111706
     atom   11 type  4   force =     0.00174930    0.00000033   -0.00111640
     atom   12 type  4   force =    -0.00175000    0.00000093   -0.00111706
     atom   13 type  3   force =    -0.00232842   -0.00000019    0.01354947
     atom   14 type  3   force =     0.00232871   -0.00000008    0.01354936
     atom   15 type  3   force =     0.00232842   -0.00000008   -0.01354947
     atom   16 type  3   force =    -0.00232809   -0.00000018   -0.01354946
     atom   17 type  3   force =    -0.01109020    0.00000003    0.00657674
     atom   18 type  3   force =     0.01109027   -0.00000006    0.00657680
     atom   19 type  3   force =     0.01109020   -0.00000003   -0.00657674
     atom   20 type  3   force =    -0.01109016    0.00000006   -0.00657650
     atom   21 type  3   force =     0.00649949    0.00894268   -0.00663692
     atom   22 type  3   force =    -0.00649943   -0.00894327   -0.00663699
     atom   23 type  3   force =    -0.00649910    0.00894243    0.00663658
     atom   24 type  3   force =     0.00649925   -0.00894314    0.00663677
     atom   25 type  3   force =    -0.00649906   -0.00894306    0.00663675
     atom   26 type  3   force =     0.00649924    0.00894257    0.00663690
     atom   27 type  3   force =     0.00649929   -0.00894313   -0.00663668
     atom   28 type  3   force =    -0.00649906    0.00894244   -0.00663668
     The Hubbard contrib.    to forces
     atom    1 type  2   force =     0.00000000    0.00000000    0.00000000
     atom    2 type  2   force =     0.00000000    0.00000000    0.00000000
     atom    3 type  2   force =     0.00000000    0.00000000    0.00000000
     atom    4 type  2   force =     0.00000000    0.00000000    0.00000000
     atom    5 type  1   force =     0.00000000    0.00000000    0.00000000
     atom    6 type  1   force =     0.00000000    0.00000000    0.00000000
     atom    7 type  1   force =     0.00000000    0.00000000    0.00000000
     atom    8 type  1   force =     0.00000000    0.00000000    0.00000000
     atom    9 type  4   force =     0.00000000    0.00000000    0.00000000
     atom   10 type  4   force =     0.00000000    0.00000000    0.00000000
     atom   11 type  4   force =     0.00000000    0.00000000    0.00000000
     atom   12 type  4   force =     0.00000000    0.00000000    0.00000000
     atom   13 type  3   force =     0.00000000    0.00000000    0.00000000
     atom   14 type  3   force =     0.00000000    0.00000000    0.00000000
     atom   15 type  3   force =     0.00000000    0.00000000    0.00000000
     atom   16 type  3   force =     0.00000000    0.00000000    0.00000000
     atom   17 type  3   force =     0.00000000    0.00000000    0.00000000
     atom   18 type  3   force =     0.00000000    0.00000000    0.00000000
     atom   19 type  3   force =     0.00000000    0.00000000    0.00000000
     atom   20 type  3   force =     0.00000000    0.00000000    0.00000000
     atom   21 type  3   force =     0.00000000    0.00000000    0.00000000
     atom   22 type  3   force =     0.00000000    0.00000000    0.00000000
     atom   23 type  3   force =     0.00000000    0.00000000    0.00000000
     atom   24 type  3   force =     0.00000000    0.00000000    0.00000000
     atom   25 type  3   force =     0.00000000    0.00000000    0.00000000
     atom   26 type  3   force =     0.00000000    0.00000000    0.00000000
     atom   27 type  3   force =     0.00000000    0.00000000    0.00000000
     atom   28 type  3   force =     0.00000000    0.00000000    0.00000000
     The SCF correction term to forces
     atom    1 type  2   force =     0.00000000   -0.00000000    0.00000000
     atom    2 type  2   force =     0.00000000   -0.00000000    0.00000000
     atom    3 type  2   force =    -0.00000000   -0.00000000    0.00000000
     atom    4 type  2   force =     0.00000000    0.00000000    0.00000000
     atom    5 type  1   force =    -0.00000171    0.00000015    0.00000109
     atom    6 type  1   force =    -0.00000145   -0.00000004    0.00000189
     atom    7 type  1   force =     0.00000171   -0.00000015   -0.00000109
     atom    8 type  1   force =     0.00000145    0.00000004   -0.00000189
     atom    9 type  4   force =    -0.00000117   -0.00000015    0.00000023
     atom   10 type  4   force =    -0.00000143   -0.00000012   -0.00000071
     atom   11 type  4   force =     0.00000117    0.00000015   -0.00000023
     atom   12 type  4   force =     0.00000143    0.00000012    0.00000071
     atom   13 type  3   force =    -0.00000245   -0.00000001   -0.00000137
     atom   14 type  3   force =    -0.00000214   -0.00000014    0.00000122
     atom   15 type  3   force =     0.00000245    0.00000001    0.00000137
     atom   16 type  3   force =     0.00000214    0.00000014   -0.00000122
     atom   17 type  3   force =     0.00000274    0.00000019    0.00000123
     atom   18 type  3   force =     0.00000173   -0.00000005   -0.00000083
     atom   19 type  3   force =    -0.00000274   -0.00000019   -0.00000123
     atom   20 type  3   force =    -0.00000173    0.00000005    0.00000083
     atom   21 type  3   force =    -0.00000104    0.00000169    0.00000199
     atom   22 type  3   force =    -0.00000155    0.00000347   -0.00000238
     atom   23 type  3   force =     0.00000130    0.00000287   -0.00000210
     atom   24 type  3   force =     0.00000120    0.00000298    0.00000174
     atom   25 type  3   force =     0.00000103   -0.00000169   -0.00000199
     atom   26 type  3   force =     0.00000155   -0.00000347    0.00000238
     atom   27 type  3   force =    -0.00000130   -0.00000287    0.00000210
     atom   28 type  3   force =    -0.00000120   -0.00000298   -0.00000174

     Total force =     0.125972     Total SCF correction =     0.000014


     Computing stress (Cartesian axis) and pressure


     negative rho (up, down):  0.000E+00 5.599E-04
          total   stress  (Ry/bohr**3)                   (kbar)     P=      -39.64
  -0.00028646  -0.00000002   0.00000000          -42.14       -0.00        0.00
  -0.00000002  -0.00027815  -0.00000001           -0.00      -40.92       -0.00
   0.00000000  -0.00000001  -0.00024378            0.00       -0.00      -35.86

     kinetic stress (kbar)  30585.70     -0.01      0.00
                               -0.01  30443.72     -0.00
                                0.00     -0.00  30527.47

     local   stress (kbar)  -4194.23     -0.06     -0.01
                               -0.06  -6333.73      0.03
                               -0.01      0.03  -2166.49

     nonloc. stress (kbar)  -9138.41     -0.00      0.00
                               -0.00  -9250.39     -0.00
                                0.00     -0.00  -9099.97

     hartree stress (kbar)  14080.49      0.02      0.00
                                0.02  15001.50     -0.01
                                0.00     -0.01  13030.25

     exc-cor stress (kbar)  -3458.50     -0.00      0.00
                               -0.00  -3464.37     -0.00
                                0.00     -0.00  -3456.42

     corecor stress (kbar)  -2969.70      0.00     -0.00
                                0.00  -2951.31      0.00
                               -0.00      0.00  -2973.83

     ewald   stress (kbar) -24947.50      0.06      0.00
                                0.06 -23486.35     -0.01
                                0.00     -0.01 -25896.87

     hubbard stress (kbar)      0.00      0.00      0.00
                                0.00      0.00      0.00
                                0.00      0.00      0.00

     DFT-D   stress (kbar)      0.00      0.00      0.00
                                0.00      0.00      0.00
                                0.00      0.00      0.00

     XDM     stress (kbar)      0.00      0.00      0.00
                                0.00      0.00      0.00
                                0.00      0.00      0.00

     dft-nl  stress (kbar)      0.00      0.00      0.00
                                0.00      0.00      0.00
                                0.00      0.00      0.00

     TS-vdW  stress (kbar)      0.00      0.00      0.00
                                0.00      0.00      0.00
                                0.00      0.00      0.00



     init_run     :   2369.14s CPU   2706.19s WALL (       1 calls)
     electrons    : 245028.03s CPU 262774.93s WALL (       1 calls)
     forces       :    286.10s CPU    288.83s WALL (       1 calls)
     stress       :    322.80s CPU    385.64s WALL (       1 calls)

     Called by init_run:
     wfcinit      :   2355.81s CPU   2690.89s WALL (       1 calls)
     wfcinit:atom :      0.46s CPU      0.47s WALL (     316 calls)
     wfcinit:wfcr :   2352.61s CPU   2687.31s WALL (     316 calls)
     potinit      :      4.59s CPU      5.16s WALL (       1 calls)
     hinit0       :      5.41s CPU      5.98s WALL (       1 calls)

     Called by electrons:
     c_bands      : 206006.25s CPU 220367.77s WALL (      39 calls)
     sum_band     :  38837.52s CPU  42199.35s WALL (      39 calls)
     v_of_rho     :     44.10s CPU     49.16s WALL (      40 calls)
     v_h          :      6.05s CPU      6.84s WALL (      40 calls)
     v_xc         :     40.45s CPU     44.94s WALL (      42 calls)
     newd         :     42.91s CPU     52.87s WALL (      40 calls)
     PAW_pot      :     19.04s CPU     20.54s WALL (      40 calls)
     mix_rho      :     65.08s CPU     71.11s WALL (      39 calls)

     Called by c_bands:
     init_us_2    :     74.92s CPU     81.72s WALL (   25596 calls)
     cegterg      : 204796.48s CPU 219007.25s WALL (   12324 calls)

     Called by sum_band:
     sum_band:wei :      0.66s CPU      0.80s WALL (      39 calls)
     sum_band:loo :  38740.71s CPU  42083.85s WALL (      39 calls)
     sum_band:buf :     13.85s CPU     15.08s WALL (   12324 calls)
     sum_band:ini :     23.50s CPU     25.01s WALL (   12324 calls)
     sum_band:cal :   2210.59s CPU   2420.62s WALL (   12324 calls)
     sum_band:bec :      6.77s CPU      7.16s WALL (   12324 calls)
     addusdens    :     52.43s CPU     66.69s WALL (      39 calls)
     addusd:skk   :      0.47s CPU      0.56s WALL (     117 calls)
     addusd:dgemm :     23.20s CPU     33.27s WALL (     234 calls)
     addusd:qvan2 :     27.34s CPU     31.17s WALL (     234 calls)

     Called by *egterg:
     cdiaghg      :   9010.39s CPU   9620.76s WALL (   47410 calls)
     cegterg:over :   9270.32s CPU   9902.14s WALL (   35086 calls)
     cegterg:upda :    459.10s CPU    501.55s WALL (   35086 calls)
     cegterg:last :   1066.78s CPU   1167.15s WALL (   22126 calls)
     h_psi        : 178501.43s CPU 191057.46s WALL (   47726 calls)
     s_psi        :    973.93s CPU   1061.93s WALL (   47726 calls)
     g_psi        :      7.45s CPU      7.90s WALL (   35086 calls)

     Called by h_psi:
     h_psi:calbec :   6554.69s CPU   7044.43s WALL (   47726 calls)
     vloc_psi     : 170913.26s CPU 182883.99s WALL (   47726 calls)
     add_vuspsi   :    993.98s CPU   1083.82s WALL (   47726 calls)

     General routines
     calbec       :   9111.88s CPU   9826.52s WALL (   61630 calls)
     fft          :     48.82s CPU     54.39s WALL (    1038 calls)
     ffts         :      4.37s CPU      4.69s WALL (     158 calls)
     fftw         : 207190.00s CPU 222275.26s WALL ( 9054504 calls)
     interpolate  :      4.70s CPU      5.10s WALL (      80 calls)

     Parallel routines
     fft_scatt_xy :    313.42s CPU    332.43s WALL ( 9055700 calls)
     fft_scatt_yz : 205508.16s CPU 220484.46s WALL ( 9055700 calls)

     PAW routines
     PAW_pot      :     19.04s CPU     20.54s WALL (      40 calls)
     PAW_symme    :      6.55s CPU      7.11s WALL (      79 calls)

     PWSCF        :   2d20h53m CPU   3d 1h56m WALL


   This run was terminated on:  13:13:59  27Dec2022            

=------------------------------------------------------------------------------=
   JOB DONE.
=------------------------------------------------------------------------------=
Note: The following floating-point exceptions are signalling: IEEE_DENORMAL
Note: The following floating-point exceptions are signalling: IEEE_DENORMAL
Note: The following floating-point exceptions are signalling: IEEE_INVALID_FLAG IEEE_DENORMAL
Note: The following floating-point exceptions are signalling: IEEE_DENORMAL
Note: The following floating-point exceptions are signalling: IEEE_DENORMAL
Note: The following floating-point exceptions are signalling: IEEE_DENORMAL
Note: The following floating-point exceptions are signalling: IEEE_DENORMAL
Note: The following floating-point exceptions are signalling: IEEE_DENORMAL
Note: The following floating-point exceptions are signalling: IEEE_DENORMAL
Note: The following floating-point exceptions are signalling: IEEE_INVALID_FLAG IEEE_DENORMAL
Note: The following floating-point exceptions are signalling: IEEE_DENORMAL
Note: The following floating-point exceptions are signalling: IEEE_DENORMAL
Note: The following floating-point exceptions are signalling: IEEE_DENORMAL
Note: The following floating-point exceptions are signalling: IEEE_DENORMAL
Note: The following floating-point exceptions are signalling: IEEE_DENORMAL
Note: The following floating-point exceptions are signalling: IEEE_DENORMAL
Note: The following floating-point exceptions are signalling: IEEE_DENORMAL
Note: The following floating-point exceptions are signalling: IEEE_INVALID_FLAG IEEE_DENORMAL
Note: The following floating-point exceptions are signalling: IEEE_DENORMAL
Note: The following floating-point exceptions are signalling: IEEE_DENORMAL
Note: The following floating-point exceptions are signalling: IEEE_DENORMAL
Note: The following floating-point exceptions are signalling: IEEE_DENORMAL
Note: The following floating-point exceptions are signalling: IEEE_DENORMAL
Note: The following floating-point exceptions are signalling: IEEE_DENORMAL
Note: The following floating-point exceptions are signalling: IEEE_UNDERFLOW_FLAG IEEE_DENORMAL
Note: The following floating-point exceptions are signalling: IEEE_DENORMAL
Note: The following floating-point exceptions are signalling: IEEE_DENORMAL
Note: The following floating-point exceptions are signalling: IEEE_DENORMAL
Note: The following floating-point exceptions are signalling: IEEE_DENORMAL
Note: The following floating-point exceptions are signalling: IEEE_DENORMAL
Note: The following floating-point exceptions are signalling: IEEE_DENORMAL
Note: The following floating-point exceptions are signalling: IEEE_DENORMAL
Note: The following floating-point exceptions are signalling: IEEE_DENORMAL
Note: The following floating-point exceptions are signalling: IEEE_DENORMAL
Note: The following floating-point exceptions are signalling: IEEE_DENORMAL
Note: The following floating-point exceptions are signalling: IEEE_DENORMAL
Note: The following floating-point exceptions are signalling: IEEE_DENORMAL
Note: The following floating-point exceptions are signalling: IEEE_DENORMAL
Note: The following floating-point exceptions are signalling: IEEE_DENORMAL
Note: The following floating-point exceptions are signalling: IEEE_DENORMAL
Note: The following floating-point exceptions are signalling: IEEE_DENORMAL
Note: The following floating-point exceptions are signalling: IEEE_DENORMAL
Note: The following floating-point exceptions are signalling: IEEE_DENORMAL
Note: The following floating-point exceptions are signalling: IEEE_DENORMAL
Note: The following floating-point exceptions are signalling: IEEE_DENORMAL
