
     Program PWSCF v.6.7MaX starts on 20Dec2022 at 13: 5:17 

     This program is part of the open-source Quantum ESPRESSO suite
     for quantum simulation of materials; please cite
         "P. Giannozzi et al., J. Phys.:Condens. Matter 21 395502 (2009);
         "P. Giannozzi et al., J. Phys.:Condens. Matter 29 465901 (2017);
          URL http://www.quantum-espresso.org", 
     in publications or presentations arising from this work. More details at
     http://www.quantum-espresso.org/quote

     Parallel version (MPI), running on    32 processors

     MPI processes distributed on     2 nodes
     R & G space division:  proc/nbgrp/npool/nimage =      32
     Reading input from scale_1da-03.in

     Current dimensions of program PWSCF are:
     Max number of different atomic species (ntypx) = 10
     Max number of k-points (npk) =  40000
     Max angular momentum in pseudopotentials (lmaxx) =  3
     Message from routine read_pp_mesh:
     mesh size missing, using the one in header
     file Fe.pbe-spn-kjpaw_psl.0.2.1.UPF: wavefunction(s)  3D renormalized
     file O.pbe-n-kjpaw_psl.0.1.UPF: wavefunction(s)  2P renormalized

     Subspace diagonalization in iterative solution of the eigenvalue problem:
     a serial algorithm will be used

     Message from routine find_sym:
     Not a group! Trying with lower acceptance parameter...
     Message from routine find_sym:
     Symmetry operations form a group
     Message from routine setup:
     using ibrav=0 with symmetry is DISCOURAGED, use correct ibrav instead

     Parallelization info
     --------------------
     sticks:   dense  smooth     PW     G-vecs:    dense   smooth      PW
     Min         631     233     63                41143     9275    1304
     Max         632     234     65                41145     9278    1305
     Sum       20195    7485   2029              1316619   296831   41755



     bravais-lattice index     =            0
     lattice parameter (alat)  =      19.9928  a.u.
     unit-cell volume          =    2196.3637 (a.u.)^3
     number of atoms/cell      =           28
     number of atomic types    =            4
     number of electrons       =       216.00
     number of Kohn-Sham states=          130
     kinetic-energy cutoff     =     100.0000  Ry
     charge density cutoff     =    1080.0000  Ry
     scf convergence threshold =      2.0E-10
     mixing beta               =       0.4000
     number of iterations used =            8  plain     mixing
     Exchange-correlation= PBE
                           (   1   4   3   4   0   0   0)

     celldm(1)=  19.992808  celldm(2)=   0.000000  celldm(3)=   0.000000
     celldm(4)=   0.000000  celldm(5)=   0.000000  celldm(6)=   0.000000

     crystal axes: (cart. coord. in units of alat)
               a(1) = (   1.000000   0.000000   0.000000 )  
               a(2) = (   0.000000   0.587793   0.000000 )  
               a(3) = (   0.000000   0.000000   0.467582 )  

     reciprocal axes: (cart. coord. in units 2 pi/alat)
               b(1) = (  1.000000  0.000000  0.000000 )  
               b(2) = (  0.000000  1.701278  0.000000 )  
               b(3) = (  0.000000  0.000000  2.138660 )  


     PseudoPot. # 1 for Fe read from file:
     /opt/QEpot/SSSP_precision_pseudos/Fe.pbe-spn-kjpaw_psl.0.2.1.UPF
     MD5 check sum: e86618425769142926afa95317d90200
     Pseudo is Projector augmented-wave + core cor, Zval = 16.0
     Generated using "atomic" code by A. Dal Corso  v.5.0.99 svn rev. 10869
     Shape of augmentation charge: PSQ
     Using radial grid of 1191 points,  6 beta functions with: 
                l(1) =   0
                l(2) =   0
                l(3) =   1
                l(4) =   1
                l(5) =   2
                l(6) =   2
     Q(r) pseudized with 0 coefficients 


     PseudoPot. # 2 for Na read from file:
     /opt/QEpot/SSSP_precision_pseudos/Na_ONCV_PBE-1.0.oncvpsp.upf
     MD5 check sum: 24a298df0a6742ae313db96548fdb2a4
     Pseudo is Norm-conserving, Zval =  9.0
     Generated using ONCVPSP code by D. R. Hamann
     Using radial grid of 1992 points,  4 beta functions with: 
                l(1) =   0
                l(2) =   0
                l(3) =   1
                l(4) =   1

     PseudoPot. # 3 for O  read from file:
     /opt/QEpot/SSSP_precision_pseudos/O.pbe-n-kjpaw_psl.0.1.UPF
     MD5 check sum: 0234752ac141de4415c5fc33072bef88
     Pseudo is Projector augmented-wave + core cor, Zval =  6.0
     Generated using "atomic" code by A. Dal Corso  v.5.0.99 svn rev. 10869
     Shape of augmentation charge: BESSEL
     Using radial grid of 1095 points,  4 beta functions with: 
                l(1) =   0
                l(2) =   0
                l(3) =   1
                l(4) =   1
     Q(r) pseudized with 0 coefficients 


     PseudoPot. # 4 for P  read from file:
     /opt/QEpot/SSSP_precision_pseudos/P.pbe-n-rrkjus_psl.1.0.0.UPF
     MD5 check sum: 8b930f418f0a4573dca56cd030ffe088
     Pseudo is Ultrasoft + core correction, Zval =  5.0
     Generated using "atomic" code by A. Dal Corso  v.5.1
     Using radial grid of 1147 points,  6 beta functions with: 
                l(1) =   0
                l(2) =   0
                l(3) =   1
                l(4) =   1
                l(5) =   2
                l(6) =   2
     Q(r) pseudized with 0 coefficients 


     atomic species   valence    mass     pseudopotential
        Fe            16.00    55.84500     Fe( 1.00)
        Na             9.00    22.98977     Na( 1.00)
        O              6.00    15.99940     O ( 1.00)
        P              5.00    30.97376     P ( 1.00)

     Starting magnetic structure 
     atomic species   magnetization
        Fe           0.312
        Na           0.000
        O            0.000
        P            0.000

      2 Sym. Ops., with inversion, found ( 1 have fractional translation)


                                    s                        frac. trans.

      isym =  1     identity                                     

 cryst.   s( 1) = (     1          0          0      )
                  (     0          1          0      )
                  (     0          0          1      )

 cart.    s( 1) = (  1.0000000  0.0000000  0.0000000 )
                  (  0.0000000  1.0000000  0.0000000 )
                  (  0.0000000  0.0000000  1.0000000 )


      isym =  2     inversion                                    

 cryst.   s( 2) = (    -1          0          0      )    f =( -0.0000060 )
                  (     0         -1          0      )       ( -0.0000040 )
                  (     0          0         -1      )       ( -0.0000060 )

 cart.    s( 2) = ( -1.0000000  0.0000000  0.0000000 )    f =( -0.0000060 )
                  (  0.0000000 -1.0000000  0.0000000 )       ( -0.0000024 )
                  (  0.0000000  0.0000000 -1.0000000 )       ( -0.0000028 )


   Cartesian axes

     site n.     atom                  positions (alat units)
         1           Na  tau(   1) = (   0.0000030   0.0000012   0.0000014  )
         2           Na  tau(   2) = (   0.5000030   0.0000012   0.2337926  )
         3           Na  tau(   3) = (   0.0000030   0.2938979   0.0000014  )
         4           Na  tau(   4) = (   0.5000030   0.2938979   0.2337926  )
         5           Fe  tau(   5) = (   0.2868420   0.4408444   0.4590636  )
         6           Fe  tau(   6) = (   0.2131640   0.1469513   0.2252723  )
         7           Fe  tau(   7) = (   0.7131640   0.1469513   0.0085217  )
         8           Fe  tau(   8) = (   0.7868410   0.4408444   0.2423129  )
         9           P   tau(   9) = (   0.1082720   0.4408474   0.2067182  )
        10           P   tau(  10) = (   0.3917330   0.1469489   0.4405099  )
        11           P   tau(  11) = (   0.8917330   0.1469489   0.2608671  )
        12           P   tau(  12) = (   0.6082730   0.4408474   0.0270754  )
        13           O   tau(  13) = (   0.1122130   0.4408462   0.3523094  )
        14           O   tau(  14) = (   0.3877920   0.1469501   0.1185181  )
        15           O   tau(  15) = (   0.8877930   0.1469501   0.1152759  )
        16           O   tau(  16) = (   0.6122130   0.4408462   0.3490671  )
        17           O   tau(  17) = (   0.4671820   0.4408462   0.0762262  )
        18           O   tau(  18) = (   0.0328240   0.1469495   0.3100175  )
        19           O   tau(  19) = (   0.5328240   0.1469495   0.3913590  )
        20           O   tau(  20) = (   0.9671820   0.4408462   0.1575673  )
        21           O   tau(  21) = (   0.1790170   0.5575949   0.1459839  )
        22           O   tau(  22) = (   0.3209880   0.0302014   0.3797751  )
        23           O   tau(  23) = (   0.8209870   0.2636959   0.3216023  )
        24           O   tau(  24) = (   0.6790190   0.3241004   0.0878110  )
        25           O   tau(  25) = (   0.8209880   0.0302014   0.3216013  )
        26           O   tau(  26) = (   0.6790180   0.5575949   0.0878101  )
        27           O   tau(  27) = (   0.1790190   0.3241004   0.1459830  )
        28           O   tau(  28) = (   0.3209870   0.2636959   0.3797742  )

   Crystallographic axes

     site n.     atom                  positions (cryst. coord.)
         1           Na  tau(   1) = (  0.0000030  0.0000020  0.0000030  )
         2           Na  tau(   2) = (  0.5000030  0.0000020  0.5000030  )
         3           Na  tau(   3) = (  0.0000030  0.5000020  0.0000030  )
         4           Na  tau(   4) = (  0.5000030  0.5000020  0.5000030  )
         5           Fe  tau(   5) = (  0.2868420  0.7499990  0.9817810  )
         6           Fe  tau(   6) = (  0.2131640  0.2500050  0.4817810  )
         7           Fe  tau(   7) = (  0.7131640  0.2500050  0.0182250  )
         8           Fe  tau(   8) = (  0.7868410  0.7499990  0.5182250  )
         9           P   tau(   9) = (  0.1082720  0.7500040  0.4421000  )
        10           P   tau(  10) = (  0.3917330  0.2500010  0.9421010  )
        11           P   tau(  11) = (  0.8917330  0.2500010  0.5579060  )
        12           P   tau(  12) = (  0.6082730  0.7500040  0.0579050  )
        13           O   tau(  13) = (  0.1122130  0.7500020  0.7534700  )
        14           O   tau(  14) = (  0.3877920  0.2500030  0.2534700  )
        15           O   tau(  15) = (  0.8877930  0.2500030  0.2465360  )
        16           O   tau(  16) = (  0.6122130  0.7500020  0.7465360  )
        17           O   tau(  17) = (  0.4671820  0.7500020  0.1630220  )
        18           O   tau(  18) = (  0.0328240  0.2500020  0.6630220  )
        19           O   tau(  19) = (  0.5328240  0.2500020  0.8369840  )
        20           O   tau(  20) = (  0.9671820  0.7500020  0.3369830  )
        21           O   tau(  21) = (  0.1790170  0.9486240  0.3122100  )
        22           O   tau(  22) = (  0.3209880  0.0513810  0.8122100  )
        23           O   tau(  23) = (  0.8209870  0.4486200  0.6877980  )
        24           O   tau(  24) = (  0.6790190  0.5513850  0.1877980  )
        25           O   tau(  25) = (  0.8209880  0.0513810  0.6877960  )
        26           O   tau(  26) = (  0.6790180  0.9486240  0.1877960  )
        27           O   tau(  27) = (  0.1790190  0.5513850  0.3122080  )
        28           O   tau(  28) = (  0.3209870  0.4486200  0.8122080  )

     number of k points=   158  Marzari-Vanderbilt smearing, width (Ry)=  0.0073
                       cart. coord. in units 2pi/alat
        k(    1) = (   0.0000000   0.0000000   0.0000000), wk =   0.0031746
        k(    2) = (   0.0000000   0.0000000   0.2376289), wk =   0.0063492
        k(    3) = (   0.0000000   0.0000000   0.4752578), wk =   0.0063492
        k(    4) = (   0.0000000   0.0000000   0.7128867), wk =   0.0063492
        k(    5) = (   0.0000000   0.0000000   0.9505157), wk =   0.0063492
        k(    6) = (   0.0000000   0.2430397   0.0000000), wk =   0.0063492
        k(    7) = (   0.0000000   0.2430397   0.2376289), wk =   0.0063492
        k(    8) = (   0.0000000   0.2430397   0.4752578), wk =   0.0063492
        k(    9) = (   0.0000000   0.2430397   0.7128867), wk =   0.0063492
        k(   10) = (   0.0000000   0.2430397   0.9505157), wk =   0.0063492
        k(   11) = (   0.0000000   0.4860795   0.0000000), wk =   0.0063492
        k(   12) = (   0.0000000   0.4860795   0.2376289), wk =   0.0063492
        k(   13) = (   0.0000000   0.4860795   0.4752578), wk =   0.0063492
        k(   14) = (   0.0000000   0.4860795   0.7128867), wk =   0.0063492
        k(   15) = (   0.0000000   0.4860795   0.9505157), wk =   0.0063492
        k(   16) = (   0.0000000   0.7291192   0.0000000), wk =   0.0063492
        k(   17) = (   0.0000000   0.7291192   0.2376289), wk =   0.0063492
        k(   18) = (   0.0000000   0.7291192   0.4752578), wk =   0.0063492
        k(   19) = (   0.0000000   0.7291192   0.7128867), wk =   0.0063492
        k(   20) = (   0.0000000   0.7291192   0.9505157), wk =   0.0063492
        k(   21) = (   0.2000000   0.0000000   0.0000000), wk =   0.0063492
        k(   22) = (   0.2000000   0.0000000   0.2376289), wk =   0.0063492
        k(   23) = (   0.2000000   0.0000000   0.4752578), wk =   0.0063492
        k(   24) = (   0.2000000   0.0000000   0.7128867), wk =   0.0063492
        k(   25) = (   0.2000000   0.0000000   0.9505157), wk =   0.0063492
        k(   26) = (   0.2000000   0.2430397   0.0000000), wk =   0.0063492
        k(   27) = (   0.2000000   0.2430397   0.2376289), wk =   0.0063492
        k(   28) = (   0.2000000   0.2430397   0.4752578), wk =   0.0063492
        k(   29) = (   0.2000000   0.2430397   0.7128867), wk =   0.0063492
        k(   30) = (   0.2000000   0.2430397   0.9505157), wk =   0.0063492
        k(   31) = (   0.2000000   0.4860795   0.0000000), wk =   0.0063492
        k(   32) = (   0.2000000   0.4860795   0.2376289), wk =   0.0063492
        k(   33) = (   0.2000000   0.4860795   0.4752578), wk =   0.0063492
        k(   34) = (   0.2000000   0.4860795   0.7128867), wk =   0.0063492
        k(   35) = (   0.2000000   0.4860795   0.9505157), wk =   0.0063492
        k(   36) = (   0.2000000   0.7291192   0.0000000), wk =   0.0063492
        k(   37) = (   0.2000000   0.7291192   0.2376289), wk =   0.0063492
        k(   38) = (   0.2000000   0.7291192   0.4752578), wk =   0.0063492
        k(   39) = (   0.2000000   0.7291192   0.7128867), wk =   0.0063492
        k(   40) = (   0.2000000   0.7291192   0.9505157), wk =   0.0063492
        k(   41) = (   0.4000000   0.0000000   0.0000000), wk =   0.0063492
        k(   42) = (   0.4000000   0.0000000   0.2376289), wk =   0.0063492
        k(   43) = (   0.4000000   0.0000000   0.4752578), wk =   0.0063492
        k(   44) = (   0.4000000   0.0000000   0.7128867), wk =   0.0063492
        k(   45) = (   0.4000000   0.0000000   0.9505157), wk =   0.0063492
        k(   46) = (   0.4000000   0.2430397   0.0000000), wk =   0.0063492
        k(   47) = (   0.4000000   0.2430397   0.2376289), wk =   0.0063492
        k(   48) = (   0.4000000   0.2430397   0.4752578), wk =   0.0063492
        k(   49) = (   0.4000000   0.2430397   0.7128867), wk =   0.0063492
        k(   50) = (   0.4000000   0.2430397   0.9505157), wk =   0.0063492
        k(   51) = (   0.4000000   0.4860795   0.0000000), wk =   0.0063492
        k(   52) = (   0.4000000   0.4860795   0.2376289), wk =   0.0063492
        k(   53) = (   0.4000000   0.4860795   0.4752578), wk =   0.0063492
        k(   54) = (   0.4000000   0.4860795   0.7128867), wk =   0.0063492
        k(   55) = (   0.4000000   0.4860795   0.9505157), wk =   0.0063492
        k(   56) = (   0.4000000   0.7291192   0.0000000), wk =   0.0063492
        k(   57) = (   0.4000000   0.7291192   0.2376289), wk =   0.0063492
        k(   58) = (   0.4000000   0.7291192   0.4752578), wk =   0.0063492
        k(   59) = (   0.4000000   0.7291192   0.7128867), wk =   0.0063492
        k(   60) = (   0.4000000   0.7291192   0.9505157), wk =   0.0063492
        k(   61) = (   0.0000000   0.2430397  -0.2376289), wk =   0.0063492
        k(   62) = (   0.0000000   0.2430397  -0.4752578), wk =   0.0063492
        k(   63) = (   0.0000000   0.2430397  -0.7128867), wk =   0.0063492
        k(   64) = (   0.0000000   0.2430397  -0.9505157), wk =   0.0063492
        k(   65) = (   0.0000000   0.4860795  -0.2376289), wk =   0.0063492
        k(   66) = (   0.0000000   0.4860795  -0.4752578), wk =   0.0063492
        k(   67) = (   0.0000000   0.4860795  -0.7128867), wk =   0.0063492
        k(   68) = (   0.0000000   0.4860795  -0.9505157), wk =   0.0063492
        k(   69) = (   0.0000000   0.7291192  -0.2376289), wk =   0.0063492
        k(   70) = (   0.0000000   0.7291192  -0.4752578), wk =   0.0063492
        k(   71) = (   0.0000000   0.7291192  -0.7128867), wk =   0.0063492
        k(   72) = (   0.0000000   0.7291192  -0.9505157), wk =   0.0063492
        k(   73) = (   0.2000000   0.0000000  -0.2376289), wk =   0.0063492
        k(   74) = (   0.2000000   0.0000000  -0.4752578), wk =   0.0063492
        k(   75) = (   0.2000000   0.0000000  -0.7128867), wk =   0.0063492
        k(   76) = (   0.2000000   0.0000000  -0.9505157), wk =   0.0063492
        k(   77) = (  -0.2000000   0.2430397   0.0000000), wk =   0.0063492
        k(   78) = (  -0.2000000   0.2430397  -0.2376289), wk =   0.0063492
        k(   79) = (   0.2000000  -0.2430397  -0.2376289), wk =   0.0063492
        k(   80) = (  -0.2000000  -0.2430397   0.2376289), wk =   0.0063492
        k(   81) = (  -0.2000000   0.2430397  -0.4752578), wk =   0.0063492
        k(   82) = (   0.2000000  -0.2430397  -0.4752578), wk =   0.0063492
        k(   83) = (  -0.2000000  -0.2430397   0.4752578), wk =   0.0063492
        k(   84) = (  -0.2000000   0.2430397  -0.7128867), wk =   0.0063492
        k(   85) = (   0.2000000  -0.2430397  -0.7128867), wk =   0.0063492
        k(   86) = (  -0.2000000  -0.2430397   0.7128867), wk =   0.0063492
        k(   87) = (  -0.2000000   0.2430397  -0.9505157), wk =   0.0063492
        k(   88) = (   0.2000000  -0.2430397  -0.9505157), wk =   0.0063492
        k(   89) = (  -0.2000000  -0.2430397   0.9505157), wk =   0.0063492
        k(   90) = (  -0.2000000   0.4860795   0.0000000), wk =   0.0063492
        k(   91) = (  -0.2000000   0.4860795  -0.2376289), wk =   0.0063492
        k(   92) = (   0.2000000  -0.4860795  -0.2376289), wk =   0.0063492
        k(   93) = (  -0.2000000  -0.4860795   0.2376289), wk =   0.0063492
        k(   94) = (  -0.2000000   0.4860795  -0.4752578), wk =   0.0063492
        k(   95) = (   0.2000000  -0.4860795  -0.4752578), wk =   0.0063492
        k(   96) = (  -0.2000000  -0.4860795   0.4752578), wk =   0.0063492
        k(   97) = (  -0.2000000   0.4860795  -0.7128867), wk =   0.0063492
        k(   98) = (   0.2000000  -0.4860795  -0.7128867), wk =   0.0063492
        k(   99) = (  -0.2000000  -0.4860795   0.7128867), wk =   0.0063492
        k(  100) = (  -0.2000000   0.4860795  -0.9505157), wk =   0.0063492
        k(  101) = (   0.2000000  -0.4860795  -0.9505157), wk =   0.0063492
        k(  102) = (  -0.2000000  -0.4860795   0.9505157), wk =   0.0063492
        k(  103) = (  -0.2000000   0.7291192   0.0000000), wk =   0.0063492
        k(  104) = (  -0.2000000   0.7291192  -0.2376289), wk =   0.0063492
        k(  105) = (   0.2000000  -0.7291192  -0.2376289), wk =   0.0063492
        k(  106) = (  -0.2000000  -0.7291192   0.2376289), wk =   0.0063492
        k(  107) = (  -0.2000000   0.7291192  -0.4752578), wk =   0.0063492
        k(  108) = (   0.2000000  -0.7291192  -0.4752578), wk =   0.0063492
        k(  109) = (  -0.2000000  -0.7291192   0.4752578), wk =   0.0063492
        k(  110) = (  -0.2000000   0.7291192  -0.7128867), wk =   0.0063492
        k(  111) = (   0.2000000  -0.7291192  -0.7128867), wk =   0.0063492
        k(  112) = (  -0.2000000  -0.7291192   0.7128867), wk =   0.0063492
        k(  113) = (  -0.2000000   0.7291192  -0.9505157), wk =   0.0063492
        k(  114) = (   0.2000000  -0.7291192  -0.9505157), wk =   0.0063492
        k(  115) = (  -0.2000000  -0.7291192   0.9505157), wk =   0.0063492
        k(  116) = (   0.4000000   0.0000000  -0.2376289), wk =   0.0063492
        k(  117) = (   0.4000000   0.0000000  -0.4752578), wk =   0.0063492
        k(  118) = (   0.4000000   0.0000000  -0.7128867), wk =   0.0063492
        k(  119) = (   0.4000000   0.0000000  -0.9505157), wk =   0.0063492
        k(  120) = (  -0.4000000   0.2430397   0.0000000), wk =   0.0063492
        k(  121) = (  -0.4000000   0.2430397  -0.2376289), wk =   0.0063492
        k(  122) = (   0.4000000  -0.2430397  -0.2376289), wk =   0.0063492
        k(  123) = (  -0.4000000  -0.2430397   0.2376289), wk =   0.0063492
        k(  124) = (  -0.4000000   0.2430397  -0.4752578), wk =   0.0063492
        k(  125) = (   0.4000000  -0.2430397  -0.4752578), wk =   0.0063492
        k(  126) = (  -0.4000000  -0.2430397   0.4752578), wk =   0.0063492
        k(  127) = (  -0.4000000   0.2430397  -0.7128867), wk =   0.0063492
        k(  128) = (   0.4000000  -0.2430397  -0.7128867), wk =   0.0063492
        k(  129) = (  -0.4000000  -0.2430397   0.7128867), wk =   0.0063492
        k(  130) = (  -0.4000000   0.2430397  -0.9505157), wk =   0.0063492
        k(  131) = (   0.4000000  -0.2430397  -0.9505157), wk =   0.0063492
        k(  132) = (  -0.4000000  -0.2430397   0.9505157), wk =   0.0063492
        k(  133) = (  -0.4000000   0.4860795   0.0000000), wk =   0.0063492
        k(  134) = (  -0.4000000   0.4860795  -0.2376289), wk =   0.0063492
        k(  135) = (   0.4000000  -0.4860795  -0.2376289), wk =   0.0063492
        k(  136) = (  -0.4000000  -0.4860795   0.2376289), wk =   0.0063492
        k(  137) = (  -0.4000000   0.4860795  -0.4752578), wk =   0.0063492
        k(  138) = (   0.4000000  -0.4860795  -0.4752578), wk =   0.0063492
        k(  139) = (  -0.4000000  -0.4860795   0.4752578), wk =   0.0063492
        k(  140) = (  -0.4000000   0.4860795  -0.7128867), wk =   0.0063492
        k(  141) = (   0.4000000  -0.4860795  -0.7128867), wk =   0.0063492
        k(  142) = (  -0.4000000  -0.4860795   0.7128867), wk =   0.0063492
        k(  143) = (  -0.4000000   0.4860795  -0.9505157), wk =   0.0063492
        k(  144) = (   0.4000000  -0.4860795  -0.9505157), wk =   0.0063492
        k(  145) = (  -0.4000000  -0.4860795   0.9505157), wk =   0.0063492
        k(  146) = (  -0.4000000   0.7291192   0.0000000), wk =   0.0063492
        k(  147) = (  -0.4000000   0.7291192  -0.2376289), wk =   0.0063492
        k(  148) = (   0.4000000  -0.7291192  -0.2376289), wk =   0.0063492
        k(  149) = (  -0.4000000  -0.7291192   0.2376289), wk =   0.0063492
        k(  150) = (  -0.4000000   0.7291192  -0.4752578), wk =   0.0063492
        k(  151) = (   0.4000000  -0.7291192  -0.4752578), wk =   0.0063492
        k(  152) = (  -0.4000000  -0.7291192   0.4752578), wk =   0.0063492
        k(  153) = (  -0.4000000   0.7291192  -0.7128867), wk =   0.0063492
        k(  154) = (   0.4000000  -0.7291192  -0.7128867), wk =   0.0063492
        k(  155) = (  -0.4000000  -0.7291192   0.7128867), wk =   0.0063492
        k(  156) = (  -0.4000000   0.7291192  -0.9505157), wk =   0.0063492
        k(  157) = (   0.4000000  -0.7291192  -0.9505157), wk =   0.0063492
        k(  158) = (  -0.4000000  -0.7291192   0.9505157), wk =   0.0063492

                       cryst. coord.
        k(    1) = (   0.0000000   0.0000000   0.0000000), wk =   0.0031746
        k(    2) = (   0.0000000   0.0000000   0.1111111), wk =   0.0063492
        k(    3) = (   0.0000000   0.0000000   0.2222222), wk =   0.0063492
        k(    4) = (   0.0000000   0.0000000   0.3333333), wk =   0.0063492
        k(    5) = (   0.0000000   0.0000000   0.4444444), wk =   0.0063492
        k(    6) = (   0.0000000   0.1428571   0.0000000), wk =   0.0063492
        k(    7) = (   0.0000000   0.1428571   0.1111111), wk =   0.0063492
        k(    8) = (   0.0000000   0.1428571   0.2222222), wk =   0.0063492
        k(    9) = (   0.0000000   0.1428571   0.3333333), wk =   0.0063492
        k(   10) = (   0.0000000   0.1428571   0.4444444), wk =   0.0063492
        k(   11) = (   0.0000000   0.2857143   0.0000000), wk =   0.0063492
        k(   12) = (   0.0000000   0.2857143   0.1111111), wk =   0.0063492
        k(   13) = (   0.0000000   0.2857143   0.2222222), wk =   0.0063492
        k(   14) = (   0.0000000   0.2857143   0.3333333), wk =   0.0063492
        k(   15) = (   0.0000000   0.2857143   0.4444444), wk =   0.0063492
        k(   16) = (   0.0000000   0.4285714   0.0000000), wk =   0.0063492
        k(   17) = (   0.0000000   0.4285714   0.1111111), wk =   0.0063492
        k(   18) = (   0.0000000   0.4285714   0.2222222), wk =   0.0063492
        k(   19) = (   0.0000000   0.4285714   0.3333333), wk =   0.0063492
        k(   20) = (   0.0000000   0.4285714   0.4444444), wk =   0.0063492
        k(   21) = (   0.2000000   0.0000000   0.0000000), wk =   0.0063492
        k(   22) = (   0.2000000   0.0000000   0.1111111), wk =   0.0063492
        k(   23) = (   0.2000000   0.0000000   0.2222222), wk =   0.0063492
        k(   24) = (   0.2000000   0.0000000   0.3333333), wk =   0.0063492
        k(   25) = (   0.2000000   0.0000000   0.4444444), wk =   0.0063492
        k(   26) = (   0.2000000   0.1428571   0.0000000), wk =   0.0063492
        k(   27) = (   0.2000000   0.1428571   0.1111111), wk =   0.0063492
        k(   28) = (   0.2000000   0.1428571   0.2222222), wk =   0.0063492
        k(   29) = (   0.2000000   0.1428571   0.3333333), wk =   0.0063492
        k(   30) = (   0.2000000   0.1428571   0.4444444), wk =   0.0063492
        k(   31) = (   0.2000000   0.2857143   0.0000000), wk =   0.0063492
        k(   32) = (   0.2000000   0.2857143   0.1111111), wk =   0.0063492
        k(   33) = (   0.2000000   0.2857143   0.2222222), wk =   0.0063492
        k(   34) = (   0.2000000   0.2857143   0.3333333), wk =   0.0063492
        k(   35) = (   0.2000000   0.2857143   0.4444444), wk =   0.0063492
        k(   36) = (   0.2000000   0.4285714   0.0000000), wk =   0.0063492
        k(   37) = (   0.2000000   0.4285714   0.1111111), wk =   0.0063492
        k(   38) = (   0.2000000   0.4285714   0.2222222), wk =   0.0063492
        k(   39) = (   0.2000000   0.4285714   0.3333333), wk =   0.0063492
        k(   40) = (   0.2000000   0.4285714   0.4444444), wk =   0.0063492
        k(   41) = (   0.4000000   0.0000000   0.0000000), wk =   0.0063492
        k(   42) = (   0.4000000   0.0000000   0.1111111), wk =   0.0063492
        k(   43) = (   0.4000000   0.0000000   0.2222222), wk =   0.0063492
        k(   44) = (   0.4000000   0.0000000   0.3333333), wk =   0.0063492
        k(   45) = (   0.4000000   0.0000000   0.4444444), wk =   0.0063492
        k(   46) = (   0.4000000   0.1428571   0.0000000), wk =   0.0063492
        k(   47) = (   0.4000000   0.1428571   0.1111111), wk =   0.0063492
        k(   48) = (   0.4000000   0.1428571   0.2222222), wk =   0.0063492
        k(   49) = (   0.4000000   0.1428571   0.3333333), wk =   0.0063492
        k(   50) = (   0.4000000   0.1428571   0.4444444), wk =   0.0063492
        k(   51) = (   0.4000000   0.2857143   0.0000000), wk =   0.0063492
        k(   52) = (   0.4000000   0.2857143   0.1111111), wk =   0.0063492
        k(   53) = (   0.4000000   0.2857143   0.2222222), wk =   0.0063492
        k(   54) = (   0.4000000   0.2857143   0.3333333), wk =   0.0063492
        k(   55) = (   0.4000000   0.2857143   0.4444444), wk =   0.0063492
        k(   56) = (   0.4000000   0.4285714   0.0000000), wk =   0.0063492
        k(   57) = (   0.4000000   0.4285714   0.1111111), wk =   0.0063492
        k(   58) = (   0.4000000   0.4285714   0.2222222), wk =   0.0063492
        k(   59) = (   0.4000000   0.4285714   0.3333333), wk =   0.0063492
        k(   60) = (   0.4000000   0.4285714   0.4444444), wk =   0.0063492
        k(   61) = (   0.0000000   0.1428571  -0.1111111), wk =   0.0063492
        k(   62) = (   0.0000000   0.1428571  -0.2222222), wk =   0.0063492
        k(   63) = (   0.0000000   0.1428571  -0.3333333), wk =   0.0063492
        k(   64) = (   0.0000000   0.1428571  -0.4444444), wk =   0.0063492
        k(   65) = (   0.0000000   0.2857143  -0.1111111), wk =   0.0063492
        k(   66) = (   0.0000000   0.2857143  -0.2222222), wk =   0.0063492
        k(   67) = (   0.0000000   0.2857143  -0.3333333), wk =   0.0063492
        k(   68) = (   0.0000000   0.2857143  -0.4444444), wk =   0.0063492
        k(   69) = (   0.0000000   0.4285714  -0.1111111), wk =   0.0063492
        k(   70) = (   0.0000000   0.4285714  -0.2222222), wk =   0.0063492
        k(   71) = (   0.0000000   0.4285714  -0.3333333), wk =   0.0063492
        k(   72) = (   0.0000000   0.4285714  -0.4444444), wk =   0.0063492
        k(   73) = (   0.2000000   0.0000000  -0.1111111), wk =   0.0063492
        k(   74) = (   0.2000000   0.0000000  -0.2222222), wk =   0.0063492
        k(   75) = (   0.2000000   0.0000000  -0.3333333), wk =   0.0063492
        k(   76) = (   0.2000000   0.0000000  -0.4444444), wk =   0.0063492
        k(   77) = (  -0.2000000   0.1428571   0.0000000), wk =   0.0063492
        k(   78) = (  -0.2000000   0.1428571  -0.1111111), wk =   0.0063492
        k(   79) = (   0.2000000  -0.1428571  -0.1111111), wk =   0.0063492
        k(   80) = (  -0.2000000  -0.1428571   0.1111111), wk =   0.0063492
        k(   81) = (  -0.2000000   0.1428571  -0.2222222), wk =   0.0063492
        k(   82) = (   0.2000000  -0.1428571  -0.2222222), wk =   0.0063492
        k(   83) = (  -0.2000000  -0.1428571   0.2222222), wk =   0.0063492
        k(   84) = (  -0.2000000   0.1428571  -0.3333333), wk =   0.0063492
        k(   85) = (   0.2000000  -0.1428571  -0.3333333), wk =   0.0063492
        k(   86) = (  -0.2000000  -0.1428571   0.3333333), wk =   0.0063492
        k(   87) = (  -0.2000000   0.1428571  -0.4444444), wk =   0.0063492
        k(   88) = (   0.2000000  -0.1428571  -0.4444444), wk =   0.0063492
        k(   89) = (  -0.2000000  -0.1428571   0.4444444), wk =   0.0063492
        k(   90) = (  -0.2000000   0.2857143   0.0000000), wk =   0.0063492
        k(   91) = (  -0.2000000   0.2857143  -0.1111111), wk =   0.0063492
        k(   92) = (   0.2000000  -0.2857143  -0.1111111), wk =   0.0063492
        k(   93) = (  -0.2000000  -0.2857143   0.1111111), wk =   0.0063492
        k(   94) = (  -0.2000000   0.2857143  -0.2222222), wk =   0.0063492
        k(   95) = (   0.2000000  -0.2857143  -0.2222222), wk =   0.0063492
        k(   96) = (  -0.2000000  -0.2857143   0.2222222), wk =   0.0063492
        k(   97) = (  -0.2000000   0.2857143  -0.3333333), wk =   0.0063492
        k(   98) = (   0.2000000  -0.2857143  -0.3333333), wk =   0.0063492
        k(   99) = (  -0.2000000  -0.2857143   0.3333333), wk =   0.0063492
        k(  100) = (  -0.2000000   0.2857143  -0.4444444), wk =   0.0063492
        k(  101) = (   0.2000000  -0.2857143  -0.4444444), wk =   0.0063492
        k(  102) = (  -0.2000000  -0.2857143   0.4444444), wk =   0.0063492
        k(  103) = (  -0.2000000   0.4285714   0.0000000), wk =   0.0063492
        k(  104) = (  -0.2000000   0.4285714  -0.1111111), wk =   0.0063492
        k(  105) = (   0.2000000  -0.4285714  -0.1111111), wk =   0.0063492
        k(  106) = (  -0.2000000  -0.4285714   0.1111111), wk =   0.0063492
        k(  107) = (  -0.2000000   0.4285714  -0.2222222), wk =   0.0063492
        k(  108) = (   0.2000000  -0.4285714  -0.2222222), wk =   0.0063492
        k(  109) = (  -0.2000000  -0.4285714   0.2222222), wk =   0.0063492
        k(  110) = (  -0.2000000   0.4285714  -0.3333333), wk =   0.0063492
        k(  111) = (   0.2000000  -0.4285714  -0.3333333), wk =   0.0063492
        k(  112) = (  -0.2000000  -0.4285714   0.3333333), wk =   0.0063492
        k(  113) = (  -0.2000000   0.4285714  -0.4444444), wk =   0.0063492
        k(  114) = (   0.2000000  -0.4285714  -0.4444444), wk =   0.0063492
        k(  115) = (  -0.2000000  -0.4285714   0.4444444), wk =   0.0063492
        k(  116) = (   0.4000000   0.0000000  -0.1111111), wk =   0.0063492
        k(  117) = (   0.4000000   0.0000000  -0.2222222), wk =   0.0063492
        k(  118) = (   0.4000000   0.0000000  -0.3333333), wk =   0.0063492
        k(  119) = (   0.4000000   0.0000000  -0.4444444), wk =   0.0063492
        k(  120) = (  -0.4000000   0.1428571   0.0000000), wk =   0.0063492
        k(  121) = (  -0.4000000   0.1428571  -0.1111111), wk =   0.0063492
        k(  122) = (   0.4000000  -0.1428571  -0.1111111), wk =   0.0063492
        k(  123) = (  -0.4000000  -0.1428571   0.1111111), wk =   0.0063492
        k(  124) = (  -0.4000000   0.1428571  -0.2222222), wk =   0.0063492
        k(  125) = (   0.4000000  -0.1428571  -0.2222222), wk =   0.0063492
        k(  126) = (  -0.4000000  -0.1428571   0.2222222), wk =   0.0063492
        k(  127) = (  -0.4000000   0.1428571  -0.3333333), wk =   0.0063492
        k(  128) = (   0.4000000  -0.1428571  -0.3333333), wk =   0.0063492
        k(  129) = (  -0.4000000  -0.1428571   0.3333333), wk =   0.0063492
        k(  130) = (  -0.4000000   0.1428571  -0.4444444), wk =   0.0063492
        k(  131) = (   0.4000000  -0.1428571  -0.4444444), wk =   0.0063492
        k(  132) = (  -0.4000000  -0.1428571   0.4444444), wk =   0.0063492
        k(  133) = (  -0.4000000   0.2857143   0.0000000), wk =   0.0063492
        k(  134) = (  -0.4000000   0.2857143  -0.1111111), wk =   0.0063492
        k(  135) = (   0.4000000  -0.2857143  -0.1111111), wk =   0.0063492
        k(  136) = (  -0.4000000  -0.2857143   0.1111111), wk =   0.0063492
        k(  137) = (  -0.4000000   0.2857143  -0.2222222), wk =   0.0063492
        k(  138) = (   0.4000000  -0.2857143  -0.2222222), wk =   0.0063492
        k(  139) = (  -0.4000000  -0.2857143   0.2222222), wk =   0.0063492
        k(  140) = (  -0.4000000   0.2857143  -0.3333333), wk =   0.0063492
        k(  141) = (   0.4000000  -0.2857143  -0.3333333), wk =   0.0063492
        k(  142) = (  -0.4000000  -0.2857143   0.3333333), wk =   0.0063492
        k(  143) = (  -0.4000000   0.2857143  -0.4444444), wk =   0.0063492
        k(  144) = (   0.4000000  -0.2857143  -0.4444444), wk =   0.0063492
        k(  145) = (  -0.4000000  -0.2857143   0.4444444), wk =   0.0063492
        k(  146) = (  -0.4000000   0.4285714   0.0000000), wk =   0.0063492
        k(  147) = (  -0.4000000   0.4285714  -0.1111111), wk =   0.0063492
        k(  148) = (   0.4000000  -0.4285714  -0.1111111), wk =   0.0063492
        k(  149) = (  -0.4000000  -0.4285714   0.1111111), wk =   0.0063492
        k(  150) = (  -0.4000000   0.4285714  -0.2222222), wk =   0.0063492
        k(  151) = (   0.4000000  -0.4285714  -0.2222222), wk =   0.0063492
        k(  152) = (  -0.4000000  -0.4285714   0.2222222), wk =   0.0063492
        k(  153) = (  -0.4000000   0.4285714  -0.3333333), wk =   0.0063492
        k(  154) = (   0.4000000  -0.4285714  -0.3333333), wk =   0.0063492
        k(  155) = (  -0.4000000  -0.4285714   0.3333333), wk =   0.0063492
        k(  156) = (  -0.4000000   0.4285714  -0.4444444), wk =   0.0063492
        k(  157) = (   0.4000000  -0.4285714  -0.4444444), wk =   0.0063492
        k(  158) = (  -0.4000000  -0.4285714   0.4444444), wk =   0.0063492

     Dense  grid:  1316619 G-vectors     FFT dimensions: ( 216, 125, 100)

     Smooth grid:   296831 G-vectors     FFT dimensions: ( 128,  75,  60)

     Dynamical RAM for                 wfc:       2.30 MB

     Dynamical RAM for     wfc (w. buffer):     728.80 MB

     Dynamical RAM for           str. fact:       2.51 MB

     Dynamical RAM for           local pot:       0.00 MB

     Dynamical RAM for          nlocal pot:       5.38 MB

     Dynamical RAM for                qrad:      10.54 MB

     Dynamical RAM for          rho,v,vnew:       8.71 MB

     Dynamical RAM for               rhoin:       2.90 MB

     Dynamical RAM for            rho*nmix:      20.09 MB

     Dynamical RAM for           G-vectors:       2.43 MB

     Dynamical RAM for          h,s,v(r/c):       3.09 MB

     Dynamical RAM for          <psi|beta>:       0.60 MB

     Dynamical RAM for                 psi:       4.60 MB

     Dynamical RAM for                hpsi:       4.60 MB

     Dynamical RAM for                spsi:       4.60 MB

     Dynamical RAM for      wfcinit/wfcrot:       5.91 MB

     Dynamical RAM for           addusdens:     127.45 MB

     Dynamical RAM for          addusforce:     146.41 MB

     Dynamical RAM for         addusstress:     127.13 MB

     Estimated static dynamical RAM per process >     789.44 MB

     Estimated max dynamical RAM per process >     935.85 MB

     Estimated total dynamical RAM >      29.25 GB

     Check: negative core charge=   -0.000003
     Generating pointlists ...
     new r_m :   0.0813 (alat units)  1.6252 (a.u.) for type    1
     new r_m :   0.0899 (alat units)  1.7969 (a.u.) for type    2
     new r_m :   0.0601 (alat units)  1.2011 (a.u.) for type    3
     new r_m :   0.0601 (alat units)  1.2011 (a.u.) for type    4

     Initial potential from superposition of free atoms

     starting charge  215.97252, renormalised to  216.00000
     Starting wfcs are  152 randomized atomic wfcs
     Checking if some PAW data can be deallocated... 
       PAW data deallocated on   28 nodes for type:  1
       PAW data deallocated on   16 nodes for type:  3

     total cpu time spent up to now is      128.0 secs

     Self-consistent Calculation

     iteration #  1     ecut=   100.00 Ry     beta= 0.40
     Davidson diagonalization with overlap
     ethr =  1.00E-02,  avg # of iterations =  3.3

     negative rho (up, down):  0.000E+00 5.797E-05

     total cpu time spent up to now is      508.2 secs

     total energy              =   -2380.65928529 Ry
     estimated scf accuracy    <       5.65697912 Ry

     total magnetization       =    16.00 Bohr mag/cell
     absolute magnetization    =    16.01 Bohr mag/cell

     iteration #  2     ecut=   100.00 Ry     beta= 0.40
     Davidson diagonalization with overlap
     ethr =  2.62E-03,  avg # of iterations =  2.0

     negative rho (up, down):  0.000E+00 1.572E-04

     total cpu time spent up to now is      855.5 secs

     total energy              =   -2382.05253431 Ry
     estimated scf accuracy    <       0.52022034 Ry

     total magnetization       =    16.00 Bohr mag/cell
     absolute magnetization    =    16.01 Bohr mag/cell

     iteration #  3     ecut=   100.00 Ry     beta= 0.40
     Davidson diagonalization with overlap
     ethr =  2.41E-04,  avg # of iterations = 10.1

     negative rho (up, down):  0.000E+00 1.705E-04

     total cpu time spent up to now is     1299.4 secs

     total energy              =   -2382.04607848 Ry
     estimated scf accuracy    <       3.47943592 Ry

     total magnetization       =    16.00 Bohr mag/cell
     absolute magnetization    =    16.04 Bohr mag/cell

     iteration #  4     ecut=   100.00 Ry     beta= 0.40
     Davidson diagonalization with overlap
     ethr =  2.41E-04,  avg # of iterations =  2.0

     negative rho (up, down):  0.000E+00 3.080E-04

     total cpu time spent up to now is     1605.9 secs

     total energy              =   -2382.09740866 Ry
     estimated scf accuracy    <       1.60696639 Ry

     total magnetization       =    16.00 Bohr mag/cell
     absolute magnetization    =    16.05 Bohr mag/cell

     iteration #  5     ecut=   100.00 Ry     beta= 0.40
     Davidson diagonalization with overlap
     ethr =  2.41E-04,  avg # of iterations =  1.5

     negative rho (up, down):  0.000E+00 5.197E-04

     total cpu time spent up to now is     1891.7 secs

     total energy              =   -2382.09259056 Ry
     estimated scf accuracy    <       2.01505606 Ry

     total magnetization       =    16.00 Bohr mag/cell
     absolute magnetization    =    16.05 Bohr mag/cell

     iteration #  6     ecut=   100.00 Ry     beta= 0.40
     Davidson diagonalization with overlap
     ethr =  2.41E-04,  avg # of iterations =  1.9

     negative rho (up, down):  0.000E+00 5.392E-04

     total cpu time spent up to now is     2188.1 secs

     total energy              =   -2382.16412705 Ry
     estimated scf accuracy    <       2.11936151 Ry

     total magnetization       =    16.00 Bohr mag/cell
     absolute magnetization    =    16.07 Bohr mag/cell

     iteration #  7     ecut=   100.00 Ry     beta= 0.40
     Davidson diagonalization with overlap
     ethr =  2.41E-04,  avg # of iterations =  1.0

     negative rho (up, down):  0.000E+00 5.541E-04

     total cpu time spent up to now is     2459.6 secs

     total energy              =   -2382.21302647 Ry
     estimated scf accuracy    <       0.08953513 Ry

     total magnetization       =    16.00 Bohr mag/cell
     absolute magnetization    =    16.06 Bohr mag/cell

     iteration #  8     ecut=   100.00 Ry     beta= 0.40
     Davidson diagonalization with overlap
     ethr =  4.15E-05,  avg # of iterations =  1.6

     negative rho (up, down):  0.000E+00 5.522E-04

     total cpu time spent up to now is     2739.4 secs

     total energy              =   -2382.21432418 Ry
     estimated scf accuracy    <       0.37164590 Ry

     total magnetization       =    16.00 Bohr mag/cell
     absolute magnetization    =    16.06 Bohr mag/cell

     iteration #  9     ecut=   100.00 Ry     beta= 0.40
     Davidson diagonalization with overlap
     ethr =  4.15E-05,  avg # of iterations =  1.3

     negative rho (up, down):  0.000E+00 5.509E-04

     total cpu time spent up to now is     3018.8 secs

     total energy              =   -2382.21520483 Ry
     estimated scf accuracy    <       0.14831311 Ry

     total magnetization       =    16.00 Bohr mag/cell
     absolute magnetization    =    16.07 Bohr mag/cell

     iteration # 10     ecut=   100.00 Ry     beta= 0.40
     Davidson diagonalization with overlap
     ethr =  4.15E-05,  avg # of iterations =  1.0

     negative rho (up, down):  0.000E+00 5.476E-04

     total cpu time spent up to now is     3290.9 secs

     total energy              =   -2382.21775273 Ry
     estimated scf accuracy    <       0.08404417 Ry

     total magnetization       =    16.00 Bohr mag/cell
     absolute magnetization    =    16.08 Bohr mag/cell

     iteration # 11     ecut=   100.00 Ry     beta= 0.40
     Davidson diagonalization with overlap
     ethr =  3.89E-05,  avg # of iterations =  1.0

     negative rho (up, down):  0.000E+00 5.368E-04

     total cpu time spent up to now is     3563.2 secs

     total energy              =   -2382.22042892 Ry
     estimated scf accuracy    <       0.07505729 Ry

     total magnetization       =    16.00 Bohr mag/cell
     absolute magnetization    =    16.08 Bohr mag/cell

     iteration # 12     ecut=   100.00 Ry     beta= 0.40
     Davidson diagonalization with overlap
     ethr =  3.47E-05,  avg # of iterations =  1.0

     negative rho (up, down):  0.000E+00 5.375E-04

     total cpu time spent up to now is     3834.8 secs

     total energy              =   -2382.22126192 Ry
     estimated scf accuracy    <       0.03220875 Ry

     total magnetization       =    16.00 Bohr mag/cell
     absolute magnetization    =    16.08 Bohr mag/cell

     iteration # 13     ecut=   100.00 Ry     beta= 0.40
     Davidson diagonalization with overlap
     c_bands:  1 eigenvalues not converged
     c_bands:  1 eigenvalues not converged
     ethr =  1.49E-05,  avg # of iterations =  1.8

     negative rho (up, down):  0.000E+00 5.384E-04

     total cpu time spent up to now is     4117.6 secs

     total energy              =   -2382.22143697 Ry
     estimated scf accuracy    <       0.03227605 Ry

     total magnetization       =    16.00 Bohr mag/cell
     absolute magnetization    =    16.08 Bohr mag/cell

     iteration # 14     ecut=   100.00 Ry     beta= 0.40
     Davidson diagonalization with overlap
     ethr =  1.49E-05,  avg # of iterations =  1.3

     negative rho (up, down):  0.000E+00 5.374E-04

     total cpu time spent up to now is     4394.6 secs

     total energy              =   -2382.22180427 Ry
     estimated scf accuracy    <       0.03240335 Ry

     total magnetization       =    16.00 Bohr mag/cell
     absolute magnetization    =    16.08 Bohr mag/cell

     iteration # 15     ecut=   100.00 Ry     beta= 0.40
     Davidson diagonalization with overlap
     ethr =  1.49E-05,  avg # of iterations =  1.0

     negative rho (up, down):  0.000E+00 5.207E-04

     total cpu time spent up to now is     4666.3 secs

     total energy              =   -2382.22564236 Ry
     estimated scf accuracy    <       0.03130805 Ry

     total magnetization       =    16.00 Bohr mag/cell
     absolute magnetization    =    16.08 Bohr mag/cell

     iteration # 16     ecut=   100.00 Ry     beta= 0.40
     Davidson diagonalization with overlap
     ethr =  1.45E-05,  avg # of iterations =  2.0

     negative rho (up, down):  0.000E+00 5.160E-04

     total cpu time spent up to now is     4970.5 secs

     total energy              =   -2382.22905926 Ry
     estimated scf accuracy    <       0.01080291 Ry

     total magnetization       =    16.00 Bohr mag/cell
     absolute magnetization    =    16.08 Bohr mag/cell

     iteration # 17     ecut=   100.00 Ry     beta= 0.40
     Davidson diagonalization with overlap
     c_bands:  1 eigenvalues not converged
     c_bands:  1 eigenvalues not converged
     c_bands:  1 eigenvalues not converged
     c_bands:  1 eigenvalues not converged
     c_bands:  1 eigenvalues not converged
     c_bands:  1 eigenvalues not converged
     c_bands:  1 eigenvalues not converged
     c_bands:  1 eigenvalues not converged
     c_bands:  1 eigenvalues not converged
     c_bands:  1 eigenvalues not converged
     c_bands:  1 eigenvalues not converged
     c_bands:  1 eigenvalues not converged
     c_bands:  1 eigenvalues not converged
     c_bands:  2 eigenvalues not converged
     c_bands:  2 eigenvalues not converged
     c_bands:  2 eigenvalues not converged
     ethr =  5.00E-06,  avg # of iterations =  7.7

     negative rho (up, down):  0.000E+00 5.192E-04

     total cpu time spent up to now is     5320.4 secs

     total energy              =   -2382.22980436 Ry
     estimated scf accuracy    <       0.00539342 Ry

     total magnetization       =    16.00 Bohr mag/cell
     absolute magnetization    =    16.08 Bohr mag/cell

     iteration # 18     ecut=   100.00 Ry     beta= 0.40
     Davidson diagonalization with overlap
     c_bands:  1 eigenvalues not converged
     c_bands:  1 eigenvalues not converged
     c_bands:  1 eigenvalues not converged
     c_bands:  1 eigenvalues not converged
     c_bands:  1 eigenvalues not converged
     c_bands:  1 eigenvalues not converged
     c_bands:  2 eigenvalues not converged
     c_bands:  1 eigenvalues not converged
     c_bands:  1 eigenvalues not converged
     c_bands:  2 eigenvalues not converged
     c_bands:  2 eigenvalues not converged
     c_bands:  1 eigenvalues not converged
     c_bands:  1 eigenvalues not converged
     ethr =  2.50E-06,  avg # of iterations =  6.3

     negative rho (up, down):  0.000E+00 5.299E-04

     total cpu time spent up to now is     5653.7 secs

     total energy              =   -2382.22962633 Ry
     estimated scf accuracy    <       0.00815730 Ry

     total magnetization       =    16.00 Bohr mag/cell
     absolute magnetization    =    16.08 Bohr mag/cell

     iteration # 19     ecut=   100.00 Ry     beta= 0.40
     Davidson diagonalization with overlap
     ethr =  2.50E-06,  avg # of iterations =  2.2

     negative rho (up, down):  0.000E+00 5.327E-04

     total cpu time spent up to now is     5962.6 secs

     total energy              =   -2382.23038645 Ry
     estimated scf accuracy    <       0.00339585 Ry

     total magnetization       =    16.00 Bohr mag/cell
     absolute magnetization    =    16.08 Bohr mag/cell

     iteration # 20     ecut=   100.00 Ry     beta= 0.40
     Davidson diagonalization with overlap
     ethr =  1.57E-06,  avg # of iterations =  1.1

     negative rho (up, down):  0.000E+00 5.389E-04

     total cpu time spent up to now is     6236.6 secs

     total energy              =   -2382.23049849 Ry
     estimated scf accuracy    <       0.00243979 Ry

     total magnetization       =    16.00 Bohr mag/cell
     absolute magnetization    =    16.08 Bohr mag/cell

     iteration # 21     ecut=   100.00 Ry     beta= 0.40
     Davidson diagonalization with overlap
     ethr =  1.13E-06,  avg # of iterations =  1.5

     negative rho (up, down):  0.000E+00 5.409E-04

     total cpu time spent up to now is     6523.4 secs

     total energy              =   -2382.23070918 Ry
     estimated scf accuracy    <       0.00036187 Ry

     total magnetization       =    16.00 Bohr mag/cell
     absolute magnetization    =    16.08 Bohr mag/cell

     iteration # 22     ecut=   100.00 Ry     beta= 0.40
     Davidson diagonalization with overlap
     ethr =  1.68E-07,  avg # of iterations =  2.1

     negative rho (up, down):  0.000E+00 5.432E-04

     total cpu time spent up to now is     6831.9 secs

     total energy              =   -2382.23070219 Ry
     estimated scf accuracy    <       0.00173085 Ry

     total magnetization       =    16.00 Bohr mag/cell
     absolute magnetization    =    16.08 Bohr mag/cell

     iteration # 23     ecut=   100.00 Ry     beta= 0.40
     Davidson diagonalization with overlap
     ethr =  1.68E-07,  avg # of iterations =  2.0

     negative rho (up, down):  0.000E+00 5.445E-04

     total cpu time spent up to now is     7150.5 secs

     total energy              =   -2382.23059278 Ry
     estimated scf accuracy    <       0.00063512 Ry

     total magnetization       =    16.00 Bohr mag/cell
     absolute magnetization    =    16.07 Bohr mag/cell

     iteration # 24     ecut=   100.00 Ry     beta= 0.40
     Davidson diagonalization with overlap
     ethr =  1.68E-07,  avg # of iterations =  2.2

     negative rho (up, down):  0.000E+00 5.418E-04

     total cpu time spent up to now is     7479.7 secs

     total energy              =   -2382.23116591 Ry
     estimated scf accuracy    <       0.00010441 Ry

     total magnetization       =    16.00 Bohr mag/cell
     absolute magnetization    =    16.07 Bohr mag/cell

     iteration # 25     ecut=   100.00 Ry     beta= 0.40
     Davidson diagonalization with overlap
     ethr =  4.83E-08,  avg # of iterations =  2.3

     negative rho (up, down):  0.000E+00 5.413E-04

     total cpu time spent up to now is     7793.3 secs

     total energy              =   -2382.23114994 Ry
     estimated scf accuracy    <       0.00004485 Ry

     total magnetization       =    16.00 Bohr mag/cell
     absolute magnetization    =    16.07 Bohr mag/cell

     iteration # 26     ecut=   100.00 Ry     beta= 0.40
     Davidson diagonalization with overlap
     ethr =  2.08E-08,  avg # of iterations =  4.1

     negative rho (up, down):  0.000E+00 5.407E-04

     total cpu time spent up to now is     8158.7 secs

     total energy              =   -2382.23126394 Ry
     estimated scf accuracy    <       0.00000897 Ry

     total magnetization       =    16.00 Bohr mag/cell
     absolute magnetization    =    16.07 Bohr mag/cell

     iteration # 27     ecut=   100.00 Ry     beta= 0.40
     Davidson diagonalization with overlap
     ethr =  4.15E-09,  avg # of iterations =  3.8

     negative rho (up, down):  0.000E+00 5.405E-04

     total cpu time spent up to now is     8505.9 secs

     total energy              =   -2382.23127401 Ry
     estimated scf accuracy    <       0.00001939 Ry

     total magnetization       =    16.00 Bohr mag/cell
     absolute magnetization    =    16.07 Bohr mag/cell

     iteration # 28     ecut=   100.00 Ry     beta= 0.40
     Davidson diagonalization with overlap
     ethr =  4.15E-09,  avg # of iterations =  2.0

     negative rho (up, down):  0.000E+00 5.410E-04

     total cpu time spent up to now is     8815.2 secs

     total energy              =   -2382.23128366 Ry
     estimated scf accuracy    <       0.00000403 Ry

     total magnetization       =    16.00 Bohr mag/cell
     absolute magnetization    =    16.07 Bohr mag/cell

     iteration # 29     ecut=   100.00 Ry     beta= 0.40
     Davidson diagonalization with overlap
     ethr =  1.87E-09,  avg # of iterations =  2.0

     negative rho (up, down):  0.000E+00 5.411E-04

     total cpu time spent up to now is     9119.4 secs

     total energy              =   -2382.23128693 Ry
     estimated scf accuracy    <       0.00000270 Ry

     total magnetization       =    16.00 Bohr mag/cell
     absolute magnetization    =    16.07 Bohr mag/cell

     iteration # 30     ecut=   100.00 Ry     beta= 0.40
     Davidson diagonalization with overlap
     ethr =  1.25E-09,  avg # of iterations =  2.0

     negative rho (up, down):  0.000E+00 5.412E-04

     total cpu time spent up to now is     9420.1 secs

     total energy              =   -2382.23128844 Ry
     estimated scf accuracy    <       0.00000093 Ry

     total magnetization       =    16.00 Bohr mag/cell
     absolute magnetization    =    16.07 Bohr mag/cell

     iteration # 31     ecut=   100.00 Ry     beta= 0.40
     Davidson diagonalization with overlap
     ethr =  4.31E-10,  avg # of iterations =  2.6

     negative rho (up, down):  0.000E+00 5.411E-04

     total cpu time spent up to now is     9735.9 secs

     total energy              =   -2382.23128880 Ry
     estimated scf accuracy    <       0.00000018 Ry

     total magnetization       =    16.00 Bohr mag/cell
     absolute magnetization    =    16.07 Bohr mag/cell

     iteration # 32     ecut=   100.00 Ry     beta= 0.40
     Davidson diagonalization with overlap
     ethr =  8.45E-11,  avg # of iterations =  4.5

     negative rho (up, down):  0.000E+00 5.410E-04

     total cpu time spent up to now is    10151.1 secs

     total energy              =   -2382.23128905 Ry
     estimated scf accuracy    <       0.00000008 Ry

     total magnetization       =    16.00 Bohr mag/cell
     absolute magnetization    =    16.07 Bohr mag/cell

     iteration # 33     ecut=   100.00 Ry     beta= 0.40
     Davidson diagonalization with overlap
     ethr =  3.85E-11,  avg # of iterations =  3.9

     negative rho (up, down):  0.000E+00 5.410E-04

     total cpu time spent up to now is    10528.3 secs

     total energy              =   -2382.23128970 Ry
     estimated scf accuracy    <          8.6E-09 Ry

     total magnetization       =    16.00 Bohr mag/cell
     absolute magnetization    =    16.07 Bohr mag/cell

     iteration # 34     ecut=   100.00 Ry     beta= 0.40
     Davidson diagonalization with overlap
     ethr =  3.96E-12,  avg # of iterations =  4.0

     negative rho (up, down):  0.000E+00 5.410E-04

     total cpu time spent up to now is    10921.7 secs

     total energy              =   -2382.23128978 Ry
     estimated scf accuracy    <          2.8E-09 Ry

     total magnetization       =    16.00 Bohr mag/cell
     absolute magnetization    =    16.07 Bohr mag/cell

     iteration # 35     ecut=   100.00 Ry     beta= 0.40
     Davidson diagonalization with overlap
     ethr =  1.28E-12,  avg # of iterations =  3.1

     negative rho (up, down):  0.000E+00 5.410E-04

     total cpu time spent up to now is    11281.2 secs

     total energy              =   -2382.23128981 Ry
     estimated scf accuracy    <          1.7E-09 Ry

     total magnetization       =    16.00 Bohr mag/cell
     absolute magnetization    =    16.07 Bohr mag/cell

     iteration # 36     ecut=   100.00 Ry     beta= 0.40
     Davidson diagonalization with overlap
     ethr =  8.00E-13,  avg # of iterations =  3.1

     negative rho (up, down):  0.000E+00 5.410E-04

     total cpu time spent up to now is    11635.9 secs

     total energy              =   -2382.23128982 Ry
     estimated scf accuracy    <          8.3E-10 Ry

     total magnetization       =    16.00 Bohr mag/cell
     absolute magnetization    =    16.07 Bohr mag/cell

     iteration # 37     ecut=   100.00 Ry     beta= 0.40
     Davidson diagonalization with overlap
     ethr =  3.83E-13,  avg # of iterations =  2.0

     negative rho (up, down):  0.000E+00 5.410E-04

     total cpu time spent up to now is    11934.4 secs

     total energy              =   -2382.23128982 Ry
     estimated scf accuracy    <          2.4E-10 Ry

     total magnetization       =    16.00 Bohr mag/cell
     absolute magnetization    =    16.07 Bohr mag/cell

     iteration # 38     ecut=   100.00 Ry     beta= 0.40
     Davidson diagonalization with overlap
     ethr =  1.11E-13,  avg # of iterations =  3.5

     negative rho (up, down):  0.000E+00 5.410E-04

     total cpu time spent up to now is    12281.3 secs

     total energy              =   -2382.23128982 Ry
     estimated scf accuracy    <          2.9E-10 Ry

     total magnetization       =    16.00 Bohr mag/cell
     absolute magnetization    =    16.07 Bohr mag/cell

     iteration # 39     ecut=   100.00 Ry     beta= 0.40
     Davidson diagonalization with overlap
     ethr =  1.11E-13,  avg # of iterations =  2.0

     negative rho (up, down):  0.000E+00 5.410E-04

     Magnetic moment per site:
     atom:    1    charge:    7.9611    magn:    0.0002    constr:    0.0000
     atom:    2    charge:    7.9611    magn:    0.0002    constr:    0.0000
     atom:    3    charge:    7.9611    magn:    0.0002    constr:    0.0000
     atom:    4    charge:    7.9611    magn:    0.0002    constr:    0.0000
     atom:    5    charge:   13.3774    magn:    3.3598    constr:    0.0000
     atom:    6    charge:   13.3774    magn:    3.3598    constr:    0.0000
     atom:    7    charge:   13.3774    magn:    3.3598    constr:    0.0000
     atom:    8    charge:   13.3774    magn:    3.3598    constr:    0.0000
     atom:    9    charge:    0.8530    magn:    0.0067    constr:    0.0000
     atom:   10    charge:    0.8530    magn:    0.0067    constr:    0.0000
     atom:   11    charge:    0.8530    magn:    0.0067    constr:    0.0000
     atom:   12    charge:    0.8530    magn:    0.0067    constr:    0.0000
     atom:   13    charge:    4.2823    magn:    0.0307    constr:    0.0000
     atom:   14    charge:    4.2823    magn:    0.0307    constr:    0.0000
     atom:   15    charge:    4.2823    magn:    0.0307    constr:    0.0000
     atom:   16    charge:    4.2823    magn:    0.0307    constr:    0.0000
     atom:   17    charge:    4.2644    magn:    0.0405    constr:    0.0000
     atom:   18    charge:    4.2644    magn:    0.0405    constr:    0.0000
     atom:   19    charge:    4.2644    magn:    0.0405    constr:    0.0000
     atom:   20    charge:    4.2644    magn:    0.0405    constr:    0.0000
     atom:   21    charge:    4.2593    magn:    0.0737    constr:    0.0000
     atom:   22    charge:    4.2593    magn:    0.0737    constr:    0.0000
     atom:   23    charge:    4.2589    magn:    0.0737    constr:    0.0000
     atom:   24    charge:    4.2589    magn:    0.0737    constr:    0.0000
     atom:   25    charge:    4.2593    magn:    0.0737    constr:    0.0000
     atom:   26    charge:    4.2593    magn:    0.0737    constr:    0.0000
     atom:   27    charge:    4.2589    magn:    0.0737    constr:    0.0000
     atom:   28    charge:    4.2589    magn:    0.0737    constr:    0.0000

     total cpu time spent up to now is    12592.0 secs

     End of self-consistent calculation

 ------ SPIN UP ------------


          k = 0.0000 0.0000 0.0000 ( 37059 PWs)   bands (ev):

   -81.2075 -81.2074 -81.2073 -81.2072 -48.1545 -48.1543 -48.1537 -48.1535
   -47.0308 -47.0307 -47.0307 -47.0306 -46.5957 -46.5956 -46.5952 -46.5951
   -43.1153 -43.1153 -43.1072 -43.1072 -15.3423 -15.3308 -15.1730 -15.1686
   -15.1301 -15.1279 -15.1184 -15.1148 -15.0610 -15.0608 -15.0379 -15.0377
   -14.5845 -14.3947 -14.2142 -14.0803 -12.0811 -12.0569 -12.0214 -12.0152
   -12.0140 -11.9640 -11.8248 -11.7926 -11.7794 -11.7524 -11.7344 -11.6965
    -2.2731  -1.9096  -1.7008  -1.6846  -0.4921  -0.1886  -0.0411   0.0958
     0.2042   0.3792   0.6156   0.6437   0.6950   0.7424   0.7434   1.0459
     1.8806   2.0461   2.3003   2.4278   2.5915   2.7029   2.7322   2.7642
     2.7928   2.9584   2.9749   3.1754   3.2822   3.2964   3.3196   3.5023
     3.5734   3.5815   3.6081   3.7141   3.7711   3.8003   4.0224   4.0651
     4.0717   4.1807   4.3488   4.5389   4.6578   4.7026   4.9932   5.0065
     5.3270   5.3521   5.4474   5.5783   5.6628   5.6658   5.7667   5.7774
     5.8412   6.0271   6.2747   6.3618   6.4321   6.5024   6.5153   6.8338
     6.8754   6.9145   7.0001   7.0385  10.0360  12.0618  12.3209  12.9462
    13.2805  13.6490  13.9309  14.3528  14.6129  14.7630  14.8514  14.8698
    14.9415  15.0918

     occupation numbers 
     1.0000   1.0000   1.0000   1.0000   1.0000   1.0000   1.0000   1.0000
     1.0000   1.0000   1.0000   1.0000   1.0000   1.0000   1.0000   1.0000
     1.0000   1.0000   1.0000   1.0000   1.0000   1.0000   1.0000   1.0000
     1.0000   1.0000   1.0000   1.0000   1.0000   1.0000   1.0000   1.0000
     1.0000   1.0000   1.0000   1.0000   1.0000   1.0000   1.0000   1.0000
     1.0000   1.0000   1.0000   1.0000   1.0000   1.0000   1.0000   1.0000
     1.0000   1.0000   1.0000   1.0000   1.0000   1.0000   1.0000   1.0000
     1.0000   1.0000   1.0000   1.0000   1.0000   1.0000   1.0000   1.0000
     1.0000   1.0000   1.0000   1.0000   1.0000   1.0000   1.0000   1.0000
     1.0000   1.0000   1.0000   1.0000   1.0000   1.0000   1.0000   1.0000
     1.0000   1.0000   1.0000   1.0000   1.0000   1.0000   1.0000   1.0000
     1.0000   1.0000   1.0000   1.0000   1.0000   1.0000   1.0000   1.0000
     1.0000   1.0000   1.0000   1.0000   1.0000   1.0000   1.0000   1.0000
     1.0000   1.0000   1.0000   1.0000   1.0000   1.0000   1.0000   1.0000
     1.0000   1.0000   1.0000   1.0000   0.0000   0.0000   0.0000   0.0000
     0.0000   0.0000   0.0000   0.0000   0.0000   0.0000   0.0000   0.0000
     0.0000   0.0000

          k = 0.0000 0.0000 0.2376 ( 37071 PWs)   bands (ev):

   -81.2075 -81.2074 -81.2073 -81.2072 -48.1544 -48.1543 -48.1537 -48.1536
   -47.0308 -47.0307 -47.0307 -47.0306 -46.5957 -46.5955 -46.5952 -46.5951
   -43.1153 -43.1153 -43.1072 -43.1072 -15.3351 -15.3246 -15.1797 -15.1757
   -15.1301 -15.1281 -15.1279 -15.1210 -15.0610 -15.0609 -15.0380 -15.0378
   -14.5473 -14.3700 -14.2194 -14.0937 -12.0938 -12.0667 -12.0494 -12.0093
   -12.0068 -11.9594 -11.8287 -11.8094 -11.7862 -11.7415 -11.7378 -11.6945
    -2.2578  -1.9139  -1.7203  -1.6772  -0.4239  -0.1586   0.0221   0.1557
     0.2060   0.3952   0.6142   0.6631   0.7037   0.7148   0.7292   1.0255
     1.8796   2.0376   2.3072   2.3761   2.5947   2.6281   2.7050   2.7381
     2.7433   2.9310   3.0063   3.1145   3.2343   3.2629   3.3988   3.4734
     3.4760   3.6138   3.6950   3.7564   3.7769   3.8658   4.0004   4.0101
     4.0541   4.2326   4.3658   4.5664   4.6558   4.7316   4.9871   4.9966
     5.3089   5.3603   5.4121   5.5778   5.6526   5.6888   5.7033   5.7197
     5.8860   6.0499   6.3139   6.4050   6.4379   6.5140   6.5265   6.8084
     6.8496   6.8917   7.0074   7.0316  10.1917  12.1083  12.4006  12.9238
    13.3259  13.5171  14.1236  14.1485  14.5533  14.6049  14.6822  14.8398
    15.0228  15.0386

     occupation numbers 
     1.0000   1.0000   1.0000   1.0000   1.0000   1.0000   1.0000   1.0000
     1.0000   1.0000   1.0000   1.0000   1.0000   1.0000   1.0000   1.0000
     1.0000   1.0000   1.0000   1.0000   1.0000   1.0000   1.0000   1.0000
     1.0000   1.0000   1.0000   1.0000   1.0000   1.0000   1.0000   1.0000
     1.0000   1.0000   1.0000   1.0000   1.0000   1.0000   1.0000   1.0000
     1.0000   1.0000   1.0000   1.0000   1.0000   1.0000   1.0000   1.0000
     1.0000   1.0000   1.0000   1.0000   1.0000   1.0000   1.0000   1.0000
     1.0000   1.0000   1.0000   1.0000   1.0000   1.0000   1.0000   1.0000
     1.0000   1.0000   1.0000   1.0000   1.0000   1.0000   1.0000   1.0000
     1.0000   1.0000   1.0000   1.0000   1.0000   1.0000   1.0000   1.0000
     1.0000   1.0000   1.0000   1.0000   1.0000   1.0000   1.0000   1.0000
     1.0000   1.0000   1.0000   1.0000   1.0000   1.0000   1.0000   1.0000
     1.0000   1.0000   1.0000   1.0000   1.0000   1.0000   1.0000   1.0000
     1.0000   1.0000   1.0000   1.0000   1.0000   1.0000   1.0000   1.0000
     1.0000   1.0000   1.0000   1.0000   0.0000   0.0000   0.0000   0.0000
     0.0000   0.0000   0.0000   0.0000   0.0000   0.0000   0.0000   0.0000
     0.0000   0.0000

          k = 0.0000 0.0000 0.4753 ( 37078 PWs)   bands (ev):

   -81.2075 -81.2074 -81.2073 -81.2072 -48.1544 -48.1542 -48.1537 -48.1536
   -47.0308 -47.0307 -47.0307 -47.0306 -46.5956 -46.5955 -46.5953 -46.5951
   -43.1153 -43.1153 -43.1072 -43.1072 -15.3193 -15.3109 -15.2018 -15.1972
   -15.1358 -15.1302 -15.1286 -15.1271 -15.0611 -15.0610 -15.0383 -15.0381
   -14.4574 -14.3125 -14.2319 -14.1292 -12.1322 -12.0939 -12.0850 -12.0265
   -11.9860 -11.9463 -11.8402 -11.8369 -11.8056 -11.7637 -11.7112 -11.6859
    -2.2110  -1.9175  -1.7609  -1.6909  -0.2249  -0.0677   0.1673   0.2169
     0.3079   0.4351   0.6166   0.6354   0.6908   0.7357   0.7538   0.9654
     1.8725   2.0177   2.2505   2.3288   2.4939   2.5937   2.5955   2.6158
     2.7077   2.8118   3.0533   3.0913   3.1644   3.2134   3.2290   3.4127
     3.4480   3.5719   3.7619   3.8334   3.9160   3.9678   3.9794   3.9965
     4.0817   4.3146   4.3512   4.6329   4.6493   4.8079   4.9663   4.9992
     5.2852   5.3425   5.3680   5.5672   5.5844   5.5990   5.6321   5.7206
     5.9987   6.1257   6.3754   6.4572   6.4861   6.5337   6.5678   6.7630
     6.7738   6.8241   7.0146   7.0149  10.6021  12.2392  12.5619  12.9278
    13.4025  13.4342  13.7472  14.2470  14.4415  14.4753  14.4803  14.5757
    15.0113  15.0524

     occupation numbers 
     1.0000   1.0000   1.0000   1.0000   1.0000   1.0000   1.0000   1.0000
     1.0000   1.0000   1.0000   1.0000   1.0000   1.0000   1.0000   1.0000
     1.0000   1.0000   1.0000   1.0000   1.0000   1.0000   1.0000   1.0000
     1.0000   1.0000   1.0000   1.0000   1.0000   1.0000   1.0000   1.0000
     1.0000   1.0000   1.0000   1.0000   1.0000   1.0000   1.0000   1.0000
     1.0000   1.0000   1.0000   1.0000   1.0000   1.0000   1.0000   1.0000
     1.0000   1.0000   1.0000   1.0000   1.0000   1.0000   1.0000   1.0000
     1.0000   1.0000   1.0000   1.0000   1.0000   1.0000   1.0000   1.0000
     1.0000   1.0000   1.0000   1.0000   1.0000   1.0000   1.0000   1.0000
     1.0000   1.0000   1.0000   1.0000   1.0000   1.0000   1.0000   1.0000
     1.0000   1.0000   1.0000   1.0000   1.0000   1.0000   1.0000   1.0000
     1.0000   1.0000   1.0000   1.0000   1.0000   1.0000   1.0000   1.0000
     1.0000   1.0000   1.0000   1.0000   1.0000   1.0000   1.0000   1.0000
     1.0000   1.0000   1.0000   1.0000   1.0000   1.0000   1.0000   1.0000
     1.0000   1.0000   1.0000   1.0000   0.0000   0.0000   0.0000   0.0000
     0.0000   0.0000   0.0000   0.0000   0.0000   0.0000   0.0000   0.0000
     0.0000   0.0000

          k = 0.0000 0.0000 0.7129 ( 37102 PWs)   bands (ev):

   -81.2075 -81.2074 -81.2073 -81.2072 -48.1543 -48.1541 -48.1539 -48.1537
   -47.0308 -47.0307 -47.0307 -47.0306 -46.5956 -46.5955 -46.5953 -46.5952
   -43.1153 -43.1153 -43.1072 -43.1072 -15.3096 -15.3031 -15.2194 -15.2165
   -15.1326 -15.1302 -15.1292 -15.1263 -15.0612 -15.0612 -15.0385 -15.0384
   -14.3558 -14.2599 -14.2413 -14.1731 -12.1772 -12.1422 -12.1016 -12.0649
   -11.9547 -11.9263 -11.8585 -11.8485 -11.8354 -11.7929 -11.6874 -11.6753
    -2.1331  -1.9047  -1.8262  -1.7419   0.0590   0.0730   0.2497   0.2758
     0.4575   0.4919   0.5250   0.6379   0.6599   0.8742   0.8806   0.8905
     1.8442   2.0078   2.0865   2.3191   2.3686   2.4609   2.5285   2.5725
     2.6347   2.6728   2.7975   3.0173   3.1270   3.2277   3.2406   3.3403
     3.4752   3.4874   3.6900   3.7247   4.0392   4.0562   4.1027   4.1458
     4.1470   4.3877   4.3897   4.6113   4.6260   4.8417   4.9795   5.0937
     5.2656   5.2840   5.3753   5.4699   5.4930   5.5079   5.6400   5.7266
     6.1508   6.2536   6.4147   6.4856   6.5314   6.5441   6.6379   6.6529
     6.7146   6.7407   6.9983   7.0118  11.1511  12.4441  12.5289  13.1182
    13.3333  13.3728  13.6522  14.0369  14.0832  14.3703  14.4779  14.5172
    14.6766  15.0004

     occupation numbers 
     1.0000   1.0000   1.0000   1.0000   1.0000   1.0000   1.0000   1.0000
     1.0000   1.0000   1.0000   1.0000   1.0000   1.0000   1.0000   1.0000
     1.0000   1.0000   1.0000   1.0000   1.0000   1.0000   1.0000   1.0000
     1.0000   1.0000   1.0000   1.0000   1.0000   1.0000   1.0000   1.0000
     1.0000   1.0000   1.0000   1.0000   1.0000   1.0000   1.0000   1.0000
     1.0000   1.0000   1.0000   1.0000   1.0000   1.0000   1.0000   1.0000
     1.0000   1.0000   1.0000   1.0000   1.0000   1.0000   1.0000   1.0000
     1.0000   1.0000   1.0000   1.0000   1.0000   1.0000   1.0000   1.0000
     1.0000   1.0000   1.0000   1.0000   1.0000   1.0000   1.0000   1.0000
     1.0000   1.0000   1.0000   1.0000   1.0000   1.0000   1.0000   1.0000
     1.0000   1.0000   1.0000   1.0000   1.0000   1.0000   1.0000   1.0000
     1.0000   1.0000   1.0000   1.0000   1.0000   1.0000   1.0000   1.0000
     1.0000   1.0000   1.0000   1.0000   1.0000   1.0000   1.0000   1.0000
     1.0000   1.0000   1.0000   1.0000   1.0000   1.0000   1.0000   1.0000
     1.0000   1.0000   1.0000   1.0000   0.0000   0.0000   0.0000   0.0000
     0.0000   0.0000   0.0000   0.0000   0.0000   0.0000   0.0000   0.0000
     0.0000   0.0000

          k = 0.0000 0.0000 0.9505 ( 37140 PWs)   bands (ev):

   -81.2075 -81.2074 -81.2073 -81.2072 -48.1541 -48.1540 -48.1540 -48.1538
   -47.0308 -47.0307 -47.0307 -47.0306 -46.5955 -46.5954 -46.5954 -46.5953
   -43.1153 -43.1153 -43.1072 -43.1072 -15.3099 -15.3072 -15.2214 -15.2208
   -15.1301 -15.1298 -15.1264 -15.1242 -15.0613 -15.0613 -15.0387 -15.0386
   -14.2836 -14.2523 -14.2299 -14.2033 -12.1996 -12.1842 -12.1086 -12.0977
   -11.9174 -11.9014 -11.8832 -11.8706 -11.8406 -11.8203 -11.6730 -11.6695
    -2.0305  -1.9201  -1.8680  -1.8099   0.2015   0.2815   0.3141   0.3179
     0.4101   0.4432   0.5969   0.6835   0.6903   0.7740   1.0436   1.0514
     1.8164   1.9041   2.0336   2.1392   2.3566   2.4140   2.4336   2.5196
     2.5232   2.5644   2.7627   2.8643   3.1890   3.2293   3.2753   3.2896
     3.4902   3.5188   3.5846   3.6029   4.0926   4.1202   4.1280   4.1689
     4.3338   4.4763   4.4946   4.5602   4.5674   4.7334   5.0803   5.1795
     5.2499   5.3165   5.3800   5.3896   5.3972   5.4239   5.6721   5.7063
     6.3235   6.4108   6.4464   6.4807   6.4974   6.5384   6.5577   6.5717
     6.7013   6.7328   6.9938   7.0014  11.7278  12.2275  12.7091  12.9785
    13.4065  13.4377  13.6778  13.8125  14.0222  14.2791  14.3681  14.4358
    14.5651  14.7576

     occupation numbers 
     1.0000   1.0000   1.0000   1.0000   1.0000   1.0000   1.0000   1.0000
     1.0000   1.0000   1.0000   1.0000   1.0000   1.0000   1.0000   1.0000
     1.0000   1.0000   1.0000   1.0000   1.0000   1.0000   1.0000   1.0000
     1.0000   1.0000   1.0000   1.0000   1.0000   1.0000   1.0000   1.0000
     1.0000   1.0000   1.0000   1.0000   1.0000   1.0000   1.0000   1.0000
     1.0000   1.0000   1.0000   1.0000   1.0000   1.0000   1.0000   1.0000
     1.0000   1.0000   1.0000   1.0000   1.0000   1.0000   1.0000   1.0000
     1.0000   1.0000   1.0000   1.0000   1.0000   1.0000   1.0000   1.0000
     1.0000   1.0000   1.0000   1.0000   1.0000   1.0000   1.0000   1.0000
     1.0000   1.0000   1.0000   1.0000   1.0000   1.0000   1.0000   1.0000
     1.0000   1.0000   1.0000   1.0000   1.0000   1.0000   1.0000   1.0000
     1.0000   1.0000   1.0000   1.0000   1.0000   1.0000   1.0000   1.0000
     1.0000   1.0000   1.0000   1.0000   1.0000   1.0000   1.0000   1.0000
     1.0000   1.0000   1.0000   1.0000   1.0000   1.0000   1.0000   1.0000
     1.0000   1.0000   1.0000   1.0000   0.0000   0.0000   0.0000   0.0000
     0.0000   0.0000   0.0000   0.0000   0.0000   0.0000   0.0000   0.0000
     0.0000   0.0000

          k = 0.0000 0.2430 0.0000 ( 37033 PWs)   bands (ev):

   -81.2075 -81.2074 -81.2073 -81.2072 -48.1544 -48.1543 -48.1537 -48.1536
   -47.0308 -47.0307 -47.0307 -47.0306 -46.5956 -46.5955 -46.5952 -46.5951
   -43.1149 -43.1149 -43.1076 -43.1076 -15.3311 -15.3209 -15.1703 -15.1661
   -15.1339 -15.1318 -15.1146 -15.1113 -15.0786 -15.0764 -15.0427 -15.0426
   -14.5531 -14.3786 -14.2175 -14.1025 -12.0750 -12.0578 -12.0236 -12.0211
   -12.0028 -11.9825 -11.8785 -11.7954 -11.7490 -11.7435 -11.7204 -11.6980
    -2.2385  -1.8842  -1.7070  -1.6915  -0.4491  -0.1658  -0.0249   0.0837
     0.2482   0.3817   0.5617   0.6299   0.7423   0.7448   0.7709   1.0220
     1.8903   2.0496   2.3202   2.3438   2.4775   2.6586   2.6667   2.7686
     2.8505   2.9298   3.0541   3.1702   3.2111   3.2307   3.3370   3.5575
     3.5766   3.6009   3.6672   3.6703   3.8358   3.8633   3.9514   4.0755
     4.0822   4.1923   4.3281   4.5098   4.6466   4.6673   4.9280   5.0642
     5.2913   5.2916   5.4005   5.4904   5.5715   5.7117   5.7788   5.8758
     5.9060   5.9865   6.3896   6.3900   6.4324   6.4906   6.5176   6.6964
     6.7015   7.0090   7.0695   7.0927  10.2091  12.1578  12.4198  12.9057
    13.3693  13.7304  13.8821  14.2750  14.6133  14.7807  14.8431  14.9003
    14.9248  15.1650

     occupation numbers 
     1.0000   1.0000   1.0000   1.0000   1.0000   1.0000   1.0000   1.0000
     1.0000   1.0000   1.0000   1.0000   1.0000   1.0000   1.0000   1.0000
     1.0000   1.0000   1.0000   1.0000   1.0000   1.0000   1.0000   1.0000
     1.0000   1.0000   1.0000   1.0000   1.0000   1.0000   1.0000   1.0000
     1.0000   1.0000   1.0000   1.0000   1.0000   1.0000   1.0000   1.0000
     1.0000   1.0000   1.0000   1.0000   1.0000   1.0000   1.0000   1.0000
     1.0000   1.0000   1.0000   1.0000   1.0000   1.0000   1.0000   1.0000
     1.0000   1.0000   1.0000   1.0000   1.0000   1.0000   1.0000   1.0000
     1.0000   1.0000   1.0000   1.0000   1.0000   1.0000   1.0000   1.0000
     1.0000   1.0000   1.0000   1.0000   1.0000   1.0000   1.0000   1.0000
     1.0000   1.0000   1.0000   1.0000   1.0000   1.0000   1.0000   1.0000
     1.0000   1.0000   1.0000   1.0000   1.0000   1.0000   1.0000   1.0000
     1.0000   1.0000   1.0000   1.0000   1.0000   1.0000   1.0000   1.0000
     1.0000   1.0000   1.0000   1.0000   1.0000   1.0000   1.0000   1.0000
     1.0000   1.0000   1.0000   1.0000   0.0000   0.0000   0.0000   0.0000
     0.0000   0.0000   0.0000   0.0000   0.0000   0.0000   0.0000   0.0000
     0.0000   0.0000

          k = 0.0000 0.2430 0.2376 ( 37055 PWs)   bands (ev):

   -81.2075 -81.2074 -81.2073 -81.2072 -48.1544 -48.1543 -48.1537 -48.1536
   -47.0308 -47.0307 -47.0307 -47.0306 -46.5956 -46.5955 -46.5952 -46.5951
   -43.1149 -43.1149 -43.1076 -43.1076 -15.3243 -15.3148 -15.1769 -15.1731
   -15.1346 -15.1341 -15.1223 -15.1172 -15.0757 -15.0746 -15.0429 -15.0428
   -14.5198 -14.3563 -14.2218 -14.1135 -12.0879 -12.0716 -12.0539 -12.0117
   -11.9930 -11.9761 -11.8861 -11.8007 -11.7603 -11.7324 -11.7323 -11.6924
    -2.2235  -1.8883  -1.7219  -1.6860  -0.3829  -0.1368   0.0367   0.1415
     0.2500   0.3966   0.5714   0.6473   0.7280   0.7442   0.7478   1.0022
     1.8875   2.0332   2.2982   2.3547   2.4244   2.6174   2.6352   2.7192
     2.8020   2.9851   3.0482   3.1136   3.1495   3.2396   3.4203   3.4949
     3.5359   3.5868   3.6871   3.7441   3.8471   3.9085   3.9185   4.0497
     4.0729   4.2384   4.3376   4.5261   4.6534   4.6929   4.9214   5.0514
     5.2713   5.2796   5.4015   5.5053   5.5772   5.7025   5.7732   5.8276
     5.8903   6.0034   6.4263   6.4345   6.4387   6.5044   6.5268   6.6630
     6.6877   6.9877   7.0642   7.0953  10.3583  12.2054  12.5038  12.9162
    13.3894  13.5742  14.0791  14.1018  14.5808  14.6285  14.6665  14.8914
    15.0401  15.0949

     occupation numbers 
     1.0000   1.0000   1.0000   1.0000   1.0000   1.0000   1.0000   1.0000
     1.0000   1.0000   1.0000   1.0000   1.0000   1.0000   1.0000   1.0000
     1.0000   1.0000   1.0000   1.0000   1.0000   1.0000   1.0000   1.0000
     1.0000   1.0000   1.0000   1.0000   1.0000   1.0000   1.0000   1.0000
     1.0000   1.0000   1.0000   1.0000   1.0000   1.0000   1.0000   1.0000
     1.0000   1.0000   1.0000   1.0000   1.0000   1.0000   1.0000   1.0000
     1.0000   1.0000   1.0000   1.0000   1.0000   1.0000   1.0000   1.0000
     1.0000   1.0000   1.0000   1.0000   1.0000   1.0000   1.0000   1.0000
     1.0000   1.0000   1.0000   1.0000   1.0000   1.0000   1.0000   1.0000
     1.0000   1.0000   1.0000   1.0000   1.0000   1.0000   1.0000   1.0000
     1.0000   1.0000   1.0000   1.0000   1.0000   1.0000   1.0000   1.0000
     1.0000   1.0000   1.0000   1.0000   1.0000   1.0000   1.0000   1.0000
     1.0000   1.0000   1.0000   1.0000   1.0000   1.0000   1.0000   1.0000
     1.0000   1.0000   1.0000   1.0000   1.0000   1.0000   1.0000   1.0000
     1.0000   1.0000   1.0000   1.0000   0.0000   0.0000   0.0000   0.0000
     0.0000   0.0000   0.0000   0.0000   0.0000   0.0000   0.0000   0.0000
     0.0000   0.0000

          k = 0.0000 0.2430 0.4753 ( 37078 PWs)   bands (ev):

   -81.2075 -81.2074 -81.2073 -81.2072 -48.1543 -48.1542 -48.1538 -48.1536
   -47.0308 -47.0307 -47.0307 -47.0306 -46.5956 -46.5955 -46.5953 -46.5951
   -43.1149 -43.1149 -43.1076 -43.1076 -15.3090 -15.3013 -15.1976 -15.1934
   -15.1380 -15.1355 -15.1267 -15.1227 -15.0730 -15.0727 -15.0437 -15.0435
   -14.4380 -14.3042 -14.2320 -14.1430 -12.1264 -12.0977 -12.0951 -12.0305
   -11.9713 -11.9588 -11.8975 -11.8173 -11.7806 -11.7585 -11.7125 -11.6829
    -2.1779  -1.8923  -1.7539  -1.6992  -0.1896  -0.0503   0.1783   0.2379
     0.3138   0.4313   0.5932   0.6579   0.6995   0.7406   0.7663   0.9468
     1.8693   2.0030   2.2111   2.3232   2.3759   2.5237   2.5466   2.6247
     2.7616   2.9195   3.0312   3.0567   3.1464   3.2037   3.2855   3.4087
     3.5247   3.5408   3.7252   3.8140   3.9097   3.9582   4.0087   4.0238
     4.1114   4.3139   4.3164   4.5569   4.6884   4.7562   4.9035   5.0285
     5.2313   5.2575   5.4041   5.5185   5.5937   5.6753   5.6894   5.7641
     5.9440   6.0528   6.4584   6.4757   6.5071   6.5338   6.5842   6.5939
     6.6256   6.9367   7.0526   7.0950  10.7549  12.3380  12.6855  12.9700
    13.4639  13.4699  13.6969  14.2813  14.4308  14.4698  14.5677  14.5980
    14.9798  15.0600

     occupation numbers 
     1.0000   1.0000   1.0000   1.0000   1.0000   1.0000   1.0000   1.0000
     1.0000   1.0000   1.0000   1.0000   1.0000   1.0000   1.0000   1.0000
     1.0000   1.0000   1.0000   1.0000   1.0000   1.0000   1.0000   1.0000
     1.0000   1.0000   1.0000   1.0000   1.0000   1.0000   1.0000   1.0000
     1.0000   1.0000   1.0000   1.0000   1.0000   1.0000   1.0000   1.0000
     1.0000   1.0000   1.0000   1.0000   1.0000   1.0000   1.0000   1.0000
     1.0000   1.0000   1.0000   1.0000   1.0000   1.0000   1.0000   1.0000
     1.0000   1.0000   1.0000   1.0000   1.0000   1.0000   1.0000   1.0000
     1.0000   1.0000   1.0000   1.0000   1.0000   1.0000   1.0000   1.0000
     1.0000   1.0000   1.0000   1.0000   1.0000   1.0000   1.0000   1.0000
     1.0000   1.0000   1.0000   1.0000   1.0000   1.0000   1.0000   1.0000
     1.0000   1.0000   1.0000   1.0000   1.0000   1.0000   1.0000   1.0000
     1.0000   1.0000   1.0000   1.0000   1.0000   1.0000   1.0000   1.0000
     1.0000   1.0000   1.0000   1.0000   1.0000   1.0000   1.0000   1.0000
     1.0000   1.0000   1.0000   1.0000   0.0000   0.0000   0.0000   0.0000
[...]
     atom   23 type  3   force =     0.72859653   -0.98655934   -0.69300195
     atom   24 type  3   force =    -0.72859366    0.98656075   -0.69300875
     atom   25 type  3   force =     0.72860535    0.98657535   -0.69302031
     atom   26 type  3   force =    -0.72861031   -0.98657521   -0.69302599
     atom   27 type  3   force =    -0.72859653    0.98655934    0.69300195
     atom   28 type  3   force =     0.72859366   -0.98656075    0.69300875
     The ionic contribution  to forces
     atom    1 type  2   force =    -0.00004582    0.00001621   -0.00003701
     atom    2 type  2   force =    -0.00008160    0.00005243   -0.00003106
     atom    3 type  2   force =     0.00001761    0.00000348   -0.00003046
     atom    4 type  2   force =    -0.00002749   -0.00003672   -0.00001317
     atom    5 type  1   force =     3.08991201    0.00053616   -0.80594707
     atom    6 type  1   force =    -3.08996213   -0.00039831   -0.80591065
     atom    7 type  1   force =    -3.08993218   -0.00036933    0.80598955
     atom    8 type  1   force =     3.09019364    0.00049814    0.80595542
     atom    9 type  4   force =    -1.07656780    0.00005028    1.34121165
     atom   10 type  4   force =     1.07663650   -0.00010529    1.34113531
     atom   11 type  4   force =     1.07661161   -0.00009802   -1.34117792
     atom   12 type  4   force =    -1.07662315    0.00010048   -1.34113587
     atom   13 type  3   force =    -3.78692862    0.00009653    1.48041982
     atom   14 type  3   force =     3.78701730   -0.00013029    1.48044595
     atom   15 type  3   force =     3.78696280   -0.00011503   -1.48043103
     atom   16 type  3   force =    -3.78703999    0.00010303   -1.48042072
     atom   17 type  3   force =    -1.24537392    0.00008100    2.43928663
     atom   18 type  3   force =     1.24535528   -0.00007285    2.43927871
     atom   19 type  3   force =     1.24532086   -0.00008182   -2.43927396
     atom   20 type  3   force =    -1.24556223    0.00006108   -2.43923251
     atom   21 type  3   force =     0.36329813    1.51793229   -1.49161606
     atom   22 type  3   force =    -0.36326865   -1.51799040   -1.49156617
     atom   23 type  3   force =    -0.36303944    1.51786048    1.49142090
     atom   24 type  3   force =     0.36307663   -1.51791701    1.49134772
     atom   25 type  3   force =    -0.36322716   -1.51802126    1.49153813
     atom   26 type  3   force =     0.36326345    1.51795357    1.49158492
     atom   27 type  3   force =     0.36309665   -1.51783260   -1.49134155
     atom   28 type  3   force =    -0.36308228    1.51782379   -1.49144949
     The local contribution  to forces
     atom    1 type  2   force =    -0.00000000    0.00000000    0.00000000
     atom    2 type  2   force =    -0.00000000   -0.00000000   -0.00000000
     atom    3 type  2   force =     0.00000000   -0.00000000    0.00000000
     atom    4 type  2   force =    -0.00000000    0.00000000   -0.00000000
     atom    5 type  1   force =    -3.04076017   -0.00045497    0.75948879
     atom    6 type  1   force =     3.04280063    0.00045053    0.75946561
     atom    7 type  1   force =     3.04076017    0.00045497   -0.75948879
     atom    8 type  1   force =    -3.03901447   -0.00045053   -0.75944136
     atom    9 type  4   force =     1.05624936   -0.00007374   -1.30433795
     atom   10 type  4   force =    -1.05629289    0.00009646   -1.30428824
     atom   11 type  4   force =    -1.05625034    0.00006805    1.30434543
     atom   12 type  4   force =     1.05629289   -0.00010215    1.30428824
     atom   13 type  3   force =     3.61895505   -0.00037340    0.02313787
     atom   14 type  3   force =    -3.61863450   -0.00013051    0.02315987
     atom   15 type  3   force =    -3.61895505   -0.00014169   -0.02313787
     atom   16 type  3   force =     3.61944764   -0.00038458   -0.02312141
     atom   17 type  3   force =     0.00604667   -0.00008496   -1.82076730
     atom   18 type  3   force =    -0.00612717    0.00006849   -1.82054681
     atom   19 type  3   force =    -0.00604667    0.00008496    1.82076730
     atom   20 type  3   force =     0.00614895   -0.00006849    1.82094414
     atom   21 type  3   force =     0.35287663   -0.54379333    0.80595657
     atom   22 type  3   force =    -0.35241844    0.54334739    0.80589883
     atom   23 type  3   force =    -0.35262520   -0.54366243   -0.80576739
     atom   24 type  3   force =     0.35258919    0.54326107   -0.80573760
     atom   25 type  3   force =    -0.35198158    0.54332151   -0.80589551
     atom   26 type  3   force =     0.35244296   -0.54377750   -0.80593584
     atom   27 type  3   force =     0.35260068    0.54323233    0.80573037
     atom   28 type  3   force =    -0.35261371   -0.54369117    0.80577461
     The core correction contribution to forces
     atom    1 type  2   force =     0.00000000    0.00000000    0.00000000
     atom    2 type  2   force =     0.00000000    0.00000000    0.00000000
     atom    3 type  2   force =     0.00000000    0.00000000    0.00000000
     atom    4 type  2   force =     0.00000000    0.00000000    0.00000000
     atom    5 type  1   force =     0.00297972   -0.00000422   -0.00206845
     atom    6 type  1   force =    -0.00304648    0.00000426   -0.00206734
     atom    7 type  1   force =    -0.00297972    0.00000422    0.00206844
     atom    8 type  1   force =     0.00291294   -0.00000426    0.00206946
     atom    9 type  4   force =     0.00010813    0.00000116    0.00256597
     atom   10 type  4   force =    -0.00010992    0.00000046    0.00256665
     atom   11 type  4   force =    -0.00011070    0.00000026   -0.00256594
     atom   12 type  4   force =     0.00010992    0.00000096   -0.00256665
     atom   13 type  3   force =    -0.00217183   -0.00000023    0.01306398
     atom   14 type  3   force =     0.00217216   -0.00000004    0.01306384
     atom   15 type  3   force =     0.00217183   -0.00000005   -0.01306398
     atom   16 type  3   force =    -0.00217151   -0.00000023   -0.01306395
     atom   17 type  3   force =    -0.01109735   -0.00000002    0.00625240
     atom   18 type  3   force =     0.01109739   -0.00000001    0.00625247
     atom   19 type  3   force =     0.01109735    0.00000002   -0.00625240
     atom   20 type  3   force =    -0.01109729    0.00000001   -0.00625219
     atom   21 type  3   force =     0.00648412    0.00843612   -0.00635720
     atom   22 type  3   force =    -0.00648405   -0.00843667   -0.00635722
     atom   23 type  3   force =    -0.00648375    0.00843591    0.00635690
     atom   24 type  3   force =     0.00648389   -0.00843658    0.00635704
     atom   25 type  3   force =    -0.00648365   -0.00843648    0.00635702
     atom   26 type  3   force =     0.00648387    0.00843601    0.00635714
     atom   27 type  3   force =     0.00648392   -0.00843656   -0.00635698
     atom   28 type  3   force =    -0.00648371    0.00843592   -0.00635696
     The Hubbard contrib.    to forces
     atom    1 type  2   force =     0.00000000    0.00000000    0.00000000
     atom    2 type  2   force =     0.00000000    0.00000000    0.00000000
     atom    3 type  2   force =     0.00000000    0.00000000    0.00000000
     atom    4 type  2   force =     0.00000000    0.00000000    0.00000000
     atom    5 type  1   force =     0.00000000    0.00000000    0.00000000
     atom    6 type  1   force =     0.00000000    0.00000000    0.00000000
     atom    7 type  1   force =     0.00000000    0.00000000    0.00000000
     atom    8 type  1   force =     0.00000000    0.00000000    0.00000000
     atom    9 type  4   force =     0.00000000    0.00000000    0.00000000
     atom   10 type  4   force =     0.00000000    0.00000000    0.00000000
     atom   11 type  4   force =     0.00000000    0.00000000    0.00000000
     atom   12 type  4   force =     0.00000000    0.00000000    0.00000000
     atom   13 type  3   force =     0.00000000    0.00000000    0.00000000
     atom   14 type  3   force =     0.00000000    0.00000000    0.00000000
     atom   15 type  3   force =     0.00000000    0.00000000    0.00000000
     atom   16 type  3   force =     0.00000000    0.00000000    0.00000000
     atom   17 type  3   force =     0.00000000    0.00000000    0.00000000
     atom   18 type  3   force =     0.00000000    0.00000000    0.00000000
     atom   19 type  3   force =     0.00000000    0.00000000    0.00000000
     atom   20 type  3   force =     0.00000000    0.00000000    0.00000000
     atom   21 type  3   force =     0.00000000    0.00000000    0.00000000
     atom   22 type  3   force =     0.00000000    0.00000000    0.00000000
     atom   23 type  3   force =     0.00000000    0.00000000    0.00000000
     atom   24 type  3   force =     0.00000000    0.00000000    0.00000000
     atom   25 type  3   force =     0.00000000    0.00000000    0.00000000
     atom   26 type  3   force =     0.00000000    0.00000000    0.00000000
     atom   27 type  3   force =     0.00000000    0.00000000    0.00000000
     atom   28 type  3   force =     0.00000000    0.00000000    0.00000000
     The SCF correction term to forces
     atom    1 type  2   force =     0.00000000   -0.00000000    0.00000000
     atom    2 type  2   force =     0.00000000   -0.00000000    0.00000000
     atom    3 type  2   force =    -0.00000000   -0.00000000    0.00000000
     atom    4 type  2   force =     0.00000000    0.00000000    0.00000000
     atom    5 type  1   force =     0.00000231    0.00000019   -0.00000071
     atom    6 type  1   force =     0.00000272   -0.00000000   -0.00000095
     atom    7 type  1   force =    -0.00000231   -0.00000019    0.00000071
     atom    8 type  1   force =    -0.00000272    0.00000000    0.00000095
     atom    9 type  4   force =     0.00000140   -0.00000008   -0.00000004
     atom   10 type  4   force =     0.00000141   -0.00000010    0.00000045
     atom   11 type  4   force =    -0.00000140    0.00000008    0.00000004
     atom   12 type  4   force =    -0.00000141    0.00000010   -0.00000045
     atom   13 type  3   force =     0.00000308    0.00000001    0.00000088
     atom   14 type  3   force =     0.00000219   -0.00000007   -0.00000090
     atom   15 type  3   force =    -0.00000308   -0.00000001   -0.00000088
     atom   16 type  3   force =    -0.00000219    0.00000007    0.00000090
     atom   17 type  3   force =    -0.00000172    0.00000007   -0.00000088
     atom   18 type  3   force =    -0.00000240   -0.00000001    0.00000089
     atom   19 type  3   force =     0.00000172   -0.00000007    0.00000088
     atom   20 type  3   force =     0.00000240    0.00000001   -0.00000089
     atom   21 type  3   force =     0.00000182   -0.00000293   -0.00000197
     atom   22 type  3   force =     0.00000094   -0.00000428    0.00000185
     atom   23 type  3   force =    -0.00000173   -0.00000240    0.00000191
     atom   24 type  3   force =    -0.00000115   -0.00000441   -0.00000218
     atom   25 type  3   force =    -0.00000182    0.00000293    0.00000197
     atom   26 type  3   force =    -0.00000094    0.00000428   -0.00000185
     atom   27 type  3   force =     0.00000173    0.00000240   -0.00000191
     atom   28 type  3   force =     0.00000115    0.00000441    0.00000218

     Total force =     0.075386     Total SCF correction =     0.000016


     Computing stress (Cartesian axis) and pressure


     negative rho (up, down):  0.000E+00 5.410E-04
          total   stress  (Ry/bohr**3)                   (kbar)     P=        7.93
  -0.00012311  -0.00000001   0.00000000          -18.11       -0.00        0.00
  -0.00000001   0.00010662  -0.00000001           -0.00       15.68       -0.00
   0.00000000  -0.00000001   0.00017812            0.00       -0.00       26.20

     kinetic stress (kbar)  31677.50     -0.01     -0.00
                               -0.01  31577.37     -0.00
                               -0.00     -0.00  31668.06

     local   stress (kbar)  -3458.52     -0.06     -0.01
                               -0.06  -6603.69      0.03
                               -0.01      0.03  -1762.62

     nonloc. stress (kbar)  -9478.62     -0.00      0.00
                               -0.00  -9595.90     -0.00
                                0.00     -0.00  -9430.61

     hartree stress (kbar)  14228.00      0.02      0.00
                                0.02  15538.97     -0.01
                                0.00     -0.01  13294.03

     exc-cor stress (kbar)  -3585.09     -0.00      0.00
                               -0.00  -3590.22     -0.00
                                0.00     -0.00  -3582.37

     corecor stress (kbar)  -3069.79      0.00     -0.00
                                0.00  -3051.99      0.00
                               -0.00      0.00  -3075.49

     ewald   stress (kbar) -26331.59      0.06      0.01
                                0.06 -24258.85     -0.01
                                0.01     -0.01 -27084.80

     hubbard stress (kbar)      0.00      0.00      0.00
                                0.00      0.00      0.00
                                0.00      0.00      0.00

     DFT-D   stress (kbar)      0.00      0.00      0.00
                                0.00      0.00      0.00
                                0.00      0.00      0.00

     XDM     stress (kbar)      0.00      0.00      0.00
                                0.00      0.00      0.00
                                0.00      0.00      0.00

     dft-nl  stress (kbar)      0.00      0.00      0.00
                                0.00      0.00      0.00
                                0.00      0.00      0.00

     TS-vdW  stress (kbar)      0.00      0.00      0.00
                                0.00      0.00      0.00
                                0.00      0.00      0.00



     init_run     :    125.12s CPU    127.25s WALL (       1 calls)
     electrons    :  12303.52s CPU  12464.01s WALL (       1 calls)
     forces       :     52.49s CPU     53.51s WALL (       1 calls)
     stress       :    421.96s CPU    423.64s WALL (       1 calls)

     Called by init_run:
     wfcinit      :    117.40s CPU    119.31s WALL (       1 calls)
     wfcinit:atom :      1.25s CPU      1.27s WALL (     316 calls)
     wfcinit:wfcr :    110.77s CPU    112.63s WALL (     316 calls)
     potinit      :      2.40s CPU      2.43s WALL (       1 calls)
     hinit0       :      2.21s CPU      2.24s WALL (       1 calls)

     Called by electrons:
     c_bands      :  10504.32s CPU  10630.11s WALL (      39 calls)
     sum_band     :   1693.39s CPU   1723.72s WALL (      39 calls)
     v_of_rho     :     25.15s CPU     25.52s WALL (      40 calls)
     v_h          :      1.26s CPU      1.30s WALL (      40 calls)
     v_xc         :     25.12s CPU     25.47s WALL (      42 calls)
     newd         :     58.77s CPU     62.74s WALL (      40 calls)
     PAW_pot      :     15.79s CPU     15.83s WALL (      40 calls)
     mix_rho      :      5.51s CPU      5.59s WALL (      39 calls)

     Called by c_bands:
     init_us_2    :    138.76s CPU    139.64s WALL (   25596 calls)
     cegterg      :  10152.99s CPU  10276.81s WALL (   12324 calls)

     Called by sum_band:
     sum_band:wei :      0.62s CPU      0.62s WALL (      39 calls)
     sum_band:loo :   1593.18s CPU   1617.35s WALL (      39 calls)
     sum_band:buf :     38.81s CPU     39.27s WALL (   12324 calls)
     sum_band:ini :     67.14s CPU     67.61s WALL (   12324 calls)
     sum_band:cal :    315.71s CPU    323.68s WALL (   12324 calls)
     sum_band:bec :      4.31s CPU      4.44s WALL (   12324 calls)
     addusdens    :     67.70s CPU     73.71s WALL (      39 calls)
     addusd:skk   :      0.51s CPU      0.52s WALL (     117 calls)
     addusd:dgemm :     14.14s CPU     19.70s WALL (     234 calls)
     addusd:qvan2 :     52.43s CPU     52.78s WALL (     234 calls)

     Called by *egterg:
     cdiaghg      :    635.34s CPU    637.33s WALL (   45113 calls)
     cegterg:over :    816.95s CPU    831.74s WALL (   32789 calls)
     cegterg:upda :    284.19s CPU    287.18s WALL (   32789 calls)
     cegterg:last :    587.98s CPU    594.35s WALL (   21512 calls)
     h_psi        :   6556.21s CPU   6642.48s WALL (   45429 calls)
     s_psi        :    517.78s CPU    523.20s WALL (   45429 calls)
     g_psi        :     25.46s CPU     25.75s WALL (   32789 calls)

     Called by h_psi:
     h_psi:calbec :    757.05s CPU    775.08s WALL (   45429 calls)
     vloc_psi     :   5196.56s CPU   5258.30s WALL (   45429 calls)
     add_vuspsi   :    520.11s CPU    526.04s WALL (   45429 calls)

     General routines
     calbec       :   1153.86s CPU   1181.24s WALL (   59333 calls)
     fft          :     26.59s CPU     27.07s WALL (    1038 calls)
     ffts         :      0.53s CPU      0.54s WALL (     158 calls)
     fftw         :   5844.24s CPU   5915.07s WALL ( 8832102 calls)
     interpolate  :      2.31s CPU      2.34s WALL (      80 calls)

     Parallel routines
     fft_scatt_xy :    378.50s CPU    382.33s WALL ( 8833298 calls)
     fft_scatt_yz :   4260.41s CPU   4315.96s WALL ( 8833298 calls)

     PAW routines
     PAW_pot      :     15.79s CPU     15.83s WALL (      40 calls)
     PAW_symme    :      0.08s CPU      0.09s WALL (      79 calls)

     PWSCF        :      3h35m CPU      3h37m WALL


   This run was terminated on:  16:43: 6  20Dec2022            

=------------------------------------------------------------------------------=
   JOB DONE.
=------------------------------------------------------------------------------=
Note: The following floating-point exceptions are signalling: IEEE_DENORMAL
Note: The following floating-point exceptions are signalling: IEEE_DENORMAL
Note: The following floating-point exceptions are signalling: IEEE_DENORMAL
Note: The following floating-point exceptions are signalling: IEEE_DENORMAL
Note: The following floating-point exceptions are signalling: IEEE_INVALID_FLAG IEEE_DENORMAL
Note: The following floating-point exceptions are signalling: IEEE_DENORMAL
Note: The following floating-point exceptions are signalling: IEEE_DENORMAL
Note: The following floating-point exceptions are signalling: IEEE_DENORMAL
Note: The following floating-point exceptions are signalling: IEEE_INVALID_FLAG IEEE_DENORMAL
Note: The following floating-point exceptions are signalling: IEEE_DENORMAL
Note: The following floating-point exceptions are signalling: IEEE_DENORMAL
Note: The following floating-point exceptions are signalling: IEEE_DENORMAL
Note: The following floating-point exceptions are signalling: IEEE_DENORMAL
Note: The following floating-point exceptions are signalling: IEEE_DENORMAL
Note: The following floating-point exceptions are signalling: IEEE_DENORMAL
Note: The following floating-point exceptions are signalling: IEEE_DENORMAL
Note: The following floating-point exceptions are signalling: IEEE_UNDERFLOW_FLAG IEEE_DENORMAL
Note: The following floating-point exceptions are signalling: IEEE_DENORMAL
Note: The following floating-point exceptions are signalling: IEEE_DENORMAL
Note: The following floating-point exceptions are signalling: IEEE_DENORMAL
Note: The following floating-point exceptions are signalling: IEEE_DENORMAL
Note: The following floating-point exceptions are signalling: IEEE_DENORMAL
Note: The following floating-point exceptions are signalling: IEEE_INVALID_FLAG IEEE_DENORMAL
Note: The following floating-point exceptions are signalling: IEEE_DENORMAL
Note: The following floating-point exceptions are signalling: IEEE_DENORMAL
Note: The following floating-point exceptions are signalling: IEEE_DENORMAL
Note: The following floating-point exceptions are signalling: IEEE_DENORMAL
Note: The following floating-point exceptions are signalling: IEEE_DENORMAL
Note: The following floating-point exceptions are signalling: IEEE_DENORMAL
