
     Program PWSCF v.6.7MaX starts on 20Dec2022 at  3:46:13 

     This program is part of the open-source Quantum ESPRESSO suite
     for quantum simulation of materials; please cite
         "P. Giannozzi et al., J. Phys.:Condens. Matter 21 395502 (2009);
         "P. Giannozzi et al., J. Phys.:Condens. Matter 29 465901 (2017);
          URL http://www.quantum-espresso.org", 
     in publications or presentations arising from this work. More details at
     http://www.quantum-espresso.org/quote

     Parallel version (MPI), running on    24 processors

     MPI processes distributed on     1 nodes
     R & G space division:  proc/nbgrp/npool/nimage =      24
     Reading input from scale_3d-00.in

     Current dimensions of program PWSCF are:
     Max number of different atomic species (ntypx) = 10
     Max number of k-points (npk) =  40000
     Max angular momentum in pseudopotentials (lmaxx) =  3
     Message from routine read_pp_mesh:
     mesh size missing, using the one in header
     file Fe.pbe-spn-kjpaw_psl.0.2.1.UPF: wavefunction(s)  3D renormalized
     file O.pbe-n-kjpaw_psl.0.1.UPF: wavefunction(s)  2P renormalized

     Subspace diagonalization in iterative solution of the eigenvalue problem:
     a serial algorithm will be used

     Message from routine find_sym:
     Not a group! Trying with lower acceptance parameter...
     Message from routine find_sym:
     Symmetry operations form a group
     Message from routine setup:
     using ibrav=0 with symmetry is DISCOURAGED, use correct ibrav instead

     Parallelization info
     --------------------
     sticks:   dense  smooth     PW     G-vecs:    dense   smooth      PW
     Min         746     276     74                46254    10430    1473
     Max         748     277     76                46255    10433    1475
     Sum       17927    6645   1805              1110111   250361   35385



     bravais-lattice index     =            0
     lattice parameter (alat)  =      18.6818  a.u.
     unit-cell volume          =    1852.2367 (a.u.)^3
     number of atoms/cell      =           28
     number of atomic types    =            4
     number of electrons       =       216.00
     number of Kohn-Sham states=          130
     kinetic-energy cutoff     =     100.0000  Ry
     charge density cutoff     =    1080.0000  Ry
     scf convergence threshold =      2.0E-10
     mixing beta               =       0.4000
     number of iterations used =            8  plain     mixing
     Exchange-correlation= PBE
                           (   1   4   3   4   0   0   0)

     celldm(1)=  18.681804  celldm(2)=   0.000000  celldm(3)=   0.000000
     celldm(4)=   0.000000  celldm(5)=   0.000000  celldm(6)=   0.000000

     crystal axes: (cart. coord. in units of alat)
               a(1) = (   1.000000   0.000000   0.000000 )  
               a(2) = (   0.000000   0.597590   0.000000 )  
               a(3) = (   0.000000   0.000000   0.475375 )  

     reciprocal axes: (cart. coord. in units 2 pi/alat)
               b(1) = (  1.000000  0.000000  0.000000 )  
               b(2) = (  0.000000  1.673388  0.000000 )  
               b(3) = (  0.000000  0.000000  2.103600 )  


     PseudoPot. # 1 for Fe read from file:
     /opt/QEpot/SSSP_precision_pseudos/Fe.pbe-spn-kjpaw_psl.0.2.1.UPF
     MD5 check sum: e86618425769142926afa95317d90200
     Pseudo is Projector augmented-wave + core cor, Zval = 16.0
     Generated using "atomic" code by A. Dal Corso  v.5.0.99 svn rev. 10869
     Shape of augmentation charge: PSQ
     Using radial grid of 1191 points,  6 beta functions with: 
                l(1) =   0
                l(2) =   0
                l(3) =   1
                l(4) =   1
                l(5) =   2
                l(6) =   2
     Q(r) pseudized with 0 coefficients 


     PseudoPot. # 2 for Na read from file:
     /opt/QEpot/SSSP_precision_pseudos/Na_ONCV_PBE-1.0.oncvpsp.upf
     MD5 check sum: 24a298df0a6742ae313db96548fdb2a4
     Pseudo is Norm-conserving, Zval =  9.0
     Generated using ONCVPSP code by D. R. Hamann
     Using radial grid of 1992 points,  4 beta functions with: 
                l(1) =   0
                l(2) =   0
                l(3) =   1
                l(4) =   1

     PseudoPot. # 3 for O  read from file:
     /opt/QEpot/SSSP_precision_pseudos/O.pbe-n-kjpaw_psl.0.1.UPF
     MD5 check sum: 0234752ac141de4415c5fc33072bef88
     Pseudo is Projector augmented-wave + core cor, Zval =  6.0
     Generated using "atomic" code by A. Dal Corso  v.5.0.99 svn rev. 10869
     Shape of augmentation charge: BESSEL
     Using radial grid of 1095 points,  4 beta functions with: 
                l(1) =   0
                l(2) =   0
                l(3) =   1
                l(4) =   1
     Q(r) pseudized with 0 coefficients 


     PseudoPot. # 4 for P  read from file:
     /opt/QEpot/SSSP_precision_pseudos/P.pbe-n-rrkjus_psl.1.0.0.UPF
     MD5 check sum: 8b930f418f0a4573dca56cd030ffe088
     Pseudo is Ultrasoft + core correction, Zval =  5.0
     Generated using "atomic" code by A. Dal Corso  v.5.1
     Using radial grid of 1147 points,  6 beta functions with: 
                l(1) =   0
                l(2) =   0
                l(3) =   1
                l(4) =   1
                l(5) =   2
                l(6) =   2
     Q(r) pseudized with 0 coefficients 


     atomic species   valence    mass     pseudopotential
        Fe            16.00    55.84500     Fe( 1.00)
        Na             9.00    22.98977     Na( 1.00)
        O              6.00    15.99940     O ( 1.00)
        P              5.00    30.97376     P ( 1.00)

     Starting magnetic structure 
     atomic species   magnetization
        Fe           0.312
        Na           0.000
        O            0.000
        P            0.000

      2 Sym. Ops., with inversion, found ( 1 have fractional translation)


                                    s                        frac. trans.

      isym =  1     identity                                     

 cryst.   s( 1) = (     1          0          0      )
                  (     0          1          0      )
                  (     0          0          1      )

 cart.    s( 1) = (  1.0000000  0.0000000  0.0000000 )
                  (  0.0000000  1.0000000  0.0000000 )
                  (  0.0000000  0.0000000  1.0000000 )


      isym =  2     inversion                                    

 cryst.   s( 2) = (    -1          0          0      )    f =( -0.0000060 )
                  (     0         -1          0      )       ( -0.0000040 )
                  (     0          0         -1      )       ( -0.0000060 )

 cart.    s( 2) = ( -1.0000000  0.0000000  0.0000000 )    f =( -0.0000060 )
                  (  0.0000000 -1.0000000  0.0000000 )       ( -0.0000024 )
                  (  0.0000000  0.0000000 -1.0000000 )       ( -0.0000029 )


   Cartesian axes

     site n.     atom                  positions (alat units)
         1           Na  tau(   1) = (   0.0000030   0.0000012   0.0000014  )
         2           Na  tau(   2) = (   0.5000030   0.0000012   0.2376892  )
         3           Na  tau(   3) = (   0.0000030   0.2987962   0.0000014  )
         4           Na  tau(   4) = (   0.5000030   0.2987962   0.2376892  )
         5           Fe  tau(   5) = (   0.2868420   0.4481918   0.4667146  )
         6           Fe  tau(   6) = (   0.2131640   0.1494005   0.2290269  )
         7           Fe  tau(   7) = (   0.7131640   0.1494005   0.0086637  )
         8           Fe  tau(   8) = (   0.7868410   0.4481918   0.2463515  )
         9           P   tau(   9) = (   0.1082720   0.4481948   0.2101635  )
        10           P   tau(  10) = (   0.3917330   0.1493981   0.4478517  )
        11           P   tau(  11) = (   0.8917330   0.1493981   0.2652148  )
        12           P   tau(  12) = (   0.6082730   0.4481948   0.0275266  )
        13           O   tau(  13) = (   0.1122130   0.4481936   0.3581812  )
        14           O   tau(  14) = (   0.3877920   0.1493993   0.1204934  )
        15           O   tau(  15) = (   0.8877930   0.1493993   0.1171972  )
        16           O   tau(  16) = (   0.6122130   0.4481936   0.3548849  )
        17           O   tau(  17) = (   0.4671820   0.4481936   0.0774967  )
        18           O   tau(  18) = (   0.0328240   0.1493987   0.3151844  )
        19           O   tau(  19) = (   0.5328240   0.1493987   0.3978817  )
        20           O   tau(  20) = (   0.9671820   0.4481936   0.1601935  )
        21           O   tau(  21) = (   0.1790170   0.5668881   0.1484170  )
        22           O   tau(  22) = (   0.3209880   0.0307048   0.3861047  )
        23           O   tau(  23) = (   0.8209870   0.2680908   0.3269623  )
        24           O   tau(  24) = (   0.6790190   0.3295021   0.0892746  )
        25           O   tau(  25) = (   0.8209880   0.0307048   0.3269614  )
        26           O   tau(  26) = (   0.6790180   0.5668881   0.0892736  )
        27           O   tau(  27) = (   0.1790190   0.3295021   0.1484160  )
        28           O   tau(  28) = (   0.3209870   0.2680908   0.3861038  )

   Crystallographic axes

     site n.     atom                  positions (cryst. coord.)
         1           Na  tau(   1) = (  0.0000030  0.0000020  0.0000030  )
         2           Na  tau(   2) = (  0.5000030  0.0000020  0.5000030  )
         3           Na  tau(   3) = (  0.0000030  0.5000020  0.0000030  )
         4           Na  tau(   4) = (  0.5000030  0.5000020  0.5000030  )
         5           Fe  tau(   5) = (  0.2868420  0.7499990  0.9817810  )
         6           Fe  tau(   6) = (  0.2131640  0.2500050  0.4817810  )
         7           Fe  tau(   7) = (  0.7131640  0.2500050  0.0182250  )
         8           Fe  tau(   8) = (  0.7868410  0.7499990  0.5182250  )
         9           P   tau(   9) = (  0.1082720  0.7500040  0.4421000  )
        10           P   tau(  10) = (  0.3917330  0.2500010  0.9421010  )
        11           P   tau(  11) = (  0.8917330  0.2500010  0.5579060  )
        12           P   tau(  12) = (  0.6082730  0.7500040  0.0579050  )
        13           O   tau(  13) = (  0.1122130  0.7500020  0.7534700  )
        14           O   tau(  14) = (  0.3877920  0.2500030  0.2534700  )
        15           O   tau(  15) = (  0.8877930  0.2500030  0.2465360  )
        16           O   tau(  16) = (  0.6122130  0.7500020  0.7465360  )
        17           O   tau(  17) = (  0.4671820  0.7500020  0.1630220  )
        18           O   tau(  18) = (  0.0328240  0.2500020  0.6630220  )
        19           O   tau(  19) = (  0.5328240  0.2500020  0.8369840  )
        20           O   tau(  20) = (  0.9671820  0.7500020  0.3369830  )
        21           O   tau(  21) = (  0.1790170  0.9486240  0.3122100  )
        22           O   tau(  22) = (  0.3209880  0.0513810  0.8122100  )
        23           O   tau(  23) = (  0.8209870  0.4486200  0.6877980  )
        24           O   tau(  24) = (  0.6790190  0.5513850  0.1877980  )
        25           O   tau(  25) = (  0.8209880  0.0513810  0.6877960  )
        26           O   tau(  26) = (  0.6790180  0.9486240  0.1877960  )
        27           O   tau(  27) = (  0.1790190  0.5513850  0.3122080  )
        28           O   tau(  28) = (  0.3209870  0.4486200  0.8122080  )

     number of k points=   158  Marzari-Vanderbilt smearing, width (Ry)=  0.0073
                       cart. coord. in units 2pi/alat
        k(    1) = (   0.0000000   0.0000000   0.0000000), wk =   0.0031746
        k(    2) = (   0.0000000   0.0000000   0.2337334), wk =   0.0063492
        k(    3) = (   0.0000000   0.0000000   0.4674667), wk =   0.0063492
        k(    4) = (   0.0000000   0.0000000   0.7012001), wk =   0.0063492
        k(    5) = (   0.0000000   0.0000000   0.9349334), wk =   0.0063492
        k(    6) = (   0.0000000   0.2390555   0.0000000), wk =   0.0063492
        k(    7) = (   0.0000000   0.2390555   0.2337334), wk =   0.0063492
        k(    8) = (   0.0000000   0.2390555   0.4674667), wk =   0.0063492
        k(    9) = (   0.0000000   0.2390555   0.7012001), wk =   0.0063492
        k(   10) = (   0.0000000   0.2390555   0.9349334), wk =   0.0063492
        k(   11) = (   0.0000000   0.4781110   0.0000000), wk =   0.0063492
        k(   12) = (   0.0000000   0.4781110   0.2337334), wk =   0.0063492
        k(   13) = (   0.0000000   0.4781110   0.4674667), wk =   0.0063492
        k(   14) = (   0.0000000   0.4781110   0.7012001), wk =   0.0063492
        k(   15) = (   0.0000000   0.4781110   0.9349334), wk =   0.0063492
        k(   16) = (   0.0000000   0.7171664   0.0000000), wk =   0.0063492
        k(   17) = (   0.0000000   0.7171664   0.2337334), wk =   0.0063492
        k(   18) = (   0.0000000   0.7171664   0.4674667), wk =   0.0063492
        k(   19) = (   0.0000000   0.7171664   0.7012001), wk =   0.0063492
        k(   20) = (   0.0000000   0.7171664   0.9349334), wk =   0.0063492
        k(   21) = (   0.2000000   0.0000000   0.0000000), wk =   0.0063492
        k(   22) = (   0.2000000   0.0000000   0.2337334), wk =   0.0063492
        k(   23) = (   0.2000000   0.0000000   0.4674667), wk =   0.0063492
        k(   24) = (   0.2000000   0.0000000   0.7012001), wk =   0.0063492
        k(   25) = (   0.2000000   0.0000000   0.9349334), wk =   0.0063492
        k(   26) = (   0.2000000   0.2390555   0.0000000), wk =   0.0063492
        k(   27) = (   0.2000000   0.2390555   0.2337334), wk =   0.0063492
        k(   28) = (   0.2000000   0.2390555   0.4674667), wk =   0.0063492
        k(   29) = (   0.2000000   0.2390555   0.7012001), wk =   0.0063492
        k(   30) = (   0.2000000   0.2390555   0.9349334), wk =   0.0063492
        k(   31) = (   0.2000000   0.4781110   0.0000000), wk =   0.0063492
        k(   32) = (   0.2000000   0.4781110   0.2337334), wk =   0.0063492
        k(   33) = (   0.2000000   0.4781110   0.4674667), wk =   0.0063492
        k(   34) = (   0.2000000   0.4781110   0.7012001), wk =   0.0063492
        k(   35) = (   0.2000000   0.4781110   0.9349334), wk =   0.0063492
        k(   36) = (   0.2000000   0.7171664   0.0000000), wk =   0.0063492
        k(   37) = (   0.2000000   0.7171664   0.2337334), wk =   0.0063492
        k(   38) = (   0.2000000   0.7171664   0.4674667), wk =   0.0063492
        k(   39) = (   0.2000000   0.7171664   0.7012001), wk =   0.0063492
        k(   40) = (   0.2000000   0.7171664   0.9349334), wk =   0.0063492
        k(   41) = (   0.4000000   0.0000000   0.0000000), wk =   0.0063492
        k(   42) = (   0.4000000   0.0000000   0.2337334), wk =   0.0063492
        k(   43) = (   0.4000000   0.0000000   0.4674667), wk =   0.0063492
        k(   44) = (   0.4000000   0.0000000   0.7012001), wk =   0.0063492
        k(   45) = (   0.4000000   0.0000000   0.9349334), wk =   0.0063492
        k(   46) = (   0.4000000   0.2390555   0.0000000), wk =   0.0063492
        k(   47) = (   0.4000000   0.2390555   0.2337334), wk =   0.0063492
        k(   48) = (   0.4000000   0.2390555   0.4674667), wk =   0.0063492
        k(   49) = (   0.4000000   0.2390555   0.7012001), wk =   0.0063492
        k(   50) = (   0.4000000   0.2390555   0.9349334), wk =   0.0063492
        k(   51) = (   0.4000000   0.4781110   0.0000000), wk =   0.0063492
        k(   52) = (   0.4000000   0.4781110   0.2337334), wk =   0.0063492
        k(   53) = (   0.4000000   0.4781110   0.4674667), wk =   0.0063492
        k(   54) = (   0.4000000   0.4781110   0.7012001), wk =   0.0063492
        k(   55) = (   0.4000000   0.4781110   0.9349334), wk =   0.0063492
        k(   56) = (   0.4000000   0.7171664   0.0000000), wk =   0.0063492
        k(   57) = (   0.4000000   0.7171664   0.2337334), wk =   0.0063492
        k(   58) = (   0.4000000   0.7171664   0.4674667), wk =   0.0063492
        k(   59) = (   0.4000000   0.7171664   0.7012001), wk =   0.0063492
        k(   60) = (   0.4000000   0.7171664   0.9349334), wk =   0.0063492
        k(   61) = (   0.0000000   0.2390555  -0.2337334), wk =   0.0063492
        k(   62) = (   0.0000000   0.2390555  -0.4674667), wk =   0.0063492
        k(   63) = (   0.0000000   0.2390555  -0.7012001), wk =   0.0063492
        k(   64) = (   0.0000000   0.2390555  -0.9349334), wk =   0.0063492
        k(   65) = (   0.0000000   0.4781110  -0.2337334), wk =   0.0063492
        k(   66) = (   0.0000000   0.4781110  -0.4674667), wk =   0.0063492
        k(   67) = (   0.0000000   0.4781110  -0.7012001), wk =   0.0063492
        k(   68) = (   0.0000000   0.4781110  -0.9349334), wk =   0.0063492
        k(   69) = (   0.0000000   0.7171664  -0.2337334), wk =   0.0063492
        k(   70) = (   0.0000000   0.7171664  -0.4674667), wk =   0.0063492
        k(   71) = (   0.0000000   0.7171664  -0.7012001), wk =   0.0063492
        k(   72) = (   0.0000000   0.7171664  -0.9349334), wk =   0.0063492
        k(   73) = (   0.2000000   0.0000000  -0.2337334), wk =   0.0063492
        k(   74) = (   0.2000000   0.0000000  -0.4674667), wk =   0.0063492
        k(   75) = (   0.2000000   0.0000000  -0.7012001), wk =   0.0063492
        k(   76) = (   0.2000000   0.0000000  -0.9349334), wk =   0.0063492
        k(   77) = (  -0.2000000   0.2390555   0.0000000), wk =   0.0063492
        k(   78) = (  -0.2000000   0.2390555  -0.2337334), wk =   0.0063492
        k(   79) = (   0.2000000  -0.2390555  -0.2337334), wk =   0.0063492
        k(   80) = (  -0.2000000  -0.2390555   0.2337334), wk =   0.0063492
        k(   81) = (  -0.2000000   0.2390555  -0.4674667), wk =   0.0063492
        k(   82) = (   0.2000000  -0.2390555  -0.4674667), wk =   0.0063492
        k(   83) = (  -0.2000000  -0.2390555   0.4674667), wk =   0.0063492
        k(   84) = (  -0.2000000   0.2390555  -0.7012001), wk =   0.0063492
        k(   85) = (   0.2000000  -0.2390555  -0.7012001), wk =   0.0063492
        k(   86) = (  -0.2000000  -0.2390555   0.7012001), wk =   0.0063492
        k(   87) = (  -0.2000000   0.2390555  -0.9349334), wk =   0.0063492
        k(   88) = (   0.2000000  -0.2390555  -0.9349334), wk =   0.0063492
        k(   89) = (  -0.2000000  -0.2390555   0.9349334), wk =   0.0063492
        k(   90) = (  -0.2000000   0.4781110   0.0000000), wk =   0.0063492
        k(   91) = (  -0.2000000   0.4781110  -0.2337334), wk =   0.0063492
        k(   92) = (   0.2000000  -0.4781110  -0.2337334), wk =   0.0063492
        k(   93) = (  -0.2000000  -0.4781110   0.2337334), wk =   0.0063492
        k(   94) = (  -0.2000000   0.4781110  -0.4674667), wk =   0.0063492
        k(   95) = (   0.2000000  -0.4781110  -0.4674667), wk =   0.0063492
        k(   96) = (  -0.2000000  -0.4781110   0.4674667), wk =   0.0063492
        k(   97) = (  -0.2000000   0.4781110  -0.7012001), wk =   0.0063492
        k(   98) = (   0.2000000  -0.4781110  -0.7012001), wk =   0.0063492
        k(   99) = (  -0.2000000  -0.4781110   0.7012001), wk =   0.0063492
        k(  100) = (  -0.2000000   0.4781110  -0.9349334), wk =   0.0063492
        k(  101) = (   0.2000000  -0.4781110  -0.9349334), wk =   0.0063492
        k(  102) = (  -0.2000000  -0.4781110   0.9349334), wk =   0.0063492
        k(  103) = (  -0.2000000   0.7171664   0.0000000), wk =   0.0063492
        k(  104) = (  -0.2000000   0.7171664  -0.2337334), wk =   0.0063492
        k(  105) = (   0.2000000  -0.7171664  -0.2337334), wk =   0.0063492
        k(  106) = (  -0.2000000  -0.7171664   0.2337334), wk =   0.0063492
        k(  107) = (  -0.2000000   0.7171664  -0.4674667), wk =   0.0063492
        k(  108) = (   0.2000000  -0.7171664  -0.4674667), wk =   0.0063492
        k(  109) = (  -0.2000000  -0.7171664   0.4674667), wk =   0.0063492
        k(  110) = (  -0.2000000   0.7171664  -0.7012001), wk =   0.0063492
        k(  111) = (   0.2000000  -0.7171664  -0.7012001), wk =   0.0063492
        k(  112) = (  -0.2000000  -0.7171664   0.7012001), wk =   0.0063492
        k(  113) = (  -0.2000000   0.7171664  -0.9349334), wk =   0.0063492
        k(  114) = (   0.2000000  -0.7171664  -0.9349334), wk =   0.0063492
        k(  115) = (  -0.2000000  -0.7171664   0.9349334), wk =   0.0063492
        k(  116) = (   0.4000000   0.0000000  -0.2337334), wk =   0.0063492
        k(  117) = (   0.4000000   0.0000000  -0.4674667), wk =   0.0063492
        k(  118) = (   0.4000000   0.0000000  -0.7012001), wk =   0.0063492
        k(  119) = (   0.4000000   0.0000000  -0.9349334), wk =   0.0063492
        k(  120) = (  -0.4000000   0.2390555   0.0000000), wk =   0.0063492
        k(  121) = (  -0.4000000   0.2390555  -0.2337334), wk =   0.0063492
        k(  122) = (   0.4000000  -0.2390555  -0.2337334), wk =   0.0063492
        k(  123) = (  -0.4000000  -0.2390555   0.2337334), wk =   0.0063492
        k(  124) = (  -0.4000000   0.2390555  -0.4674667), wk =   0.0063492
        k(  125) = (   0.4000000  -0.2390555  -0.4674667), wk =   0.0063492
        k(  126) = (  -0.4000000  -0.2390555   0.4674667), wk =   0.0063492
        k(  127) = (  -0.4000000   0.2390555  -0.7012001), wk =   0.0063492
        k(  128) = (   0.4000000  -0.2390555  -0.7012001), wk =   0.0063492
        k(  129) = (  -0.4000000  -0.2390555   0.7012001), wk =   0.0063492
        k(  130) = (  -0.4000000   0.2390555  -0.9349334), wk =   0.0063492
        k(  131) = (   0.4000000  -0.2390555  -0.9349334), wk =   0.0063492
        k(  132) = (  -0.4000000  -0.2390555   0.9349334), wk =   0.0063492
        k(  133) = (  -0.4000000   0.4781110   0.0000000), wk =   0.0063492
        k(  134) = (  -0.4000000   0.4781110  -0.2337334), wk =   0.0063492
        k(  135) = (   0.4000000  -0.4781110  -0.2337334), wk =   0.0063492
        k(  136) = (  -0.4000000  -0.4781110   0.2337334), wk =   0.0063492
        k(  137) = (  -0.4000000   0.4781110  -0.4674667), wk =   0.0063492
        k(  138) = (   0.4000000  -0.4781110  -0.4674667), wk =   0.0063492
        k(  139) = (  -0.4000000  -0.4781110   0.4674667), wk =   0.0063492
        k(  140) = (  -0.4000000   0.4781110  -0.7012001), wk =   0.0063492
        k(  141) = (   0.4000000  -0.4781110  -0.7012001), wk =   0.0063492
        k(  142) = (  -0.4000000  -0.4781110   0.7012001), wk =   0.0063492
        k(  143) = (  -0.4000000   0.4781110  -0.9349334), wk =   0.0063492
        k(  144) = (   0.4000000  -0.4781110  -0.9349334), wk =   0.0063492
        k(  145) = (  -0.4000000  -0.4781110   0.9349334), wk =   0.0063492
        k(  146) = (  -0.4000000   0.7171664   0.0000000), wk =   0.0063492
        k(  147) = (  -0.4000000   0.7171664  -0.2337334), wk =   0.0063492
        k(  148) = (   0.4000000  -0.7171664  -0.2337334), wk =   0.0063492
        k(  149) = (  -0.4000000  -0.7171664   0.2337334), wk =   0.0063492
        k(  150) = (  -0.4000000   0.7171664  -0.4674667), wk =   0.0063492
        k(  151) = (   0.4000000  -0.7171664  -0.4674667), wk =   0.0063492
        k(  152) = (  -0.4000000  -0.7171664   0.4674667), wk =   0.0063492
        k(  153) = (  -0.4000000   0.7171664  -0.7012001), wk =   0.0063492
        k(  154) = (   0.4000000  -0.7171664  -0.7012001), wk =   0.0063492
        k(  155) = (  -0.4000000  -0.7171664   0.7012001), wk =   0.0063492
        k(  156) = (  -0.4000000   0.7171664  -0.9349334), wk =   0.0063492
        k(  157) = (   0.4000000  -0.7171664  -0.9349334), wk =   0.0063492
        k(  158) = (  -0.4000000  -0.7171664   0.9349334), wk =   0.0063492

                       cryst. coord.
        k(    1) = (   0.0000000   0.0000000   0.0000000), wk =   0.0031746
        k(    2) = (   0.0000000   0.0000000   0.1111111), wk =   0.0063492
        k(    3) = (   0.0000000   0.0000000   0.2222222), wk =   0.0063492
        k(    4) = (   0.0000000   0.0000000   0.3333333), wk =   0.0063492
        k(    5) = (   0.0000000   0.0000000   0.4444444), wk =   0.0063492
        k(    6) = (   0.0000000   0.1428571   0.0000000), wk =   0.0063492
        k(    7) = (   0.0000000   0.1428571   0.1111111), wk =   0.0063492
        k(    8) = (   0.0000000   0.1428571   0.2222222), wk =   0.0063492
        k(    9) = (   0.0000000   0.1428571   0.3333333), wk =   0.0063492
        k(   10) = (   0.0000000   0.1428571   0.4444444), wk =   0.0063492
        k(   11) = (   0.0000000   0.2857143   0.0000000), wk =   0.0063492
        k(   12) = (   0.0000000   0.2857143   0.1111111), wk =   0.0063492
        k(   13) = (   0.0000000   0.2857143   0.2222222), wk =   0.0063492
        k(   14) = (   0.0000000   0.2857143   0.3333333), wk =   0.0063492
        k(   15) = (   0.0000000   0.2857143   0.4444444), wk =   0.0063492
        k(   16) = (   0.0000000   0.4285714   0.0000000), wk =   0.0063492
        k(   17) = (   0.0000000   0.4285714   0.1111111), wk =   0.0063492
        k(   18) = (   0.0000000   0.4285714   0.2222222), wk =   0.0063492
        k(   19) = (   0.0000000   0.4285714   0.3333333), wk =   0.0063492
        k(   20) = (   0.0000000   0.4285714   0.4444444), wk =   0.0063492
        k(   21) = (   0.2000000   0.0000000   0.0000000), wk =   0.0063492
        k(   22) = (   0.2000000   0.0000000   0.1111111), wk =   0.0063492
        k(   23) = (   0.2000000   0.0000000   0.2222222), wk =   0.0063492
        k(   24) = (   0.2000000   0.0000000   0.3333333), wk =   0.0063492
        k(   25) = (   0.2000000   0.0000000   0.4444444), wk =   0.0063492
        k(   26) = (   0.2000000   0.1428571   0.0000000), wk =   0.0063492
        k(   27) = (   0.2000000   0.1428571   0.1111111), wk =   0.0063492
        k(   28) = (   0.2000000   0.1428571   0.2222222), wk =   0.0063492
        k(   29) = (   0.2000000   0.1428571   0.3333333), wk =   0.0063492
        k(   30) = (   0.2000000   0.1428571   0.4444444), wk =   0.0063492
        k(   31) = (   0.2000000   0.2857143   0.0000000), wk =   0.0063492
        k(   32) = (   0.2000000   0.2857143   0.1111111), wk =   0.0063492
        k(   33) = (   0.2000000   0.2857143   0.2222222), wk =   0.0063492
        k(   34) = (   0.2000000   0.2857143   0.3333333), wk =   0.0063492
        k(   35) = (   0.2000000   0.2857143   0.4444444), wk =   0.0063492
        k(   36) = (   0.2000000   0.4285714   0.0000000), wk =   0.0063492
        k(   37) = (   0.2000000   0.4285714   0.1111111), wk =   0.0063492
        k(   38) = (   0.2000000   0.4285714   0.2222222), wk =   0.0063492
        k(   39) = (   0.2000000   0.4285714   0.3333333), wk =   0.0063492
        k(   40) = (   0.2000000   0.4285714   0.4444444), wk =   0.0063492
        k(   41) = (   0.4000000   0.0000000   0.0000000), wk =   0.0063492
        k(   42) = (   0.4000000   0.0000000   0.1111111), wk =   0.0063492
        k(   43) = (   0.4000000   0.0000000   0.2222222), wk =   0.0063492
        k(   44) = (   0.4000000   0.0000000   0.3333333), wk =   0.0063492
        k(   45) = (   0.4000000   0.0000000   0.4444444), wk =   0.0063492
        k(   46) = (   0.4000000   0.1428571   0.0000000), wk =   0.0063492
        k(   47) = (   0.4000000   0.1428571   0.1111111), wk =   0.0063492
        k(   48) = (   0.4000000   0.1428571   0.2222222), wk =   0.0063492
        k(   49) = (   0.4000000   0.1428571   0.3333333), wk =   0.0063492
        k(   50) = (   0.4000000   0.1428571   0.4444444), wk =   0.0063492
        k(   51) = (   0.4000000   0.2857143   0.0000000), wk =   0.0063492
        k(   52) = (   0.4000000   0.2857143   0.1111111), wk =   0.0063492
        k(   53) = (   0.4000000   0.2857143   0.2222222), wk =   0.0063492
        k(   54) = (   0.4000000   0.2857143   0.3333333), wk =   0.0063492
        k(   55) = (   0.4000000   0.2857143   0.4444444), wk =   0.0063492
        k(   56) = (   0.4000000   0.4285714   0.0000000), wk =   0.0063492
        k(   57) = (   0.4000000   0.4285714   0.1111111), wk =   0.0063492
        k(   58) = (   0.4000000   0.4285714   0.2222222), wk =   0.0063492
        k(   59) = (   0.4000000   0.4285714   0.3333333), wk =   0.0063492
        k(   60) = (   0.4000000   0.4285714   0.4444444), wk =   0.0063492
        k(   61) = (   0.0000000   0.1428571  -0.1111111), wk =   0.0063492
        k(   62) = (   0.0000000   0.1428571  -0.2222222), wk =   0.0063492
        k(   63) = (   0.0000000   0.1428571  -0.3333333), wk =   0.0063492
        k(   64) = (   0.0000000   0.1428571  -0.4444444), wk =   0.0063492
        k(   65) = (   0.0000000   0.2857143  -0.1111111), wk =   0.0063492
        k(   66) = (   0.0000000   0.2857143  -0.2222222), wk =   0.0063492
        k(   67) = (   0.0000000   0.2857143  -0.3333333), wk =   0.0063492
        k(   68) = (   0.0000000   0.2857143  -0.4444444), wk =   0.0063492
        k(   69) = (   0.0000000   0.4285714  -0.1111111), wk =   0.0063492
        k(   70) = (   0.0000000   0.4285714  -0.2222222), wk =   0.0063492
        k(   71) = (   0.0000000   0.4285714  -0.3333333), wk =   0.0063492
        k(   72) = (   0.0000000   0.4285714  -0.4444444), wk =   0.0063492
        k(   73) = (   0.2000000   0.0000000  -0.1111111), wk =   0.0063492
        k(   74) = (   0.2000000   0.0000000  -0.2222222), wk =   0.0063492
        k(   75) = (   0.2000000   0.0000000  -0.3333333), wk =   0.0063492
        k(   76) = (   0.2000000   0.0000000  -0.4444444), wk =   0.0063492
        k(   77) = (  -0.2000000   0.1428571   0.0000000), wk =   0.0063492
        k(   78) = (  -0.2000000   0.1428571  -0.1111111), wk =   0.0063492
        k(   79) = (   0.2000000  -0.1428571  -0.1111111), wk =   0.0063492
        k(   80) = (  -0.2000000  -0.1428571   0.1111111), wk =   0.0063492
        k(   81) = (  -0.2000000   0.1428571  -0.2222222), wk =   0.0063492
        k(   82) = (   0.2000000  -0.1428571  -0.2222222), wk =   0.0063492
        k(   83) = (  -0.2000000  -0.1428571   0.2222222), wk =   0.0063492
        k(   84) = (  -0.2000000   0.1428571  -0.3333333), wk =   0.0063492
        k(   85) = (   0.2000000  -0.1428571  -0.3333333), wk =   0.0063492
        k(   86) = (  -0.2000000  -0.1428571   0.3333333), wk =   0.0063492
        k(   87) = (  -0.2000000   0.1428571  -0.4444444), wk =   0.0063492
        k(   88) = (   0.2000000  -0.1428571  -0.4444444), wk =   0.0063492
        k(   89) = (  -0.2000000  -0.1428571   0.4444444), wk =   0.0063492
        k(   90) = (  -0.2000000   0.2857143   0.0000000), wk =   0.0063492
        k(   91) = (  -0.2000000   0.2857143  -0.1111111), wk =   0.0063492
        k(   92) = (   0.2000000  -0.2857143  -0.1111111), wk =   0.0063492
        k(   93) = (  -0.2000000  -0.2857143   0.1111111), wk =   0.0063492
        k(   94) = (  -0.2000000   0.2857143  -0.2222222), wk =   0.0063492
        k(   95) = (   0.2000000  -0.2857143  -0.2222222), wk =   0.0063492
        k(   96) = (  -0.2000000  -0.2857143   0.2222222), wk =   0.0063492
        k(   97) = (  -0.2000000   0.2857143  -0.3333333), wk =   0.0063492
        k(   98) = (   0.2000000  -0.2857143  -0.3333333), wk =   0.0063492
        k(   99) = (  -0.2000000  -0.2857143   0.3333333), wk =   0.0063492
        k(  100) = (  -0.2000000   0.2857143  -0.4444444), wk =   0.0063492
        k(  101) = (   0.2000000  -0.2857143  -0.4444444), wk =   0.0063492
        k(  102) = (  -0.2000000  -0.2857143   0.4444444), wk =   0.0063492
        k(  103) = (  -0.2000000   0.4285714   0.0000000), wk =   0.0063492
        k(  104) = (  -0.2000000   0.4285714  -0.1111111), wk =   0.0063492
        k(  105) = (   0.2000000  -0.4285714  -0.1111111), wk =   0.0063492
        k(  106) = (  -0.2000000  -0.4285714   0.1111111), wk =   0.0063492
        k(  107) = (  -0.2000000   0.4285714  -0.2222222), wk =   0.0063492
        k(  108) = (   0.2000000  -0.4285714  -0.2222222), wk =   0.0063492
        k(  109) = (  -0.2000000  -0.4285714   0.2222222), wk =   0.0063492
        k(  110) = (  -0.2000000   0.4285714  -0.3333333), wk =   0.0063492
        k(  111) = (   0.2000000  -0.4285714  -0.3333333), wk =   0.0063492
        k(  112) = (  -0.2000000  -0.4285714   0.3333333), wk =   0.0063492
        k(  113) = (  -0.2000000   0.4285714  -0.4444444), wk =   0.0063492
        k(  114) = (   0.2000000  -0.4285714  -0.4444444), wk =   0.0063492
        k(  115) = (  -0.2000000  -0.4285714   0.4444444), wk =   0.0063492
        k(  116) = (   0.4000000   0.0000000  -0.1111111), wk =   0.0063492
        k(  117) = (   0.4000000   0.0000000  -0.2222222), wk =   0.0063492
        k(  118) = (   0.4000000   0.0000000  -0.3333333), wk =   0.0063492
        k(  119) = (   0.4000000   0.0000000  -0.4444444), wk =   0.0063492
        k(  120) = (  -0.4000000   0.1428571   0.0000000), wk =   0.0063492
        k(  121) = (  -0.4000000   0.1428571  -0.1111111), wk =   0.0063492
        k(  122) = (   0.4000000  -0.1428571  -0.1111111), wk =   0.0063492
        k(  123) = (  -0.4000000  -0.1428571   0.1111111), wk =   0.0063492
        k(  124) = (  -0.4000000   0.1428571  -0.2222222), wk =   0.0063492
        k(  125) = (   0.4000000  -0.1428571  -0.2222222), wk =   0.0063492
        k(  126) = (  -0.4000000  -0.1428571   0.2222222), wk =   0.0063492
        k(  127) = (  -0.4000000   0.1428571  -0.3333333), wk =   0.0063492
        k(  128) = (   0.4000000  -0.1428571  -0.3333333), wk =   0.0063492
        k(  129) = (  -0.4000000  -0.1428571   0.3333333), wk =   0.0063492
        k(  130) = (  -0.4000000   0.1428571  -0.4444444), wk =   0.0063492
        k(  131) = (   0.4000000  -0.1428571  -0.4444444), wk =   0.0063492
        k(  132) = (  -0.4000000  -0.1428571   0.4444444), wk =   0.0063492
        k(  133) = (  -0.4000000   0.2857143   0.0000000), wk =   0.0063492
        k(  134) = (  -0.4000000   0.2857143  -0.1111111), wk =   0.0063492
        k(  135) = (   0.4000000  -0.2857143  -0.1111111), wk =   0.0063492
        k(  136) = (  -0.4000000  -0.2857143   0.1111111), wk =   0.0063492
        k(  137) = (  -0.4000000   0.2857143  -0.2222222), wk =   0.0063492
        k(  138) = (   0.4000000  -0.2857143  -0.2222222), wk =   0.0063492
        k(  139) = (  -0.4000000  -0.2857143   0.2222222), wk =   0.0063492
        k(  140) = (  -0.4000000   0.2857143  -0.3333333), wk =   0.0063492
        k(  141) = (   0.4000000  -0.2857143  -0.3333333), wk =   0.0063492
        k(  142) = (  -0.4000000  -0.2857143   0.3333333), wk =   0.0063492
        k(  143) = (  -0.4000000   0.2857143  -0.4444444), wk =   0.0063492
        k(  144) = (   0.4000000  -0.2857143  -0.4444444), wk =   0.0063492
        k(  145) = (  -0.4000000  -0.2857143   0.4444444), wk =   0.0063492
        k(  146) = (  -0.4000000   0.4285714   0.0000000), wk =   0.0063492
        k(  147) = (  -0.4000000   0.4285714  -0.1111111), wk =   0.0063492
        k(  148) = (   0.4000000  -0.4285714  -0.1111111), wk =   0.0063492
        k(  149) = (  -0.4000000  -0.4285714   0.1111111), wk =   0.0063492
        k(  150) = (  -0.4000000   0.4285714  -0.2222222), wk =   0.0063492
        k(  151) = (   0.4000000  -0.4285714  -0.2222222), wk =   0.0063492
        k(  152) = (  -0.4000000  -0.4285714   0.2222222), wk =   0.0063492
        k(  153) = (  -0.4000000   0.4285714  -0.3333333), wk =   0.0063492
        k(  154) = (   0.4000000  -0.4285714  -0.3333333), wk =   0.0063492
        k(  155) = (  -0.4000000  -0.4285714   0.3333333), wk =   0.0063492
        k(  156) = (  -0.4000000   0.4285714  -0.4444444), wk =   0.0063492
        k(  157) = (   0.4000000  -0.4285714  -0.4444444), wk =   0.0063492
        k(  158) = (  -0.4000000  -0.4285714   0.4444444), wk =   0.0063492

     Dense  grid:  1110111 G-vectors     FFT dimensions: ( 200, 120,  96)

     Smooth grid:   250361 G-vectors     FFT dimensions: ( 120,  72,  60)

     Dynamical RAM for                 wfc:       2.58 MB

     Dynamical RAM for     wfc (w. buffer):     819.35 MB

     Dynamical RAM for           str. fact:       2.82 MB

     Dynamical RAM for           local pot:       0.00 MB

     Dynamical RAM for          nlocal pot:       6.04 MB

     Dynamical RAM for                qrad:      10.54 MB

     Dynamical RAM for          rho,v,vnew:       8.63 MB

     Dynamical RAM for               rhoin:       2.88 MB

     Dynamical RAM for            rho*nmix:      22.58 MB

     Dynamical RAM for           G-vectors:       2.73 MB

     Dynamical RAM for          h,s,v(r/c):       3.09 MB

     Dynamical RAM for          <psi|beta>:       0.60 MB

     Dynamical RAM for                 psi:       5.17 MB

     Dynamical RAM for                hpsi:       5.17 MB

     Dynamical RAM for                spsi:       5.17 MB

     Dynamical RAM for      wfcinit/wfcrot:       6.57 MB

     Dynamical RAM for           addusdens:     143.27 MB

     Dynamical RAM for          addusforce:     164.57 MB

     Dynamical RAM for         addusstress:     142.92 MB

     Estimated static dynamical RAM per process >     883.50 MB

     Estimated max dynamical RAM per process >       1.02 GB

     Estimated total dynamical RAM >      24.56 GB

     Check: negative core charge=   -0.000003
     Generating pointlists ...
     new r_m :   0.0824 (alat units)  1.5402 (a.u.) for type    1
     new r_m :   0.0910 (alat units)  1.6997 (a.u.) for type    2
     new r_m :   0.0611 (alat units)  1.1411 (a.u.) for type    3
     new r_m :   0.0611 (alat units)  1.1411 (a.u.) for type    4

     Initial potential from superposition of free atoms

     starting charge  215.97252, renormalised to  216.00000
     Starting wfcs are  152 randomized atomic wfcs
     Checking if some PAW data can be deallocated... 
       PAW data deallocated on   22 nodes for type:  1
       PAW data deallocated on    8 nodes for type:  3

     total cpu time spent up to now is     1579.4 secs

     Self-consistent Calculation

     iteration #  1     ecut=   100.00 Ry     beta= 0.40
     Davidson diagonalization with overlap
     ethr =  1.00E-02,  avg # of iterations =  4.4

     negative rho (up, down):  0.000E+00 9.060E-06

     total cpu time spent up to now is     6181.4 secs

     total energy              =   -2380.40788295 Ry
     estimated scf accuracy    <       5.65895935 Ry

     total magnetization       =    16.00 Bohr mag/cell
     absolute magnetization    =    16.01 Bohr mag/cell

     iteration #  2     ecut=   100.00 Ry     beta= 0.40
     Davidson diagonalization with overlap
     ethr =  2.62E-03,  avg # of iterations =  2.0

     negative rho (up, down):  0.000E+00 1.164E-04

     total cpu time spent up to now is    10164.7 secs

     total energy              =   -2381.68742949 Ry
     estimated scf accuracy    <       0.39517146 Ry

     total magnetization       =    16.00 Bohr mag/cell
     absolute magnetization    =    16.01 Bohr mag/cell

     iteration #  3     ecut=   100.00 Ry     beta= 0.40
     Davidson diagonalization with overlap
     ethr =  1.83E-04,  avg # of iterations =  8.3

     negative rho (up, down):  0.000E+00 1.281E-04

     total cpu time spent up to now is    15212.0 secs

     total energy              =   -2381.65549931 Ry
     estimated scf accuracy    <       2.93759715 Ry

     total magnetization       =    16.00 Bohr mag/cell
     absolute magnetization    =    16.05 Bohr mag/cell

     iteration #  4     ecut=   100.00 Ry     beta= 0.40
     Davidson diagonalization with overlap
     ethr =  1.83E-04,  avg # of iterations =  2.0

     negative rho (up, down):  0.000E+00 2.720E-04

     total cpu time spent up to now is    18682.7 secs

     total energy              =   -2381.73189901 Ry
     estimated scf accuracy    <       1.60053450 Ry

     total magnetization       =    16.00 Bohr mag/cell
     absolute magnetization    =    16.06 Bohr mag/cell

     iteration #  5     ecut=   100.00 Ry     beta= 0.40
     Davidson diagonalization with overlap
     ethr =  1.83E-04,  avg # of iterations =  1.5

     negative rho (up, down):  0.000E+00 4.655E-04

     total cpu time spent up to now is    21986.0 secs

     total energy              =   -2381.76981393 Ry
     estimated scf accuracy    <       0.99204448 Ry

     total magnetization       =    16.00 Bohr mag/cell
     absolute magnetization    =    16.06 Bohr mag/cell

     iteration #  6     ecut=   100.00 Ry     beta= 0.40
     Davidson diagonalization with overlap
     ethr =  1.83E-04,  avg # of iterations =  1.0

     negative rho (up, down):  0.000E+00 4.912E-04

     total cpu time spent up to now is    24309.7 secs

     total energy              =   -2381.79023801 Ry
     estimated scf accuracy    <       0.75807057 Ry

     total magnetization       =    16.00 Bohr mag/cell
     absolute magnetization    =    16.07 Bohr mag/cell

     iteration #  7     ecut=   100.00 Ry     beta= 0.40
     Davidson diagonalization with overlap
     ethr =  1.83E-04,  avg # of iterations =  1.0

     negative rho (up, down):  0.000E+00 4.908E-04

     total cpu time spent up to now is    24711.9 secs

     total energy              =   -2381.82802342 Ry
     estimated scf accuracy    <       0.24965502 Ry

     total magnetization       =    16.00 Bohr mag/cell
     absolute magnetization    =    16.07 Bohr mag/cell

     iteration #  8     ecut=   100.00 Ry     beta= 0.40
     Davidson diagonalization with overlap
     ethr =  1.16E-04,  avg # of iterations =  1.0

     negative rho (up, down):  0.000E+00 5.027E-04

     total cpu time spent up to now is    25114.3 secs

     total energy              =   -2381.82567863 Ry
     estimated scf accuracy    <       0.23590181 Ry

     total magnetization       =    16.00 Bohr mag/cell
     absolute magnetization    =    16.07 Bohr mag/cell

     iteration #  9     ecut=   100.00 Ry     beta= 0.40
     Davidson diagonalization with overlap
     ethr =  1.09E-04,  avg # of iterations =  1.0

     negative rho (up, down):  0.000E+00 5.128E-04

     total cpu time spent up to now is    25517.2 secs

     total energy              =   -2381.83057571 Ry
     estimated scf accuracy    <       0.05529266 Ry

     total magnetization       =    16.00 Bohr mag/cell
     absolute magnetization    =    16.07 Bohr mag/cell

     iteration # 10     ecut=   100.00 Ry     beta= 0.40
     Davidson diagonalization with overlap
     ethr =  2.56E-05,  avg # of iterations =  1.2

     negative rho (up, down):  0.000E+00 5.124E-04

     total cpu time spent up to now is    25929.4 secs

     total energy              =   -2381.83269577 Ry
     estimated scf accuracy    <       0.01729568 Ry

     total magnetization       =    16.00 Bohr mag/cell
     absolute magnetization    =    16.07 Bohr mag/cell

     iteration # 11     ecut=   100.00 Ry     beta= 0.40
     Davidson diagonalization with overlap
     c_bands:  1 eigenvalues not converged
     c_bands:  1 eigenvalues not converged
     c_bands:  1 eigenvalues not converged
     c_bands:  1 eigenvalues not converged
     c_bands:  1 eigenvalues not converged
     c_bands:  1 eigenvalues not converged
     c_bands:  1 eigenvalues not converged
     c_bands:  2 eigenvalues not converged
     c_bands:  2 eigenvalues not converged
     ethr =  8.01E-06,  avg # of iterations =  3.7

     negative rho (up, down):  0.000E+00 5.053E-04

     total cpu time spent up to now is    26416.2 secs

     total energy              =   -2381.83392160 Ry
     estimated scf accuracy    <       0.01869896 Ry

     total magnetization       =    16.00 Bohr mag/cell
     absolute magnetization    =    16.07 Bohr mag/cell

     iteration # 12     ecut=   100.00 Ry     beta= 0.40
     Davidson diagonalization with overlap
     ethr =  8.01E-06,  avg # of iterations =  1.9

     negative rho (up, down):  0.000E+00 4.916E-04

     total cpu time spent up to now is    26871.1 secs

     total energy              =   -2381.83578871 Ry
     estimated scf accuracy    <       0.01631714 Ry

     total magnetization       =    16.00 Bohr mag/cell
     absolute magnetization    =    16.07 Bohr mag/cell

     iteration # 13     ecut=   100.00 Ry     beta= 0.40
     Davidson diagonalization with overlap
     ethr =  7.55E-06,  avg # of iterations =  1.2

     negative rho (up, down):  0.000E+00 4.859E-04

     total cpu time spent up to now is    27287.1 secs

     total energy              =   -2381.83695668 Ry
     estimated scf accuracy    <       0.01074505 Ry

     total magnetization       =    16.00 Bohr mag/cell
     absolute magnetization    =    16.07 Bohr mag/cell

     iteration # 14     ecut=   100.00 Ry     beta= 0.40
     Davidson diagonalization with overlap
     ethr =  4.97E-06,  avg # of iterations =  1.2

     negative rho (up, down):  0.000E+00 4.861E-04

     total cpu time spent up to now is    27702.7 secs

     total energy              =   -2381.83724603 Ry
     estimated scf accuracy    <       0.00735908 Ry

     total magnetization       =    16.00 Bohr mag/cell
     absolute magnetization    =    16.07 Bohr mag/cell

     iteration # 15     ecut=   100.00 Ry     beta= 0.40
     Davidson diagonalization with overlap
     c_bands:  1 eigenvalues not converged
     c_bands:  1 eigenvalues not converged
     c_bands:  1 eigenvalues not converged
     c_bands:  1 eigenvalues not converged
     c_bands:  1 eigenvalues not converged
     ethr =  3.41E-06,  avg # of iterations =  1.8

     negative rho (up, down):  0.000E+00 4.754E-04

     total cpu time spent up to now is    28131.7 secs

     total energy              =   -2381.83803835 Ry
     estimated scf accuracy    <       0.00711274 Ry

     total magnetization       =    16.00 Bohr mag/cell
     absolute magnetization    =    16.07 Bohr mag/cell

     iteration # 16     ecut=   100.00 Ry     beta= 0.40
     Davidson diagonalization with overlap
     ethr =  3.29E-06,  avg # of iterations =  1.7

     negative rho (up, down):  0.000E+00 4.575E-04

     total cpu time spent up to now is    28595.8 secs

     total energy              =   -2381.83823883 Ry
     estimated scf accuracy    <       0.00316417 Ry

     total magnetization       =    16.00 Bohr mag/cell
     absolute magnetization    =    16.07 Bohr mag/cell

     iteration # 17     ecut=   100.00 Ry     beta= 0.40
     Davidson diagonalization with overlap
     c_bands:  1 eigenvalues not converged
     c_bands:  1 eigenvalues not converged
     c_bands:  1 eigenvalues not converged
     c_bands:  1 eigenvalues not converged
     c_bands:  1 eigenvalues not converged
     c_bands:  1 eigenvalues not converged
     c_bands:  1 eigenvalues not converged
     c_bands:  1 eigenvalues not converged
     c_bands:  1 eigenvalues not converged
     c_bands:  1 eigenvalues not converged
     c_bands:  1 eigenvalues not converged
     c_bands:  2 eigenvalues not converged
     c_bands:  1 eigenvalues not converged
     c_bands:  1 eigenvalues not converged
     c_bands:  1 eigenvalues not converged
     c_bands:  1 eigenvalues not converged
     c_bands:  1 eigenvalues not converged
     c_bands:  1 eigenvalues not converged
     c_bands:  1 eigenvalues not converged
     c_bands:  1 eigenvalues not converged
     c_bands:  1 eigenvalues not converged
     c_bands:  1 eigenvalues not converged
     c_bands:  1 eigenvalues not converged
     c_bands:  1 eigenvalues not converged
     c_bands:  1 eigenvalues not converged
     ethr =  1.46E-06,  avg # of iterations =  9.2

     negative rho (up, down):  0.000E+00 4.484E-04

     total cpu time spent up to now is    29220.0 secs

     total energy              =   -2381.83848696 Ry
     estimated scf accuracy    <       0.00036941 Ry

     total magnetization       =    16.00 Bohr mag/cell
     absolute magnetization    =    16.07 Bohr mag/cell

     iteration # 18     ecut=   100.00 Ry     beta= 0.40
     Davidson diagonalization with overlap
     c_bands:  1 eigenvalues not converged
     c_bands:  1 eigenvalues not converged
     ethr =  1.71E-07,  avg # of iterations =  4.6

     negative rho (up, down):  0.000E+00 4.454E-04

     total cpu time spent up to now is    29901.6 secs

     total energy              =   -2381.83860718 Ry
     estimated scf accuracy    <       0.00015781 Ry

     total magnetization       =    16.00 Bohr mag/cell
     absolute magnetization    =    16.07 Bohr mag/cell

     iteration # 19     ecut=   100.00 Ry     beta= 0.40
     Davidson diagonalization with overlap
     ethr =  7.31E-08,  avg # of iterations =  1.7

     negative rho (up, down):  0.000E+00 4.431E-04

     total cpu time spent up to now is    30360.0 secs

     total energy              =   -2381.83862813 Ry
     estimated scf accuracy    <       0.00005183 Ry

     total magnetization       =    16.00 Bohr mag/cell
     absolute magnetization    =    16.07 Bohr mag/cell

     iteration # 20     ecut=   100.00 Ry     beta= 0.40
     Davidson diagonalization with overlap
     ethr =  2.40E-08,  avg # of iterations =  2.3

     negative rho (up, down):  0.000E+00 4.431E-04

     total cpu time spent up to now is    30856.9 secs

     total energy              =   -2381.83864522 Ry
     estimated scf accuracy    <       0.00002170 Ry

     total magnetization       =    16.00 Bohr mag/cell
     absolute magnetization    =    16.07 Bohr mag/cell

     iteration # 21     ecut=   100.00 Ry     beta= 0.40
     Davidson diagonalization with overlap
     ethr =  1.00E-08,  avg # of iterations =  2.5

     negative rho (up, down):  0.000E+00 4.383E-04

     total cpu time spent up to now is    31365.2 secs

     total energy              =   -2381.83855386 Ry
     estimated scf accuracy    <       0.00003779 Ry

     total magnetization       =    16.00 Bohr mag/cell
     absolute magnetization    =    16.07 Bohr mag/cell

     iteration # 22     ecut=   100.00 Ry     beta= 0.40
     Davidson diagonalization with overlap
     ethr =  1.00E-08,  avg # of iterations =  3.8

     negative rho (up, down):  0.000E+00 4.394E-04

     total cpu time spent up to now is    32016.2 secs

     total energy              =   -2381.83868499 Ry
     estimated scf accuracy    <       0.00002798 Ry

     total magnetization       =    16.00 Bohr mag/cell
     absolute magnetization    =    16.07 Bohr mag/cell

     iteration # 23     ecut=   100.00 Ry     beta= 0.40
     Davidson diagonalization with overlap
     c_bands:  1 eigenvalues not converged
     ethr =  1.00E-08,  avg # of iterations =  2.1

     negative rho (up, down):  0.000E+00 4.388E-04

     total cpu time spent up to now is    32585.9 secs

     total energy              =   -2381.83869914 Ry
     estimated scf accuracy    <       0.00000557 Ry

     total magnetization       =    16.00 Bohr mag/cell
     absolute magnetization    =    16.07 Bohr mag/cell

     iteration # 24     ecut=   100.00 Ry     beta= 0.40
     Davidson diagonalization with overlap
     ethr =  2.58E-09,  avg # of iterations =  2.9

     negative rho (up, down):  0.000E+00 4.390E-04

     total cpu time spent up to now is    33189.4 secs

     total energy              =   -2381.83870878 Ry
     estimated scf accuracy    <       0.00001117 Ry

     total magnetization       =    16.00 Bohr mag/cell
     absolute magnetization    =    16.07 Bohr mag/cell

     iteration # 25     ecut=   100.00 Ry     beta= 0.40
     Davidson diagonalization with overlap
     ethr =  2.58E-09,  avg # of iterations =  2.0

     negative rho (up, down):  0.000E+00 4.387E-04

     total cpu time spent up to now is    33702.5 secs

     total energy              =   -2381.83871364 Ry
     estimated scf accuracy    <       0.00000023 Ry

     total magnetization       =    16.00 Bohr mag/cell
     absolute magnetization    =    16.07 Bohr mag/cell

     iteration # 26     ecut=   100.00 Ry     beta= 0.40
     Davidson diagonalization with overlap
     ethr =  1.07E-10,  avg # of iterations =  5.2

     negative rho (up, down):  0.000E+00 4.386E-04

     total cpu time spent up to now is    34587.1 secs

     total energy              =   -2381.83871541 Ry
     estimated scf accuracy    <       0.00000021 Ry

     total magnetization       =    16.00 Bohr mag/cell
     absolute magnetization    =    16.07 Bohr mag/cell

     iteration # 27     ecut=   100.00 Ry     beta= 0.40
     Davidson diagonalization with overlap
     ethr =  9.83E-11,  avg # of iterations =  1.0

     negative rho (up, down):  0.000E+00 4.385E-04

     total cpu time spent up to now is    34993.0 secs

     total energy              =   -2381.83871574 Ry
     estimated scf accuracy    <       0.00000003 Ry

     total magnetization       =    16.00 Bohr mag/cell
     absolute magnetization    =    16.07 Bohr mag/cell

     iteration # 28     ecut=   100.00 Ry     beta= 0.40
     Davidson diagonalization with overlap
     ethr =  1.49E-11,  avg # of iterations =  2.0

     negative rho (up, down):  0.000E+00 4.384E-04

     total cpu time spent up to now is    35496.3 secs

     total energy              =   -2381.83871589 Ry
     estimated scf accuracy    <       0.00000002 Ry

     total magnetization       =    16.00 Bohr mag/cell
     absolute magnetization    =    16.07 Bohr mag/cell

     iteration # 29     ecut=   100.00 Ry     beta= 0.40
     Davidson diagonalization with overlap
     ethr =  8.50E-12,  avg # of iterations =  2.0

     negative rho (up, down):  0.000E+00 4.385E-04

     total cpu time spent up to now is    35991.9 secs

     total energy              =   -2381.83871594 Ry
     estimated scf accuracy    <          4.4E-09 Ry

     total magnetization       =    16.00 Bohr mag/cell
     absolute magnetization    =    16.07 Bohr mag/cell

     iteration # 30     ecut=   100.00 Ry     beta= 0.40
     Davidson diagonalization with overlap
     ethr =  2.02E-12,  avg # of iterations =  3.3

     negative rho (up, down):  0.000E+00 4.385E-04

     total cpu time spent up to now is    36599.3 secs

     total energy              =   -2381.83871595 Ry
     estimated scf accuracy    <          2.8E-09 Ry

     total magnetization       =    16.00 Bohr mag/cell
     absolute magnetization    =    16.07 Bohr mag/cell

     iteration # 31     ecut=   100.00 Ry     beta= 0.40
     Davidson diagonalization with overlap
     ethr =  1.30E-12,  avg # of iterations =  3.0

     negative rho (up, down):  0.000E+00 4.385E-04

     total cpu time spent up to now is    37177.6 secs

     total energy              =   -2381.83871596 Ry
     estimated scf accuracy    <          1.0E-09 Ry

     total magnetization       =    16.00 Bohr mag/cell
     absolute magnetization    =    16.07 Bohr mag/cell

     iteration # 32     ecut=   100.00 Ry     beta= 0.40
     Davidson diagonalization with overlap
     ethr =  4.76E-13,  avg # of iterations =  3.8

     negative rho (up, down):  0.000E+00 4.385E-04

     total cpu time spent up to now is    37820.5 secs

     total energy              =   -2381.83871597 Ry
     estimated scf accuracy    <          6.1E-10 Ry

     total magnetization       =    16.00 Bohr mag/cell
     absolute magnetization    =    16.07 Bohr mag/cell

     iteration # 33     ecut=   100.00 Ry     beta= 0.40
     Davidson diagonalization with overlap
     ethr =  2.84E-13,  avg # of iterations =  3.2

     negative rho (up, down):  0.000E+00 4.385E-04

     Magnetic moment per site:
     atom:    1    charge:    7.9210    magn:    0.0002    constr:    0.0000
     atom:    2    charge:    7.9210    magn:    0.0002    constr:    0.0000
     atom:    3    charge:    7.9210    magn:    0.0002    constr:    0.0000
     atom:    4    charge:    7.9210    magn:    0.0002    constr:    0.0000
     atom:    5    charge:   13.1868    magn:    3.2547    constr:    0.0000
     atom:    6    charge:   13.1868    magn:    3.2547    constr:    0.0000
     atom:    7    charge:   13.1868    magn:    3.2547    constr:    0.0000
     atom:    8    charge:   13.1868    magn:    3.2547    constr:    0.0000
     atom:    9    charge:    0.7842    magn:    0.0076    constr:    0.0000
     atom:   10    charge:    0.7842    magn:    0.0076    constr:    0.0000
     atom:   11    charge:    0.7842    magn:    0.0076    constr:    0.0000
     atom:   12    charge:    0.7842    magn:    0.0076    constr:    0.0000
     atom:   13    charge:    4.0870    magn:    0.0355    constr:    0.0000
     atom:   14    charge:    4.0871    magn:    0.0355    constr:    0.0000
     atom:   15    charge:    4.0870    magn:    0.0355    constr:    0.0000
     atom:   16    charge:    4.0871    magn:    0.0355    constr:    0.0000
     atom:   17    charge:    4.0836    magn:    0.0456    constr:    0.0000
     atom:   18    charge:    4.0836    magn:    0.0456    constr:    0.0000
     atom:   19    charge:    4.0836    magn:    0.0456    constr:    0.0000
     atom:   20    charge:    4.0836    magn:    0.0456    constr:    0.0000
     atom:   21    charge:    4.0659    magn:    0.0839    constr:    0.0000
     atom:   22    charge:    4.0659    magn:    0.0839    constr:    0.0000
     atom:   23    charge:    4.0659    magn:    0.0839    constr:    0.0000
     atom:   24    charge:    4.0659    magn:    0.0839    constr:    0.0000
     atom:   25    charge:    4.0659    magn:    0.0839    constr:    0.0000
     atom:   26    charge:    4.0659    magn:    0.0839    constr:    0.0000
     atom:   27    charge:    4.0659    magn:    0.0839    constr:    0.0000
     atom:   28    charge:    4.0659    magn:    0.0839    constr:    0.0000

     total cpu time spent up to now is    38449.8 secs

     End of self-consistent calculation

 ------ SPIN UP ------------


          k = 0.0000 0.0000 0.0000 ( 31277 PWs)   bands (ev):

   -78.5023 -78.5022 -78.5022 -78.5021 -45.3907 -45.3906 -45.3886 -45.3885
   -44.4317 -44.4316 -44.4314 -44.4313 -43.9116 -43.9115 -43.9103 -43.9102
   -40.8351 -40.8350 -40.8192 -40.8192 -13.8396 -13.7398 -13.7281 -13.4754
   -13.0228 -13.0181 -12.9936 -12.9541 -12.9365 -12.9280 -12.8122 -12.8118
   -12.7893 -12.7887 -12.5694 -12.5002 -10.6254 -10.5936 -10.5726 -10.5662
   -10.5547 -10.4743 -10.3779 -10.3732 -10.3365 -10.3109 -10.2355 -10.2317
    -0.4836   0.0560   0.2957   0.3309   0.7951   1.2655   1.3726   1.5405
     1.5648   1.8178   2.1458   2.2270   2.2415   2.2546   2.3240   2.7052
     3.2943   3.5101   3.8281   3.9571   4.0819   4.2286   4.2347   4.4400
     4.4586   4.5011   4.6356   4.8284   4.9597   5.0060   5.0242   5.1911
     5.2916   5.3217   5.4180   5.4244   5.5264   5.5743   5.8641   5.9452
     5.9666   6.0326   6.1256   6.4533   6.5708   6.8201   7.0056   7.1822
     7.9128   7.9470   7.9533   8.1822   8.1867   8.3440   8.4199   8.4472
     8.7759   8.9186   9.0050   9.0351   9.0975   9.1328   9.3285   9.7408
     9.7731   9.8639  10.0296  10.0603  13.4599  15.5384  15.5780  16.0411
    16.3966  16.5923  17.2638  17.6839  18.0532  18.1257  18.4558  18.4960
    18.5117  18.5624

     occupation numbers 
     1.0000   1.0000   1.0000   1.0000   1.0000   1.0000   1.0000   1.0000
     1.0000   1.0000   1.0000   1.0000   1.0000   1.0000   1.0000   1.0000
     1.0000   1.0000   1.0000   1.0000   1.0000   1.0000   1.0000   1.0000
     1.0000   1.0000   1.0000   1.0000   1.0000   1.0000   1.0000   1.0000
     1.0000   1.0000   1.0000   1.0000   1.0000   1.0000   1.0000   1.0000
     1.0000   1.0000   1.0000   1.0000   1.0000   1.0000   1.0000   1.0000
     1.0000   1.0000   1.0000   1.0000   1.0000   1.0000   1.0000   1.0000
     1.0000   1.0000   1.0000   1.0000   1.0000   1.0000   1.0000   1.0000
     1.0000   1.0000   1.0000   1.0000   1.0000   1.0000   1.0000   1.0000
     1.0000   1.0000   1.0000   1.0000   1.0000   1.0000   1.0000   1.0000
     1.0000   1.0000   1.0000   1.0000   1.0000   1.0000   1.0000   1.0000
     1.0000   1.0000   1.0000   1.0000   1.0000   1.0000   1.0000   1.0000
     1.0000   1.0000   1.0000   1.0000   1.0000   1.0000   1.0000   1.0000
     1.0000   1.0000   1.0000   1.0000   1.0000   1.0000   1.0000   1.0000
     1.0000   1.0000   1.0000   1.0000   0.0000   0.0000   0.0000   0.0000
     0.0000   0.0000   0.0000   0.0000   0.0000   0.0000   0.0000   0.0000
     0.0000   0.0000

          k = 0.0000 0.0000 0.2337 ( 31269 PWs)   bands (ev):

   -78.5023 -78.5022 -78.5022 -78.5021 -45.3907 -45.3906 -45.3887 -45.3886
   -44.4317 -44.4316 -44.4314 -44.4313 -43.9116 -43.9114 -43.9104 -43.9103
   -40.8351 -40.8350 -40.8192 -40.8192 -13.8418 -13.7346 -13.7134 -13.5034
   -12.9998 -12.9781 -12.9717 -12.9401 -12.9369 -12.9289 -12.8125 -12.8120
   -12.7893 -12.7887 -12.5954 -12.5352 -10.6353 -10.6147 -10.5825 -10.5735
   -10.5515 -10.4691 -10.3676 -10.3580 -10.3404 -10.3322 -10.2464 -10.2416
    -0.4645   0.0412   0.2580   0.3569   0.8911   1.2857   1.4532   1.5417
     1.6377   1.8399   2.1401   2.2163   2.2395   2.2593   2.3017   2.6805
     3.3001   3.5054   3.8247   3.9007   4.1052   4.1574   4.2539   4.3390
     4.3693   4.4629   4.6808   4.7913   4.8915   4.9922   5.0881   5.1575
     5.2860   5.2980   5.4562   5.5047   5.6012   5.6126   5.7891   5.9204
     5.9412   6.0913   6.1730   6.4749   6.5698   6.8563   6.9976   7.1656
     7.9021   7.9305   7.9620   8.1615   8.1878   8.3474   8.3647   8.3814
     8.8087   8.9426   9.0425   9.0518   9.1383   9.1443   9.3353   9.7130
     9.7501   9.8319  10.0424  10.0558  13.6049  15.5173  15.6659  15.9956
    16.4225  16.6304  17.3924  17.6850  17.8636  17.9351  17.9507  18.2617
    18.5746  18.6846

     occupation numbers 
     1.0000   1.0000   1.0000   1.0000   1.0000   1.0000   1.0000   1.0000
     1.0000   1.0000   1.0000   1.0000   1.0000   1.0000   1.0000   1.0000
     1.0000   1.0000   1.0000   1.0000   1.0000   1.0000   1.0000   1.0000
     1.0000   1.0000   1.0000   1.0000   1.0000   1.0000   1.0000   1.0000
     1.0000   1.0000   1.0000   1.0000   1.0000   1.0000   1.0000   1.0000
     1.0000   1.0000   1.0000   1.0000   1.0000   1.0000   1.0000   1.0000
     1.0000   1.0000   1.0000   1.0000   1.0000   1.0000   1.0000   1.0000
     1.0000   1.0000   1.0000   1.0000   1.0000   1.0000   1.0000   1.0000
     1.0000   1.0000   1.0000   1.0000   1.0000   1.0000   1.0000   1.0000
     1.0000   1.0000   1.0000   1.0000   1.0000   1.0000   1.0000   1.0000
     1.0000   1.0000   1.0000   1.0000   1.0000   1.0000   1.0000   1.0000
     1.0000   1.0000   1.0000   1.0000   1.0000   1.0000   1.0000   1.0000
     1.0000   1.0000   1.0000   1.0000   1.0000   1.0000   1.0000   1.0000
     1.0000   1.0000   1.0000   1.0000   1.0000   1.0000   1.0000   1.0000
     1.0000   1.0000   1.0000   1.0000   0.0000   0.0000   0.0000   0.0000
     0.0000   0.0000   0.0000   0.0000   0.0000   0.0000   0.0000   0.0000
     0.0000   0.0000

          k = 0.0000 0.0000 0.4675 ( 31276 PWs)   bands (ev):

   -78.5023 -78.5022 -78.5022 -78.5021 -45.3905 -45.3904 -45.3889 -45.3888
   -44.4317 -44.4316 -44.4314 -44.4313 -43.9115 -43.9114 -43.9105 -43.9104
   -40.8351 -40.8350 -40.8192 -40.8192 -13.8621 -13.7532 -13.6427 -13.5043
   -12.9995 -12.9657 -12.9377 -12.9313 -12.8894 -12.8637 -12.8131 -12.8125
   -12.7892 -12.7887 -12.6525 -12.6030 -10.6814 -10.6741 -10.6056 -10.5511
   -10.5326 -10.4540 -10.4464 -10.3695 -10.3523 -10.2794 -10.2697 -10.2563
    -0.4058   0.0196   0.1882   0.3499   1.1704   1.3700   1.5536   1.6297
     1.8284   1.8964   2.1093   2.1352   2.2377   2.3020   2.3395   2.6034
     3.3106   3.4943   3.7702   3.8160   4.0359   4.1484   4.1626   4.2073
     4.2355   4.3596   4.7425   4.7562   4.8204   4.9051   4.9664   5.0869
     5.1358   5.2421   5.5866   5.6205   5.7497   5.7689   5.7835   5.9299
     5.9362   6.1795   6.2008   6.5455   6.5616   6.9534   6.9671   7.1363
     7.8747   7.9119   7.9723   8.1036   8.1924   8.2330   8.2699   8.3486
     8.9006   9.0151   9.0665   9.1298   9.1696   9.1961   9.3810   9.6332
     9.6818   9.7690  10.0460  10.0576  13.9861  15.5014  15.7936  16.0084
    16.5094  16.6486  17.3326  17.5877  17.6598  17.6798  17.7090  17.9869
    18.5568  18.5873

     occupation numbers 
     1.0000   1.0000   1.0000   1.0000   1.0000   1.0000   1.0000   1.0000
     1.0000   1.0000   1.0000   1.0000   1.0000   1.0000   1.0000   1.0000
     1.0000   1.0000   1.0000   1.0000   1.0000   1.0000   1.0000   1.0000
     1.0000   1.0000   1.0000   1.0000   1.0000   1.0000   1.0000   1.0000
     1.0000   1.0000   1.0000   1.0000   1.0000   1.0000   1.0000   1.0000
     1.0000   1.0000   1.0000   1.0000   1.0000   1.0000   1.0000   1.0000
     1.0000   1.0000   1.0000   1.0000   1.0000   1.0000   1.0000   1.0000
     1.0000   1.0000   1.0000   1.0000   1.0000   1.0000   1.0000   1.0000
     1.0000   1.0000   1.0000   1.0000   1.0000   1.0000   1.0000   1.0000
     1.0000   1.0000   1.0000   1.0000   1.0000   1.0000   1.0000   1.0000
     1.0000   1.0000   1.0000   1.0000   1.0000   1.0000   1.0000   1.0000
     1.0000   1.0000   1.0000   1.0000   1.0000   1.0000   1.0000   1.0000
     1.0000   1.0000   1.0000   1.0000   1.0000   1.0000   1.0000   1.0000
     1.0000   1.0000   1.0000   1.0000   1.0000   1.0000   1.0000   1.0000
     1.0000   1.0000   1.0000   1.0000   0.0000   0.0000   0.0000   0.0000
     0.0000   0.0000   0.0000   0.0000   0.0000   0.0000   0.0000   0.0000
     0.0000   0.0000

          k = 0.0000 0.0000 0.7012 ( 31286 PWs)   bands (ev):

   -78.5023 -78.5022 -78.5022 -78.5021 -45.3902 -45.3901 -45.3892 -45.3890
   -44.4316 -44.4316 -44.4315 -44.4313 -43.9113 -43.9112 -43.9107 -43.9106
   -40.8350 -40.8350 -40.8192 -40.8192 -13.8851 -13.8110 -13.5138 -13.4180
   -13.0189 -12.9900 -12.9385 -12.9344 -12.8972 -12.8797 -12.8136 -12.8131
   -12.7890 -12.7887 -12.6383 -12.5802 -10.7528 -10.7228 -10.6339 -10.5763
   -10.5047 -10.4929 -10.4304 -10.3945 -10.3731 -10.3119 -10.2412 -10.2347
    -0.3066   0.0250   0.0923   0.2685   1.5214   1.5762   1.5942   1.7598
     1.9599   1.9624   2.0466   2.1554   2.1565   2.4687   2.4785   2.5312
     3.2994   3.4996   3.6105   3.8280   3.8562   3.9309   4.1294   4.1649
     4.1815   4.2620   4.4134   4.7301   4.7601   4.7960   4.9485   5.0071
     5.1505   5.1702   5.4638   5.5369   5.8928   5.9853   5.9894   6.0331
     6.0370   6.2491   6.2546   6.5279   6.5715   6.8747   7.0918   7.1523
     7.8450   7.9154   7.9901   8.0119   8.1081   8.1628   8.2122   8.3330
     9.0360   9.1037   9.1320   9.1667   9.1937   9.2220   9.4755   9.5109
     9.5724   9.7075  10.0393  10.0595  14.4868  15.5707  15.6757  16.2189
    16.5009  16.6153  17.1012  17.3532  17.5661  17.6504  17.7693  17.8595
    18.2456  18.5517

     occupation numbers 
     1.0000   1.0000   1.0000   1.0000   1.0000   1.0000   1.0000   1.0000
     1.0000   1.0000   1.0000   1.0000   1.0000   1.0000   1.0000   1.0000
     1.0000   1.0000   1.0000   1.0000   1.0000   1.0000   1.0000   1.0000
     1.0000   1.0000   1.0000   1.0000   1.0000   1.0000   1.0000   1.0000
     1.0000   1.0000   1.0000   1.0000   1.0000   1.0000   1.0000   1.0000
     1.0000   1.0000   1.0000   1.0000   1.0000   1.0000   1.0000   1.0000
     1.0000   1.0000   1.0000   1.0000   1.0000   1.0000   1.0000   1.0000
     1.0000   1.0000   1.0000   1.0000   1.0000   1.0000   1.0000   1.0000
     1.0000   1.0000   1.0000   1.0000   1.0000   1.0000   1.0000   1.0000
     1.0000   1.0000   1.0000   1.0000   1.0000   1.0000   1.0000   1.0000
     1.0000   1.0000   1.0000   1.0000   1.0000   1.0000   1.0000   1.0000
     1.0000   1.0000   1.0000   1.0000   1.0000   1.0000   1.0000   1.0000
     1.0000   1.0000   1.0000   1.0000   1.0000   1.0000   1.0000   1.0000
     1.0000   1.0000   1.0000   1.0000   1.0000   1.0000   1.0000   1.0000
     1.0000   1.0000   1.0000   1.0000   0.0000   0.0000   0.0000   0.0000
     0.0000   0.0000   0.0000   0.0000   0.0000   0.0000   0.0000   0.0000
     0.0000   0.0000

          k = 0.0000 0.0000 0.9349 ( 31288 PWs)   bands (ev):

   -78.5023 -78.5022 -78.5022 -78.5021 -45.3899 -45.3898 -45.3895 -45.3894
   -44.4316 -44.4315 -44.4315 -44.4314 -43.9111 -43.9110 -43.9109 -43.9108
   -40.8350 -40.8350 -40.8192 -40.8191 -13.8883 -13.8628 -13.3533 -13.2998
   -13.1100 -13.0980 -12.9384 -12.9370 -12.9291 -12.9216 -12.8137 -12.8136
   -12.7888 -12.7887 -12.5581 -12.5322 -10.7921 -10.7689 -10.6561 -10.6493
   -10.4619 -10.4517 -10.4276 -10.4051 -10.3994 -10.3591 -10.2209 -10.2155
    -0.1745  -0.0317   0.0709   0.1575   1.6779   1.6878   1.7790   1.8054
     1.8839   2.0014   2.1069   2.2235   2.2261   2.3382   2.7067   2.7463
     3.2782   3.4058   3.5566   3.6776   3.7599   3.8511   3.8949   4.0103
     4.1851   4.2230   4.3755   4.5296   4.7832   4.7940   4.9362   4.9408
     5.2247   5.2294   5.3313   5.3856   5.9728   6.0150   6.0665   6.1006
     6.2805   6.3375   6.4499   6.4567   6.4931   6.7121   7.1948   7.2075
     7.8446   7.9086   7.9514   8.0157   8.0221   8.0779   8.2509   8.2970
     9.1394   9.1607   9.1954   9.2138   9.2290   9.2782   9.3596   9.4322
     9.5710   9.6466  10.0419  10.0514  14.9944  15.4170  15.7439  15.9838
    16.7005  16.7066  17.0145  17.1361  17.5430  17.5932  17.7678  17.8711
    18.1624  18.3742

     occupation numbers 
     1.0000   1.0000   1.0000   1.0000   1.0000   1.0000   1.0000   1.0000
     1.0000   1.0000   1.0000   1.0000   1.0000   1.0000   1.0000   1.0000
     1.0000   1.0000   1.0000   1.0000   1.0000   1.0000   1.0000   1.0000
     1.0000   1.0000   1.0000   1.0000   1.0000   1.0000   1.0000   1.0000
     1.0000   1.0000   1.0000   1.0000   1.0000   1.0000   1.0000   1.0000
     1.0000   1.0000   1.0000   1.0000   1.0000   1.0000   1.0000   1.0000
     1.0000   1.0000   1.0000   1.0000   1.0000   1.0000   1.0000   1.0000
     1.0000   1.0000   1.0000   1.0000   1.0000   1.0000   1.0000   1.0000
     1.0000   1.0000   1.0000   1.0000   1.0000   1.0000   1.0000   1.0000
     1.0000   1.0000   1.0000   1.0000   1.0000   1.0000   1.0000   1.0000
     1.0000   1.0000   1.0000   1.0000   1.0000   1.0000   1.0000   1.0000
     1.0000   1.0000   1.0000   1.0000   1.0000   1.0000   1.0000   1.0000
     1.0000   1.0000   1.0000   1.0000   1.0000   1.0000   1.0000   1.0000
     1.0000   1.0000   1.0000   1.0000   1.0000   1.0000   1.0000   1.0000
     1.0000   1.0000   1.0000   1.0000   0.0000   0.0000   0.0000   0.0000
     0.0000   0.0000   0.0000   0.0000   0.0000   0.0000   0.0000   0.0000
     0.0000   0.0000

          k = 0.0000 0.2391 0.0000 ( 31251 PWs)   bands (ev):

   -78.5023 -78.5022 -78.5022 -78.5021 -45.3906 -45.3905 -45.3887 -45.3886
   -44.4317 -44.4316 -44.4314 -44.4313 -43.9115 -43.9114 -43.9104 -43.9103
   -40.8343 -40.8343 -40.8200 -40.8200 -13.8243 -13.7350 -13.7232 -13.4995
   -13.0138 -13.0095 -12.9846 -12.9482 -12.9214 -12.9207 -12.8204 -12.8198
   -12.7934 -12.7892 -12.5773 -12.5248 -10.6143 -10.6019 -10.5944 -10.5615
   -10.5385 -10.5357 -10.3815 -10.3705 -10.3184 -10.2579 -10.2547 -10.2411
    -0.4394   0.0912   0.2939   0.3186   0.8439   1.2852   1.3922   1.5265
     1.6222   1.8227   2.0757   2.2048   2.3067   2.3108   2.3258   2.6751
     3.3130   3.5127   3.8025   3.8765   3.9812   4.1694   4.2692   4.4006
     4.4541   4.4716   4.7012   4.8365   4.8616   4.8825   5.0777   5.2770
     5.2930   5.3414   5.4052   5.4405   5.6285   5.6871   5.7375   5.9426
     6.0002   6.0425   6.1084   6.4206   6.5642   6.7601   6.9548   7.1716
     7.8302   7.9107   8.0137   8.1338   8.1517   8.2660   8.4925   8.5987
     8.7394   8.8731   9.0292   9.0301   9.1169   9.1228   9.4275   9.5768
     9.5836  10.0072  10.0995  10.1152  13.6270  15.6361  15.6853  16.0330
    16.5079  16.7068  17.2323  17.6846  18.0555  18.1205  18.1913  18.4206
    18.5002  18.5805

     occupation numbers 
     1.0000   1.0000   1.0000   1.0000   1.0000   1.0000   1.0000   1.0000
     1.0000   1.0000   1.0000   1.0000   1.0000   1.0000   1.0000   1.0000
     1.0000   1.0000   1.0000   1.0000   1.0000   1.0000   1.0000   1.0000
     1.0000   1.0000   1.0000   1.0000   1.0000   1.0000   1.0000   1.0000
     1.0000   1.0000   1.0000   1.0000   1.0000   1.0000   1.0000   1.0000
     1.0000   1.0000   1.0000   1.0000   1.0000   1.0000   1.0000   1.0000
     1.0000   1.0000   1.0000   1.0000   1.0000   1.0000   1.0000   1.0000
     1.0000   1.0000   1.0000   1.0000   1.0000   1.0000   1.0000   1.0000
     1.0000   1.0000   1.0000   1.0000   1.0000   1.0000   1.0000   1.0000
     1.0000   1.0000   1.0000   1.0000   1.0000   1.0000   1.0000   1.0000
     1.0000   1.0000   1.0000   1.0000   1.0000   1.0000   1.0000   1.0000
     1.0000   1.0000   1.0000   1.0000   1.0000   1.0000   1.0000   1.0000
     1.0000   1.0000   1.0000   1.0000   1.0000   1.0000   1.0000   1.0000
     1.0000   1.0000   1.0000   1.0000   1.0000   1.0000   1.0000   1.0000
     1.0000   1.0000   1.0000   1.0000   0.0000   0.0000   0.0000   0.0000
     0.0000   0.0000   0.0000   0.0000   0.0000   0.0000   0.0000   0.0000
     0.0000   0.0000

          k = 0.0000 0.2391 0.2337 ( 31298 PWs)   bands (ev):

   -78.5023 -78.5022 -78.5022 -78.5021 -45.3906 -45.3905 -45.3888 -45.3887
   -44.4317 -44.4316 -44.4314 -44.4313 -43.9115 -43.9114 -43.9104 -43.9103
   -40.8343 -40.8343 -40.8200 -40.8200 -13.8261 -13.7289 -13.7081 -13.5208
   -12.9946 -12.9884 -12.9715 -12.9443 -12.9152 -12.9045 -12.8208 -12.8201
   -12.7935 -12.7879 -12.5997 -12.5534 -10.6311 -10.6309 -10.6035 -10.5501
   -10.5355 -10.5204 -10.4081 -10.3479 -10.3241 -10.2723 -10.2602 -10.2475
    -0.4204   0.0771   0.2645   0.3413   0.9346   1.3052   1.4700   1.5693
     1.6508   1.8432   2.0906   2.2127   2.2791   2.2920   2.3198   2.6481
     3.3209   3.4972   3.7990   3.8821   3.9218   4.1427   4.1975   4.3482
     4.3610   4.5227   4.7190   4.7574   4.8285   4.9403   5.1001   5.2710
     5.2859   5.3019   5.4061   5.5076   5.6831   5.6919   5.7102   5.9320
     5.9710   6.0935   6.1455   6.4358   6.5665   6.7928   6.9453   7.1539
     7.8278   7.8973   8.0182   8.1362   8.1539   8.2529   8.4379   8.5555
     8.7556   8.8848   9.0376   9.0765   9.1360   9.1527   9.4415   9.5444
     9.5664   9.9796  10.0965  10.1230  13.7665  15.6159  15.7736  16.0157
    16.5254  16.7249  17.3690  17.6774  17.7755  17.9102  17.9491  18.3138
    18.5622  18.6240

     occupation numbers 
     1.0000   1.0000   1.0000   1.0000   1.0000   1.0000   1.0000   1.0000
     1.0000   1.0000   1.0000   1.0000   1.0000   1.0000   1.0000   1.0000
     1.0000   1.0000   1.0000   1.0000   1.0000   1.0000   1.0000   1.0000
     1.0000   1.0000   1.0000   1.0000   1.0000   1.0000   1.0000   1.0000
     1.0000   1.0000   1.0000   1.0000   1.0000   1.0000   1.0000   1.0000
     1.0000   1.0000   1.0000   1.0000   1.0000   1.0000   1.0000   1.0000
     1.0000   1.0000   1.0000   1.0000   1.0000   1.0000   1.0000   1.0000
     1.0000   1.0000   1.0000   1.0000   1.0000   1.0000   1.0000   1.0000
     1.0000   1.0000   1.0000   1.0000   1.0000   1.0000   1.0000   1.0000
     1.0000   1.0000   1.0000   1.0000   1.0000   1.0000   1.0000   1.0000
     1.0000   1.0000   1.0000   1.0000   1.0000   1.0000   1.0000   1.0000
     1.0000   1.0000   1.0000   1.0000   1.0000   1.0000   1.0000   1.0000
     1.0000   1.0000   1.0000   1.0000   1.0000   1.0000   1.0000   1.0000
     1.0000   1.0000   1.0000   1.0000   1.0000   1.0000   1.0000   1.0000
     1.0000   1.0000   1.0000   1.0000   0.0000   0.0000   0.0000   0.0000
     0.0000   0.0000   0.0000   0.0000   0.0000   0.0000   0.0000   0.0000
     0.0000   0.0000

          k = 0.0000 0.2391 0.4675 ( 31274 PWs)   bands (ev):

   -78.5023 -78.5022 -78.5022 -78.5021 -45.3904 -45.3903 -45.3890 -45.3888
   -44.4317 -44.4316 -44.4315 -44.4313 -43.9114 -43.9113 -43.9105 -43.9104
   -40.8343 -40.8342 -40.8200 -40.8200 -13.8437 -13.7426 -13.6405 -13.5180
   -12.9963 -12.9808 -12.9463 -12.9372 -12.8720 -12.8561 -12.8195 -12.8186
   -12.7943 -12.7846 -12.6467 -12.6061 -10.6801 -10.6700 -10.6410 -10.5321
   -10.5064 -10.4940 -10.4820 -10.3518 -10.3285 -10.2901 -10.2696 -10.2472
    -0.3622   0.0559   0.2097   0.3336   1.2032   1.3835   1.5976   1.6412
     1.8185   1.8929   2.1190   2.1599   2.2460   2.3015   2.3494   2.5740
     3.3239   3.4714   3.7397   3.8270   3.8857   4.0370   4.0411   4.2365
     4.3422   4.4822   4.6811   4.7492   4.7888   4.9198   4.9932   5.0547
     5.2293   5.2586   5.5444   5.5496   5.7645   5.7809   5.8138   5.9495
     5.9807   6.1678   6.1782   6.4796   6.5829   6.8790   6.9128   7.1137
     7.8238   7.8718   8.0312   8.1391   8.1633   8.2153   8.3194   8.4652
     8.8233   8.9310   9.0638   9.1483   9.1665   9.2074   9.4693   9.4955
     9.5009   9.9185  10.0908  10.1306  14.1351  15.5994  15.8846  16.0903
    16.6032  16.7208  17.2736  17.5849  17.6478  17.6796  17.7742  18.0295
    18.5148  18.5639

     occupation numbers 
     1.0000   1.0000   1.0000   1.0000   1.0000   1.0000   1.0000   1.0000
     1.0000   1.0000   1.0000   1.0000   1.0000   1.0000   1.0000   1.0000
     1.0000   1.0000   1.0000   1.0000   1.0000   1.0000   1.0000   1.0000
     1.0000   1.0000   1.0000   1.0000   1.0000   1.0000   1.0000   1.0000
     1.0000   1.0000   1.0000   1.0000   1.0000   1.0000   1.0000   1.0000
     1.0000   1.0000   1.0000   1.0000   1.0000   1.0000   1.0000   1.0000
     1.0000   1.0000   1.0000   1.0000   1.0000   1.0000   1.0000   1.0000
     1.0000   1.0000   1.0000   1.0000   1.0000   1.0000   1.0000   1.0000
     1.0000   1.0000   1.0000   1.0000   1.0000   1.0000   1.0000   1.0000
     1.0000   1.0000   1.0000   1.0000   1.0000   1.0000   1.0000   1.0000
     1.0000   1.0000   1.0000   1.0000   1.0000   1.0000   1.0000   1.0000
     1.0000   1.0000   1.0000   1.0000   1.0000   1.0000   1.0000   1.0000
     1.0000   1.0000   1.0000   1.0000   1.0000   1.0000   1.0000   1.0000
     1.0000   1.0000   1.0000   1.0000   1.0000   1.0000   1.0000   1.0000
     1.0000   1.0000   1.0000   1.0000   0.0000   0.0000   0.0000   0.0000
     0.0000   0.0000   0.0000   0.0000   0.0000   0.0000   0.0000   0.0000
     0.0000   0.0000

          k = 0.0000 0.2391 0.7012 ( 31293 PWs)   bands (ev):

   -78.5023 -78.5022 -78.5022 -78.5021 -45.3902 -45.3900 -45.3892 -45.3891
   -44.4316 -44.4316 -44.4315 -44.4314 -43.9113 -43.9112 -43.9107 -43.9106
   -40.8343 -40.8342 -40.8200 -40.8199 -13.8636 -13.7939 -13.5214 -13.4392
   -13.0248 -13.0168 -12.9414 -12.9310 -12.8755 -12.8648 -12.8123 -12.8122
   -12.7976 -12.7949 -12.6326 -12.5831 -10.7415 -10.7255 -10.6577 -10.5883
   -10.4999 -10.4796 -10.4515 -10.3898 -10.3589 -10.3137 -10.2467 -10.2348
    -0.2643   0.0583   0.1263   0.2609   1.5216   1.5940   1.6297   1.7739
     1.9400   2.0371   2.0439   2.0912   2.2192   2.4181   2.5134   2.5221
     3.2802   3.4769   3.5817   3.7264   3.8440   3.9142   3.9637   4.2025
     4.2972   4.3285   4.4605   4.5904   4.7910   4.8036   4.9711   5.0244
     5.1260   5.2465   5.4407   5.5061   5.8838   5.9793   5.9802   6.0089
     6.0920   6.1988   6.2790   6.4633   6.6198   6.8199   7.0013   7.0892
     7.8267   7.8566   8.0524   8.1329   8.1616   8.1877   8.2044   8.3740
     8.9357   9.0156   9.1026   9.1764   9.1971   9.2449   9.3624   9.3977
     9.5861   9.8457  10.0906  10.1278  14.6219  15.6639  15.7751  16.2994
    16.5851  16.7041  17.1202  17.3948  17.5404  17.6722  17.7832  17.8997
    18.2492  18.4717

     occupation numbers 
     1.0000   1.0000   1.0000   1.0000   1.0000   1.0000   1.0000   1.0000
     1.0000   1.0000   1.0000   1.0000   1.0000   1.0000   1.0000   1.0000
     1.0000   1.0000   1.0000   1.0000   1.0000   1.0000   1.0000   1.0000
     1.0000   1.0000   1.0000   1.0000   1.0000   1.0000   1.0000   1.0000
     1.0000   1.0000   1.0000   1.0000   1.0000   1.0000   1.0000   1.0000
     1.0000   1.0000   1.0000   1.0000   1.0000   1.0000   1.0000   1.0000
     1.0000   1.0000   1.0000   1.0000   1.0000   1.0000   1.0000   1.0000
     1.0000   1.0000   1.0000   1.0000   1.0000   1.0000   1.0000   1.0000
     1.0000   1.0000   1.0000   1.0000   1.0000   1.0000   1.0000   1.0000
     1.0000   1.0000   1.0000   1.0000   1.0000   1.0000   1.0000   1.0000
     1.0000   1.0000   1.0000   1.0000   1.0000   1.0000   1.0000   1.0000
     1.0000   1.0000   1.0000   1.0000   1.0000   1.0000   1.0000   1.0000
     1.0000   1.0000   1.0000   1.0000   1.0000   1.0000   1.0000   1.0000
[...]
     atom    8 type  1   force =    -0.06095486    0.00000431   -0.06218973
     atom    9 type  4   force =     0.02684547   -0.00000725   -0.03519827
     atom   10 type  4   force =    -0.02683894    0.00000416   -0.03520920
     atom   11 type  4   force =    -0.02684547    0.00000725    0.03519827
     atom   12 type  4   force =     0.02683894   -0.00000416    0.03520920
     atom   13 type  3   force =     0.16648153    0.00001043   -1.44799577
     atom   14 type  3   force =    -0.16648372   -0.00001157   -1.44799498
     atom   15 type  3   force =    -0.16648153   -0.00001043    1.44799577
     atom   16 type  3   force =     0.16648372    0.00001157    1.44799498
     atom   17 type  3   force =     1.20715843    0.00000422   -0.63604120
     atom   18 type  3   force =    -1.20716278   -0.00000104   -0.63603908
     atom   19 type  3   force =    -1.20715843   -0.00000422    0.63604120
     atom   20 type  3   force =     1.20716278    0.00000104    0.63603908
     atom   21 type  3   force =    -0.68817426   -0.96647954    0.66233357
     atom   22 type  3   force =     0.68818077    0.96647840    0.66233621
     atom   23 type  3   force =     0.68816951   -0.96646191   -0.66231778
     atom   24 type  3   force =    -0.68816756    0.96646323   -0.66232259
     atom   25 type  3   force =     0.68817426    0.96647954   -0.66233357
     atom   26 type  3   force =    -0.68818077   -0.96647840   -0.66233621
     atom   27 type  3   force =    -0.68816951    0.96646191    0.66231778
     atom   28 type  3   force =     0.68816756   -0.96646323    0.66232259
     The ionic contribution  to forces
     atom    1 type  2   force =    -0.00004985    0.00001788   -0.00004157
     atom    2 type  2   force =    -0.00009064    0.00005865   -0.00003465
     atom    3 type  2   force =     0.00002015    0.00000432   -0.00003392
     atom    4 type  2   force =    -0.00003030   -0.00004105   -0.00001437
     atom    5 type  1   force =     3.34134070    0.00059045   -1.04793238
     atom    6 type  1   force =    -3.34139706   -0.00043815   -1.04788828
     atom    7 type  1   force =    -3.34136431   -0.00040694    1.04797945
     atom    8 type  1   force =     3.34165783    0.00054867    1.04793484
     atom    9 type  4   force =    -0.88315289    0.00006200    1.66469849
     atom   10 type  4   force =     0.88322967   -0.00012074    1.66461118
     atom   11 type  4   force =     0.88320169   -0.00011257   -1.66465863
     atom   12 type  4   force =    -0.88321492    0.00011687   -1.66461201
     atom   13 type  3   force =    -4.31560114    0.00011255    1.42164156
     atom   14 type  3   force =     4.31569925   -0.00014927    1.42166787
     atom   15 type  3   force =     4.31563690   -0.00013195   -1.42165491
     atom   16 type  3   force =    -4.31572308    0.00011960   -1.42164105
     atom   17 type  3   force =    -1.37974451    0.00009483    3.00894250
     atom   18 type  3   force =     1.37972498   -0.00008669    3.00893336
     atom   19 type  3   force =     1.37968608   -0.00009660   -3.00892853
     atom   20 type  3   force =    -1.37995808    0.00007198   -3.00888147
     atom   21 type  3   force =     0.51144018    1.75471859   -1.56646318
     atom   22 type  3   force =    -0.51140639   -1.75478324   -1.56640826
     atom   23 type  3   force =    -0.51115535    1.75464236    1.56624351
     atom   24 type  3   force =     0.51119591   -1.75470560    1.56616200
     atom   25 type  3   force =    -0.51136178   -1.75481705    1.56637762
     atom   26 type  3   force =     0.51140100    1.75474213    1.56643024
     atom   27 type  3   force =     0.51121781   -1.75461315   -1.56615459
     atom   28 type  3   force =    -0.51120182    1.75460211   -1.56627482
     The local contribution  to forces
     atom    1 type  2   force =     0.00000000   -0.00000000   -0.00000000
     atom    2 type  2   force =    -0.00000000    0.00000000    0.00000000
     atom    3 type  2   force =     0.00000000    0.00000000    0.00000000
     atom    4 type  2   force =    -0.00000000    0.00000000    0.00000000
     atom    5 type  1   force =    -3.28786483   -0.00049797    0.99243257
     atom    6 type  1   force =     3.28977801    0.00049278    0.99240589
     atom    7 type  1   force =     3.28786483    0.00049797   -0.99243257
     atom    8 type  1   force =    -3.28628749   -0.00049278   -0.99237400
     atom    9 type  4   force =     0.86799990   -0.00008613   -1.62853840
     atom   10 type  4   force =    -0.86804339    0.00011382   -1.62848189
     atom   11 type  4   force =    -0.86800630    0.00008242    1.62854481
     atom   12 type  4   force =     0.86804339   -0.00011753    1.62848189
     atom   13 type  3   force =     4.13820147   -0.00038036    0.15337607
     atom   14 type  3   force =    -4.13790831   -0.00010100    0.15339868
     atom   15 type  3   force =    -4.13820147   -0.00011398   -0.15337607
     atom   16 type  3   force =     4.13866317   -0.00039334   -0.15335248
     atom   17 type  3   force =     0.05734121   -0.00010064   -2.32692966
     atom   18 type  3   force =    -0.05744221    0.00008194   -2.32671056
     atom   19 type  3   force =    -0.05734121    0.00010064    2.32692966
     atom   20 type  3   force =     0.05746629   -0.00008194    2.32709059
     atom   21 type  3   force =     0.23090852   -0.69905388    0.85335547
     atom   22 type  3   force =    -0.23046989    0.69862593    0.85330064
     atom   23 type  3   force =    -0.23070455   -0.69891454   -0.85313841
     atom   24 type  3   force =     0.23066023    0.69853535   -0.85311386
     atom   25 type  3   force =    -0.23006151    0.69860870   -0.85328738
     atom   26 type  3   force =     0.23049860   -0.69902309   -0.85334115
     atom   27 type  3   force =     0.23067585    0.69851738    0.85309790
     atom   28 type  3   force =    -0.23068893   -0.69893251    0.85315437
     The core correction contribution to forces
     atom    1 type  2   force =     0.00000000    0.00000000    0.00000000
     atom    2 type  2   force =     0.00000000    0.00000000    0.00000000
     atom    3 type  2   force =     0.00000000    0.00000000    0.00000000
     atom    4 type  2   force =     0.00000000    0.00000000    0.00000000
     atom    5 type  1   force =     0.00371311   -0.00000033   -0.00162760
     atom    6 type  1   force =    -0.00377486    0.00000035   -0.00162640
     atom    7 type  1   force =    -0.00371311    0.00000034    0.00162761
     atom    8 type  1   force =     0.00365140   -0.00000034    0.00162878
     atom    9 type  4   force =    -0.00221012    0.00000124    0.00040813
     atom   10 type  4   force =     0.00220823    0.00000047    0.00040903
     atom   11 type  4   force =     0.00220745    0.00000018   -0.00040813
     atom   12 type  4   force =    -0.00220823    0.00000095   -0.00040903
     atom   13 type  3   force =    -0.00200952   -0.00000024    0.01037333
     atom   14 type  3   force =     0.00200986   -0.00000007    0.01037314
     atom   15 type  3   force =     0.00200952   -0.00000008   -0.01037333
     atom   16 type  3   force =    -0.00200921   -0.00000025   -0.01037323
     atom   17 type  3   force =    -0.00810995   -0.00000002    0.00531869
     atom   18 type  3   force =     0.00810986   -0.00000002    0.00531875
     atom   19 type  3   force =     0.00810995    0.00000002   -0.00531869
     atom   20 type  3   force =    -0.00810983    0.00000002   -0.00531847
     atom   21 type  3   force =     0.00506980    0.00677281   -0.00513237
     atom   22 type  3   force =    -0.00506968   -0.00677331   -0.00513235
     atom   23 type  3   force =    -0.00506952    0.00677271    0.00513217
     atom   24 type  3   force =     0.00506957   -0.00677324    0.00513222
     atom   25 type  3   force =    -0.00506929   -0.00677321    0.00513224
     atom   26 type  3   force =     0.00506961    0.00677279    0.00513234
     atom   27 type  3   force =     0.00506958   -0.00677322   -0.00513219
     atom   28 type  3   force =    -0.00506950    0.00677272   -0.00513220
     The Hubbard contrib.    to forces
     atom    1 type  2   force =     0.00000000    0.00000000    0.00000000
     atom    2 type  2   force =     0.00000000    0.00000000    0.00000000
     atom    3 type  2   force =     0.00000000    0.00000000    0.00000000
     atom    4 type  2   force =     0.00000000    0.00000000    0.00000000
     atom    5 type  1   force =     0.00000000    0.00000000    0.00000000
     atom    6 type  1   force =     0.00000000    0.00000000    0.00000000
     atom    7 type  1   force =     0.00000000    0.00000000    0.00000000
     atom    8 type  1   force =     0.00000000    0.00000000    0.00000000
     atom    9 type  4   force =     0.00000000    0.00000000    0.00000000
     atom   10 type  4   force =     0.00000000    0.00000000    0.00000000
     atom   11 type  4   force =     0.00000000    0.00000000    0.00000000
     atom   12 type  4   force =     0.00000000    0.00000000    0.00000000
     atom   13 type  3   force =     0.00000000    0.00000000    0.00000000
     atom   14 type  3   force =     0.00000000    0.00000000    0.00000000
     atom   15 type  3   force =     0.00000000    0.00000000    0.00000000
     atom   16 type  3   force =     0.00000000    0.00000000    0.00000000
     atom   17 type  3   force =     0.00000000    0.00000000    0.00000000
     atom   18 type  3   force =     0.00000000    0.00000000    0.00000000
     atom   19 type  3   force =     0.00000000    0.00000000    0.00000000
     atom   20 type  3   force =     0.00000000    0.00000000    0.00000000
     atom   21 type  3   force =     0.00000000    0.00000000    0.00000000
     atom   22 type  3   force =     0.00000000    0.00000000    0.00000000
     atom   23 type  3   force =     0.00000000    0.00000000    0.00000000
     atom   24 type  3   force =     0.00000000    0.00000000    0.00000000
     atom   25 type  3   force =     0.00000000    0.00000000    0.00000000
     atom   26 type  3   force =     0.00000000    0.00000000    0.00000000
     atom   27 type  3   force =     0.00000000    0.00000000    0.00000000
     atom   28 type  3   force =     0.00000000    0.00000000    0.00000000
     The SCF correction term to forces
     atom    1 type  2   force =     0.00000000   -0.00000000    0.00000000
     atom    2 type  2   force =     0.00000000   -0.00000000    0.00000000
     atom    3 type  2   force =    -0.00000000   -0.00000000    0.00000000
     atom    4 type  2   force =     0.00000000    0.00000000    0.00000000
     atom    5 type  1   force =    -0.00000025   -0.00000005    0.00000038
     atom    6 type  1   force =     0.00000025   -0.00000009   -0.00000142
     atom    7 type  1   force =     0.00000025    0.00000005   -0.00000038
     atom    8 type  1   force =    -0.00000025    0.00000009    0.00000142
     atom    9 type  4   force =     0.00000017    0.00000002   -0.00000013
     atom   10 type  4   force =    -0.00000099   -0.00000001   -0.00000039
     atom   11 type  4   force =    -0.00000017   -0.00000002    0.00000013
     atom   12 type  4   force =     0.00000099    0.00000001    0.00000039
     atom   13 type  3   force =    -0.00000121    0.00000002   -0.00000124
     atom   14 type  3   force =    -0.00000297   -0.00000002    0.00000238
     atom   15 type  3   force =     0.00000121   -0.00000001    0.00000124
     atom   16 type  3   force =     0.00000297    0.00000002   -0.00000238
     atom   17 type  3   force =     0.00000325   -0.00000002   -0.00000006
     atom   18 type  3   force =     0.00000108   -0.00000000   -0.00000065
     atom   19 type  3   force =    -0.00000325    0.00000002    0.00000006
     atom   20 type  3   force =    -0.00000108    0.00000000    0.00000065
     atom   21 type  3   force =    -0.00000096    0.00000338    0.00000073
     atom   22 type  3   force =    -0.00000034    0.00000299   -0.00000139
     atom   23 type  3   force =     0.00000097    0.00000336   -0.00000068
     atom   24 type  3   force =     0.00000036    0.00000309    0.00000137
     atom   25 type  3   force =     0.00000096   -0.00000338   -0.00000073
     atom   26 type  3   force =     0.00000034   -0.00000299    0.00000139
     atom   27 type  3   force =    -0.00000097   -0.00000336    0.00000068
     atom   28 type  3   force =    -0.00000036   -0.00000309   -0.00000137

     Total force =     0.524202     Total SCF correction =     0.000013


     Computing stress (Cartesian axis) and pressure


     negative rho (up, down):  0.000E+00 4.385E-04
          total   stress  (Ry/bohr**3)                   (kbar)     P=      383.34
   0.00254767   0.00000000   0.00000001          374.78        0.00        0.00
   0.00000000   0.00256566  -0.00000001            0.00      377.42       -0.00
   0.00000001  -0.00000001   0.00270428            0.00       -0.00      397.81

     kinetic stress (kbar)  38265.07     -0.01      0.00
                               -0.01  38149.81     -0.00
                                0.00     -0.00  38219.40

     local   stress (kbar)  -1813.35     -0.09     -0.01
                               -0.09  -4724.51      0.02
                               -0.01      0.02    719.37

     nonloc. stress (kbar) -11476.33     -0.00      0.00
                               -0.00 -11609.68     -0.00
                                0.00     -0.00 -11390.91

     hartree stress (kbar)  16085.75      0.03      0.00
                                0.03  17317.93     -0.01
                                0.00     -0.01  14785.86

     exc-cor stress (kbar)  -4316.03      0.00      0.00
                                0.00  -4321.47     -0.00
                                0.00     -0.00  -4312.45

     corecor stress (kbar)  -3647.81      0.00     -0.00
                                0.00  -3628.65      0.00
                               -0.00      0.00  -3655.67

     ewald   stress (kbar) -32722.53      0.08      0.01
                                0.08 -30806.00     -0.02
                                0.01     -0.02 -33967.78

     hubbard stress (kbar)      0.00      0.00      0.00
                                0.00      0.00      0.00
                                0.00      0.00      0.00

     DFT-D   stress (kbar)      0.00      0.00      0.00
                                0.00      0.00      0.00
                                0.00      0.00      0.00

     XDM     stress (kbar)      0.00      0.00      0.00
                                0.00      0.00      0.00
                                0.00      0.00      0.00

     dft-nl  stress (kbar)      0.00      0.00      0.00
                                0.00      0.00      0.00
                                0.00      0.00      0.00

     TS-vdW  stress (kbar)      0.00      0.00      0.00
                                0.00      0.00      0.00
                                0.00      0.00      0.00



     init_run     :   1458.65s CPU   1556.87s WALL (       1 calls)
     electrons    :  35174.26s CPU  36870.45s WALL (       1 calls)
     forces       :    121.62s CPU    123.65s WALL (       1 calls)
     stress       :    828.87s CPU    834.00s WALL (       1 calls)

     Called by init_run:
     wfcinit      :   1443.81s CPU   1540.21s WALL (       1 calls)
     wfcinit:atom :      0.62s CPU      0.67s WALL (     316 calls)
     wfcinit:wfcr :   1439.06s CPU   1534.95s WALL (     316 calls)
     potinit      :      6.85s CPU      7.43s WALL (       1 calls)
     hinit0       :      4.34s CPU      5.06s WALL (       1 calls)

     Called by electrons:
     c_bands      :  30937.91s CPU  32407.48s WALL (      33 calls)
     sum_band     :   4125.92s CPU   4330.04s WALL (      33 calls)
     v_of_rho     :     33.00s CPU     36.03s WALL (      34 calls)
     v_h          :      1.91s CPU      2.33s WALL (      34 calls)
     v_xc         :     32.33s CPU     35.00s WALL (      36 calls)
     newd         :     40.07s CPU     57.32s WALL (      34 calls)
     PAW_pot      :     30.12s CPU     30.58s WALL (      34 calls)
     mix_rho      :      7.76s CPU      9.41s WALL (      33 calls)

     Called by c_bands:
     init_us_2    :    264.85s CPU    273.59s WALL (   21804 calls)
     cegterg      :  30371.45s CPU  31810.96s WALL (   10428 calls)

     Called by sum_band:
     sum_band:wei :      0.56s CPU      0.60s WALL (      33 calls)
     sum_band:loo :   4003.66s CPU   4183.15s WALL (      33 calls)
     sum_band:buf :     72.14s CPU     74.30s WALL (   10428 calls)
     sum_band:ini :    130.21s CPU    134.09s WALL (   10428 calls)
     sum_band:cal :    846.25s CPU    867.21s WALL (   10428 calls)
     sum_band:bec :      7.70s CPU      7.85s WALL (   10428 calls)
     addusdens    :    112.55s CPU    136.30s WALL (      33 calls)
     addusd:skk   :      0.82s CPU      0.87s WALL (      99 calls)
     addusd:dgemm :     56.67s CPU     74.79s WALL (     198 calls)
     addusd:qvan2 :     53.63s CPU     54.68s WALL (     198 calls)

     Called by *egterg:
     cdiaghg      :   1919.61s CPU   2016.34s WALL (   38714 calls)
     cegterg:over :   2335.31s CPU   2427.91s WALL (   28286 calls)
     cegterg:upda :    950.16s CPU    968.52s WALL (   28286 calls)
     cegterg:last :   1817.77s CPU   1849.94s WALL (   18045 calls)
     h_psi        :  21261.95s CPU  22453.53s WALL (   39030 calls)
     s_psi        :   1694.94s CPU   1728.17s WALL (   39030 calls)
     g_psi        :     14.00s CPU     14.28s WALL (   28286 calls)

     Called by h_psi:
     h_psi:calbec :   2365.44s CPU   2442.96s WALL (   39030 calls)
     vloc_psi     :  16900.25s CPU  17971.47s WALL (   39030 calls)
     add_vuspsi   :   1838.05s CPU   1876.14s WALL (   39030 calls)

     General routines
     calbec       :   3326.13s CPU   3426.01s WALL (   51038 calls)
     fft          :     31.79s CPU     36.53s WALL (     888 calls)
     ffts         :      1.37s CPU      1.54s WALL (     134 calls)
     fftw         :  19596.04s CPU  20816.37s WALL ( 7651026 calls)
     interpolate  :      3.62s CPU      3.91s WALL (      68 calls)

     Parallel routines
     fft_scatt_xy :    297.53s CPU    300.29s WALL ( 7652048 calls)
     fft_scatt_yz :  17617.67s CPU  18823.88s WALL ( 7652048 calls)

     PAW routines
     PAW_pot      :     30.12s CPU     30.58s WALL (      34 calls)
     PAW_symme    :      0.72s CPU      0.74s WALL (      67 calls)

     PWSCF        :     10h26m CPU     10h56m WALL


   This run was terminated on:  14:43: 1  20Dec2022            

=------------------------------------------------------------------------------=
   JOB DONE.
=------------------------------------------------------------------------------=
Note: The following floating-point exceptions are signalling: IEEE_UNDERFLOW_FLAG IEEE_DENORMAL
Note: The following floating-point exceptions are signalling: IEEE_DENORMAL
Note: The following floating-point exceptions are signalling: IEEE_DENORMAL
Note: The following floating-point exceptions are signalling: IEEE_INVALID_FLAG IEEE_DENORMAL
Note: The following floating-point exceptions are signalling: IEEE_DENORMAL
Note: The following floating-point exceptions are signalling: IEEE_INVALID_FLAG IEEE_DENORMAL
Note: The following floating-point exceptions are signalling: IEEE_DENORMAL
Note: The following floating-point exceptions are signalling: IEEE_INVALID_FLAG IEEE_DENORMAL
Note: The following floating-point exceptions are signalling: IEEE_DENORMAL
Note: The following floating-point exceptions are signalling: IEEE_DENORMAL
Note: The following floating-point exceptions are signalling: IEEE_DENORMAL
Note: The following floating-point exceptions are signalling: IEEE_DENORMAL
Note: The following floating-point exceptions are signalling: IEEE_DENORMAL
Note: The following floating-point exceptions are signalling: IEEE_DENORMAL
