
     Program PWSCF v.6.7MaX starts on 21Dec2022 at 18:40: 0 

     This program is part of the open-source Quantum ESPRESSO suite
     for quantum simulation of materials; please cite
         "P. Giannozzi et al., J. Phys.:Condens. Matter 21 395502 (2009);
         "P. Giannozzi et al., J. Phys.:Condens. Matter 29 465901 (2017);
          URL http://www.quantum-espresso.org", 
     in publications or presentations arising from this work. More details at
     http://www.quantum-espresso.org/quote

     Parallel version (MPI), running on    48 processors

     MPI processes distributed on     2 nodes
     R & G space division:  proc/nbgrp/npool/nimage =      48
     Reading input from scale_2dab-03.in

     Current dimensions of program PWSCF are:
     Max number of different atomic species (ntypx) = 10
     Max number of k-points (npk) =  40000
     Max angular momentum in pseudopotentials (lmaxx) =  3
     Message from routine read_pp_mesh:
     mesh size missing, using the one in header
     file Fe.pbe-spn-kjpaw_psl.0.2.1.UPF: wavefunction(s)  3D renormalized
     file O.pbe-n-kjpaw_psl.0.1.UPF: wavefunction(s)  2P renormalized

     Subspace diagonalization in iterative solution of the eigenvalue problem:
     a serial algorithm will be used

     Message from routine find_sym:
     Not a group! Trying with lower acceptance parameter...
     Message from routine find_sym:
     Symmetry operations form a group
     Message from routine setup:
     using ibrav=0 with symmetry is DISCOURAGED, use correct ibrav instead

     Parallelization info
     --------------------
     sticks:   dense  smooth     PW     G-vecs:    dense   smooth      PW
     Min         427     158     42                27881     6284     882
     Max         428     159     43                27884     6287     885
     Sum       20521    7599   2049              1338317   301689   42399



     bravais-lattice index     =            0
     lattice parameter (alat)  =      19.9928  a.u.
     unit-cell volume          =    2232.9698 (a.u.)^3
     number of atoms/cell      =           28
     number of atomic types    =            4
     number of electrons       =       216.00
     number of Kohn-Sham states=          130
     kinetic-energy cutoff     =     100.0000  Ry
     charge density cutoff     =    1080.0000  Ry
     scf convergence threshold =      2.0E-10
     mixing beta               =       0.4000
     number of iterations used =            8  plain     mixing
     Exchange-correlation= PBE
                           (   1   4   3   4   0   0   0)

     celldm(1)=  19.992808  celldm(2)=   0.000000  celldm(3)=   0.000000
     celldm(4)=   0.000000  celldm(5)=   0.000000  celldm(6)=   0.000000

     crystal axes: (cart. coord. in units of alat)
               a(1) = (   1.000000   0.000000   0.000000 )  
               a(2) = (   0.000000   0.597590   0.000000 )  
               a(3) = (   0.000000   0.000000   0.467582 )  

     reciprocal axes: (cart. coord. in units 2 pi/alat)
               b(1) = (  1.000000  0.000000  0.000000 )  
               b(2) = (  0.000000  1.673388  0.000000 )  
               b(3) = (  0.000000  0.000000  2.138660 )  


     PseudoPot. # 1 for Fe read from file:
     /opt/QEpot/SSSP_precision_pseudos/Fe.pbe-spn-kjpaw_psl.0.2.1.UPF
     MD5 check sum: e86618425769142926afa95317d90200
     Pseudo is Projector augmented-wave + core cor, Zval = 16.0
     Generated using "atomic" code by A. Dal Corso  v.5.0.99 svn rev. 10869
     Shape of augmentation charge: PSQ
     Using radial grid of 1191 points,  6 beta functions with: 
                l(1) =   0
                l(2) =   0
                l(3) =   1
                l(4) =   1
                l(5) =   2
                l(6) =   2
     Q(r) pseudized with 0 coefficients 


     PseudoPot. # 2 for Na read from file:
     /opt/QEpot/SSSP_precision_pseudos/Na_ONCV_PBE-1.0.oncvpsp.upf
     MD5 check sum: 24a298df0a6742ae313db96548fdb2a4
     Pseudo is Norm-conserving, Zval =  9.0
     Generated using ONCVPSP code by D. R. Hamann
     Using radial grid of 1992 points,  4 beta functions with: 
                l(1) =   0
                l(2) =   0
                l(3) =   1
                l(4) =   1

     PseudoPot. # 3 for O  read from file:
     /opt/QEpot/SSSP_precision_pseudos/O.pbe-n-kjpaw_psl.0.1.UPF
     MD5 check sum: 0234752ac141de4415c5fc33072bef88
     Pseudo is Projector augmented-wave + core cor, Zval =  6.0
     Generated using "atomic" code by A. Dal Corso  v.5.0.99 svn rev. 10869
     Shape of augmentation charge: BESSEL
     Using radial grid of 1095 points,  4 beta functions with: 
                l(1) =   0
                l(2) =   0
                l(3) =   1
                l(4) =   1
     Q(r) pseudized with 0 coefficients 


     PseudoPot. # 4 for P  read from file:
     /opt/QEpot/SSSP_precision_pseudos/P.pbe-n-rrkjus_psl.1.0.0.UPF
     MD5 check sum: 8b930f418f0a4573dca56cd030ffe088
     Pseudo is Ultrasoft + core correction, Zval =  5.0
     Generated using "atomic" code by A. Dal Corso  v.5.1
     Using radial grid of 1147 points,  6 beta functions with: 
                l(1) =   0
                l(2) =   0
                l(3) =   1
                l(4) =   1
                l(5) =   2
                l(6) =   2
     Q(r) pseudized with 0 coefficients 


     atomic species   valence    mass     pseudopotential
        Fe            16.00    55.84500     Fe( 1.00)
        Na             9.00    22.98977     Na( 1.00)
        O              6.00    15.99940     O ( 1.00)
        P              5.00    30.97376     P ( 1.00)

     Starting magnetic structure 
     atomic species   magnetization
        Fe           0.312
        Na           0.000
        O            0.000
        P            0.000

      2 Sym. Ops., with inversion, found ( 1 have fractional translation)


                                    s                        frac. trans.

      isym =  1     identity                                     

 cryst.   s( 1) = (     1          0          0      )
                  (     0          1          0      )
                  (     0          0          1      )

 cart.    s( 1) = (  1.0000000  0.0000000  0.0000000 )
                  (  0.0000000  1.0000000  0.0000000 )
                  (  0.0000000  0.0000000  1.0000000 )


      isym =  2     inversion                                    

 cryst.   s( 2) = (    -1          0          0      )    f =( -0.0000060 )
                  (     0         -1          0      )       ( -0.0000040 )
                  (     0          0         -1      )       ( -0.0000060 )

 cart.    s( 2) = ( -1.0000000  0.0000000  0.0000000 )    f =( -0.0000060 )
                  (  0.0000000 -1.0000000  0.0000000 )       ( -0.0000024 )
                  (  0.0000000  0.0000000 -1.0000000 )       ( -0.0000028 )


   Cartesian axes

     site n.     atom                  positions (alat units)
         1           Na  tau(   1) = (   0.0000030   0.0000012   0.0000014  )
         2           Na  tau(   2) = (   0.5000030   0.0000012   0.2337926  )
         3           Na  tau(   3) = (   0.0000030   0.2987962   0.0000014  )
         4           Na  tau(   4) = (   0.5000030   0.2987962   0.2337926  )
         5           Fe  tau(   5) = (   0.2868420   0.4481918   0.4590636  )
         6           Fe  tau(   6) = (   0.2131640   0.1494005   0.2252723  )
         7           Fe  tau(   7) = (   0.7131640   0.1494005   0.0085217  )
         8           Fe  tau(   8) = (   0.7868410   0.4481918   0.2423129  )
         9           P   tau(   9) = (   0.1082720   0.4481948   0.2067182  )
        10           P   tau(  10) = (   0.3917330   0.1493981   0.4405099  )
        11           P   tau(  11) = (   0.8917330   0.1493981   0.2608671  )
        12           P   tau(  12) = (   0.6082730   0.4481948   0.0270754  )
        13           O   tau(  13) = (   0.1122130   0.4481936   0.3523094  )
        14           O   tau(  14) = (   0.3877920   0.1493993   0.1185181  )
        15           O   tau(  15) = (   0.8877930   0.1493993   0.1152759  )
        16           O   tau(  16) = (   0.6122130   0.4481936   0.3490671  )
        17           O   tau(  17) = (   0.4671820   0.4481936   0.0762262  )
        18           O   tau(  18) = (   0.0328240   0.1493987   0.3100175  )
        19           O   tau(  19) = (   0.5328240   0.1493987   0.3913590  )
        20           O   tau(  20) = (   0.9671820   0.4481936   0.1575673  )
        21           O   tau(  21) = (   0.1790170   0.5668881   0.1459839  )
        22           O   tau(  22) = (   0.3209880   0.0307048   0.3797751  )
        23           O   tau(  23) = (   0.8209870   0.2680908   0.3216023  )
        24           O   tau(  24) = (   0.6790190   0.3295021   0.0878110  )
        25           O   tau(  25) = (   0.8209880   0.0307048   0.3216013  )
        26           O   tau(  26) = (   0.6790180   0.5668881   0.0878101  )
        27           O   tau(  27) = (   0.1790190   0.3295021   0.1459830  )
        28           O   tau(  28) = (   0.3209870   0.2680908   0.3797742  )

   Crystallographic axes

     site n.     atom                  positions (cryst. coord.)
         1           Na  tau(   1) = (  0.0000030  0.0000020  0.0000030  )
         2           Na  tau(   2) = (  0.5000030  0.0000020  0.5000030  )
         3           Na  tau(   3) = (  0.0000030  0.5000020  0.0000030  )
         4           Na  tau(   4) = (  0.5000030  0.5000020  0.5000030  )
         5           Fe  tau(   5) = (  0.2868420  0.7499990  0.9817810  )
         6           Fe  tau(   6) = (  0.2131640  0.2500050  0.4817810  )
         7           Fe  tau(   7) = (  0.7131640  0.2500050  0.0182250  )
         8           Fe  tau(   8) = (  0.7868410  0.7499990  0.5182250  )
         9           P   tau(   9) = (  0.1082720  0.7500040  0.4421000  )
        10           P   tau(  10) = (  0.3917330  0.2500010  0.9421010  )
        11           P   tau(  11) = (  0.8917330  0.2500010  0.5579060  )
        12           P   tau(  12) = (  0.6082730  0.7500040  0.0579050  )
        13           O   tau(  13) = (  0.1122130  0.7500020  0.7534700  )
        14           O   tau(  14) = (  0.3877920  0.2500030  0.2534700  )
        15           O   tau(  15) = (  0.8877930  0.2500030  0.2465360  )
        16           O   tau(  16) = (  0.6122130  0.7500020  0.7465360  )
        17           O   tau(  17) = (  0.4671820  0.7500020  0.1630220  )
        18           O   tau(  18) = (  0.0328240  0.2500020  0.6630220  )
        19           O   tau(  19) = (  0.5328240  0.2500020  0.8369840  )
        20           O   tau(  20) = (  0.9671820  0.7500020  0.3369830  )
        21           O   tau(  21) = (  0.1790170  0.9486240  0.3122100  )
        22           O   tau(  22) = (  0.3209880  0.0513810  0.8122100  )
        23           O   tau(  23) = (  0.8209870  0.4486200  0.6877980  )
        24           O   tau(  24) = (  0.6790190  0.5513850  0.1877980  )
        25           O   tau(  25) = (  0.8209880  0.0513810  0.6877960  )
        26           O   tau(  26) = (  0.6790180  0.9486240  0.1877960  )
        27           O   tau(  27) = (  0.1790190  0.5513850  0.3122080  )
        28           O   tau(  28) = (  0.3209870  0.4486200  0.8122080  )

     number of k points=   158  Marzari-Vanderbilt smearing, width (Ry)=  0.0073
                       cart. coord. in units 2pi/alat
        k(    1) = (   0.0000000   0.0000000   0.0000000), wk =   0.0031746
        k(    2) = (   0.0000000   0.0000000   0.2376289), wk =   0.0063492
        k(    3) = (   0.0000000   0.0000000   0.4752578), wk =   0.0063492
        k(    4) = (   0.0000000   0.0000000   0.7128867), wk =   0.0063492
        k(    5) = (   0.0000000   0.0000000   0.9505157), wk =   0.0063492
        k(    6) = (   0.0000000   0.2390555   0.0000000), wk =   0.0063492
        k(    7) = (   0.0000000   0.2390555   0.2376289), wk =   0.0063492
        k(    8) = (   0.0000000   0.2390555   0.4752578), wk =   0.0063492
        k(    9) = (   0.0000000   0.2390555   0.7128867), wk =   0.0063492
        k(   10) = (   0.0000000   0.2390555   0.9505157), wk =   0.0063492
        k(   11) = (   0.0000000   0.4781110   0.0000000), wk =   0.0063492
        k(   12) = (   0.0000000   0.4781110   0.2376289), wk =   0.0063492
        k(   13) = (   0.0000000   0.4781110   0.4752578), wk =   0.0063492
        k(   14) = (   0.0000000   0.4781110   0.7128867), wk =   0.0063492
        k(   15) = (   0.0000000   0.4781110   0.9505157), wk =   0.0063492
        k(   16) = (   0.0000000   0.7171664   0.0000000), wk =   0.0063492
        k(   17) = (   0.0000000   0.7171664   0.2376289), wk =   0.0063492
        k(   18) = (   0.0000000   0.7171664   0.4752578), wk =   0.0063492
        k(   19) = (   0.0000000   0.7171664   0.7128867), wk =   0.0063492
        k(   20) = (   0.0000000   0.7171664   0.9505157), wk =   0.0063492
        k(   21) = (   0.2000000   0.0000000   0.0000000), wk =   0.0063492
        k(   22) = (   0.2000000   0.0000000   0.2376289), wk =   0.0063492
        k(   23) = (   0.2000000   0.0000000   0.4752578), wk =   0.0063492
        k(   24) = (   0.2000000   0.0000000   0.7128867), wk =   0.0063492
        k(   25) = (   0.2000000   0.0000000   0.9505157), wk =   0.0063492
        k(   26) = (   0.2000000   0.2390555   0.0000000), wk =   0.0063492
        k(   27) = (   0.2000000   0.2390555   0.2376289), wk =   0.0063492
        k(   28) = (   0.2000000   0.2390555   0.4752578), wk =   0.0063492
        k(   29) = (   0.2000000   0.2390555   0.7128867), wk =   0.0063492
        k(   30) = (   0.2000000   0.2390555   0.9505157), wk =   0.0063492
        k(   31) = (   0.2000000   0.4781110   0.0000000), wk =   0.0063492
        k(   32) = (   0.2000000   0.4781110   0.2376289), wk =   0.0063492
        k(   33) = (   0.2000000   0.4781110   0.4752578), wk =   0.0063492
        k(   34) = (   0.2000000   0.4781110   0.7128867), wk =   0.0063492
        k(   35) = (   0.2000000   0.4781110   0.9505157), wk =   0.0063492
        k(   36) = (   0.2000000   0.7171664   0.0000000), wk =   0.0063492
        k(   37) = (   0.2000000   0.7171664   0.2376289), wk =   0.0063492
        k(   38) = (   0.2000000   0.7171664   0.4752578), wk =   0.0063492
        k(   39) = (   0.2000000   0.7171664   0.7128867), wk =   0.0063492
        k(   40) = (   0.2000000   0.7171664   0.9505157), wk =   0.0063492
        k(   41) = (   0.4000000   0.0000000   0.0000000), wk =   0.0063492
        k(   42) = (   0.4000000   0.0000000   0.2376289), wk =   0.0063492
        k(   43) = (   0.4000000   0.0000000   0.4752578), wk =   0.0063492
        k(   44) = (   0.4000000   0.0000000   0.7128867), wk =   0.0063492
        k(   45) = (   0.4000000   0.0000000   0.9505157), wk =   0.0063492
        k(   46) = (   0.4000000   0.2390555   0.0000000), wk =   0.0063492
        k(   47) = (   0.4000000   0.2390555   0.2376289), wk =   0.0063492
        k(   48) = (   0.4000000   0.2390555   0.4752578), wk =   0.0063492
        k(   49) = (   0.4000000   0.2390555   0.7128867), wk =   0.0063492
        k(   50) = (   0.4000000   0.2390555   0.9505157), wk =   0.0063492
        k(   51) = (   0.4000000   0.4781110   0.0000000), wk =   0.0063492
        k(   52) = (   0.4000000   0.4781110   0.2376289), wk =   0.0063492
        k(   53) = (   0.4000000   0.4781110   0.4752578), wk =   0.0063492
        k(   54) = (   0.4000000   0.4781110   0.7128867), wk =   0.0063492
        k(   55) = (   0.4000000   0.4781110   0.9505157), wk =   0.0063492
        k(   56) = (   0.4000000   0.7171664   0.0000000), wk =   0.0063492
        k(   57) = (   0.4000000   0.7171664   0.2376289), wk =   0.0063492
        k(   58) = (   0.4000000   0.7171664   0.4752578), wk =   0.0063492
        k(   59) = (   0.4000000   0.7171664   0.7128867), wk =   0.0063492
        k(   60) = (   0.4000000   0.7171664   0.9505157), wk =   0.0063492
        k(   61) = (   0.0000000   0.2390555  -0.2376289), wk =   0.0063492
        k(   62) = (   0.0000000   0.2390555  -0.4752578), wk =   0.0063492
        k(   63) = (   0.0000000   0.2390555  -0.7128867), wk =   0.0063492
        k(   64) = (   0.0000000   0.2390555  -0.9505157), wk =   0.0063492
        k(   65) = (   0.0000000   0.4781110  -0.2376289), wk =   0.0063492
        k(   66) = (   0.0000000   0.4781110  -0.4752578), wk =   0.0063492
        k(   67) = (   0.0000000   0.4781110  -0.7128867), wk =   0.0063492
        k(   68) = (   0.0000000   0.4781110  -0.9505157), wk =   0.0063492
        k(   69) = (   0.0000000   0.7171664  -0.2376289), wk =   0.0063492
        k(   70) = (   0.0000000   0.7171664  -0.4752578), wk =   0.0063492
        k(   71) = (   0.0000000   0.7171664  -0.7128867), wk =   0.0063492
        k(   72) = (   0.0000000   0.7171664  -0.9505157), wk =   0.0063492
        k(   73) = (   0.2000000   0.0000000  -0.2376289), wk =   0.0063492
        k(   74) = (   0.2000000   0.0000000  -0.4752578), wk =   0.0063492
        k(   75) = (   0.2000000   0.0000000  -0.7128867), wk =   0.0063492
        k(   76) = (   0.2000000   0.0000000  -0.9505157), wk =   0.0063492
        k(   77) = (  -0.2000000   0.2390555   0.0000000), wk =   0.0063492
        k(   78) = (  -0.2000000   0.2390555  -0.2376289), wk =   0.0063492
        k(   79) = (   0.2000000  -0.2390555  -0.2376289), wk =   0.0063492
        k(   80) = (  -0.2000000  -0.2390555   0.2376289), wk =   0.0063492
        k(   81) = (  -0.2000000   0.2390555  -0.4752578), wk =   0.0063492
        k(   82) = (   0.2000000  -0.2390555  -0.4752578), wk =   0.0063492
        k(   83) = (  -0.2000000  -0.2390555   0.4752578), wk =   0.0063492
        k(   84) = (  -0.2000000   0.2390555  -0.7128867), wk =   0.0063492
        k(   85) = (   0.2000000  -0.2390555  -0.7128867), wk =   0.0063492
        k(   86) = (  -0.2000000  -0.2390555   0.7128867), wk =   0.0063492
        k(   87) = (  -0.2000000   0.2390555  -0.9505157), wk =   0.0063492
        k(   88) = (   0.2000000  -0.2390555  -0.9505157), wk =   0.0063492
        k(   89) = (  -0.2000000  -0.2390555   0.9505157), wk =   0.0063492
        k(   90) = (  -0.2000000   0.4781110   0.0000000), wk =   0.0063492
        k(   91) = (  -0.2000000   0.4781110  -0.2376289), wk =   0.0063492
        k(   92) = (   0.2000000  -0.4781110  -0.2376289), wk =   0.0063492
        k(   93) = (  -0.2000000  -0.4781110   0.2376289), wk =   0.0063492
        k(   94) = (  -0.2000000   0.4781110  -0.4752578), wk =   0.0063492
        k(   95) = (   0.2000000  -0.4781110  -0.4752578), wk =   0.0063492
        k(   96) = (  -0.2000000  -0.4781110   0.4752578), wk =   0.0063492
        k(   97) = (  -0.2000000   0.4781110  -0.7128867), wk =   0.0063492
        k(   98) = (   0.2000000  -0.4781110  -0.7128867), wk =   0.0063492
        k(   99) = (  -0.2000000  -0.4781110   0.7128867), wk =   0.0063492
        k(  100) = (  -0.2000000   0.4781110  -0.9505157), wk =   0.0063492
        k(  101) = (   0.2000000  -0.4781110  -0.9505157), wk =   0.0063492
        k(  102) = (  -0.2000000  -0.4781110   0.9505157), wk =   0.0063492
        k(  103) = (  -0.2000000   0.7171664   0.0000000), wk =   0.0063492
        k(  104) = (  -0.2000000   0.7171664  -0.2376289), wk =   0.0063492
        k(  105) = (   0.2000000  -0.7171664  -0.2376289), wk =   0.0063492
        k(  106) = (  -0.2000000  -0.7171664   0.2376289), wk =   0.0063492
        k(  107) = (  -0.2000000   0.7171664  -0.4752578), wk =   0.0063492
        k(  108) = (   0.2000000  -0.7171664  -0.4752578), wk =   0.0063492
        k(  109) = (  -0.2000000  -0.7171664   0.4752578), wk =   0.0063492
        k(  110) = (  -0.2000000   0.7171664  -0.7128867), wk =   0.0063492
        k(  111) = (   0.2000000  -0.7171664  -0.7128867), wk =   0.0063492
        k(  112) = (  -0.2000000  -0.7171664   0.7128867), wk =   0.0063492
        k(  113) = (  -0.2000000   0.7171664  -0.9505157), wk =   0.0063492
        k(  114) = (   0.2000000  -0.7171664  -0.9505157), wk =   0.0063492
        k(  115) = (  -0.2000000  -0.7171664   0.9505157), wk =   0.0063492
        k(  116) = (   0.4000000   0.0000000  -0.2376289), wk =   0.0063492
        k(  117) = (   0.4000000   0.0000000  -0.4752578), wk =   0.0063492
        k(  118) = (   0.4000000   0.0000000  -0.7128867), wk =   0.0063492
        k(  119) = (   0.4000000   0.0000000  -0.9505157), wk =   0.0063492
        k(  120) = (  -0.4000000   0.2390555   0.0000000), wk =   0.0063492
        k(  121) = (  -0.4000000   0.2390555  -0.2376289), wk =   0.0063492
        k(  122) = (   0.4000000  -0.2390555  -0.2376289), wk =   0.0063492
        k(  123) = (  -0.4000000  -0.2390555   0.2376289), wk =   0.0063492
        k(  124) = (  -0.4000000   0.2390555  -0.4752578), wk =   0.0063492
        k(  125) = (   0.4000000  -0.2390555  -0.4752578), wk =   0.0063492
        k(  126) = (  -0.4000000  -0.2390555   0.4752578), wk =   0.0063492
        k(  127) = (  -0.4000000   0.2390555  -0.7128867), wk =   0.0063492
        k(  128) = (   0.4000000  -0.2390555  -0.7128867), wk =   0.0063492
        k(  129) = (  -0.4000000  -0.2390555   0.7128867), wk =   0.0063492
        k(  130) = (  -0.4000000   0.2390555  -0.9505157), wk =   0.0063492
        k(  131) = (   0.4000000  -0.2390555  -0.9505157), wk =   0.0063492
        k(  132) = (  -0.4000000  -0.2390555   0.9505157), wk =   0.0063492
        k(  133) = (  -0.4000000   0.4781110   0.0000000), wk =   0.0063492
        k(  134) = (  -0.4000000   0.4781110  -0.2376289), wk =   0.0063492
        k(  135) = (   0.4000000  -0.4781110  -0.2376289), wk =   0.0063492
        k(  136) = (  -0.4000000  -0.4781110   0.2376289), wk =   0.0063492
        k(  137) = (  -0.4000000   0.4781110  -0.4752578), wk =   0.0063492
        k(  138) = (   0.4000000  -0.4781110  -0.4752578), wk =   0.0063492
        k(  139) = (  -0.4000000  -0.4781110   0.4752578), wk =   0.0063492
        k(  140) = (  -0.4000000   0.4781110  -0.7128867), wk =   0.0063492
        k(  141) = (   0.4000000  -0.4781110  -0.7128867), wk =   0.0063492
        k(  142) = (  -0.4000000  -0.4781110   0.7128867), wk =   0.0063492
        k(  143) = (  -0.4000000   0.4781110  -0.9505157), wk =   0.0063492
        k(  144) = (   0.4000000  -0.4781110  -0.9505157), wk =   0.0063492
        k(  145) = (  -0.4000000  -0.4781110   0.9505157), wk =   0.0063492
        k(  146) = (  -0.4000000   0.7171664   0.0000000), wk =   0.0063492
        k(  147) = (  -0.4000000   0.7171664  -0.2376289), wk =   0.0063492
        k(  148) = (   0.4000000  -0.7171664  -0.2376289), wk =   0.0063492
        k(  149) = (  -0.4000000  -0.7171664   0.2376289), wk =   0.0063492
        k(  150) = (  -0.4000000   0.7171664  -0.4752578), wk =   0.0063492
        k(  151) = (   0.4000000  -0.7171664  -0.4752578), wk =   0.0063492
        k(  152) = (  -0.4000000  -0.7171664   0.4752578), wk =   0.0063492
        k(  153) = (  -0.4000000   0.7171664  -0.7128867), wk =   0.0063492
        k(  154) = (   0.4000000  -0.7171664  -0.7128867), wk =   0.0063492
        k(  155) = (  -0.4000000  -0.7171664   0.7128867), wk =   0.0063492
        k(  156) = (  -0.4000000   0.7171664  -0.9505157), wk =   0.0063492
        k(  157) = (   0.4000000  -0.7171664  -0.9505157), wk =   0.0063492
        k(  158) = (  -0.4000000  -0.7171664   0.9505157), wk =   0.0063492

                       cryst. coord.
        k(    1) = (   0.0000000   0.0000000   0.0000000), wk =   0.0031746
        k(    2) = (   0.0000000   0.0000000   0.1111111), wk =   0.0063492
        k(    3) = (   0.0000000   0.0000000   0.2222222), wk =   0.0063492
        k(    4) = (   0.0000000   0.0000000   0.3333333), wk =   0.0063492
        k(    5) = (   0.0000000   0.0000000   0.4444444), wk =   0.0063492
        k(    6) = (   0.0000000   0.1428571   0.0000000), wk =   0.0063492
        k(    7) = (   0.0000000   0.1428571   0.1111111), wk =   0.0063492
        k(    8) = (   0.0000000   0.1428571   0.2222222), wk =   0.0063492
        k(    9) = (   0.0000000   0.1428571   0.3333333), wk =   0.0063492
        k(   10) = (   0.0000000   0.1428571   0.4444444), wk =   0.0063492
        k(   11) = (   0.0000000   0.2857143   0.0000000), wk =   0.0063492
        k(   12) = (   0.0000000   0.2857143   0.1111111), wk =   0.0063492
        k(   13) = (   0.0000000   0.2857143   0.2222222), wk =   0.0063492
        k(   14) = (   0.0000000   0.2857143   0.3333333), wk =   0.0063492
        k(   15) = (   0.0000000   0.2857143   0.4444444), wk =   0.0063492
        k(   16) = (   0.0000000   0.4285714   0.0000000), wk =   0.0063492
        k(   17) = (   0.0000000   0.4285714   0.1111111), wk =   0.0063492
        k(   18) = (   0.0000000   0.4285714   0.2222222), wk =   0.0063492
        k(   19) = (   0.0000000   0.4285714   0.3333333), wk =   0.0063492
        k(   20) = (   0.0000000   0.4285714   0.4444444), wk =   0.0063492
        k(   21) = (   0.2000000   0.0000000   0.0000000), wk =   0.0063492
        k(   22) = (   0.2000000   0.0000000   0.1111111), wk =   0.0063492
        k(   23) = (   0.2000000   0.0000000   0.2222222), wk =   0.0063492
        k(   24) = (   0.2000000   0.0000000   0.3333333), wk =   0.0063492
        k(   25) = (   0.2000000   0.0000000   0.4444444), wk =   0.0063492
        k(   26) = (   0.2000000   0.1428571   0.0000000), wk =   0.0063492
        k(   27) = (   0.2000000   0.1428571   0.1111111), wk =   0.0063492
        k(   28) = (   0.2000000   0.1428571   0.2222222), wk =   0.0063492
        k(   29) = (   0.2000000   0.1428571   0.3333333), wk =   0.0063492
        k(   30) = (   0.2000000   0.1428571   0.4444444), wk =   0.0063492
        k(   31) = (   0.2000000   0.2857143   0.0000000), wk =   0.0063492
        k(   32) = (   0.2000000   0.2857143   0.1111111), wk =   0.0063492
        k(   33) = (   0.2000000   0.2857143   0.2222222), wk =   0.0063492
        k(   34) = (   0.2000000   0.2857143   0.3333333), wk =   0.0063492
        k(   35) = (   0.2000000   0.2857143   0.4444444), wk =   0.0063492
        k(   36) = (   0.2000000   0.4285714   0.0000000), wk =   0.0063492
        k(   37) = (   0.2000000   0.4285714   0.1111111), wk =   0.0063492
        k(   38) = (   0.2000000   0.4285714   0.2222222), wk =   0.0063492
        k(   39) = (   0.2000000   0.4285714   0.3333333), wk =   0.0063492
        k(   40) = (   0.2000000   0.4285714   0.4444444), wk =   0.0063492
        k(   41) = (   0.4000000   0.0000000   0.0000000), wk =   0.0063492
        k(   42) = (   0.4000000   0.0000000   0.1111111), wk =   0.0063492
        k(   43) = (   0.4000000   0.0000000   0.2222222), wk =   0.0063492
        k(   44) = (   0.4000000   0.0000000   0.3333333), wk =   0.0063492
        k(   45) = (   0.4000000   0.0000000   0.4444444), wk =   0.0063492
        k(   46) = (   0.4000000   0.1428571   0.0000000), wk =   0.0063492
        k(   47) = (   0.4000000   0.1428571   0.1111111), wk =   0.0063492
        k(   48) = (   0.4000000   0.1428571   0.2222222), wk =   0.0063492
        k(   49) = (   0.4000000   0.1428571   0.3333333), wk =   0.0063492
        k(   50) = (   0.4000000   0.1428571   0.4444444), wk =   0.0063492
        k(   51) = (   0.4000000   0.2857143   0.0000000), wk =   0.0063492
        k(   52) = (   0.4000000   0.2857143   0.1111111), wk =   0.0063492
        k(   53) = (   0.4000000   0.2857143   0.2222222), wk =   0.0063492
        k(   54) = (   0.4000000   0.2857143   0.3333333), wk =   0.0063492
        k(   55) = (   0.4000000   0.2857143   0.4444444), wk =   0.0063492
        k(   56) = (   0.4000000   0.4285714   0.0000000), wk =   0.0063492
        k(   57) = (   0.4000000   0.4285714   0.1111111), wk =   0.0063492
        k(   58) = (   0.4000000   0.4285714   0.2222222), wk =   0.0063492
        k(   59) = (   0.4000000   0.4285714   0.3333333), wk =   0.0063492
        k(   60) = (   0.4000000   0.4285714   0.4444444), wk =   0.0063492
        k(   61) = (   0.0000000   0.1428571  -0.1111111), wk =   0.0063492
        k(   62) = (   0.0000000   0.1428571  -0.2222222), wk =   0.0063492
        k(   63) = (   0.0000000   0.1428571  -0.3333333), wk =   0.0063492
        k(   64) = (   0.0000000   0.1428571  -0.4444444), wk =   0.0063492
        k(   65) = (   0.0000000   0.2857143  -0.1111111), wk =   0.0063492
        k(   66) = (   0.0000000   0.2857143  -0.2222222), wk =   0.0063492
        k(   67) = (   0.0000000   0.2857143  -0.3333333), wk =   0.0063492
        k(   68) = (   0.0000000   0.2857143  -0.4444444), wk =   0.0063492
        k(   69) = (   0.0000000   0.4285714  -0.1111111), wk =   0.0063492
        k(   70) = (   0.0000000   0.4285714  -0.2222222), wk =   0.0063492
        k(   71) = (   0.0000000   0.4285714  -0.3333333), wk =   0.0063492
        k(   72) = (   0.0000000   0.4285714  -0.4444444), wk =   0.0063492
        k(   73) = (   0.2000000   0.0000000  -0.1111111), wk =   0.0063492
        k(   74) = (   0.2000000   0.0000000  -0.2222222), wk =   0.0063492
        k(   75) = (   0.2000000   0.0000000  -0.3333333), wk =   0.0063492
        k(   76) = (   0.2000000   0.0000000  -0.4444444), wk =   0.0063492
        k(   77) = (  -0.2000000   0.1428571   0.0000000), wk =   0.0063492
        k(   78) = (  -0.2000000   0.1428571  -0.1111111), wk =   0.0063492
        k(   79) = (   0.2000000  -0.1428571  -0.1111111), wk =   0.0063492
        k(   80) = (  -0.2000000  -0.1428571   0.1111111), wk =   0.0063492
        k(   81) = (  -0.2000000   0.1428571  -0.2222222), wk =   0.0063492
        k(   82) = (   0.2000000  -0.1428571  -0.2222222), wk =   0.0063492
        k(   83) = (  -0.2000000  -0.1428571   0.2222222), wk =   0.0063492
        k(   84) = (  -0.2000000   0.1428571  -0.3333333), wk =   0.0063492
        k(   85) = (   0.2000000  -0.1428571  -0.3333333), wk =   0.0063492
        k(   86) = (  -0.2000000  -0.1428571   0.3333333), wk =   0.0063492
        k(   87) = (  -0.2000000   0.1428571  -0.4444444), wk =   0.0063492
        k(   88) = (   0.2000000  -0.1428571  -0.4444444), wk =   0.0063492
        k(   89) = (  -0.2000000  -0.1428571   0.4444444), wk =   0.0063492
        k(   90) = (  -0.2000000   0.2857143   0.0000000), wk =   0.0063492
        k(   91) = (  -0.2000000   0.2857143  -0.1111111), wk =   0.0063492
        k(   92) = (   0.2000000  -0.2857143  -0.1111111), wk =   0.0063492
        k(   93) = (  -0.2000000  -0.2857143   0.1111111), wk =   0.0063492
        k(   94) = (  -0.2000000   0.2857143  -0.2222222), wk =   0.0063492
        k(   95) = (   0.2000000  -0.2857143  -0.2222222), wk =   0.0063492
        k(   96) = (  -0.2000000  -0.2857143   0.2222222), wk =   0.0063492
        k(   97) = (  -0.2000000   0.2857143  -0.3333333), wk =   0.0063492
        k(   98) = (   0.2000000  -0.2857143  -0.3333333), wk =   0.0063492
        k(   99) = (  -0.2000000  -0.2857143   0.3333333), wk =   0.0063492
        k(  100) = (  -0.2000000   0.2857143  -0.4444444), wk =   0.0063492
        k(  101) = (   0.2000000  -0.2857143  -0.4444444), wk =   0.0063492
        k(  102) = (  -0.2000000  -0.2857143   0.4444444), wk =   0.0063492
        k(  103) = (  -0.2000000   0.4285714   0.0000000), wk =   0.0063492
        k(  104) = (  -0.2000000   0.4285714  -0.1111111), wk =   0.0063492
        k(  105) = (   0.2000000  -0.4285714  -0.1111111), wk =   0.0063492
        k(  106) = (  -0.2000000  -0.4285714   0.1111111), wk =   0.0063492
        k(  107) = (  -0.2000000   0.4285714  -0.2222222), wk =   0.0063492
        k(  108) = (   0.2000000  -0.4285714  -0.2222222), wk =   0.0063492
        k(  109) = (  -0.2000000  -0.4285714   0.2222222), wk =   0.0063492
        k(  110) = (  -0.2000000   0.4285714  -0.3333333), wk =   0.0063492
        k(  111) = (   0.2000000  -0.4285714  -0.3333333), wk =   0.0063492
        k(  112) = (  -0.2000000  -0.4285714   0.3333333), wk =   0.0063492
        k(  113) = (  -0.2000000   0.4285714  -0.4444444), wk =   0.0063492
        k(  114) = (   0.2000000  -0.4285714  -0.4444444), wk =   0.0063492
        k(  115) = (  -0.2000000  -0.4285714   0.4444444), wk =   0.0063492
        k(  116) = (   0.4000000   0.0000000  -0.1111111), wk =   0.0063492
        k(  117) = (   0.4000000   0.0000000  -0.2222222), wk =   0.0063492
        k(  118) = (   0.4000000   0.0000000  -0.3333333), wk =   0.0063492
        k(  119) = (   0.4000000   0.0000000  -0.4444444), wk =   0.0063492
        k(  120) = (  -0.4000000   0.1428571   0.0000000), wk =   0.0063492
        k(  121) = (  -0.4000000   0.1428571  -0.1111111), wk =   0.0063492
        k(  122) = (   0.4000000  -0.1428571  -0.1111111), wk =   0.0063492
        k(  123) = (  -0.4000000  -0.1428571   0.1111111), wk =   0.0063492
        k(  124) = (  -0.4000000   0.1428571  -0.2222222), wk =   0.0063492
        k(  125) = (   0.4000000  -0.1428571  -0.2222222), wk =   0.0063492
        k(  126) = (  -0.4000000  -0.1428571   0.2222222), wk =   0.0063492
        k(  127) = (  -0.4000000   0.1428571  -0.3333333), wk =   0.0063492
        k(  128) = (   0.4000000  -0.1428571  -0.3333333), wk =   0.0063492
        k(  129) = (  -0.4000000  -0.1428571   0.3333333), wk =   0.0063492
        k(  130) = (  -0.4000000   0.1428571  -0.4444444), wk =   0.0063492
        k(  131) = (   0.4000000  -0.1428571  -0.4444444), wk =   0.0063492
        k(  132) = (  -0.4000000  -0.1428571   0.4444444), wk =   0.0063492
        k(  133) = (  -0.4000000   0.2857143   0.0000000), wk =   0.0063492
        k(  134) = (  -0.4000000   0.2857143  -0.1111111), wk =   0.0063492
        k(  135) = (   0.4000000  -0.2857143  -0.1111111), wk =   0.0063492
        k(  136) = (  -0.4000000  -0.2857143   0.1111111), wk =   0.0063492
        k(  137) = (  -0.4000000   0.2857143  -0.2222222), wk =   0.0063492
        k(  138) = (   0.4000000  -0.2857143  -0.2222222), wk =   0.0063492
        k(  139) = (  -0.4000000  -0.2857143   0.2222222), wk =   0.0063492
        k(  140) = (  -0.4000000   0.2857143  -0.3333333), wk =   0.0063492
        k(  141) = (   0.4000000  -0.2857143  -0.3333333), wk =   0.0063492
        k(  142) = (  -0.4000000  -0.2857143   0.3333333), wk =   0.0063492
        k(  143) = (  -0.4000000   0.2857143  -0.4444444), wk =   0.0063492
        k(  144) = (   0.4000000  -0.2857143  -0.4444444), wk =   0.0063492
        k(  145) = (  -0.4000000  -0.2857143   0.4444444), wk =   0.0063492
        k(  146) = (  -0.4000000   0.4285714   0.0000000), wk =   0.0063492
        k(  147) = (  -0.4000000   0.4285714  -0.1111111), wk =   0.0063492
        k(  148) = (   0.4000000  -0.4285714  -0.1111111), wk =   0.0063492
        k(  149) = (  -0.4000000  -0.4285714   0.1111111), wk =   0.0063492
        k(  150) = (  -0.4000000   0.4285714  -0.2222222), wk =   0.0063492
        k(  151) = (   0.4000000  -0.4285714  -0.2222222), wk =   0.0063492
        k(  152) = (  -0.4000000  -0.4285714   0.2222222), wk =   0.0063492
        k(  153) = (  -0.4000000   0.4285714  -0.3333333), wk =   0.0063492
        k(  154) = (   0.4000000  -0.4285714  -0.3333333), wk =   0.0063492
        k(  155) = (  -0.4000000  -0.4285714   0.3333333), wk =   0.0063492
        k(  156) = (  -0.4000000   0.4285714  -0.4444444), wk =   0.0063492
        k(  157) = (   0.4000000  -0.4285714  -0.4444444), wk =   0.0063492
        k(  158) = (  -0.4000000  -0.4285714   0.4444444), wk =   0.0063492

     Dense  grid:  1338317 G-vectors     FFT dimensions: ( 216, 125, 100)

     Smooth grid:   301689 G-vectors     FFT dimensions: ( 128,  80,  60)

     Dynamical RAM for                 wfc:       1.56 MB

     Dynamical RAM for     wfc (w. buffer):     493.62 MB

     Dynamical RAM for           str. fact:       1.70 MB

     Dynamical RAM for           local pot:       0.00 MB

     Dynamical RAM for          nlocal pot:       3.64 MB

     Dynamical RAM for                qrad:      10.54 MB

     Dynamical RAM for          rho,v,vnew:       6.26 MB

     Dynamical RAM for               rhoin:       2.09 MB

     Dynamical RAM for            rho*nmix:      13.62 MB

     Dynamical RAM for           G-vectors:       1.64 MB

     Dynamical RAM for          h,s,v(r/c):       3.09 MB

     Dynamical RAM for          <psi|beta>:       0.60 MB

     Dynamical RAM for                 psi:       3.11 MB

     Dynamical RAM for                hpsi:       3.11 MB

     Dynamical RAM for                spsi:       3.11 MB

     Dynamical RAM for      wfcinit/wfcrot:       4.17 MB

     Dynamical RAM for           addusdens:      86.37 MB

     Dynamical RAM for          addusforce:      99.26 MB

     Dynamical RAM for         addusstress:      86.16 MB

     Estimated static dynamical RAM per process >     538.95 MB

     Estimated max dynamical RAM per process >     638.21 MB

     Estimated total dynamical RAM >      29.92 GB

     Check: negative core charge=   -0.000003
     Generating pointlists ...
     new r_m :   0.0822 (alat units)  1.6433 (a.u.) for type    1
     new r_m :   0.0906 (alat units)  1.8106 (a.u.) for type    2
     new r_m :   0.0601 (alat units)  1.2011 (a.u.) for type    3
     new r_m :   0.0601 (alat units)  1.2011 (a.u.) for type    4

     Initial potential from superposition of free atoms

     starting charge  215.97252, renormalised to  216.00000
     Starting wfcs are  152 randomized atomic wfcs
     Checking if some PAW data can be deallocated... 
       PAW data deallocated on   40 nodes for type:  1
       PAW data deallocated on   24 nodes for type:  3

     total cpu time spent up to now is      417.0 secs

     Self-consistent Calculation

     iteration #  1     ecut=   100.00 Ry     beta= 0.40
     Davidson diagonalization with overlap
     ethr =  1.00E-02,  avg # of iterations =  3.2

     negative rho (up, down):  0.000E+00 5.889E-05

     total cpu time spent up to now is     1575.6 secs

     total energy              =   -2380.64423834 Ry
     estimated scf accuracy    <       5.66760002 Ry

     total magnetization       =    16.00 Bohr mag/cell
     absolute magnetization    =    16.01 Bohr mag/cell

     iteration #  2     ecut=   100.00 Ry     beta= 0.40
     Davidson diagonalization with overlap
     ethr =  2.62E-03,  avg # of iterations =  2.0

     negative rho (up, down):  0.000E+00 1.585E-04

     total cpu time spent up to now is     2165.1 secs

     total energy              =   -2382.04181898 Ry
     estimated scf accuracy    <       0.54956100 Ry

     total magnetization       =    16.00 Bohr mag/cell
     absolute magnetization    =    16.01 Bohr mag/cell

     iteration #  3     ecut=   100.00 Ry     beta= 0.40
     Davidson diagonalization with overlap
     ethr =  2.54E-04,  avg # of iterations = 10.1

     negative rho (up, down):  0.000E+00 1.726E-04

     total cpu time spent up to now is     2874.9 secs

     total energy              =   -2382.04570474 Ry
     estimated scf accuracy    <       3.59005733 Ry

     total magnetization       =    16.00 Bohr mag/cell
     absolute magnetization    =    16.04 Bohr mag/cell

     iteration #  4     ecut=   100.00 Ry     beta= 0.40
     Davidson diagonalization with overlap
     ethr =  2.54E-04,  avg # of iterations =  2.0

     negative rho (up, down):  0.000E+00 3.054E-04

     total cpu time spent up to now is     3313.6 secs

     total energy              =   -2382.09462092 Ry
     estimated scf accuracy    <       1.53050945 Ry

     total magnetization       =    16.00 Bohr mag/cell
     absolute magnetization    =    16.05 Bohr mag/cell

     iteration #  5     ecut=   100.00 Ry     beta= 0.40
     Davidson diagonalization with overlap
     ethr =  2.54E-04,  avg # of iterations =  1.5

     negative rho (up, down):  0.000E+00 5.201E-04

     total cpu time spent up to now is     3719.3 secs

     total energy              =   -2382.08013283 Ry
     estimated scf accuracy    <       2.14130235 Ry

     total magnetization       =    16.00 Bohr mag/cell
     absolute magnetization    =    16.05 Bohr mag/cell

     iteration #  6     ecut=   100.00 Ry     beta= 0.40
     Davidson diagonalization with overlap
     ethr =  2.54E-04,  avg # of iterations =  2.0

     negative rho (up, down):  0.000E+00 5.400E-04

     total cpu time spent up to now is     6755.8 secs

     total energy              =   -2382.16361808 Ry
     estimated scf accuracy    <       2.25414727 Ry

     total magnetization       =    16.00 Bohr mag/cell
     absolute magnetization    =    16.07 Bohr mag/cell

     iteration #  7     ecut=   100.00 Ry     beta= 0.40
     Davidson diagonalization with overlap
     ethr =  2.54E-04,  avg # of iterations =  1.0

     negative rho (up, down):  0.000E+00 5.578E-04

     total cpu time spent up to now is    12511.3 secs

     total energy              =   -2382.20944443 Ry
     estimated scf accuracy    <       0.07304137 Ry

     total magnetization       =    16.00 Bohr mag/cell
     absolute magnetization    =    16.06 Bohr mag/cell

     iteration #  8     ecut=   100.00 Ry     beta= 0.40
     Davidson diagonalization with overlap
     c_bands:  1 eigenvalues not converged
     c_bands:  1 eigenvalues not converged
     c_bands:  1 eigenvalues not converged
     ethr =  3.38E-05,  avg # of iterations =  3.2

     negative rho (up, down):  0.000E+00 5.568E-04

     total cpu time spent up to now is    18645.7 secs

     total energy              =   -2382.21723246 Ry
     estimated scf accuracy    <       0.33943384 Ry

     total magnetization       =    16.00 Bohr mag/cell
     absolute magnetization    =    16.07 Bohr mag/cell

     iteration #  9     ecut=   100.00 Ry     beta= 0.40
     Davidson diagonalization with overlap
     ethr =  3.38E-05,  avg # of iterations =  1.6

     negative rho (up, down):  0.000E+00 5.561E-04

     total cpu time spent up to now is    24558.7 secs

     total energy              =   -2382.20745688 Ry
     estimated scf accuracy    <       0.42517440 Ry

     total magnetization       =    16.00 Bohr mag/cell
     absolute magnetization    =    16.07 Bohr mag/cell

     iteration # 10     ecut=   100.00 Ry     beta= 0.40
     Davidson diagonalization with overlap
     ethr =  3.38E-05,  avg # of iterations =  1.0

     negative rho (up, down):  0.000E+00 5.554E-04

     total cpu time spent up to now is    30330.2 secs

     total energy              =   -2382.21357475 Ry
     estimated scf accuracy    <       0.08283439 Ry

     total magnetization       =    16.00 Bohr mag/cell
     absolute magnetization    =    16.08 Bohr mag/cell

     iteration # 11     ecut=   100.00 Ry     beta= 0.40
     Davidson diagonalization with overlap
     ethr =  3.38E-05,  avg # of iterations =  1.0

     negative rho (up, down):  0.000E+00 5.474E-04

     total cpu time spent up to now is    36130.8 secs

     total energy              =   -2382.21553574 Ry
     estimated scf accuracy    <       0.07816502 Ry

     total magnetization       =    16.00 Bohr mag/cell
     absolute magnetization    =    16.08 Bohr mag/cell

     iteration # 12     ecut=   100.00 Ry     beta= 0.40
     Davidson diagonalization with overlap
     ethr =  3.38E-05,  avg # of iterations =  1.0

     negative rho (up, down):  0.000E+00 5.400E-04

     total cpu time spent up to now is    41948.9 secs

     total energy              =   -2382.21759339 Ry
     estimated scf accuracy    <       0.05847235 Ry

     total magnetization       =    16.00 Bohr mag/cell
     absolute magnetization    =    16.08 Bohr mag/cell

     iteration # 13     ecut=   100.00 Ry     beta= 0.40
     Davidson diagonalization with overlap
     ethr =  2.71E-05,  avg # of iterations =  1.0

     negative rho (up, down):  0.000E+00 5.429E-04

     total cpu time spent up to now is    47751.6 secs

     total energy              =   -2382.21751189 Ry
     estimated scf accuracy    <       0.03704863 Ry

     total magnetization       =    16.00 Bohr mag/cell
     absolute magnetization    =    16.08 Bohr mag/cell

     iteration # 14     ecut=   100.00 Ry     beta= 0.40
     Davidson diagonalization with overlap
     ethr =  1.72E-05,  avg # of iterations =  1.0

     negative rho (up, down):  0.000E+00 5.412E-04

     total cpu time spent up to now is    53566.6 secs

     total energy              =   -2382.21785536 Ry
     estimated scf accuracy    <       0.03939929 Ry

     total magnetization       =    16.00 Bohr mag/cell
     absolute magnetization    =    16.08 Bohr mag/cell

     iteration # 15     ecut=   100.00 Ry     beta= 0.40
     Davidson diagonalization with overlap
     ethr =  1.72E-05,  avg # of iterations =  1.0

     negative rho (up, down):  0.000E+00 5.324E-04

     total cpu time spent up to now is    59373.1 secs

     total energy              =   -2382.22272095 Ry
     estimated scf accuracy    <       0.03879661 Ry

     total magnetization       =    16.00 Bohr mag/cell
     absolute magnetization    =    16.08 Bohr mag/cell

     iteration # 16     ecut=   100.00 Ry     beta= 0.40
     Davidson diagonalization with overlap
     ethr =  1.72E-05,  avg # of iterations =  2.1

     negative rho (up, down):  0.000E+00 5.331E-04

     total cpu time spent up to now is    65703.3 secs

     total energy              =   -2382.22783666 Ry
     estimated scf accuracy    <       0.00249127 Ry

     total magnetization       =    16.00 Bohr mag/cell
     absolute magnetization    =    16.08 Bohr mag/cell

     iteration # 17     ecut=   100.00 Ry     beta= 0.40
     Davidson diagonalization with overlap
     c_bands:  1 eigenvalues not converged
     c_bands:  1 eigenvalues not converged
     c_bands:  1 eigenvalues not converged
     c_bands:  1 eigenvalues not converged
     c_bands:  1 eigenvalues not converged
     c_bands:  1 eigenvalues not converged
     c_bands:  1 eigenvalues not converged
     c_bands:  1 eigenvalues not converged
     c_bands:  1 eigenvalues not converged
     c_bands:  1 eigenvalues not converged
     c_bands:  1 eigenvalues not converged
     c_bands:  1 eigenvalues not converged
     c_bands:  1 eigenvalues not converged
     ethr =  1.15E-06,  avg # of iterations = 12.5

     negative rho (up, down):  0.000E+00 5.357E-04

     total cpu time spent up to now is    73934.2 secs

     total energy              =   -2382.22837501 Ry
     estimated scf accuracy    <       0.00252145 Ry

     total magnetization       =    16.00 Bohr mag/cell
     absolute magnetization    =    16.08 Bohr mag/cell

     iteration # 18     ecut=   100.00 Ry     beta= 0.40
     Davidson diagonalization with overlap
     ethr =  1.15E-06,  avg # of iterations =  1.6

     negative rho (up, down):  0.000E+00 5.382E-04

     total cpu time spent up to now is    79842.0 secs

     total energy              =   -2382.22843082 Ry
     estimated scf accuracy    <       0.00098330 Ry

     total magnetization       =    16.00 Bohr mag/cell
     absolute magnetization    =    16.08 Bohr mag/cell

     iteration # 19     ecut=   100.00 Ry     beta= 0.40
     Davidson diagonalization with overlap
     ethr =  4.55E-07,  avg # of iterations =  2.4

     negative rho (up, down):  0.000E+00 5.373E-04

     total cpu time spent up to now is    86305.8 secs

     total energy              =   -2382.22872246 Ry
     estimated scf accuracy    <       0.00049312 Ry

     total magnetization       =    16.00 Bohr mag/cell
     absolute magnetization    =    16.08 Bohr mag/cell

     iteration # 20     ecut=   100.00 Ry     beta= 0.40
     Davidson diagonalization with overlap
     ethr =  2.28E-07,  avg # of iterations =  2.0

     negative rho (up, down):  0.000E+00 5.421E-04

     total cpu time spent up to now is    92281.1 secs

     total energy              =   -2382.22878452 Ry
     estimated scf accuracy    <       0.00052980 Ry

     total magnetization       =    16.00 Bohr mag/cell
     absolute magnetization    =    16.08 Bohr mag/cell

     iteration # 21     ecut=   100.00 Ry     beta= 0.40
     Davidson diagonalization with overlap
     ethr =  2.28E-07,  avg # of iterations =  1.5

     negative rho (up, down):  0.000E+00 5.450E-04

     total cpu time spent up to now is    98156.2 secs

     total energy              =   -2382.22887317 Ry
     estimated scf accuracy    <       0.00014229 Ry

     total magnetization       =    16.00 Bohr mag/cell
     absolute magnetization    =    16.08 Bohr mag/cell

     iteration # 22     ecut=   100.00 Ry     beta= 0.40
     Davidson diagonalization with overlap
     ethr =  6.59E-08,  avg # of iterations =  1.9

     negative rho (up, down):  0.000E+00 5.473E-04

     total cpu time spent up to now is   104239.8 secs

     total energy              =   -2382.22891276 Ry
     estimated scf accuracy    <       0.00008570 Ry

     total magnetization       =    16.00 Bohr mag/cell
     absolute magnetization    =    16.08 Bohr mag/cell

     iteration # 23     ecut=   100.00 Ry     beta= 0.40
     Davidson diagonalization with overlap
     ethr =  3.97E-08,  avg # of iterations =  2.0

     negative rho (up, down):  0.000E+00 5.487E-04

     total cpu time spent up to now is   110887.9 secs

     total energy              =   -2382.22876441 Ry
     estimated scf accuracy    <       0.00004128 Ry

     total magnetization       =    16.00 Bohr mag/cell
     absolute magnetization    =    16.08 Bohr mag/cell

     iteration # 24     ecut=   100.00 Ry     beta= 0.40
     Davidson diagonalization with overlap
     ethr =  1.91E-08,  avg # of iterations =  4.2

     negative rho (up, down):  0.000E+00 5.489E-04

     total cpu time spent up to now is   118931.2 secs

     total energy              =   -2382.22900681 Ry
     estimated scf accuracy    <       0.00001960 Ry

     total magnetization       =    16.00 Bohr mag/cell
     absolute magnetization    =    16.07 Bohr mag/cell

     iteration # 25     ecut=   100.00 Ry     beta= 0.40
     Davidson diagonalization with overlap
     ethr =  9.07E-09,  avg # of iterations =  4.0

     negative rho (up, down):  0.000E+00 5.485E-04

     total cpu time spent up to now is   126824.8 secs

     total energy              =   -2382.22918220 Ry
     estimated scf accuracy    <       0.00000686 Ry

     total magnetization       =    16.00 Bohr mag/cell
     absolute magnetization    =    16.07 Bohr mag/cell

     iteration # 26     ecut=   100.00 Ry     beta= 0.40
     Davidson diagonalization with overlap
     ethr =  3.18E-09,  avg # of iterations =  3.0

     negative rho (up, down):  0.000E+00 5.481E-04

     total cpu time spent up to now is   134017.6 secs

     total energy              =   -2382.22917986 Ry
     estimated scf accuracy    <       0.00000553 Ry

     total magnetization       =    16.00 Bohr mag/cell
     absolute magnetization    =    16.07 Bohr mag/cell

     iteration # 27     ecut=   100.00 Ry     beta= 0.40
     Davidson diagonalization with overlap
     ethr =  2.56E-09,  avg # of iterations =  3.9

     negative rho (up, down):  0.000E+00 5.483E-04

     total cpu time spent up to now is   141738.8 secs

     total energy              =   -2382.22921322 Ry
     estimated scf accuracy    <       0.00000075 Ry

     total magnetization       =    16.00 Bohr mag/cell
     absolute magnetization    =    16.07 Bohr mag/cell

     iteration # 28     ecut=   100.00 Ry     beta= 0.40
     Davidson diagonalization with overlap
     ethr =  3.47E-10,  avg # of iterations =  4.0

     negative rho (up, down):  0.000E+00 5.485E-04

     total cpu time spent up to now is   150393.1 secs

     total energy              =   -2382.22922240 Ry
     estimated scf accuracy    <       0.00000232 Ry

     total magnetization       =    16.00 Bohr mag/cell
     absolute magnetization    =    16.07 Bohr mag/cell

     iteration # 29     ecut=   100.00 Ry     beta= 0.40
     Davidson diagonalization with overlap
     ethr =  3.47E-10,  avg # of iterations =  2.0

     negative rho (up, down):  0.000E+00 5.486E-04

     total cpu time spent up to now is   156483.0 secs

     total energy              =   -2382.22922488 Ry
     estimated scf accuracy    <       0.00000015 Ry

     total magnetization       =    16.00 Bohr mag/cell
     absolute magnetization    =    16.07 Bohr mag/cell

     iteration # 30     ecut=   100.00 Ry     beta= 0.40
     Davidson diagonalization with overlap
     ethr =  7.02E-11,  avg # of iterations =  2.3

     negative rho (up, down):  0.000E+00 5.486E-04

     total cpu time spent up to now is   162749.5 secs

     total energy              =   -2382.22922570 Ry
     estimated scf accuracy    <       0.00000006 Ry

     total magnetization       =    16.00 Bohr mag/cell
     absolute magnetization    =    16.07 Bohr mag/cell

     iteration # 31     ecut=   100.00 Ry     beta= 0.40
     Davidson diagonalization with overlap
     ethr =  2.63E-11,  avg # of iterations =  2.9

     negative rho (up, down):  0.000E+00 5.486E-04

     total cpu time spent up to now is   169470.3 secs

     total energy              =   -2382.22922615 Ry
     estimated scf accuracy    <       0.00000004 Ry

     total magnetization       =    16.00 Bohr mag/cell
     absolute magnetization    =    16.07 Bohr mag/cell

     iteration # 32     ecut=   100.00 Ry     beta= 0.40
     Davidson diagonalization with overlap
     ethr =  1.77E-11,  avg # of iterations =  2.0

     negative rho (up, down):  0.000E+00 5.485E-04

     total cpu time spent up to now is   175852.0 secs

     total energy              =   -2382.22922620 Ry
     estimated scf accuracy    <       0.00000003 Ry

     total magnetization       =    16.00 Bohr mag/cell
     absolute magnetization    =    16.07 Bohr mag/cell

     iteration # 33     ecut=   100.00 Ry     beta= 0.40
     Davidson diagonalization with overlap
     ethr =  1.40E-11,  avg # of iterations =  4.0

     negative rho (up, down):  0.000E+00 5.485E-04

     total cpu time spent up to now is   183602.8 secs

     total energy              =   -2382.22922639 Ry
     estimated scf accuracy    <       0.00000003 Ry

     total magnetization       =    16.00 Bohr mag/cell
     absolute magnetization    =    16.07 Bohr mag/cell

     iteration # 34     ecut=   100.00 Ry     beta= 0.40
     Davidson diagonalization with overlap
     ethr =  1.33E-11,  avg # of iterations =  2.0

     negative rho (up, down):  0.000E+00 5.485E-04

     total cpu time spent up to now is   190014.6 secs

     total energy              =   -2382.22922642 Ry
     estimated scf accuracy    <          3.1E-09 Ry

     total magnetization       =    16.00 Bohr mag/cell
     absolute magnetization    =    16.07 Bohr mag/cell

     iteration # 35     ecut=   100.00 Ry     beta= 0.40
     Davidson diagonalization with overlap
     ethr =  1.42E-12,  avg # of iterations =  4.1

     negative rho (up, down):  0.000E+00 5.486E-04

     total cpu time spent up to now is   198186.3 secs

     total energy              =   -2382.22922644 Ry
     estimated scf accuracy    <          3.3E-09 Ry

     total magnetization       =    16.00 Bohr mag/cell
     absolute magnetization    =    16.07 Bohr mag/cell

     iteration # 36     ecut=   100.00 Ry     beta= 0.40
     Davidson diagonalization with overlap
     ethr =  1.42E-12,  avg # of iterations =  2.0

     negative rho (up, down):  0.000E+00 5.486E-04

     total cpu time spent up to now is   204581.3 secs

     total energy              =   -2382.22922645 Ry
     estimated scf accuracy    <          7.4E-10 Ry

     total magnetization       =    16.00 Bohr mag/cell
     absolute magnetization    =    16.07 Bohr mag/cell

     iteration # 37     ecut=   100.00 Ry     beta= 0.40
     Davidson diagonalization with overlap
     ethr =  3.44E-13,  avg # of iterations =  3.9

     negative rho (up, down):  0.000E+00 5.486E-04

     total cpu time spent up to now is   212326.4 secs

     total energy              =   -2382.22922645 Ry
     estimated scf accuracy    <          3.2E-10 Ry

     total magnetization       =    16.00 Bohr mag/cell
     absolute magnetization    =    16.07 Bohr mag/cell

     iteration # 38     ecut=   100.00 Ry     beta= 0.40
     Davidson diagonalization with overlap
     ethr =  1.47E-13,  avg # of iterations =  2.2

     negative rho (up, down):  0.000E+00 5.486E-04

     total cpu time spent up to now is   219184.2 secs

     total energy              =   -2382.22922646 Ry
     estimated scf accuracy    <          2.9E-10 Ry

     total magnetization       =    16.00 Bohr mag/cell
     absolute magnetization    =    16.07 Bohr mag/cell

     iteration # 39     ecut=   100.00 Ry     beta= 0.40
     Davidson diagonalization with overlap
     ethr =  1.35E-13,  avg # of iterations =  2.0

     negative rho (up, down):  0.000E+00 5.486E-04

     total cpu time spent up to now is   225807.2 secs

     total energy              =   -2382.22922646 Ry
     estimated scf accuracy    <          7.2E-10 Ry

     total magnetization       =    16.00 Bohr mag/cell
     absolute magnetization    =    16.07 Bohr mag/cell

     iteration # 40     ecut=   100.00 Ry     beta= 0.40
     Davidson diagonalization with overlap
     ethr =  1.35E-13,  avg # of iterations =  2.0

     negative rho (up, down):  0.000E+00 5.486E-04

     Magnetic moment per site:
     atom:    1    charge:    7.9666    magn:    0.0001    constr:    0.0000
     atom:    2    charge:    7.9666    magn:    0.0001    constr:    0.0000
     atom:    3    charge:    7.9666    magn:    0.0001    constr:    0.0000
     atom:    4    charge:    7.9666    magn:    0.0001    constr:    0.0000
     atom:    5    charge:   13.4183    magn:    3.3773    constr:    0.0000
     atom:    6    charge:   13.4183    magn:    3.3773    constr:    0.0000
     atom:    7    charge:   13.4183    magn:    3.3773    constr:    0.0000
     atom:    8    charge:   13.4183    magn:    3.3773    constr:    0.0000
     atom:    9    charge:    0.8460    magn:    0.0065    constr:    0.0000
     atom:   10    charge:    0.8460    magn:    0.0065    constr:    0.0000
     atom:   11    charge:    0.8460    magn:    0.0065    constr:    0.0000
     atom:   12    charge:    0.8460    magn:    0.0065    constr:    0.0000
     atom:   13    charge:    4.2800    magn:    0.0299    constr:    0.0000
     atom:   14    charge:    4.2800    magn:    0.0299    constr:    0.0000
     atom:   15    charge:    4.2800    magn:    0.0299    constr:    0.0000
     atom:   16    charge:    4.2800    magn:    0.0299    constr:    0.0000
     atom:   17    charge:    4.2620    magn:    0.0397    constr:    0.0000
     atom:   18    charge:    4.2620    magn:    0.0397    constr:    0.0000
     atom:   19    charge:    4.2620    magn:    0.0397    constr:    0.0000
     atom:   20    charge:    4.2620    magn:    0.0397    constr:    0.0000
     atom:   21    charge:    4.2452    magn:    0.0729    constr:    0.0000
     atom:   22    charge:    4.2452    magn:    0.0729    constr:    0.0000
     atom:   23    charge:    4.2450    magn:    0.0729    constr:    0.0000
     atom:   24    charge:    4.2450    magn:    0.0729    constr:    0.0000
     atom:   25    charge:    4.2452    magn:    0.0729    constr:    0.0000
     atom:   26    charge:    4.2452    magn:    0.0729    constr:    0.0000
     atom:   27    charge:    4.2450    magn:    0.0729    constr:    0.0000
     atom:   28    charge:    4.2450    magn:    0.0729    constr:    0.0000

     total cpu time spent up to now is   231968.4 secs

     End of self-consistent calculation

 ------ SPIN UP ------------


          k = 0.0000 0.0000 0.0000 ( 37649 PWs)   bands (ev):

   -81.4697 -81.4696 -81.4696 -81.4695 -48.4148 -48.4147 -48.4142 -48.4140
   -47.2977 -47.2975 -47.2975 -47.2974 -46.8495 -46.8494 -46.8491 -46.8490
   -43.3218 -43.3218 -43.3152 -43.3152 -15.5132 -15.5053 -15.3664 -15.3626
   -15.3295 -15.3275 -15.3179 -15.3148 -15.2684 -15.2683 -15.2470 -15.2468
   -14.6527 -14.4730 -14.3048 -14.1820 -12.2162 -12.1890 -12.1540 -12.1499
   -12.0829 -12.0342 -11.9986 -11.9389 -11.9061 -11.8895 -11.8871 -11.8453
    -2.4266  -2.0615  -1.8714  -1.8629  -0.6083  -0.2909  -0.1585  -0.0465
     0.1033   0.2410   0.4984   0.5090   0.5442   0.5992   0.6302   0.9202
     1.7708   1.9242   2.1680   2.2574   2.4581   2.5694   2.5993   2.6343
     2.6853   2.8385   2.8480   3.0220   3.1341   3.1562   3.1698   3.3322
     3.4227   3.4227   3.4534   3.5709   3.5794   3.6018   3.8732   3.8828
     3.8893   3.9821   4.1226   4.3240   4.4634   4.4738   4.8065   4.8505
     5.0649   5.1011   5.2177   5.3332   5.3975   5.4499   5.5199   5.5276
     5.5509   5.7540   5.9889   6.1070   6.1905   6.2583   6.2655   6.5694
     6.5884   6.6251   6.7344   6.7629   9.7211  11.7285  12.0228  12.6038
    12.9476  13.4078  13.6554  14.0023  14.3838  14.4217  14.5229  14.6178
    14.6529  14.8662

     occupation numbers 
     1.0000   1.0000   1.0000   1.0000   1.0000   1.0000   1.0000   1.0000
     1.0000   1.0000   1.0000   1.0000   1.0000   1.0000   1.0000   1.0000
     1.0000   1.0000   1.0000   1.0000   1.0000   1.0000   1.0000   1.0000
     1.0000   1.0000   1.0000   1.0000   1.0000   1.0000   1.0000   1.0000
     1.0000   1.0000   1.0000   1.0000   1.0000   1.0000   1.0000   1.0000
     1.0000   1.0000   1.0000   1.0000   1.0000   1.0000   1.0000   1.0000
     1.0000   1.0000   1.0000   1.0000   1.0000   1.0000   1.0000   1.0000
     1.0000   1.0000   1.0000   1.0000   1.0000   1.0000   1.0000   1.0000
     1.0000   1.0000   1.0000   1.0000   1.0000   1.0000   1.0000   1.0000
     1.0000   1.0000   1.0000   1.0000   1.0000   1.0000   1.0000   1.0000
     1.0000   1.0000   1.0000   1.0000   1.0000   1.0000   1.0000   1.0000
     1.0000   1.0000   1.0000   1.0000   1.0000   1.0000   1.0000   1.0000
     1.0000   1.0000   1.0000   1.0000   1.0000   1.0000   1.0000   1.0000
     1.0000   1.0000   1.0000   1.0000   1.0000   1.0000   1.0000   1.0000
     1.0000   1.0000   1.0000   1.0000   0.0000   0.0000   0.0000   0.0000
     0.0000   0.0000   0.0000   0.0000   0.0000   0.0000   0.0000   0.0000
     0.0000   0.0000

          k = 0.0000 0.0000 0.2376 ( 37659 PWs)   bands (ev):

   -81.4697 -81.4696 -81.4696 -81.4695 -48.4148 -48.4147 -48.4142 -48.4140
   -47.2977 -47.2975 -47.2975 -47.2974 -46.8495 -46.8494 -46.8491 -46.8490
   -43.3218 -43.3218 -43.3152 -43.3152 -15.5067 -15.4995 -15.3717 -15.3685
   -15.3296 -15.3277 -15.3251 -15.3197 -15.2685 -15.2684 -15.2471 -15.2469
   -14.6197 -14.4508 -14.3091 -14.1936 -12.2280 -12.2010 -12.1843 -12.1450
   -12.0756 -12.0295 -12.0089 -11.9270 -11.9213 -11.8935 -11.8770 -11.8522
    -2.4121  -2.0667  -1.8955  -1.8515  -0.5403  -0.2609  -0.0954   0.0132
     0.1046   0.2581   0.5068   0.5168   0.5506   0.5876   0.6021   0.9008
     1.7685   1.9160   2.1746   2.2123   2.4613   2.4948   2.5738   2.6127
     2.6255   2.7928   2.8854   2.9676   3.1077   3.1167   3.2170   3.3113
     3.3458   3.4351   3.5525   3.6044   3.6175   3.6615   3.8097   3.8591
     3.8596   4.0306   4.1562   4.3442   4.4625   4.5044   4.7975   4.8440
     5.0473   5.1080   5.1799   5.3342   5.4257   5.4393   5.4500   5.4713
     5.5983   5.7737   6.0302   6.1514   6.1954   6.2702   6.2773   6.5429
     6.5630   6.6029   6.7424   6.7561   9.8757  11.7743  12.0884  12.5887
    12.9987  13.2607  13.8231  13.8544  14.2382  14.3746  14.4194  14.5896
    14.6747  14.7605

     occupation numbers 
     1.0000   1.0000   1.0000   1.0000   1.0000   1.0000   1.0000   1.0000
     1.0000   1.0000   1.0000   1.0000   1.0000   1.0000   1.0000   1.0000
     1.0000   1.0000   1.0000   1.0000   1.0000   1.0000   1.0000   1.0000
     1.0000   1.0000   1.0000   1.0000   1.0000   1.0000   1.0000   1.0000
     1.0000   1.0000   1.0000   1.0000   1.0000   1.0000   1.0000   1.0000
     1.0000   1.0000   1.0000   1.0000   1.0000   1.0000   1.0000   1.0000
     1.0000   1.0000   1.0000   1.0000   1.0000   1.0000   1.0000   1.0000
     1.0000   1.0000   1.0000   1.0000   1.0000   1.0000   1.0000   1.0000
     1.0000   1.0000   1.0000   1.0000   1.0000   1.0000   1.0000   1.0000
     1.0000   1.0000   1.0000   1.0000   1.0000   1.0000   1.0000   1.0000
     1.0000   1.0000   1.0000   1.0000   1.0000   1.0000   1.0000   1.0000
     1.0000   1.0000   1.0000   1.0000   1.0000   1.0000   1.0000   1.0000
     1.0000   1.0000   1.0000   1.0000   1.0000   1.0000   1.0000   1.0000
     1.0000   1.0000   1.0000   1.0000   1.0000   1.0000   1.0000   1.0000
     1.0000   1.0000   1.0000   1.0000   0.0000   0.0000   0.0000   0.0000
     0.0000   0.0000   0.0000   0.0000   0.0000   0.0000   0.0000   0.0000
     0.0000   0.0000

          k = 0.0000 0.0000 0.4753 ( 37654 PWs)   bands (ev):

   -81.4697 -81.4696 -81.4696 -81.4695 -48.4148 -48.4146 -48.4142 -48.4141
   -47.2977 -47.2975 -47.2975 -47.2974 -46.8495 -46.8494 -46.8492 -46.8490
   -43.3218 -43.3218 -43.3152 -43.3152 -15.4920 -15.4863 -15.3896 -15.3864
   -15.3318 -15.3296 -15.3281 -15.3250 -15.2686 -15.2685 -15.2473 -15.2472
   -14.5371 -14.3978 -14.3192 -14.2249 -12.2684 -12.2285 -12.2217 -12.1737
   -12.0545 -12.0220 -12.0159 -11.9467 -11.9055 -11.9021 -11.8719 -11.8645
    -2.3678  -2.0730  -1.9375  -1.8634  -0.3437  -0.1715   0.0491   0.1142
     0.1650   0.2987   0.5074   0.5241   0.5437   0.5884   0.6037   0.8430
     1.7578   1.8979   2.1022   2.1951   2.3762   2.4607   2.4634   2.4816
     2.5695   2.6729   2.9323   2.9473   3.0141   3.0900   3.0922   3.2512
     3.2668   3.4187   3.6166   3.6639   3.7646   3.7750   3.7908   3.8307
     3.8844   4.1072   4.1465   4.4185   4.4574   4.5851   4.7975   4.8196
     5.0218   5.1098   5.1155   5.3269   5.3330   5.3473   5.4132   5.4701
     5.7108   5.8438   6.0972   6.2122   6.2338   6.2897   6.3181   6.4877
     6.4965   6.5365   6.7397   6.7503  10.2823  11.9037  12.1957  12.6299
    13.1126  13.1305  13.4630  13.9436  14.1759  14.2124  14.2204  14.3419
    14.6884  14.7524

     occupation numbers 
     1.0000   1.0000   1.0000   1.0000   1.0000   1.0000   1.0000   1.0000
     1.0000   1.0000   1.0000   1.0000   1.0000   1.0000   1.0000   1.0000
     1.0000   1.0000   1.0000   1.0000   1.0000   1.0000   1.0000   1.0000
     1.0000   1.0000   1.0000   1.0000   1.0000   1.0000   1.0000   1.0000
     1.0000   1.0000   1.0000   1.0000   1.0000   1.0000   1.0000   1.0000
     1.0000   1.0000   1.0000   1.0000   1.0000   1.0000   1.0000   1.0000
     1.0000   1.0000   1.0000   1.0000   1.0000   1.0000   1.0000   1.0000
     1.0000   1.0000   1.0000   1.0000   1.0000   1.0000   1.0000   1.0000
     1.0000   1.0000   1.0000   1.0000   1.0000   1.0000   1.0000   1.0000
     1.0000   1.0000   1.0000   1.0000   1.0000   1.0000   1.0000   1.0000
     1.0000   1.0000   1.0000   1.0000   1.0000   1.0000   1.0000   1.0000
     1.0000   1.0000   1.0000   1.0000   1.0000   1.0000   1.0000   1.0000
     1.0000   1.0000   1.0000   1.0000   1.0000   1.0000   1.0000   1.0000
     1.0000   1.0000   1.0000   1.0000   1.0000   1.0000   1.0000   1.0000
     1.0000   1.0000   1.0000   1.0000   0.0000   0.0000   0.0000   0.0000
     0.0000   0.0000   0.0000   0.0000   0.0000   0.0000   0.0000   0.0000
     0.0000   0.0000

          k = 0.0000 0.0000 0.7129 ( 37702 PWs)   bands (ev):

   -81.4697 -81.4696 -81.4696 -81.4695 -48.4147 -48.4146 -48.4143 -48.4142
   -47.2977 -47.2975 -47.2975 -47.2974 -46.8494 -46.8493 -46.8492 -46.8491
   -43.3218 -43.3218 -43.3152 -43.3151 -15.4814 -15.4771 -15.4061 -15.4041
   -15.3297 -15.3297 -15.3287 -15.3246 -15.2687 -15.2687 -15.2476 -15.2474
   -14.4391 -14.3461 -14.3275 -14.2653 -12.3183 -12.2790 -12.2403 -12.2197
   -12.0227 -12.0216 -11.9952 -11.9723 -11.9244 -11.9021 -11.8779 -11.8561
    -2.2933  -2.0641  -2.0007  -1.9121  -0.0677  -0.0323   0.1452   0.1525
     0.3273   0.3506   0.4153   0.5003   0.5264   0.7340   0.7392   0.7546
     1.7289   1.8923   1.9604   2.2176   2.2333   2.3190   2.3970   2.4402
     2.4837   2.5351   2.6647   2.8624   2.9827   3.0951   3.1068   3.2172
     3.2761   3.3512   3.5365   3.5462   3.8434   3.8715   3.9220   3.9556
     3.9758   4.1785   4.2041   4.4157   4.4334   4.6522   4.7965   4.8828
     5.0191   5.0375   5.1227   5.2106   5.2385   5.2901   5.4097   5.4866
     5.8612   5.9692   6.1444   6.2367   6.2836   6.2921   6.3669   6.3859
     6.4284   6.4778   6.7244   6.7459  10.8233  12.1061  12.1376  12.7921
    13.0770  13.0878  13.3729  13.7455  13.8039  14.1147  14.1957  14.2782
    14.3706  14.7081

     occupation numbers 
     1.0000   1.0000   1.0000   1.0000   1.0000   1.0000   1.0000   1.0000
     1.0000   1.0000   1.0000   1.0000   1.0000   1.0000   1.0000   1.0000
     1.0000   1.0000   1.0000   1.0000   1.0000   1.0000   1.0000   1.0000
     1.0000   1.0000   1.0000   1.0000   1.0000   1.0000   1.0000   1.0000
     1.0000   1.0000   1.0000   1.0000   1.0000   1.0000   1.0000   1.0000
     1.0000   1.0000   1.0000   1.0000   1.0000   1.0000   1.0000   1.0000
     1.0000   1.0000   1.0000   1.0000   1.0000   1.0000   1.0000   1.0000
     1.0000   1.0000   1.0000   1.0000   1.0000   1.0000   1.0000   1.0000
     1.0000   1.0000   1.0000   1.0000   1.0000   1.0000   1.0000   1.0000
     1.0000   1.0000   1.0000   1.0000   1.0000   1.0000   1.0000   1.0000
     1.0000   1.0000   1.0000   1.0000   1.0000   1.0000   1.0000   1.0000
     1.0000   1.0000   1.0000   1.0000   1.0000   1.0000   1.0000   1.0000
     1.0000   1.0000   1.0000   1.0000   1.0000   1.0000   1.0000   1.0000
     1.0000   1.0000   1.0000   1.0000   1.0000   1.0000   1.0000   1.0000
     1.0000   1.0000   1.0000   1.0000   0.0000   0.0000   0.0000   0.0000
     0.0000   0.0000   0.0000   0.0000   0.0000   0.0000   0.0000   0.0000
     0.0000   0.0000

          k = 0.0000 0.0000 0.9505 ( 37742 PWs)   bands (ev):

   -81.4697 -81.4696 -81.4696 -81.4695 -48.4146 -48.4145 -48.4144 -48.4143
   -47.2977 -47.2975 -47.2975 -47.2974 -46.8494 -46.8493 -46.8493 -46.8491
   -43.3218 -43.3218 -43.3152 -43.3151 -15.4805 -15.4786 -15.4096 -15.4092
   -15.3296 -15.3293 -15.3248 -15.3230 -15.2688 -15.2688 -15.2477 -15.2476
   -14.3617 -14.3299 -14.3228 -14.2999 -12.3441 -12.3272 -12.2514 -12.2471
   -12.0112 -11.9944 -11.9849 -11.9695 -11.9499 -11.9380 -11.8614 -11.8543
    -2.1950  -2.0897  -2.0318  -1.9774   0.0797   0.1546   0.1998   0.2079
     0.3021   0.3274   0.4407   0.5127   0.5761   0.6571   0.8937   0.8988
     1.7109   1.7996   1.9247   2.0400   2.2148   2.2736   2.2968   2.3838
     2.3927   2.4321   2.6012   2.7032   3.0447   3.0882   3.1603   3.1791
     3.3233   3.3470   3.4124   3.4387   3.8905   3.9199   3.9371   3.9779
     4.1594   4.2733   4.3120   4.3713   4.3933   4.5685   4.8648   4.9504
     5.0435   5.0522   5.1178   5.1364   5.1697   5.1854   5.4396   5.4717
     6.0346   6.1258   6.1835   6.2103   6.2246   6.2863   6.2879   6.3058
     6.4474   6.4755   6.7219   6.7326  11.3854  11.8592  12.3664  12.6339
    13.1221  13.1790  13.4020  13.5324  13.7347  13.9924  14.1177  14.1911
    14.2659  14.4655

     occupation numbers 
     1.0000   1.0000   1.0000   1.0000   1.0000   1.0000   1.0000   1.0000
     1.0000   1.0000   1.0000   1.0000   1.0000   1.0000   1.0000   1.0000
     1.0000   1.0000   1.0000   1.0000   1.0000   1.0000   1.0000   1.0000
     1.0000   1.0000   1.0000   1.0000   1.0000   1.0000   1.0000   1.0000
     1.0000   1.0000   1.0000   1.0000   1.0000   1.0000   1.0000   1.0000
     1.0000   1.0000   1.0000   1.0000   1.0000   1.0000   1.0000   1.0000
     1.0000   1.0000   1.0000   1.0000   1.0000   1.0000   1.0000   1.0000
     1.0000   1.0000   1.0000   1.0000   1.0000   1.0000   1.0000   1.0000
     1.0000   1.0000   1.0000   1.0000   1.0000   1.0000   1.0000   1.0000
     1.0000   1.0000   1.0000   1.0000   1.0000   1.0000   1.0000   1.0000
     1.0000   1.0000   1.0000   1.0000   1.0000   1.0000   1.0000   1.0000
     1.0000   1.0000   1.0000   1.0000   1.0000   1.0000   1.0000   1.0000
     1.0000   1.0000   1.0000   1.0000   1.0000   1.0000   1.0000   1.0000
     1.0000   1.0000   1.0000   1.0000   1.0000   1.0000   1.0000   1.0000
     1.0000   1.0000   1.0000   1.0000   0.0000   0.0000   0.0000   0.0000
     0.0000   0.0000   0.0000   0.0000   0.0000   0.0000   0.0000   0.0000
     0.0000   0.0000

          k = 0.0000 0.2391 0.0000 ( 37676 PWs)   bands (ev):

   -81.4697 -81.4696 -81.4696 -81.4695 -48.4148 -48.4147 -48.4142 -48.4141
   -47.2977 -47.2975 -47.2975 -47.2974 -46.8495 -46.8494 -46.8491 -46.8490
   -43.3215 -43.3215 -43.3155 -43.3155 -15.5031 -15.4961 -15.3642 -15.3606
   -15.3323 -15.3301 -15.3146 -15.3117 -15.2831 -15.2817 -15.2512 -15.2511
   -14.6255 -14.4593 -14.3086 -14.2035 -12.2103 -12.1862 -12.1543 -12.1539
   -12.0750 -12.0611 -12.0288 -11.9354 -11.8881 -11.8839 -11.8658 -11.8607
    -2.3937  -2.0385  -1.8848  -1.8633  -0.5679  -0.2695  -0.1432  -0.0582
     0.1445   0.2434   0.4387   0.4886   0.6016   0.6075   0.6555   0.8936
     1.7804   1.9309   2.1629   2.2112   2.3602   2.5181   2.5291   2.6572
     2.6974   2.8002   2.9438   3.0550   3.0623   3.0718   3.1784   3.3898
     3.3998   3.4673   3.5017   3.5018   3.6426   3.6867   3.7619   3.8885
     3.9431   3.9956   4.1031   4.3012   4.4454   4.4618   4.7758   4.8583
     5.0331   5.0597   5.1476   5.2332   5.3329   5.4905   5.5141   5.6115
     5.6454   5.7212   6.1044   6.1359   6.1896   6.2435   6.2665   6.4264
     6.4267   6.7318   6.7947   6.8192   9.8918  11.8243  12.1251  12.5736
    13.0320  13.4869  13.6022  13.9066  14.3857  14.4743  14.5037  14.5710
    14.6789  14.9278

     occupation numbers 
     1.0000   1.0000   1.0000   1.0000   1.0000   1.0000   1.0000   1.0000
     1.0000   1.0000   1.0000   1.0000   1.0000   1.0000   1.0000   1.0000
     1.0000   1.0000   1.0000   1.0000   1.0000   1.0000   1.0000   1.0000
     1.0000   1.0000   1.0000   1.0000   1.0000   1.0000   1.0000   1.0000
     1.0000   1.0000   1.0000   1.0000   1.0000   1.0000   1.0000   1.0000
     1.0000   1.0000   1.0000   1.0000   1.0000   1.0000   1.0000   1.0000
     1.0000   1.0000   1.0000   1.0000   1.0000   1.0000   1.0000   1.0000
     1.0000   1.0000   1.0000   1.0000   1.0000   1.0000   1.0000   1.0000
     1.0000   1.0000   1.0000   1.0000   1.0000   1.0000   1.0000   1.0000
     1.0000   1.0000   1.0000   1.0000   1.0000   1.0000   1.0000   1.0000
     1.0000   1.0000   1.0000   1.0000   1.0000   1.0000   1.0000   1.0000
     1.0000   1.0000   1.0000   1.0000   1.0000   1.0000   1.0000   1.0000
     1.0000   1.0000   1.0000   1.0000   1.0000   1.0000   1.0000   1.0000
     1.0000   1.0000   1.0000   1.0000   1.0000   1.0000   1.0000   1.0000
     1.0000   1.0000   1.0000   1.0000   0.0000   0.0000   0.0000   0.0000
     0.0000   0.0000   0.0000   0.0000   0.0000   0.0000   0.0000   0.0000
     0.0000   0.0000

          k = 0.0000 0.2391 0.2376 ( 37671 PWs)   bands (ev):

   -81.4697 -81.4696 -81.4696 -81.4695 -48.4148 -48.4147 -48.4142 -48.4141
   -47.2977 -47.2975 -47.2975 -47.2974 -46.8495 -46.8494 -46.8491 -46.8490
   -43.3215 -43.3215 -43.3155 -43.3155 -15.4969 -15.4905 -15.3693 -15.3662
   -15.3327 -15.3314 -15.3211 -15.3167 -15.2810 -15.2803 -15.2515 -15.2513
   -14.5955 -14.4391 -14.3120 -14.2130 -12.2232 -12.1998 -12.1860 -12.1475
   -12.0682 -12.0530 -12.0350 -11.9267 -11.9101 -11.8737 -11.8682 -11.8640
    -2.3796  -2.0435  -1.9000  -1.8583  -0.5017  -0.2403  -0.0818   0.0007
     0.1447   0.2599   0.4494   0.5059   0.5881   0.6037   0.6307   0.8752
     1.7761   1.9153   2.1409   2.2211   2.3088   2.4753   2.5112   2.6012
     2.6428   2.8453   2.9381   2.9701   3.0345   3.0848   3.2465   3.3596
     3.3705   3.4160   3.5286   3.5869   3.6920   3.7006   3.7194   3.8850
     3.9057   4.0387   4.1251   4.3122   4.4669   4.4721   4.7686   4.8483
     5.0209   5.0368   5.1480   5.2526   5.3398   5.4813   5.5178   5.5588
     5.6217   5.7362   6.1454   6.1770   6.1950   6.2574   6.2774   6.3916
     6.4141   6.7101   6.7895   6.8231  10.0402  11.8712  12.1966  12.5870
    13.0609  13.3130  13.7362  13.8317  14.3057  14.3487  14.3954  14.6362
    14.6970  14.8386

     occupation numbers 
     1.0000   1.0000   1.0000   1.0000   1.0000   1.0000   1.0000   1.0000
     1.0000   1.0000   1.0000   1.0000   1.0000   1.0000   1.0000   1.0000
     1.0000   1.0000   1.0000   1.0000   1.0000   1.0000   1.0000   1.0000
     1.0000   1.0000   1.0000   1.0000   1.0000   1.0000   1.0000   1.0000
     1.0000   1.0000   1.0000   1.0000   1.0000   1.0000   1.0000   1.0000
     1.0000   1.0000   1.0000   1.0000   1.0000   1.0000   1.0000   1.0000
     1.0000   1.0000   1.0000   1.0000   1.0000   1.0000   1.0000   1.0000
     1.0000   1.0000   1.0000   1.0000   1.0000   1.0000   1.0000   1.0000
     1.0000   1.0000   1.0000   1.0000   1.0000   1.0000   1.0000   1.0000
     1.0000   1.0000   1.0000   1.0000   1.0000   1.0000   1.0000   1.0000
     1.0000   1.0000   1.0000   1.0000   1.0000   1.0000   1.0000   1.0000
     1.0000   1.0000   1.0000   1.0000   1.0000   1.0000   1.0000   1.0000
     1.0000   1.0000   1.0000   1.0000   1.0000   1.0000   1.0000   1.0000
     1.0000   1.0000   1.0000   1.0000   1.0000   1.0000   1.0000   1.0000
     1.0000   1.0000   1.0000   1.0000   0.0000   0.0000   0.0000   0.0000
     0.0000   0.0000   0.0000   0.0000   0.0000   0.0000   0.0000   0.0000
     0.0000   0.0000

          k = 0.0000 0.2391 0.4753 ( 37686 PWs)   bands (ev):

   -81.4697 -81.4696 -81.4696 -81.4695 -48.4147 -48.4146 -48.4143 -48.4141
   -47.2977 -47.2975 -47.2975 -47.2974 -46.8494 -46.8493 -46.8492 -46.8490
   -43.3215 -43.3214 -43.3155 -43.3155 -15.4827 -15.4776 -15.3860 -15.3831
   -15.3342 -15.3334 -15.3258 -15.3216 -15.2790 -15.2787 -15.2521 -15.2519
   -14.5195 -14.3905 -14.3199 -14.2386 -12.2632 -12.2296 -12.2255 -12.1785
   -12.0495 -12.0391 -12.0320 -11.9382 -11.9068 -11.8935 -11.8758 -11.8566
    -2.3364  -2.0501  -1.9328  -1.8710  -0.3100  -0.1549   0.0596   0.1245
     0.1790   0.2967   0.4757   0.5426   0.5588   0.5953   0.6175   0.8222
     1.7549   1.8875   2.0645   2.2130   2.2386   2.3806   2.4220   2.4986
     2.6011   2.7875   2.8850   2.9380   3.0261   3.0529   3.1426   3.2553
     3.3414   3.3946   3.5823   3.6222   3.7441   3.7923   3.8088   3.8605
     3.9264   4.1067   4.1115   4.3539   4.4910   4.5396   4.7466   4.8305
     4.9922   4.9984   5.1492   5.2703   5.3592   5.4388   5.4540   5.5014
     5.6662   5.7808   6.2011   6.2121   6.2530   6.2863   6.3218   6.3299
     6.3522   6.6597   6.7781   6.8249  10.4336  12.0027  12.3247  12.6717
    13.1574  13.1889  13.3924  13.9872  14.1586  14.1973  14.3097  14.3584
    14.6596  14.7233

     occupation numbers 
     1.0000   1.0000   1.0000   1.0000   1.0000   1.0000   1.0000   1.0000
     1.0000   1.0000   1.0000   1.0000   1.0000   1.0000   1.0000   1.0000
     1.0000   1.0000   1.0000   1.0000   1.0000   1.0000   1.0000   1.0000
     1.0000   1.0000   1.0000   1.0000   1.0000   1.0000   1.0000   1.0000
     1.0000   1.0000   1.0000   1.0000   1.0000   1.0000   1.0000   1.0000
     1.0000   1.0000   1.0000   1.0000   1.0000   1.0000   1.0000   1.0000
     1.0000   1.0000   1.0000   1.0000   1.0000   1.0000   1.0000   1.0000
     1.0000   1.0000   1.0000   1.0000   1.0000   1.0000   1.0000   1.0000
     1.0000   1.0000   1.0000   1.0000   1.0000   1.0000   1.0000   1.0000
     1.0000   1.0000   1.0000   1.0000   1.0000   1.0000   1.0000   1.0000
     1.0000   1.0000   1.0000   1.0000   1.0000   1.0000   1.0000   1.0000
     1.0000   1.0000   1.0000   1.0000   1.0000   1.0000   1.0000   1.0000
     1.0000   1.0000   1.0000   1.0000   1.0000   1.0000   1.0000   1.0000
     1.0000   1.0000   1.0000   1.0000   1.0000   1.0000   1.0000   1.0000
     1.0000   1.0000   1.0000   1.0000   0.0000   0.0000   0.0000   0.0000
     0.0000   0.0000   0.0000   0.0000   0.0000   0.0000   0.0000   0.0000
     0.0000   0.0000

          k = 0.0000 0.2391 0.7129 ( 37698 PWs)   bands (ev):

[...]
     atom    8 type  1   force =     3.19867775    0.00049731    1.00736833
     atom    9 type  4   force =    -0.86846571    0.00005891    1.20229807
     atom   10 type  4   force =     0.86853532   -0.00011085    1.20222063
     atom   11 type  4   force =     0.86850856   -0.00010352   -1.20226342
     atom   12 type  4   force =    -0.86852128    0.00010749   -1.20222136
     atom   13 type  3   force =    -3.82484266    0.00009817    1.49819987
     atom   14 type  3   force =     3.82493067   -0.00013081    1.49822417
     atom   15 type  3   force =     3.82487656   -0.00011563   -1.49821162
     atom   16 type  3   force =    -3.82495376    0.00010471   -1.49820083
     atom   17 type  3   force =    -1.22615965    0.00008417    2.53313523
     atom   18 type  3   force =     1.22614113   -0.00007684    2.53312738
     atom   19 type  3   force =     1.22610712   -0.00008581   -2.53312285
     atom   20 type  3   force =    -1.22634708    0.00006415   -2.53308232
     atom   21 type  3   force =     0.38743581    1.61716732   -1.29322943
     atom   22 type  3   force =    -0.38740451   -1.61722701   -1.29318070
     atom   23 type  3   force =    -0.38717721    1.61710250    1.29303300
     atom   24 type  3   force =     0.38721229   -1.61716054    1.29296096
     atom   25 type  3   force =    -0.38736500   -1.61725561    1.29315389
     atom   26 type  3   force =     0.38740059    1.61719065    1.29319932
     atom   27 type  3   force =     0.38723114   -1.61707714   -1.29295544
     atom   28 type  3   force =    -0.38721823    1.61706796   -1.29306039
     The local contribution  to forces
     atom    1 type  2   force =    -0.00000000    0.00000000    0.00000000
     atom    2 type  2   force =    -0.00000000   -0.00000000   -0.00000000
     atom    3 type  2   force =     0.00000000    0.00000000    0.00000000
     atom    4 type  2   force =    -0.00000000    0.00000000   -0.00000000
     atom    5 type  1   force =    -3.15826277   -0.00045636    0.97950814
     atom    6 type  1   force =     3.16030864    0.00045141    0.97948581
     atom    7 type  1   force =     3.15826277    0.00045636   -0.97950814
     atom    8 type  1   force =    -3.15652475   -0.00045141   -0.97945808
     atom    9 type  4   force =     0.84960203   -0.00008128   -1.16637631
     atom   10 type  4   force =    -0.84964428    0.00010198   -1.16632481
     atom   11 type  4   force =    -0.84960255    0.00007413    1.16638174
     atom   12 type  4   force =     0.84964428   -0.00010912    1.16632481
     atom   13 type  3   force =     3.64631541   -0.00037924    0.00775818
     atom   14 type  3   force =    -3.64598936   -0.00013417    0.00778102
     atom   15 type  3   force =    -3.64631542   -0.00014547   -0.00775818
     atom   16 type  3   force =     3.64680377   -0.00039054   -0.00774075
     atom   17 type  3   force =    -0.00960648   -0.00008858   -1.90553194
     atom   18 type  3   force =     0.00952278    0.00007194   -1.90531045
     atom   19 type  3   force =     0.00960648    0.00008858    1.90553194
     atom   20 type  3   force =    -0.00950133   -0.00007194    1.90570863
     atom   21 type  3   force =     0.31082855   -0.63125763    0.63362039
     atom   22 type  3   force =    -0.31037147    0.63079905    0.63356744
     atom   23 type  3   force =    -0.31057974   -0.63113535   -0.63343122
     atom   24 type  3   force =     0.31054242    0.63071826   -0.63340439
     atom   25 type  3   force =    -0.30993753    0.63077886   -0.63356159
     atom   26 type  3   force =     0.31039493   -0.63123857   -0.63360364
     atom   27 type  3   force =     0.31055629    0.63069583    0.63339501
     atom   28 type  3   force =    -0.31056587   -0.63115778    0.63344060
     The core correction contribution to forces
     atom    1 type  2   force =     0.00000000    0.00000000    0.00000000
     atom    2 type  2   force =     0.00000000    0.00000000    0.00000000
     atom    3 type  2   force =     0.00000000    0.00000000    0.00000000
     atom    4 type  2   force =     0.00000000    0.00000000    0.00000000
     atom    5 type  1   force =     0.00291215   -0.00000344   -0.00165114
     atom    6 type  1   force =    -0.00297878    0.00000347   -0.00165017
     atom    7 type  1   force =    -0.00291215    0.00000344    0.00165114
     atom    8 type  1   force =     0.00284524   -0.00000347    0.00165240
     atom    9 type  4   force =    -0.00151089    0.00000109    0.00400461
     atom   10 type  4   force =     0.00150906    0.00000051    0.00400532
     atom   11 type  4   force =     0.00150833    0.00000032   -0.00400463
     atom   12 type  4   force =    -0.00150906    0.00000090   -0.00400532
     atom   13 type  3   force =    -0.00229788   -0.00000020    0.01304909
     atom   14 type  3   force =     0.00229820   -0.00000007    0.01304897
     atom   15 type  3   force =     0.00229788   -0.00000008   -0.01304909
     atom   16 type  3   force =    -0.00229754   -0.00000021   -0.01304907
     atom   17 type  3   force =    -0.01105451    0.00000002    0.00632030
     atom   18 type  3   force =     0.01105456   -0.00000005    0.00632037
     atom   19 type  3   force =     0.01105451   -0.00000002   -0.00632030
     atom   20 type  3   force =    -0.01105447    0.00000005   -0.00632009
     atom   21 type  3   force =     0.00650736    0.00899820   -0.00630798
     atom   22 type  3   force =    -0.00650730   -0.00899878   -0.00630801
     atom   23 type  3   force =    -0.00650697    0.00899792    0.00630763
     atom   24 type  3   force =     0.00650712   -0.00899864    0.00630779
     atom   25 type  3   force =    -0.00650691   -0.00899860    0.00630780
     atom   26 type  3   force =     0.00650711    0.00899808    0.00630792
     atom   27 type  3   force =     0.00650716   -0.00899863   -0.00630772
     atom   28 type  3   force =    -0.00650694    0.00899794   -0.00630771
     The Hubbard contrib.    to forces
     atom    1 type  2   force =     0.00000000    0.00000000    0.00000000
     atom    2 type  2   force =     0.00000000    0.00000000    0.00000000
     atom    3 type  2   force =     0.00000000    0.00000000    0.00000000
     atom    4 type  2   force =     0.00000000    0.00000000    0.00000000
     atom    5 type  1   force =     0.00000000    0.00000000    0.00000000
     atom    6 type  1   force =     0.00000000    0.00000000    0.00000000
     atom    7 type  1   force =     0.00000000    0.00000000    0.00000000
     atom    8 type  1   force =     0.00000000    0.00000000    0.00000000
     atom    9 type  4   force =     0.00000000    0.00000000    0.00000000
     atom   10 type  4   force =     0.00000000    0.00000000    0.00000000
     atom   11 type  4   force =     0.00000000    0.00000000    0.00000000
     atom   12 type  4   force =     0.00000000    0.00000000    0.00000000
     atom   13 type  3   force =     0.00000000    0.00000000    0.00000000
     atom   14 type  3   force =     0.00000000    0.00000000    0.00000000
     atom   15 type  3   force =     0.00000000    0.00000000    0.00000000
     atom   16 type  3   force =     0.00000000    0.00000000    0.00000000
     atom   17 type  3   force =     0.00000000    0.00000000    0.00000000
     atom   18 type  3   force =     0.00000000    0.00000000    0.00000000
     atom   19 type  3   force =     0.00000000    0.00000000    0.00000000
     atom   20 type  3   force =     0.00000000    0.00000000    0.00000000
     atom   21 type  3   force =     0.00000000    0.00000000    0.00000000
     atom   22 type  3   force =     0.00000000    0.00000000    0.00000000
     atom   23 type  3   force =     0.00000000    0.00000000    0.00000000
     atom   24 type  3   force =     0.00000000    0.00000000    0.00000000
     atom   25 type  3   force =     0.00000000    0.00000000    0.00000000
     atom   26 type  3   force =     0.00000000    0.00000000    0.00000000
     atom   27 type  3   force =     0.00000000    0.00000000    0.00000000
     atom   28 type  3   force =     0.00000000    0.00000000    0.00000000
     The SCF correction term to forces
     atom    1 type  2   force =     0.00000000   -0.00000000    0.00000000
     atom    2 type  2   force =     0.00000000   -0.00000000    0.00000000
     atom    3 type  2   force =    -0.00000000   -0.00000000    0.00000000
     atom    4 type  2   force =     0.00000000    0.00000000    0.00000000
     atom    5 type  1   force =     0.00000062    0.00000008    0.00000076
     atom    6 type  1   force =    -0.00000024   -0.00000014   -0.00000024
     atom    7 type  1   force =    -0.00000062   -0.00000008   -0.00000076
     atom    8 type  1   force =     0.00000024    0.00000014    0.00000024
     atom    9 type  4   force =     0.00000019    0.00000001   -0.00000015
     atom   10 type  4   force =     0.00000014   -0.00000002    0.00000005
     atom   11 type  4   force =    -0.00000019   -0.00000001    0.00000015
     atom   12 type  4   force =    -0.00000014    0.00000002   -0.00000005
     atom   13 type  3   force =    -0.00000005    0.00000011    0.00000012
     atom   14 type  3   force =    -0.00000004   -0.00000011   -0.00000005
     atom   15 type  3   force =     0.00000005   -0.00000011   -0.00000012
     atom   16 type  3   force =     0.00000004    0.00000011    0.00000005
     atom   17 type  3   force =    -0.00000068    0.00000002    0.00000021
     atom   18 type  3   force =     0.00000041   -0.00000002    0.00000045
     atom   19 type  3   force =     0.00000068   -0.00000002   -0.00000021
     atom   20 type  3   force =    -0.00000041    0.00000002   -0.00000045
     atom   21 type  3   force =     0.00000046   -0.00000054   -0.00000000
     atom   22 type  3   force =    -0.00000038   -0.00000015   -0.00000015
     atom   23 type  3   force =    -0.00000034    0.00000002   -0.00000021
     atom   24 type  3   force =     0.00000007   -0.00000046   -0.00000029
     atom   25 type  3   force =    -0.00000046    0.00000054    0.00000000
     atom   26 type  3   force =     0.00000038    0.00000015    0.00000015
     atom   27 type  3   force =     0.00000034   -0.00000002    0.00000021
     atom   28 type  3   force =    -0.00000007    0.00000046    0.00000029

     Total force =     0.105440     Total SCF correction =     0.000003


     Computing stress (Cartesian axis) and pressure


     negative rho (up, down):  0.000E+00 5.486E-04
          total   stress  (Ry/bohr**3)                   (kbar)     P=      -16.13
  -0.00021597  -0.00000002   0.00000000          -31.77       -0.00        0.00
  -0.00000002  -0.00021754  -0.00000001           -0.00      -32.00       -0.00
   0.00000000  -0.00000001   0.00010453            0.00       -0.00       15.38

     kinetic stress (kbar)  31116.97     -0.01      0.00
                               -0.01  30983.82     -0.00
                                0.00     -0.00  31114.44

     local   stress (kbar)  -4048.01     -0.06     -0.01
                               -0.06  -6266.32      0.02
                               -0.01      0.02  -1907.32

     nonloc. stress (kbar)  -9307.21     -0.00      0.00
                               -0.00  -9416.00     -0.00
                                0.00     -0.00  -9258.00

     hartree stress (kbar)  14234.45      0.02      0.00
                                0.02  15202.97     -0.01
                                0.00     -0.01  13119.91

     exc-cor stress (kbar)  -3521.24     -0.00      0.00
                               -0.00  -3526.92     -0.00
                                0.00     -0.00  -3518.72

     corecor stress (kbar)  -3019.00      0.00     -0.00
                                0.00  -3001.18      0.00
                               -0.00      0.00  -3024.78

     ewald   stress (kbar) -25487.72      0.06      0.00
                                0.06 -24008.37     -0.01
                                0.00     -0.01 -26510.16

     hubbard stress (kbar)      0.00      0.00      0.00
                                0.00      0.00      0.00
                                0.00      0.00      0.00

     DFT-D   stress (kbar)      0.00      0.00      0.00
                                0.00      0.00      0.00
                                0.00      0.00      0.00

     XDM     stress (kbar)      0.00      0.00      0.00
                                0.00      0.00      0.00
                                0.00      0.00      0.00

     dft-nl  stress (kbar)      0.00      0.00      0.00
                                0.00      0.00      0.00
                                0.00      0.00      0.00

     TS-vdW  stress (kbar)      0.00      0.00      0.00
                                0.00      0.00      0.00
                                0.00      0.00      0.00



     init_run     :    408.37s CPU    415.58s WALL (       1 calls)
     electrons    : 212249.83s CPU 231551.52s WALL (       1 calls)
     forces       :    302.31s CPU    303.96s WALL (       1 calls)
     stress       :    361.87s CPU    370.48s WALL (       1 calls)

     Called by init_run:
     wfcinit      :    398.82s CPU    405.54s WALL (       1 calls)
     wfcinit:atom :      0.94s CPU      0.97s WALL (     316 calls)
     wfcinit:wfcr :    393.27s CPU    399.85s WALL (     316 calls)
     potinit      :      4.94s CPU      5.07s WALL (       1 calls)
     hinit0       :      2.38s CPU      2.45s WALL (       1 calls)

     Called by electrons:
     c_bands      : 176168.66s CPU 192667.95s WALL (      40 calls)
     sum_band     :  35900.12s CPU  38681.93s WALL (      40 calls)
     v_of_rho     :     42.95s CPU     46.21s WALL (      41 calls)
     v_h          :      4.99s CPU      5.55s WALL (      41 calls)
     v_xc         :     40.10s CPU     42.83s WALL (      43 calls)
     newd         :     43.16s CPU     51.79s WALL (      41 calls)
     PAW_pot      :     18.31s CPU     19.54s WALL (      41 calls)
     mix_rho      :     64.70s CPU     71.15s WALL (      40 calls)

     Called by c_bands:
     init_us_2    :     89.33s CPU     96.50s WALL (   26228 calls)
     cegterg      : 175065.40s CPU 191413.04s WALL (   12640 calls)

     Called by sum_band:
     sum_band:wei :      0.67s CPU      0.83s WALL (      40 calls)
     sum_band:loo :  35803.43s CPU  38569.45s WALL (      40 calls)
     sum_band:buf :     17.63s CPU     18.48s WALL (   12640 calls)
     sum_band:ini :     30.08s CPU     31.31s WALL (   12640 calls)
     sum_band:cal :   2093.67s CPU   2266.39s WALL (   12640 calls)
     sum_band:bec :      6.97s CPU      7.32s WALL (   12640 calls)
     addusdens    :     54.86s CPU     67.05s WALL (      40 calls)
     addusd:skk   :      0.51s CPU      0.60s WALL (     120 calls)
     addusd:dgemm :     26.48s CPU     36.07s WALL (     240 calls)
     addusd:qvan2 :     26.86s CPU     29.12s WALL (     240 calls)

     Called by *egterg:
     cdiaghg      :   7558.38s CPU   8245.13s WALL (   47168 calls)
     cegterg:over :   7812.16s CPU   8547.05s WALL (   34528 calls)
     cegterg:upda :    485.84s CPU    534.03s WALL (   34528 calls)
     cegterg:last :   1099.51s CPU   1211.45s WALL (   22501 calls)
     h_psi        : 150865.60s CPU 164967.33s WALL (   47484 calls)
     s_psi        :    991.85s CPU   1090.16s WALL (   47484 calls)
     g_psi        :      7.65s CPU      8.45s WALL (   34528 calls)

     Called by h_psi:
     h_psi:calbec :   5654.38s CPU   6208.54s WALL (   47484 calls)
     vloc_psi     : 144147.21s CPU 157589.23s WALL (   47484 calls)
     add_vuspsi   :   1020.51s CPU   1121.09s WALL (   47484 calls)

     General routines
     calbec       :   8202.94s CPU   8933.57s WALL (   61704 calls)
     fft          :     44.20s CPU     47.61s WALL (    1063 calls)
     ffts         :      4.16s CPU      4.38s WALL (     162 calls)
     fftw         : 177588.08s CPU 193604.66s WALL ( 9221394 calls)
     interpolate  :      5.73s CPU      5.94s WALL (      82 calls)

     Parallel routines
     fft_scatt_xy :    316.14s CPU    332.57s WALL ( 9222619 calls)
     fft_scatt_yz : 175891.26s CPU 191796.54s WALL ( 9222619 calls)

     PAW routines
     PAW_pot      :     18.31s CPU     19.54s WALL (      41 calls)
     PAW_symme    :      5.50s CPU      5.93s WALL (      81 calls)

     PWSCF        :   2d11h15m CPU   2d16h37m WALL


   This run was terminated on:  11:17:23  24Dec2022            

=------------------------------------------------------------------------------=
   JOB DONE.
=------------------------------------------------------------------------------=
Note: The following floating-point exceptions are signalling: IEEE_UNDERFLOW_FLAG IEEE_DENORMAL
Note: The following floating-point exceptions are signalling: IEEE_DENORMAL
Note: The following floating-point exceptions are signalling: IEEE_DENORMAL
Note: The following floating-point exceptions are signalling: IEEE_DENORMAL
Note: The following floating-point exceptions are signalling: IEEE_DENORMAL
Note: The following floating-point exceptions are signalling: IEEE_DENORMAL
Note: The following floating-point exceptions are signalling: IEEE_DENORMAL
Note: The following floating-point exceptions are signalling: IEEE_DENORMAL
Note: The following floating-point exceptions are signalling: IEEE_DENORMAL
Note: The following floating-point exceptions are signalling: IEEE_DENORMAL
Note: The following floating-point exceptions are signalling: IEEE_DENORMAL
Note: The following floating-point exceptions are signalling: IEEE_DENORMAL
Note: The following floating-point exceptions are signalling: IEEE_DENORMAL
Note: The following floating-point exceptions are signalling: IEEE_DENORMAL
Note: The following floating-point exceptions are signalling: IEEE_DENORMAL
Note: The following floating-point exceptions are signalling: IEEE_DENORMAL
Note: The following floating-point exceptions are signalling: IEEE_DENORMAL
Note: The following floating-point exceptions are signalling: IEEE_DENORMAL
Note: The following floating-point exceptions are signalling: IEEE_DENORMAL
Note: The following floating-point exceptions are signalling: IEEE_DENORMAL
Note: The following floating-point exceptions are signalling: IEEE_DENORMAL
Note: The following floating-point exceptions are signalling: IEEE_DENORMAL
Note: The following floating-point exceptions are signalling: IEEE_DENORMAL
Note: The following floating-point exceptions are signalling: IEEE_DENORMAL
Note: The following floating-point exceptions are signalling: IEEE_DENORMAL
Note: The following floating-point exceptions are signalling: IEEE_DENORMAL
Note: The following floating-point exceptions are signalling: IEEE_DENORMAL
Note: The following floating-point exceptions are signalling: IEEE_INVALID_FLAG IEEE_DENORMAL
Note: The following floating-point exceptions are signalling: IEEE_DENORMAL
Note: The following floating-point exceptions are signalling: IEEE_DENORMAL
Note: The following floating-point exceptions are signalling: IEEE_DENORMAL
Note: The following floating-point exceptions are signalling: IEEE_DENORMAL
Note: The following floating-point exceptions are signalling: IEEE_DENORMAL
Note: The following floating-point exceptions are signalling: IEEE_DENORMAL
Note: The following floating-point exceptions are signalling: IEEE_DENORMAL
Note: The following floating-point exceptions are signalling: IEEE_DENORMAL
Note: The following floating-point exceptions are signalling: IEEE_DENORMAL
Note: The following floating-point exceptions are signalling: IEEE_DENORMAL
Note: The following floating-point exceptions are signalling: IEEE_DENORMAL
Note: The following floating-point exceptions are signalling: IEEE_INVALID_FLAG IEEE_DENORMAL
Note: The following floating-point exceptions are signalling: IEEE_DENORMAL
Note: The following floating-point exceptions are signalling: IEEE_DENORMAL
Note: The following floating-point exceptions are signalling: IEEE_DENORMAL
