
     Program PWSCF v.6.7MaX starts on 20Dec2022 at  6: 2:56 

     This program is part of the open-source Quantum ESPRESSO suite
     for quantum simulation of materials; please cite
         "P. Giannozzi et al., J. Phys.:Condens. Matter 21 395502 (2009);
         "P. Giannozzi et al., J. Phys.:Condens. Matter 29 465901 (2017);
          URL http://www.quantum-espresso.org", 
     in publications or presentations arising from this work. More details at
     http://www.quantum-espresso.org/quote

     Parallel version (MPI), running on    24 processors

     MPI processes distributed on     1 nodes
     R & G space division:  proc/nbgrp/npool/nimage =      24
     Reading input from scale_3d-02.in

     Current dimensions of program PWSCF are:
     Max number of different atomic species (ntypx) = 10
     Max number of k-points (npk) =  40000
     Max angular momentum in pseudopotentials (lmaxx) =  3
     Message from routine read_pp_mesh:
     mesh size missing, using the one in header
     file Fe.pbe-spn-kjpaw_psl.0.2.1.UPF: wavefunction(s)  3D renormalized
     file O.pbe-n-kjpaw_psl.0.1.UPF: wavefunction(s)  2P renormalized

     Subspace diagonalization in iterative solution of the eigenvalue problem:
     a serial algorithm will be used

     Message from routine find_sym:
     Not a group! Trying with lower acceptance parameter...
     Message from routine find_sym:
     Symmetry operations form a group
     Message from routine setup:
     using ibrav=0 with symmetry is DISCOURAGED, use correct ibrav instead

     Parallelization info
     --------------------
     sticks:   dense  smooth     PW     G-vecs:    dense   smooth      PW
     Min         800     296     79                51300    11558    1627
     Max         802     297     80                51301    11560    1630
     Sum       19211    7107   1919              1231207   277409   39077



     bravais-lattice index     =            0
     lattice parameter (alat)  =      19.3373  a.u.
     unit-cell volume          =    2054.1302 (a.u.)^3
     number of atoms/cell      =           28
     number of atomic types    =            4
     number of electrons       =       216.00
     number of Kohn-Sham states=          130
     kinetic-energy cutoff     =     100.0000  Ry
     charge density cutoff     =    1080.0000  Ry
     scf convergence threshold =      2.0E-10
     mixing beta               =       0.4000
     number of iterations used =            8  plain     mixing
     Exchange-correlation= PBE
                           (   1   4   3   4   0   0   0)

     celldm(1)=  19.337306  celldm(2)=   0.000000  celldm(3)=   0.000000
     celldm(4)=   0.000000  celldm(5)=   0.000000  celldm(6)=   0.000000

     crystal axes: (cart. coord. in units of alat)
               a(1) = (   1.000000   0.000000   0.000000 )  
               a(2) = (   0.000000   0.597590   0.000000 )  
               a(3) = (   0.000000   0.000000   0.475375 )  

     reciprocal axes: (cart. coord. in units 2 pi/alat)
               b(1) = (  1.000000  0.000000  0.000000 )  
               b(2) = (  0.000000  1.673388  0.000000 )  
               b(3) = (  0.000000  0.000000  2.103600 )  


     PseudoPot. # 1 for Fe read from file:
     /opt/QEpot/SSSP_precision_pseudos/Fe.pbe-spn-kjpaw_psl.0.2.1.UPF
     MD5 check sum: e86618425769142926afa95317d90200
     Pseudo is Projector augmented-wave + core cor, Zval = 16.0
     Generated using "atomic" code by A. Dal Corso  v.5.0.99 svn rev. 10869
     Shape of augmentation charge: PSQ
     Using radial grid of 1191 points,  6 beta functions with: 
                l(1) =   0
                l(2) =   0
                l(3) =   1
                l(4) =   1
                l(5) =   2
                l(6) =   2
     Q(r) pseudized with 0 coefficients 


     PseudoPot. # 2 for Na read from file:
     /opt/QEpot/SSSP_precision_pseudos/Na_ONCV_PBE-1.0.oncvpsp.upf
     MD5 check sum: 24a298df0a6742ae313db96548fdb2a4
     Pseudo is Norm-conserving, Zval =  9.0
     Generated using ONCVPSP code by D. R. Hamann
     Using radial grid of 1992 points,  4 beta functions with: 
                l(1) =   0
                l(2) =   0
                l(3) =   1
                l(4) =   1

     PseudoPot. # 3 for O  read from file:
     /opt/QEpot/SSSP_precision_pseudos/O.pbe-n-kjpaw_psl.0.1.UPF
     MD5 check sum: 0234752ac141de4415c5fc33072bef88
     Pseudo is Projector augmented-wave + core cor, Zval =  6.0
     Generated using "atomic" code by A. Dal Corso  v.5.0.99 svn rev. 10869
     Shape of augmentation charge: BESSEL
     Using radial grid of 1095 points,  4 beta functions with: 
                l(1) =   0
                l(2) =   0
                l(3) =   1
                l(4) =   1
     Q(r) pseudized with 0 coefficients 


     PseudoPot. # 4 for P  read from file:
     /opt/QEpot/SSSP_precision_pseudos/P.pbe-n-rrkjus_psl.1.0.0.UPF
     MD5 check sum: 8b930f418f0a4573dca56cd030ffe088
     Pseudo is Ultrasoft + core correction, Zval =  5.0
     Generated using "atomic" code by A. Dal Corso  v.5.1
     Using radial grid of 1147 points,  6 beta functions with: 
                l(1) =   0
                l(2) =   0
                l(3) =   1
                l(4) =   1
                l(5) =   2
                l(6) =   2
     Q(r) pseudized with 0 coefficients 


     atomic species   valence    mass     pseudopotential
        Fe            16.00    55.84500     Fe( 1.00)
        Na             9.00    22.98977     Na( 1.00)
        O              6.00    15.99940     O ( 1.00)
        P              5.00    30.97376     P ( 1.00)

     Starting magnetic structure 
     atomic species   magnetization
        Fe           0.312
        Na           0.000
        O            0.000
        P            0.000

      2 Sym. Ops., with inversion, found ( 1 have fractional translation)


                                    s                        frac. trans.

      isym =  1     identity                                     

 cryst.   s( 1) = (     1          0          0      )
                  (     0          1          0      )
                  (     0          0          1      )

 cart.    s( 1) = (  1.0000000  0.0000000  0.0000000 )
                  (  0.0000000  1.0000000  0.0000000 )
                  (  0.0000000  0.0000000  1.0000000 )


      isym =  2     inversion                                    

 cryst.   s( 2) = (    -1          0          0      )    f =( -0.0000060 )
                  (     0         -1          0      )       ( -0.0000040 )
                  (     0          0         -1      )       ( -0.0000060 )

 cart.    s( 2) = ( -1.0000000  0.0000000  0.0000000 )    f =( -0.0000060 )
                  (  0.0000000 -1.0000000  0.0000000 )       ( -0.0000024 )
                  (  0.0000000  0.0000000 -1.0000000 )       ( -0.0000029 )


   Cartesian axes

     site n.     atom                  positions (alat units)
         1           Na  tau(   1) = (   0.0000030   0.0000012   0.0000014  )
         2           Na  tau(   2) = (   0.5000030   0.0000012   0.2376892  )
         3           Na  tau(   3) = (   0.0000030   0.2987962   0.0000014  )
         4           Na  tau(   4) = (   0.5000030   0.2987962   0.2376892  )
         5           Fe  tau(   5) = (   0.2868420   0.4481918   0.4667146  )
         6           Fe  tau(   6) = (   0.2131640   0.1494005   0.2290269  )
         7           Fe  tau(   7) = (   0.7131640   0.1494005   0.0086637  )
         8           Fe  tau(   8) = (   0.7868410   0.4481918   0.2463515  )
         9           P   tau(   9) = (   0.1082720   0.4481948   0.2101635  )
        10           P   tau(  10) = (   0.3917330   0.1493981   0.4478517  )
        11           P   tau(  11) = (   0.8917330   0.1493981   0.2652148  )
        12           P   tau(  12) = (   0.6082730   0.4481948   0.0275266  )
        13           O   tau(  13) = (   0.1122130   0.4481936   0.3581812  )
        14           O   tau(  14) = (   0.3877920   0.1493993   0.1204934  )
        15           O   tau(  15) = (   0.8877930   0.1493993   0.1171972  )
        16           O   tau(  16) = (   0.6122130   0.4481936   0.3548849  )
        17           O   tau(  17) = (   0.4671820   0.4481936   0.0774967  )
        18           O   tau(  18) = (   0.0328240   0.1493987   0.3151844  )
        19           O   tau(  19) = (   0.5328240   0.1493987   0.3978817  )
        20           O   tau(  20) = (   0.9671820   0.4481936   0.1601935  )
        21           O   tau(  21) = (   0.1790170   0.5668881   0.1484170  )
        22           O   tau(  22) = (   0.3209880   0.0307048   0.3861047  )
        23           O   tau(  23) = (   0.8209870   0.2680908   0.3269623  )
        24           O   tau(  24) = (   0.6790190   0.3295021   0.0892746  )
        25           O   tau(  25) = (   0.8209880   0.0307048   0.3269614  )
        26           O   tau(  26) = (   0.6790180   0.5668881   0.0892736  )
        27           O   tau(  27) = (   0.1790190   0.3295021   0.1484160  )
        28           O   tau(  28) = (   0.3209870   0.2680908   0.3861038  )

   Crystallographic axes

     site n.     atom                  positions (cryst. coord.)
         1           Na  tau(   1) = (  0.0000030  0.0000020  0.0000030  )
         2           Na  tau(   2) = (  0.5000030  0.0000020  0.5000030  )
         3           Na  tau(   3) = (  0.0000030  0.5000020  0.0000030  )
         4           Na  tau(   4) = (  0.5000030  0.5000020  0.5000030  )
         5           Fe  tau(   5) = (  0.2868420  0.7499990  0.9817810  )
         6           Fe  tau(   6) = (  0.2131640  0.2500050  0.4817810  )
         7           Fe  tau(   7) = (  0.7131640  0.2500050  0.0182250  )
         8           Fe  tau(   8) = (  0.7868410  0.7499990  0.5182250  )
         9           P   tau(   9) = (  0.1082720  0.7500040  0.4421000  )
        10           P   tau(  10) = (  0.3917330  0.2500010  0.9421010  )
        11           P   tau(  11) = (  0.8917330  0.2500010  0.5579060  )
        12           P   tau(  12) = (  0.6082730  0.7500040  0.0579050  )
        13           O   tau(  13) = (  0.1122130  0.7500020  0.7534700  )
        14           O   tau(  14) = (  0.3877920  0.2500030  0.2534700  )
        15           O   tau(  15) = (  0.8877930  0.2500030  0.2465360  )
        16           O   tau(  16) = (  0.6122130  0.7500020  0.7465360  )
        17           O   tau(  17) = (  0.4671820  0.7500020  0.1630220  )
        18           O   tau(  18) = (  0.0328240  0.2500020  0.6630220  )
        19           O   tau(  19) = (  0.5328240  0.2500020  0.8369840  )
        20           O   tau(  20) = (  0.9671820  0.7500020  0.3369830  )
        21           O   tau(  21) = (  0.1790170  0.9486240  0.3122100  )
        22           O   tau(  22) = (  0.3209880  0.0513810  0.8122100  )
        23           O   tau(  23) = (  0.8209870  0.4486200  0.6877980  )
        24           O   tau(  24) = (  0.6790190  0.5513850  0.1877980  )
        25           O   tau(  25) = (  0.8209880  0.0513810  0.6877960  )
        26           O   tau(  26) = (  0.6790180  0.9486240  0.1877960  )
        27           O   tau(  27) = (  0.1790190  0.5513850  0.3122080  )
        28           O   tau(  28) = (  0.3209870  0.4486200  0.8122080  )

     number of k points=   158  Marzari-Vanderbilt smearing, width (Ry)=  0.0073
                       cart. coord. in units 2pi/alat
        k(    1) = (   0.0000000   0.0000000   0.0000000), wk =   0.0031746
        k(    2) = (   0.0000000   0.0000000   0.2337334), wk =   0.0063492
        k(    3) = (   0.0000000   0.0000000   0.4674667), wk =   0.0063492
        k(    4) = (   0.0000000   0.0000000   0.7012001), wk =   0.0063492
        k(    5) = (   0.0000000   0.0000000   0.9349334), wk =   0.0063492
        k(    6) = (   0.0000000   0.2390555   0.0000000), wk =   0.0063492
        k(    7) = (   0.0000000   0.2390555   0.2337334), wk =   0.0063492
        k(    8) = (   0.0000000   0.2390555   0.4674667), wk =   0.0063492
        k(    9) = (   0.0000000   0.2390555   0.7012001), wk =   0.0063492
        k(   10) = (   0.0000000   0.2390555   0.9349334), wk =   0.0063492
        k(   11) = (   0.0000000   0.4781110   0.0000000), wk =   0.0063492
        k(   12) = (   0.0000000   0.4781110   0.2337334), wk =   0.0063492
        k(   13) = (   0.0000000   0.4781110   0.4674667), wk =   0.0063492
        k(   14) = (   0.0000000   0.4781110   0.7012001), wk =   0.0063492
        k(   15) = (   0.0000000   0.4781110   0.9349334), wk =   0.0063492
        k(   16) = (   0.0000000   0.7171664   0.0000000), wk =   0.0063492
        k(   17) = (   0.0000000   0.7171664   0.2337334), wk =   0.0063492
        k(   18) = (   0.0000000   0.7171664   0.4674667), wk =   0.0063492
        k(   19) = (   0.0000000   0.7171664   0.7012001), wk =   0.0063492
        k(   20) = (   0.0000000   0.7171664   0.9349334), wk =   0.0063492
        k(   21) = (   0.2000000   0.0000000   0.0000000), wk =   0.0063492
        k(   22) = (   0.2000000   0.0000000   0.2337334), wk =   0.0063492
        k(   23) = (   0.2000000   0.0000000   0.4674667), wk =   0.0063492
        k(   24) = (   0.2000000   0.0000000   0.7012001), wk =   0.0063492
        k(   25) = (   0.2000000   0.0000000   0.9349334), wk =   0.0063492
        k(   26) = (   0.2000000   0.2390555   0.0000000), wk =   0.0063492
        k(   27) = (   0.2000000   0.2390555   0.2337334), wk =   0.0063492
        k(   28) = (   0.2000000   0.2390555   0.4674667), wk =   0.0063492
        k(   29) = (   0.2000000   0.2390555   0.7012001), wk =   0.0063492
        k(   30) = (   0.2000000   0.2390555   0.9349334), wk =   0.0063492
        k(   31) = (   0.2000000   0.4781110   0.0000000), wk =   0.0063492
        k(   32) = (   0.2000000   0.4781110   0.2337334), wk =   0.0063492
        k(   33) = (   0.2000000   0.4781110   0.4674667), wk =   0.0063492
        k(   34) = (   0.2000000   0.4781110   0.7012001), wk =   0.0063492
        k(   35) = (   0.2000000   0.4781110   0.9349334), wk =   0.0063492
        k(   36) = (   0.2000000   0.7171664   0.0000000), wk =   0.0063492
        k(   37) = (   0.2000000   0.7171664   0.2337334), wk =   0.0063492
        k(   38) = (   0.2000000   0.7171664   0.4674667), wk =   0.0063492
        k(   39) = (   0.2000000   0.7171664   0.7012001), wk =   0.0063492
        k(   40) = (   0.2000000   0.7171664   0.9349334), wk =   0.0063492
        k(   41) = (   0.4000000   0.0000000   0.0000000), wk =   0.0063492
        k(   42) = (   0.4000000   0.0000000   0.2337334), wk =   0.0063492
        k(   43) = (   0.4000000   0.0000000   0.4674667), wk =   0.0063492
        k(   44) = (   0.4000000   0.0000000   0.7012001), wk =   0.0063492
        k(   45) = (   0.4000000   0.0000000   0.9349334), wk =   0.0063492
        k(   46) = (   0.4000000   0.2390555   0.0000000), wk =   0.0063492
        k(   47) = (   0.4000000   0.2390555   0.2337334), wk =   0.0063492
        k(   48) = (   0.4000000   0.2390555   0.4674667), wk =   0.0063492
        k(   49) = (   0.4000000   0.2390555   0.7012001), wk =   0.0063492
        k(   50) = (   0.4000000   0.2390555   0.9349334), wk =   0.0063492
        k(   51) = (   0.4000000   0.4781110   0.0000000), wk =   0.0063492
        k(   52) = (   0.4000000   0.4781110   0.2337334), wk =   0.0063492
        k(   53) = (   0.4000000   0.4781110   0.4674667), wk =   0.0063492
        k(   54) = (   0.4000000   0.4781110   0.7012001), wk =   0.0063492
        k(   55) = (   0.4000000   0.4781110   0.9349334), wk =   0.0063492
        k(   56) = (   0.4000000   0.7171664   0.0000000), wk =   0.0063492
        k(   57) = (   0.4000000   0.7171664   0.2337334), wk =   0.0063492
        k(   58) = (   0.4000000   0.7171664   0.4674667), wk =   0.0063492
        k(   59) = (   0.4000000   0.7171664   0.7012001), wk =   0.0063492
        k(   60) = (   0.4000000   0.7171664   0.9349334), wk =   0.0063492
        k(   61) = (   0.0000000   0.2390555  -0.2337334), wk =   0.0063492
        k(   62) = (   0.0000000   0.2390555  -0.4674667), wk =   0.0063492
        k(   63) = (   0.0000000   0.2390555  -0.7012001), wk =   0.0063492
        k(   64) = (   0.0000000   0.2390555  -0.9349334), wk =   0.0063492
        k(   65) = (   0.0000000   0.4781110  -0.2337334), wk =   0.0063492
        k(   66) = (   0.0000000   0.4781110  -0.4674667), wk =   0.0063492
        k(   67) = (   0.0000000   0.4781110  -0.7012001), wk =   0.0063492
        k(   68) = (   0.0000000   0.4781110  -0.9349334), wk =   0.0063492
        k(   69) = (   0.0000000   0.7171664  -0.2337334), wk =   0.0063492
        k(   70) = (   0.0000000   0.7171664  -0.4674667), wk =   0.0063492
        k(   71) = (   0.0000000   0.7171664  -0.7012001), wk =   0.0063492
        k(   72) = (   0.0000000   0.7171664  -0.9349334), wk =   0.0063492
        k(   73) = (   0.2000000   0.0000000  -0.2337334), wk =   0.0063492
        k(   74) = (   0.2000000   0.0000000  -0.4674667), wk =   0.0063492
        k(   75) = (   0.2000000   0.0000000  -0.7012001), wk =   0.0063492
        k(   76) = (   0.2000000   0.0000000  -0.9349334), wk =   0.0063492
        k(   77) = (  -0.2000000   0.2390555   0.0000000), wk =   0.0063492
        k(   78) = (  -0.2000000   0.2390555  -0.2337334), wk =   0.0063492
        k(   79) = (   0.2000000  -0.2390555  -0.2337334), wk =   0.0063492
        k(   80) = (  -0.2000000  -0.2390555   0.2337334), wk =   0.0063492
        k(   81) = (  -0.2000000   0.2390555  -0.4674667), wk =   0.0063492
        k(   82) = (   0.2000000  -0.2390555  -0.4674667), wk =   0.0063492
        k(   83) = (  -0.2000000  -0.2390555   0.4674667), wk =   0.0063492
        k(   84) = (  -0.2000000   0.2390555  -0.7012001), wk =   0.0063492
        k(   85) = (   0.2000000  -0.2390555  -0.7012001), wk =   0.0063492
        k(   86) = (  -0.2000000  -0.2390555   0.7012001), wk =   0.0063492
        k(   87) = (  -0.2000000   0.2390555  -0.9349334), wk =   0.0063492
        k(   88) = (   0.2000000  -0.2390555  -0.9349334), wk =   0.0063492
        k(   89) = (  -0.2000000  -0.2390555   0.9349334), wk =   0.0063492
        k(   90) = (  -0.2000000   0.4781110   0.0000000), wk =   0.0063492
        k(   91) = (  -0.2000000   0.4781110  -0.2337334), wk =   0.0063492
        k(   92) = (   0.2000000  -0.4781110  -0.2337334), wk =   0.0063492
        k(   93) = (  -0.2000000  -0.4781110   0.2337334), wk =   0.0063492
        k(   94) = (  -0.2000000   0.4781110  -0.4674667), wk =   0.0063492
        k(   95) = (   0.2000000  -0.4781110  -0.4674667), wk =   0.0063492
        k(   96) = (  -0.2000000  -0.4781110   0.4674667), wk =   0.0063492
        k(   97) = (  -0.2000000   0.4781110  -0.7012001), wk =   0.0063492
        k(   98) = (   0.2000000  -0.4781110  -0.7012001), wk =   0.0063492
        k(   99) = (  -0.2000000  -0.4781110   0.7012001), wk =   0.0063492
        k(  100) = (  -0.2000000   0.4781110  -0.9349334), wk =   0.0063492
        k(  101) = (   0.2000000  -0.4781110  -0.9349334), wk =   0.0063492
        k(  102) = (  -0.2000000  -0.4781110   0.9349334), wk =   0.0063492
        k(  103) = (  -0.2000000   0.7171664   0.0000000), wk =   0.0063492
        k(  104) = (  -0.2000000   0.7171664  -0.2337334), wk =   0.0063492
        k(  105) = (   0.2000000  -0.7171664  -0.2337334), wk =   0.0063492
        k(  106) = (  -0.2000000  -0.7171664   0.2337334), wk =   0.0063492
        k(  107) = (  -0.2000000   0.7171664  -0.4674667), wk =   0.0063492
        k(  108) = (   0.2000000  -0.7171664  -0.4674667), wk =   0.0063492
        k(  109) = (  -0.2000000  -0.7171664   0.4674667), wk =   0.0063492
        k(  110) = (  -0.2000000   0.7171664  -0.7012001), wk =   0.0063492
        k(  111) = (   0.2000000  -0.7171664  -0.7012001), wk =   0.0063492
        k(  112) = (  -0.2000000  -0.7171664   0.7012001), wk =   0.0063492
        k(  113) = (  -0.2000000   0.7171664  -0.9349334), wk =   0.0063492
        k(  114) = (   0.2000000  -0.7171664  -0.9349334), wk =   0.0063492
        k(  115) = (  -0.2000000  -0.7171664   0.9349334), wk =   0.0063492
        k(  116) = (   0.4000000   0.0000000  -0.2337334), wk =   0.0063492
        k(  117) = (   0.4000000   0.0000000  -0.4674667), wk =   0.0063492
        k(  118) = (   0.4000000   0.0000000  -0.7012001), wk =   0.0063492
        k(  119) = (   0.4000000   0.0000000  -0.9349334), wk =   0.0063492
        k(  120) = (  -0.4000000   0.2390555   0.0000000), wk =   0.0063492
        k(  121) = (  -0.4000000   0.2390555  -0.2337334), wk =   0.0063492
        k(  122) = (   0.4000000  -0.2390555  -0.2337334), wk =   0.0063492
        k(  123) = (  -0.4000000  -0.2390555   0.2337334), wk =   0.0063492
        k(  124) = (  -0.4000000   0.2390555  -0.4674667), wk =   0.0063492
        k(  125) = (   0.4000000  -0.2390555  -0.4674667), wk =   0.0063492
        k(  126) = (  -0.4000000  -0.2390555   0.4674667), wk =   0.0063492
        k(  127) = (  -0.4000000   0.2390555  -0.7012001), wk =   0.0063492
        k(  128) = (   0.4000000  -0.2390555  -0.7012001), wk =   0.0063492
        k(  129) = (  -0.4000000  -0.2390555   0.7012001), wk =   0.0063492
        k(  130) = (  -0.4000000   0.2390555  -0.9349334), wk =   0.0063492
        k(  131) = (   0.4000000  -0.2390555  -0.9349334), wk =   0.0063492
        k(  132) = (  -0.4000000  -0.2390555   0.9349334), wk =   0.0063492
        k(  133) = (  -0.4000000   0.4781110   0.0000000), wk =   0.0063492
        k(  134) = (  -0.4000000   0.4781110  -0.2337334), wk =   0.0063492
        k(  135) = (   0.4000000  -0.4781110  -0.2337334), wk =   0.0063492
        k(  136) = (  -0.4000000  -0.4781110   0.2337334), wk =   0.0063492
        k(  137) = (  -0.4000000   0.4781110  -0.4674667), wk =   0.0063492
        k(  138) = (   0.4000000  -0.4781110  -0.4674667), wk =   0.0063492
        k(  139) = (  -0.4000000  -0.4781110   0.4674667), wk =   0.0063492
        k(  140) = (  -0.4000000   0.4781110  -0.7012001), wk =   0.0063492
        k(  141) = (   0.4000000  -0.4781110  -0.7012001), wk =   0.0063492
        k(  142) = (  -0.4000000  -0.4781110   0.7012001), wk =   0.0063492
        k(  143) = (  -0.4000000   0.4781110  -0.9349334), wk =   0.0063492
        k(  144) = (   0.4000000  -0.4781110  -0.9349334), wk =   0.0063492
        k(  145) = (  -0.4000000  -0.4781110   0.9349334), wk =   0.0063492
        k(  146) = (  -0.4000000   0.7171664   0.0000000), wk =   0.0063492
        k(  147) = (  -0.4000000   0.7171664  -0.2337334), wk =   0.0063492
        k(  148) = (   0.4000000  -0.7171664  -0.2337334), wk =   0.0063492
        k(  149) = (  -0.4000000  -0.7171664   0.2337334), wk =   0.0063492
        k(  150) = (  -0.4000000   0.7171664  -0.4674667), wk =   0.0063492
        k(  151) = (   0.4000000  -0.7171664  -0.4674667), wk =   0.0063492
        k(  152) = (  -0.4000000  -0.7171664   0.4674667), wk =   0.0063492
        k(  153) = (  -0.4000000   0.7171664  -0.7012001), wk =   0.0063492
        k(  154) = (   0.4000000  -0.7171664  -0.7012001), wk =   0.0063492
        k(  155) = (  -0.4000000  -0.7171664   0.7012001), wk =   0.0063492
        k(  156) = (  -0.4000000   0.7171664  -0.9349334), wk =   0.0063492
        k(  157) = (   0.4000000  -0.7171664  -0.9349334), wk =   0.0063492
        k(  158) = (  -0.4000000  -0.7171664   0.9349334), wk =   0.0063492

                       cryst. coord.
        k(    1) = (   0.0000000   0.0000000   0.0000000), wk =   0.0031746
        k(    2) = (   0.0000000   0.0000000   0.1111111), wk =   0.0063492
        k(    3) = (   0.0000000   0.0000000   0.2222222), wk =   0.0063492
        k(    4) = (   0.0000000   0.0000000   0.3333333), wk =   0.0063492
        k(    5) = (   0.0000000   0.0000000   0.4444444), wk =   0.0063492
        k(    6) = (   0.0000000   0.1428571   0.0000000), wk =   0.0063492
        k(    7) = (   0.0000000   0.1428571   0.1111111), wk =   0.0063492
        k(    8) = (   0.0000000   0.1428571   0.2222222), wk =   0.0063492
        k(    9) = (   0.0000000   0.1428571   0.3333333), wk =   0.0063492
        k(   10) = (   0.0000000   0.1428571   0.4444444), wk =   0.0063492
        k(   11) = (   0.0000000   0.2857143   0.0000000), wk =   0.0063492
        k(   12) = (   0.0000000   0.2857143   0.1111111), wk =   0.0063492
        k(   13) = (   0.0000000   0.2857143   0.2222222), wk =   0.0063492
        k(   14) = (   0.0000000   0.2857143   0.3333333), wk =   0.0063492
        k(   15) = (   0.0000000   0.2857143   0.4444444), wk =   0.0063492
        k(   16) = (   0.0000000   0.4285714   0.0000000), wk =   0.0063492
        k(   17) = (   0.0000000   0.4285714   0.1111111), wk =   0.0063492
        k(   18) = (   0.0000000   0.4285714   0.2222222), wk =   0.0063492
        k(   19) = (   0.0000000   0.4285714   0.3333333), wk =   0.0063492
        k(   20) = (   0.0000000   0.4285714   0.4444444), wk =   0.0063492
        k(   21) = (   0.2000000   0.0000000   0.0000000), wk =   0.0063492
        k(   22) = (   0.2000000   0.0000000   0.1111111), wk =   0.0063492
        k(   23) = (   0.2000000   0.0000000   0.2222222), wk =   0.0063492
        k(   24) = (   0.2000000   0.0000000   0.3333333), wk =   0.0063492
        k(   25) = (   0.2000000   0.0000000   0.4444444), wk =   0.0063492
        k(   26) = (   0.2000000   0.1428571   0.0000000), wk =   0.0063492
        k(   27) = (   0.2000000   0.1428571   0.1111111), wk =   0.0063492
        k(   28) = (   0.2000000   0.1428571   0.2222222), wk =   0.0063492
        k(   29) = (   0.2000000   0.1428571   0.3333333), wk =   0.0063492
        k(   30) = (   0.2000000   0.1428571   0.4444444), wk =   0.0063492
        k(   31) = (   0.2000000   0.2857143   0.0000000), wk =   0.0063492
        k(   32) = (   0.2000000   0.2857143   0.1111111), wk =   0.0063492
        k(   33) = (   0.2000000   0.2857143   0.2222222), wk =   0.0063492
        k(   34) = (   0.2000000   0.2857143   0.3333333), wk =   0.0063492
        k(   35) = (   0.2000000   0.2857143   0.4444444), wk =   0.0063492
        k(   36) = (   0.2000000   0.4285714   0.0000000), wk =   0.0063492
        k(   37) = (   0.2000000   0.4285714   0.1111111), wk =   0.0063492
        k(   38) = (   0.2000000   0.4285714   0.2222222), wk =   0.0063492
        k(   39) = (   0.2000000   0.4285714   0.3333333), wk =   0.0063492
        k(   40) = (   0.2000000   0.4285714   0.4444444), wk =   0.0063492
        k(   41) = (   0.4000000   0.0000000   0.0000000), wk =   0.0063492
        k(   42) = (   0.4000000   0.0000000   0.1111111), wk =   0.0063492
        k(   43) = (   0.4000000   0.0000000   0.2222222), wk =   0.0063492
        k(   44) = (   0.4000000   0.0000000   0.3333333), wk =   0.0063492
        k(   45) = (   0.4000000   0.0000000   0.4444444), wk =   0.0063492
        k(   46) = (   0.4000000   0.1428571   0.0000000), wk =   0.0063492
        k(   47) = (   0.4000000   0.1428571   0.1111111), wk =   0.0063492
        k(   48) = (   0.4000000   0.1428571   0.2222222), wk =   0.0063492
        k(   49) = (   0.4000000   0.1428571   0.3333333), wk =   0.0063492
        k(   50) = (   0.4000000   0.1428571   0.4444444), wk =   0.0063492
        k(   51) = (   0.4000000   0.2857143   0.0000000), wk =   0.0063492
        k(   52) = (   0.4000000   0.2857143   0.1111111), wk =   0.0063492
        k(   53) = (   0.4000000   0.2857143   0.2222222), wk =   0.0063492
        k(   54) = (   0.4000000   0.2857143   0.3333333), wk =   0.0063492
        k(   55) = (   0.4000000   0.2857143   0.4444444), wk =   0.0063492
        k(   56) = (   0.4000000   0.4285714   0.0000000), wk =   0.0063492
        k(   57) = (   0.4000000   0.4285714   0.1111111), wk =   0.0063492
        k(   58) = (   0.4000000   0.4285714   0.2222222), wk =   0.0063492
        k(   59) = (   0.4000000   0.4285714   0.3333333), wk =   0.0063492
        k(   60) = (   0.4000000   0.4285714   0.4444444), wk =   0.0063492
        k(   61) = (   0.0000000   0.1428571  -0.1111111), wk =   0.0063492
        k(   62) = (   0.0000000   0.1428571  -0.2222222), wk =   0.0063492
        k(   63) = (   0.0000000   0.1428571  -0.3333333), wk =   0.0063492
        k(   64) = (   0.0000000   0.1428571  -0.4444444), wk =   0.0063492
        k(   65) = (   0.0000000   0.2857143  -0.1111111), wk =   0.0063492
        k(   66) = (   0.0000000   0.2857143  -0.2222222), wk =   0.0063492
        k(   67) = (   0.0000000   0.2857143  -0.3333333), wk =   0.0063492
        k(   68) = (   0.0000000   0.2857143  -0.4444444), wk =   0.0063492
        k(   69) = (   0.0000000   0.4285714  -0.1111111), wk =   0.0063492
        k(   70) = (   0.0000000   0.4285714  -0.2222222), wk =   0.0063492
        k(   71) = (   0.0000000   0.4285714  -0.3333333), wk =   0.0063492
        k(   72) = (   0.0000000   0.4285714  -0.4444444), wk =   0.0063492
        k(   73) = (   0.2000000   0.0000000  -0.1111111), wk =   0.0063492
        k(   74) = (   0.2000000   0.0000000  -0.2222222), wk =   0.0063492
        k(   75) = (   0.2000000   0.0000000  -0.3333333), wk =   0.0063492
        k(   76) = (   0.2000000   0.0000000  -0.4444444), wk =   0.0063492
        k(   77) = (  -0.2000000   0.1428571   0.0000000), wk =   0.0063492
        k(   78) = (  -0.2000000   0.1428571  -0.1111111), wk =   0.0063492
        k(   79) = (   0.2000000  -0.1428571  -0.1111111), wk =   0.0063492
        k(   80) = (  -0.2000000  -0.1428571   0.1111111), wk =   0.0063492
        k(   81) = (  -0.2000000   0.1428571  -0.2222222), wk =   0.0063492
        k(   82) = (   0.2000000  -0.1428571  -0.2222222), wk =   0.0063492
        k(   83) = (  -0.2000000  -0.1428571   0.2222222), wk =   0.0063492
        k(   84) = (  -0.2000000   0.1428571  -0.3333333), wk =   0.0063492
        k(   85) = (   0.2000000  -0.1428571  -0.3333333), wk =   0.0063492
        k(   86) = (  -0.2000000  -0.1428571   0.3333333), wk =   0.0063492
        k(   87) = (  -0.2000000   0.1428571  -0.4444444), wk =   0.0063492
        k(   88) = (   0.2000000  -0.1428571  -0.4444444), wk =   0.0063492
        k(   89) = (  -0.2000000  -0.1428571   0.4444444), wk =   0.0063492
        k(   90) = (  -0.2000000   0.2857143   0.0000000), wk =   0.0063492
        k(   91) = (  -0.2000000   0.2857143  -0.1111111), wk =   0.0063492
        k(   92) = (   0.2000000  -0.2857143  -0.1111111), wk =   0.0063492
        k(   93) = (  -0.2000000  -0.2857143   0.1111111), wk =   0.0063492
        k(   94) = (  -0.2000000   0.2857143  -0.2222222), wk =   0.0063492
        k(   95) = (   0.2000000  -0.2857143  -0.2222222), wk =   0.0063492
        k(   96) = (  -0.2000000  -0.2857143   0.2222222), wk =   0.0063492
        k(   97) = (  -0.2000000   0.2857143  -0.3333333), wk =   0.0063492
        k(   98) = (   0.2000000  -0.2857143  -0.3333333), wk =   0.0063492
        k(   99) = (  -0.2000000  -0.2857143   0.3333333), wk =   0.0063492
        k(  100) = (  -0.2000000   0.2857143  -0.4444444), wk =   0.0063492
        k(  101) = (   0.2000000  -0.2857143  -0.4444444), wk =   0.0063492
        k(  102) = (  -0.2000000  -0.2857143   0.4444444), wk =   0.0063492
        k(  103) = (  -0.2000000   0.4285714   0.0000000), wk =   0.0063492
        k(  104) = (  -0.2000000   0.4285714  -0.1111111), wk =   0.0063492
        k(  105) = (   0.2000000  -0.4285714  -0.1111111), wk =   0.0063492
        k(  106) = (  -0.2000000  -0.4285714   0.1111111), wk =   0.0063492
        k(  107) = (  -0.2000000   0.4285714  -0.2222222), wk =   0.0063492
        k(  108) = (   0.2000000  -0.4285714  -0.2222222), wk =   0.0063492
        k(  109) = (  -0.2000000  -0.4285714   0.2222222), wk =   0.0063492
        k(  110) = (  -0.2000000   0.4285714  -0.3333333), wk =   0.0063492
        k(  111) = (   0.2000000  -0.4285714  -0.3333333), wk =   0.0063492
        k(  112) = (  -0.2000000  -0.4285714   0.3333333), wk =   0.0063492
        k(  113) = (  -0.2000000   0.4285714  -0.4444444), wk =   0.0063492
        k(  114) = (   0.2000000  -0.4285714  -0.4444444), wk =   0.0063492
        k(  115) = (  -0.2000000  -0.4285714   0.4444444), wk =   0.0063492
        k(  116) = (   0.4000000   0.0000000  -0.1111111), wk =   0.0063492
        k(  117) = (   0.4000000   0.0000000  -0.2222222), wk =   0.0063492
        k(  118) = (   0.4000000   0.0000000  -0.3333333), wk =   0.0063492
        k(  119) = (   0.4000000   0.0000000  -0.4444444), wk =   0.0063492
        k(  120) = (  -0.4000000   0.1428571   0.0000000), wk =   0.0063492
        k(  121) = (  -0.4000000   0.1428571  -0.1111111), wk =   0.0063492
        k(  122) = (   0.4000000  -0.1428571  -0.1111111), wk =   0.0063492
        k(  123) = (  -0.4000000  -0.1428571   0.1111111), wk =   0.0063492
        k(  124) = (  -0.4000000   0.1428571  -0.2222222), wk =   0.0063492
        k(  125) = (   0.4000000  -0.1428571  -0.2222222), wk =   0.0063492
        k(  126) = (  -0.4000000  -0.1428571   0.2222222), wk =   0.0063492
        k(  127) = (  -0.4000000   0.1428571  -0.3333333), wk =   0.0063492
        k(  128) = (   0.4000000  -0.1428571  -0.3333333), wk =   0.0063492
        k(  129) = (  -0.4000000  -0.1428571   0.3333333), wk =   0.0063492
        k(  130) = (  -0.4000000   0.1428571  -0.4444444), wk =   0.0063492
        k(  131) = (   0.4000000  -0.1428571  -0.4444444), wk =   0.0063492
        k(  132) = (  -0.4000000  -0.1428571   0.4444444), wk =   0.0063492
        k(  133) = (  -0.4000000   0.2857143   0.0000000), wk =   0.0063492
        k(  134) = (  -0.4000000   0.2857143  -0.1111111), wk =   0.0063492
        k(  135) = (   0.4000000  -0.2857143  -0.1111111), wk =   0.0063492
        k(  136) = (  -0.4000000  -0.2857143   0.1111111), wk =   0.0063492
        k(  137) = (  -0.4000000   0.2857143  -0.2222222), wk =   0.0063492
        k(  138) = (   0.4000000  -0.2857143  -0.2222222), wk =   0.0063492
        k(  139) = (  -0.4000000  -0.2857143   0.2222222), wk =   0.0063492
        k(  140) = (  -0.4000000   0.2857143  -0.3333333), wk =   0.0063492
        k(  141) = (   0.4000000  -0.2857143  -0.3333333), wk =   0.0063492
        k(  142) = (  -0.4000000  -0.2857143   0.3333333), wk =   0.0063492
        k(  143) = (  -0.4000000   0.2857143  -0.4444444), wk =   0.0063492
        k(  144) = (   0.4000000  -0.2857143  -0.4444444), wk =   0.0063492
        k(  145) = (  -0.4000000  -0.2857143   0.4444444), wk =   0.0063492
        k(  146) = (  -0.4000000   0.4285714   0.0000000), wk =   0.0063492
        k(  147) = (  -0.4000000   0.4285714  -0.1111111), wk =   0.0063492
        k(  148) = (   0.4000000  -0.4285714  -0.1111111), wk =   0.0063492
        k(  149) = (  -0.4000000  -0.4285714   0.1111111), wk =   0.0063492
        k(  150) = (  -0.4000000   0.4285714  -0.2222222), wk =   0.0063492
        k(  151) = (   0.4000000  -0.4285714  -0.2222222), wk =   0.0063492
        k(  152) = (  -0.4000000  -0.4285714   0.2222222), wk =   0.0063492
        k(  153) = (  -0.4000000   0.4285714  -0.3333333), wk =   0.0063492
        k(  154) = (   0.4000000  -0.4285714  -0.3333333), wk =   0.0063492
        k(  155) = (  -0.4000000  -0.4285714   0.3333333), wk =   0.0063492
        k(  156) = (  -0.4000000   0.4285714  -0.4444444), wk =   0.0063492
        k(  157) = (   0.4000000  -0.4285714  -0.4444444), wk =   0.0063492
        k(  158) = (  -0.4000000  -0.4285714   0.4444444), wk =   0.0063492

     Dense  grid:  1231207 G-vectors     FFT dimensions: ( 216, 125, 100)

     Smooth grid:   277409 G-vectors     FFT dimensions: ( 125,  75,  60)

     Dynamical RAM for                 wfc:       2.87 MB

     Dynamical RAM for     wfc (w. buffer):     908.64 MB

     Dynamical RAM for           str. fact:       3.13 MB

     Dynamical RAM for           local pot:       0.00 MB

     Dynamical RAM for          nlocal pot:       6.70 MB

     Dynamical RAM for                qrad:      10.54 MB

     Dynamical RAM for          rho,v,vnew:      10.88 MB

     Dynamical RAM for               rhoin:       3.63 MB

     Dynamical RAM for            rho*nmix:      25.05 MB

     Dynamical RAM for           G-vectors:       3.02 MB

     Dynamical RAM for          h,s,v(r/c):       3.09 MB

     Dynamical RAM for          <psi|beta>:       0.60 MB

     Dynamical RAM for                 psi:       5.73 MB

     Dynamical RAM for                hpsi:       5.73 MB

     Dynamical RAM for                spsi:       5.73 MB

     Dynamical RAM for      wfcinit/wfcrot:       7.23 MB

     Dynamical RAM for           addusdens:     158.91 MB

     Dynamical RAM for          addusforce:     182.52 MB

     Dynamical RAM for         addusstress:     158.52 MB

     Estimated static dynamical RAM per process >     981.68 MB

     Estimated max dynamical RAM per process >       1.14 GB

     Estimated total dynamical RAM >      27.29 GB

     Check: negative core charge=   -0.000003
     Generating pointlists ...
     new r_m :   0.0824 (alat units)  1.5942 (a.u.) for type    1
     new r_m :   0.0910 (alat units)  1.7593 (a.u.) for type    2
     new r_m :   0.0611 (alat units)  1.1811 (a.u.) for type    3
     new r_m :   0.0611 (alat units)  1.1811 (a.u.) for type    4

     Initial potential from superposition of free atoms

     starting charge  215.97252, renormalised to  216.00000
     Starting wfcs are  152 randomized atomic wfcs
     Checking if some PAW data can be deallocated... 
       PAW data deallocated on   22 nodes for type:  1
       PAW data deallocated on    8 nodes for type:  3

     total cpu time spent up to now is     1562.5 secs

     Self-consistent Calculation

     iteration #  1     ecut=   100.00 Ry     beta= 0.40
     Davidson diagonalization with overlap
     ethr =  1.00E-02,  avg # of iterations =  3.6

     negative rho (up, down):  0.000E+00 5.326E-05

     total cpu time spent up to now is     6399.4 secs

     total energy              =   -2380.66543408 Ry
     estimated scf accuracy    <       5.61881063 Ry

     total magnetization       =    16.00 Bohr mag/cell
     absolute magnetization    =    16.01 Bohr mag/cell

     iteration #  2     ecut=   100.00 Ry     beta= 0.40
     Davidson diagonalization with overlap
     ethr =  2.60E-03,  avg # of iterations =  2.0

     negative rho (up, down):  0.000E+00 1.490E-04

     total cpu time spent up to now is    10776.4 secs

     total energy              =   -2382.00692433 Ry
     estimated scf accuracy    <       0.45822957 Ry

     total magnetization       =    16.00 Bohr mag/cell
     absolute magnetization    =    16.01 Bohr mag/cell

     iteration #  3     ecut=   100.00 Ry     beta= 0.40
     Davidson diagonalization with overlap
     ethr =  2.12E-04,  avg # of iterations =  9.3

     negative rho (up, down):  0.000E+00 1.608E-04

     total cpu time spent up to now is    16122.1 secs

     total energy              =   -2381.99141971 Ry
     estimated scf accuracy    <       3.31553719 Ry

     total magnetization       =    16.00 Bohr mag/cell
     absolute magnetization    =    16.04 Bohr mag/cell

     iteration #  4     ecut=   100.00 Ry     beta= 0.40
     Davidson diagonalization with overlap
     ethr =  2.12E-04,  avg # of iterations =  2.0

     negative rho (up, down):  0.000E+00 2.940E-04

     total cpu time spent up to now is    16841.1 secs

     total energy              =   -2382.05071006 Ry
     estimated scf accuracy    <       1.54451605 Ry

     total magnetization       =    16.00 Bohr mag/cell
     absolute magnetization    =    16.06 Bohr mag/cell

     iteration #  5     ecut=   100.00 Ry     beta= 0.40
     Davidson diagonalization with overlap
     ethr =  2.12E-04,  avg # of iterations =  1.5

     negative rho (up, down):  0.000E+00 4.914E-04

     total cpu time spent up to now is    17511.6 secs

     total energy              =   -2382.05693150 Ry
     estimated scf accuracy    <       1.70537030 Ry

     total magnetization       =    16.00 Bohr mag/cell
     absolute magnetization    =    16.05 Bohr mag/cell

     iteration #  6     ecut=   100.00 Ry     beta= 0.40
     Davidson diagonalization with overlap
     ethr =  2.12E-04,  avg # of iterations =  1.8

     negative rho (up, down):  0.000E+00 5.114E-04

     total cpu time spent up to now is    18192.6 secs

     total energy              =   -2382.10708567 Ry
     estimated scf accuracy    <       1.78108160 Ry

     total magnetization       =    16.00 Bohr mag/cell
     absolute magnetization    =    16.08 Bohr mag/cell

     iteration #  7     ecut=   100.00 Ry     beta= 0.40
     Davidson diagonalization with overlap
     ethr =  2.12E-04,  avg # of iterations =  1.0

     negative rho (up, down):  0.000E+00 5.190E-04

     total cpu time spent up to now is    18798.7 secs

     total energy              =   -2382.15936997 Ry
     estimated scf accuracy    <       0.14231596 Ry

     total magnetization       =    16.00 Bohr mag/cell
     absolute magnetization    =    16.07 Bohr mag/cell

     iteration #  8     ecut=   100.00 Ry     beta= 0.40
     Davidson diagonalization with overlap
     ethr =  6.59E-05,  avg # of iterations =  1.0

     negative rho (up, down):  0.000E+00 5.176E-04

     total cpu time spent up to now is    19405.8 secs

     total energy              =   -2382.15937631 Ry
     estimated scf accuracy    <       0.37534275 Ry

     total magnetization       =    16.00 Bohr mag/cell
     absolute magnetization    =    16.07 Bohr mag/cell

     iteration #  9     ecut=   100.00 Ry     beta= 0.40
     Davidson diagonalization with overlap
     ethr =  6.59E-05,  avg # of iterations =  1.0

     negative rho (up, down):  0.000E+00 5.156E-04

     total cpu time spent up to now is    20006.6 secs

     total energy              =   -2382.15793338 Ry
     estimated scf accuracy    <       0.18427560 Ry

     total magnetization       =    16.00 Bohr mag/cell
     absolute magnetization    =    16.07 Bohr mag/cell

     iteration # 10     ecut=   100.00 Ry     beta= 0.40
     Davidson diagonalization with overlap
     ethr =  6.59E-05,  avg # of iterations =  1.0

     negative rho (up, down):  0.000E+00 5.106E-04

     total cpu time spent up to now is    20612.7 secs

     total energy              =   -2382.16097719 Ry
     estimated scf accuracy    <       0.06164236 Ry

     total magnetization       =    16.00 Bohr mag/cell
     absolute magnetization    =    16.07 Bohr mag/cell

     iteration # 11     ecut=   100.00 Ry     beta= 0.40
     Davidson diagonalization with overlap
     ethr =  2.85E-05,  avg # of iterations =  1.1

     negative rho (up, down):  0.000E+00 5.115E-04

     total cpu time spent up to now is    21221.6 secs

     total energy              =   -2382.16108033 Ry
     estimated scf accuracy    <       0.03487068 Ry

     total magnetization       =    16.00 Bohr mag/cell
     absolute magnetization    =    16.07 Bohr mag/cell

     iteration # 12     ecut=   100.00 Ry     beta= 0.40
     Davidson diagonalization with overlap
     c_bands:  1 eigenvalues not converged
     c_bands:  1 eigenvalues not converged
     c_bands:  1 eigenvalues not converged
     ethr =  1.61E-05,  avg # of iterations =  1.6

     negative rho (up, down):  0.000E+00 5.089E-04

     total cpu time spent up to now is    21852.3 secs

     total energy              =   -2382.16132571 Ry
     estimated scf accuracy    <       0.04043474 Ry

     total magnetization       =    16.00 Bohr mag/cell
     absolute magnetization    =    16.07 Bohr mag/cell

     iteration # 13     ecut=   100.00 Ry     beta= 0.40
     Davidson diagonalization with overlap
     ethr =  1.61E-05,  avg # of iterations =  1.0

     negative rho (up, down):  0.000E+00 5.126E-04

     total cpu time spent up to now is    22465.1 secs

     total energy              =   -2382.16121837 Ry
     estimated scf accuracy    <       0.03509370 Ry

     total magnetization       =    16.00 Bohr mag/cell
     absolute magnetization    =    16.08 Bohr mag/cell

     iteration # 14     ecut=   100.00 Ry     beta= 0.40
     Davidson diagonalization with overlap
     ethr =  1.61E-05,  avg # of iterations =  1.0

     negative rho (up, down):  0.000E+00 5.124E-04

     total cpu time spent up to now is    23072.5 secs

     total energy              =   -2382.16159120 Ry
     estimated scf accuracy    <       0.03622881 Ry

     total magnetization       =    16.00 Bohr mag/cell
     absolute magnetization    =    16.08 Bohr mag/cell

     iteration # 15     ecut=   100.00 Ry     beta= 0.40
     Davidson diagonalization with overlap
     ethr =  1.61E-05,  avg # of iterations =  1.0

     negative rho (up, down):  0.000E+00 4.832E-04

     total cpu time spent up to now is    23687.9 secs

     total energy              =   -2382.16500300 Ry
     estimated scf accuracy    <       0.03558392 Ry

     total magnetization       =    16.00 Bohr mag/cell
     absolute magnetization    =    16.08 Bohr mag/cell

     iteration # 16     ecut=   100.00 Ry     beta= 0.40
     Davidson diagonalization with overlap
     ethr =  1.61E-05,  avg # of iterations =  2.0

     negative rho (up, down):  0.000E+00 4.619E-04

     total cpu time spent up to now is    24390.2 secs

     total energy              =   -2382.17065899 Ry
     estimated scf accuracy    <       0.01542233 Ry

     total magnetization       =    16.00 Bohr mag/cell
     absolute magnetization    =    16.08 Bohr mag/cell

     iteration # 17     ecut=   100.00 Ry     beta= 0.40
     Davidson diagonalization with overlap
     c_bands:  1 eigenvalues not converged
     c_bands:  1 eigenvalues not converged
     c_bands:  1 eigenvalues not converged
     c_bands:  1 eigenvalues not converged
     c_bands:  1 eigenvalues not converged
     c_bands:  1 eigenvalues not converged
     c_bands:  1 eigenvalues not converged
     c_bands:  1 eigenvalues not converged
     c_bands:  1 eigenvalues not converged
     c_bands:  2 eigenvalues not converged
     c_bands:  1 eigenvalues not converged
     c_bands:  1 eigenvalues not converged
     c_bands:  2 eigenvalues not converged
     c_bands:  1 eigenvalues not converged
     c_bands:  1 eigenvalues not converged
     c_bands:  1 eigenvalues not converged
     c_bands:  1 eigenvalues not converged
     c_bands:  2 eigenvalues not converged
     ethr =  7.14E-06,  avg # of iterations =  3.8

     negative rho (up, down):  0.000E+00 4.810E-04

     total cpu time spent up to now is    25115.8 secs

     total energy              =   -2382.17165620 Ry
     estimated scf accuracy    <       0.01374026 Ry

     total magnetization       =    16.00 Bohr mag/cell
     absolute magnetization    =    16.08 Bohr mag/cell

     iteration # 18     ecut=   100.00 Ry     beta= 0.40
     Davidson diagonalization with overlap
     c_bands:  1 eigenvalues not converged
     ethr =  6.36E-06,  avg # of iterations =  1.2

     negative rho (up, down):  0.000E+00 4.902E-04

     total cpu time spent up to now is    25734.0 secs

     total energy              =   -2382.17247037 Ry
     estimated scf accuracy    <       0.00460309 Ry

     total magnetization       =    16.00 Bohr mag/cell
     absolute magnetization    =    16.08 Bohr mag/cell

     iteration # 19     ecut=   100.00 Ry     beta= 0.40
     Davidson diagonalization with overlap
     c_bands:  1 eigenvalues not converged
     c_bands:  1 eigenvalues not converged
     c_bands:  1 eigenvalues not converged
     c_bands:  2 eigenvalues not converged
     c_bands:  1 eigenvalues not converged
     c_bands:  1 eigenvalues not converged
     c_bands:  1 eigenvalues not converged
     c_bands:  1 eigenvalues not converged
     c_bands:  1 eigenvalues not converged
     c_bands:  1 eigenvalues not converged
     c_bands:  1 eigenvalues not converged
     c_bands:  1 eigenvalues not converged
     c_bands:  1 eigenvalues not converged
     c_bands:  1 eigenvalues not converged
     c_bands:  1 eigenvalues not converged
     c_bands:  1 eigenvalues not converged
     c_bands:  1 eigenvalues not converged
     c_bands:  1 eigenvalues not converged
     c_bands:  1 eigenvalues not converged
     c_bands:  2 eigenvalues not converged
     c_bands:  1 eigenvalues not converged
     c_bands:  1 eigenvalues not converged
     c_bands:  1 eigenvalues not converged
     c_bands:  1 eigenvalues not converged
     c_bands:  1 eigenvalues not converged
     c_bands:  1 eigenvalues not converged
     c_bands:  1 eigenvalues not converged
     c_bands:  1 eigenvalues not converged
     c_bands:  1 eigenvalues not converged
     c_bands:  1 eigenvalues not converged
     c_bands:  1 eigenvalues not converged
     c_bands:  1 eigenvalues not converged
     c_bands:  1 eigenvalues not converged
     c_bands:  1 eigenvalues not converged
     c_bands:  1 eigenvalues not converged
     c_bands:  1 eigenvalues not converged
     c_bands:  1 eigenvalues not converged
     c_bands:  2 eigenvalues not converged
     c_bands:  1 eigenvalues not converged
     c_bands:  1 eigenvalues not converged
     c_bands:  1 eigenvalues not converged
     ethr =  2.13E-06,  avg # of iterations = 11.3

     negative rho (up, down):  0.000E+00 4.926E-04

     total cpu time spent up to now is    26685.9 secs

     total energy              =   -2382.17306696 Ry
     estimated scf accuracy    <       0.00043608 Ry

     total magnetization       =    16.00 Bohr mag/cell
     absolute magnetization    =    16.08 Bohr mag/cell

     iteration # 20     ecut=   100.00 Ry     beta= 0.40
     Davidson diagonalization with overlap
     c_bands:  1 eigenvalues not converged
     c_bands:  1 eigenvalues not converged
     ethr =  2.02E-07,  avg # of iterations =  3.1

     negative rho (up, down):  0.000E+00 4.942E-04

     total cpu time spent up to now is    27430.1 secs

     total energy              =   -2382.17318767 Ry
     estimated scf accuracy    <       0.00060087 Ry

     total magnetization       =    16.00 Bohr mag/cell
     absolute magnetization    =    16.08 Bohr mag/cell

     iteration # 21     ecut=   100.00 Ry     beta= 0.40
     Davidson diagonalization with overlap
     c_bands:  1 eigenvalues not converged
     ethr =  2.02E-07,  avg # of iterations =  1.6

     negative rho (up, down):  0.000E+00 4.949E-04

     total cpu time spent up to now is    28089.3 secs

     total energy              =   -2382.17325356 Ry
     estimated scf accuracy    <       0.00030473 Ry

     total magnetization       =    16.00 Bohr mag/cell
     absolute magnetization    =    16.08 Bohr mag/cell

     iteration # 22     ecut=   100.00 Ry     beta= 0.40
     Davidson diagonalization with overlap
     ethr =  1.41E-07,  avg # of iterations =  2.0

     negative rho (up, down):  0.000E+00 4.973E-04

     total cpu time spent up to now is    28819.1 secs

     total energy              =   -2382.17337898 Ry
     estimated scf accuracy    <       0.00007970 Ry

     total magnetization       =    16.00 Bohr mag/cell
     absolute magnetization    =    16.07 Bohr mag/cell

     iteration # 23     ecut=   100.00 Ry     beta= 0.40
     Davidson diagonalization with overlap
     ethr =  3.69E-08,  avg # of iterations =  2.5

     negative rho (up, down):  0.000E+00 4.985E-04

     total cpu time spent up to now is    29590.5 secs

     total energy              =   -2382.17338149 Ry
     estimated scf accuracy    <       0.00017075 Ry

     total magnetization       =    16.00 Bohr mag/cell
     absolute magnetization    =    16.07 Bohr mag/cell

     iteration # 24     ecut=   100.00 Ry     beta= 0.40
     Davidson diagonalization with overlap
     ethr =  3.69E-08,  avg # of iterations =  2.8

     negative rho (up, down):  0.000E+00 5.006E-04

     total cpu time spent up to now is    30426.2 secs

     total energy              =   -2382.17345808 Ry
     estimated scf accuracy    <       0.00002519 Ry

     total magnetization       =    16.00 Bohr mag/cell
     absolute magnetization    =    16.07 Bohr mag/cell

     iteration # 25     ecut=   100.00 Ry     beta= 0.40
     Davidson diagonalization with overlap
     ethr =  1.17E-08,  avg # of iterations =  4.0

     negative rho (up, down):  0.000E+00 5.024E-04

     total cpu time spent up to now is    31355.2 secs

     total energy              =   -2382.17358133 Ry
     estimated scf accuracy    <       0.00001127 Ry

     total magnetization       =    16.00 Bohr mag/cell
     absolute magnetization    =    16.07 Bohr mag/cell

     iteration # 26     ecut=   100.00 Ry     beta= 0.40
     Davidson diagonalization with overlap
     ethr =  5.22E-09,  avg # of iterations =  3.8

     negative rho (up, down):  0.000E+00 5.038E-04

     total cpu time spent up to now is    32255.9 secs

     total energy              =   -2382.17363091 Ry
     estimated scf accuracy    <       0.00000400 Ry

     total magnetization       =    16.00 Bohr mag/cell
     absolute magnetization    =    16.07 Bohr mag/cell

     iteration # 27     ecut=   100.00 Ry     beta= 0.40
     Davidson diagonalization with overlap
     ethr =  1.85E-09,  avg # of iterations =  4.1

     negative rho (up, down):  0.000E+00 5.040E-04

     total cpu time spent up to now is    33212.9 secs

     total energy              =   -2382.17368007 Ry
     estimated scf accuracy    <       0.00000140 Ry

     total magnetization       =    16.00 Bohr mag/cell
     absolute magnetization    =    16.07 Bohr mag/cell

     iteration # 28     ecut=   100.00 Ry     beta= 0.40
     Davidson diagonalization with overlap
     ethr =  6.48E-10,  avg # of iterations =  2.4

     negative rho (up, down):  0.000E+00 5.042E-04

     total cpu time spent up to now is    34000.5 secs

     total energy              =   -2382.17368547 Ry
     estimated scf accuracy    <       0.00000056 Ry

     total magnetization       =    16.00 Bohr mag/cell
     absolute magnetization    =    16.07 Bohr mag/cell

     iteration # 29     ecut=   100.00 Ry     beta= 0.40
     Davidson diagonalization with overlap
     ethr =  2.58E-10,  avg # of iterations =  3.9

     negative rho (up, down):  0.000E+00 5.042E-04

     total cpu time spent up to now is    34915.2 secs

     total energy              =   -2382.17369029 Ry
     estimated scf accuracy    <       0.00000009 Ry

     total magnetization       =    16.00 Bohr mag/cell
     absolute magnetization    =    16.07 Bohr mag/cell

     iteration # 30     ecut=   100.00 Ry     beta= 0.40
     Davidson diagonalization with overlap
     ethr =  4.25E-11,  avg # of iterations =  3.9

     negative rho (up, down):  0.000E+00 5.042E-04

     total cpu time spent up to now is    35787.7 secs

     total energy              =   -2382.17369150 Ry
     estimated scf accuracy    <       0.00000014 Ry

     total magnetization       =    16.00 Bohr mag/cell
     absolute magnetization    =    16.07 Bohr mag/cell

     iteration # 31     ecut=   100.00 Ry     beta= 0.40
     Davidson diagonalization with overlap
     ethr =  4.25E-11,  avg # of iterations =  2.0

     negative rho (up, down):  0.000E+00 5.042E-04

     total cpu time spent up to now is    36506.5 secs

     total energy              =   -2382.17369191 Ry
     estimated scf accuracy    <       0.00000006 Ry

     total magnetization       =    16.00 Bohr mag/cell
     absolute magnetization    =    16.07 Bohr mag/cell

     iteration # 32     ecut=   100.00 Ry     beta= 0.40
     Davidson diagonalization with overlap
     ethr =  2.72E-11,  avg # of iterations =  2.3

     negative rho (up, down):  0.000E+00 5.042E-04

     total cpu time spent up to now is    37260.2 secs

     total energy              =   -2382.17369209 Ry
     estimated scf accuracy    <       0.00000006 Ry

     total magnetization       =    16.00 Bohr mag/cell
     absolute magnetization    =    16.07 Bohr mag/cell

     iteration # 33     ecut=   100.00 Ry     beta= 0.40
     Davidson diagonalization with overlap
     ethr =  2.72E-11,  avg # of iterations =  3.3

     negative rho (up, down):  0.000E+00 5.042E-04

     total cpu time spent up to now is    38123.4 secs

     total energy              =   -2382.17369228 Ry
     estimated scf accuracy    <       0.00000004 Ry

     total magnetization       =    16.00 Bohr mag/cell
     absolute magnetization    =    16.07 Bohr mag/cell

     iteration # 34     ecut=   100.00 Ry     beta= 0.40
     Davidson diagonalization with overlap
     ethr =  1.80E-11,  avg # of iterations =  2.1

     negative rho (up, down):  0.000E+00 5.042E-04

     total cpu time spent up to now is    38879.1 secs

     total energy              =   -2382.17369235 Ry
     estimated scf accuracy    <       0.00000001 Ry

     total magnetization       =    16.00 Bohr mag/cell
     absolute magnetization    =    16.07 Bohr mag/cell

     iteration # 35     ecut=   100.00 Ry     beta= 0.40
     Davidson diagonalization with overlap
     ethr =  4.97E-12,  avg # of iterations =  3.6

     negative rho (up, down):  0.000E+00 5.042E-04

     total cpu time spent up to now is    39670.0 secs

     total energy              =   -2382.17369237 Ry
     estimated scf accuracy    <          9.2E-10 Ry

     total magnetization       =    16.00 Bohr mag/cell
     absolute magnetization    =    16.07 Bohr mag/cell

     iteration # 36     ecut=   100.00 Ry     beta= 0.40
     Davidson diagonalization with overlap
     ethr =  4.25E-13,  avg # of iterations =  4.6

     negative rho (up, down):  0.000E+00 5.042E-04

     total cpu time spent up to now is    40684.2 secs

     total energy              =   -2382.17369238 Ry
     estimated scf accuracy    <          5.0E-10 Ry

     total magnetization       =    16.00 Bohr mag/cell
     absolute magnetization    =    16.07 Bohr mag/cell

     iteration # 37     ecut=   100.00 Ry     beta= 0.40
     Davidson diagonalization with overlap
     ethr =  2.32E-13,  avg # of iterations =  2.0

     negative rho (up, down):  0.000E+00 5.042E-04

     Magnetic moment per site:
     atom:    1    charge:    7.9467    magn:    0.0002    constr:    0.0000
     atom:    2    charge:    7.9467    magn:    0.0002    constr:    0.0000
     atom:    3    charge:    7.9467    magn:    0.0002    constr:    0.0000
     atom:    4    charge:    7.9467    magn:    0.0002    constr:    0.0000
     atom:    5    charge:   13.3141    magn:    3.3226    constr:    0.0000
     atom:    6    charge:   13.3141    magn:    3.3226    constr:    0.0000
     atom:    7    charge:   13.3141    magn:    3.3226    constr:    0.0000
     atom:    8    charge:   13.3141    magn:    3.3226    constr:    0.0000
     atom:    9    charge:    0.8337    magn:    0.0070    constr:    0.0000
     atom:   10    charge:    0.8337    magn:    0.0070    constr:    0.0000
     atom:   11    charge:    0.8337    magn:    0.0070    constr:    0.0000
     atom:   12    charge:    0.8337    magn:    0.0070    constr:    0.0000
     atom:   13    charge:    4.2209    magn:    0.0326    constr:    0.0000
     atom:   14    charge:    4.2209    magn:    0.0326    constr:    0.0000
     atom:   15    charge:    4.2209    magn:    0.0326    constr:    0.0000
     atom:   16    charge:    4.2209    magn:    0.0326    constr:    0.0000
     atom:   17    charge:    4.2180    magn:    0.0425    constr:    0.0000
     atom:   18    charge:    4.2180    magn:    0.0425    constr:    0.0000
     atom:   19    charge:    4.2180    magn:    0.0425    constr:    0.0000
     atom:   20    charge:    4.2180    magn:    0.0425    constr:    0.0000
     atom:   21    charge:    4.1999    magn:    0.0777    constr:    0.0000
     atom:   22    charge:    4.1999    magn:    0.0777    constr:    0.0000
     atom:   23    charge:    4.1996    magn:    0.0777    constr:    0.0000
     atom:   24    charge:    4.1996    magn:    0.0777    constr:    0.0000
     atom:   25    charge:    4.1999    magn:    0.0777    constr:    0.0000
     atom:   26    charge:    4.1999    magn:    0.0777    constr:    0.0000
     atom:   27    charge:    4.1996    magn:    0.0777    constr:    0.0000
     atom:   28    charge:    4.1996    magn:    0.0777    constr:    0.0000

     total cpu time spent up to now is    41408.8 secs

     End of self-consistent calculation

 ------ SPIN UP ------------


          k = 0.0000 0.0000 0.0000 ( 34745 PWs)   bands (ev):

   -80.1756 -80.1755 -80.1754 -80.1753 -47.1089 -47.1088 -47.1078 -47.1076
   -46.0197 -46.0196 -46.0195 -46.0194 -45.5793 -45.5792 -45.5787 -45.5786
   -42.2543 -42.2542 -42.2441 -42.2441 -14.6826 -14.6477 -14.3458 -14.3421
   -14.3043 -14.2937 -14.2923 -14.2883 -14.2710 -14.2133 -14.2129 -14.1901
   -14.1897 -14.0598 -13.6836 -13.5694 -11.5197 -11.4846 -11.4809 -11.4694
   -11.4553 -11.3971 -11.2957 -11.2899 -11.2732 -11.2545 -11.2154 -11.1899
    -1.5897  -1.1505  -0.9348  -0.9242  -0.0225   0.3652   0.4909   0.6404
     0.7084   0.9094   1.2019   1.2256   1.2638   1.3218   1.3293   1.6744
     2.4168   2.6033   2.8779   2.9984   3.1453   3.2765   3.2892   3.4253
     3.4337   3.5334   3.6085   3.7911   3.9157   3.9174   3.9807   4.1135
     4.1984   4.2447   4.2690   4.3407   4.4185   4.4387   4.7176   4.7678
     4.7701   4.8717   5.0068   5.2655   5.3552   5.5181   5.7691   5.8867
     6.3143   6.3228   6.3378   6.5545   6.6030   6.6763   6.7642   6.7841
     6.9279   7.0974   7.3858   7.4009   7.4261   7.5049   7.5413   7.9329
     7.9671   7.9984   8.1661   8.1839  11.3336  13.4023  13.5717  14.1215
    14.5539  14.6710  15.1977  15.7963  15.9621  16.0000  16.1168  16.2354
    16.2852  16.4172

     occupation numbers 
     1.0000   1.0000   1.0000   1.0000   1.0000   1.0000   1.0000   1.0000
     1.0000   1.0000   1.0000   1.0000   1.0000   1.0000   1.0000   1.0000
     1.0000   1.0000   1.0000   1.0000   1.0000   1.0000   1.0000   1.0000
     1.0000   1.0000   1.0000   1.0000   1.0000   1.0000   1.0000   1.0000
     1.0000   1.0000   1.0000   1.0000   1.0000   1.0000   1.0000   1.0000
     1.0000   1.0000   1.0000   1.0000   1.0000   1.0000   1.0000   1.0000
     1.0000   1.0000   1.0000   1.0000   1.0000   1.0000   1.0000   1.0000
     1.0000   1.0000   1.0000   1.0000   1.0000   1.0000   1.0000   1.0000
     1.0000   1.0000   1.0000   1.0000   1.0000   1.0000   1.0000   1.0000
     1.0000   1.0000   1.0000   1.0000   1.0000   1.0000   1.0000   1.0000
     1.0000   1.0000   1.0000   1.0000   1.0000   1.0000   1.0000   1.0000
     1.0000   1.0000   1.0000   1.0000   1.0000   1.0000   1.0000   1.0000
     1.0000   1.0000   1.0000   1.0000   1.0000   1.0000   1.0000   1.0000
     1.0000   1.0000   1.0000   1.0000   1.0000   1.0000   1.0000   1.0000
     1.0000   1.0000   1.0000   1.0000   0.0000   0.0000   0.0000   0.0000
     0.0000   0.0000   0.0000   0.0000   0.0000   0.0000   0.0000   0.0000
     0.0000   0.0000

          k = 0.0000 0.0000 0.2337 ( 34669 PWs)   bands (ev):

   -80.1756 -80.1755 -80.1754 -80.1753 -47.1089 -47.1087 -47.1078 -47.1077
   -46.0197 -46.0196 -46.0195 -46.0194 -45.5793 -45.5792 -45.5787 -45.5786
   -42.2543 -42.2542 -42.2441 -42.2441 -14.6725 -14.6389 -14.4120 -14.3784
   -14.3254 -14.3031 -14.2924 -14.2887 -14.2134 -14.2131 -14.1902 -14.1898
   -14.1553 -13.9977 -13.6979 -13.5911 -11.5318 -11.5090 -11.4971 -11.4608
   -11.4459 -11.3923 -11.3216 -11.2770 -11.2708 -11.2585 -11.2170 -11.1978
    -1.5719  -1.1574  -0.9631  -0.9058   0.0534   0.3921   0.5584   0.7033
     0.7103   0.9276   1.1994   1.2427   1.2754   1.2889   1.3119   1.6533
     2.4179   2.5962   2.8826   2.9478   3.1568   3.2020   3.3064   3.3443
     3.3615   3.4963   3.6493   3.7467   3.8567   3.8974   4.0421   4.0856
     4.1490   4.2038   4.3701   4.3993   4.4607   4.5005   4.6513   4.7459
     4.7471   4.9229   5.0381   5.2880   5.3541   5.5510   5.7613   5.8709
     6.2949   6.3193   6.3334   6.5512   6.5912   6.6887   6.7111   6.7189
     6.9659   7.1203   7.4282   7.4330   7.4500   7.5157   7.5415   7.9064
     7.9442   7.9703   8.1750   8.1782  11.4869  13.4306  13.6565  14.0917
    14.5958  14.6074  15.3508  15.6330  15.7907  15.7992  15.9310  16.1572
    16.3745  16.4144

     occupation numbers 
     1.0000   1.0000   1.0000   1.0000   1.0000   1.0000   1.0000   1.0000
     1.0000   1.0000   1.0000   1.0000   1.0000   1.0000   1.0000   1.0000
     1.0000   1.0000   1.0000   1.0000   1.0000   1.0000   1.0000   1.0000
     1.0000   1.0000   1.0000   1.0000   1.0000   1.0000   1.0000   1.0000
     1.0000   1.0000   1.0000   1.0000   1.0000   1.0000   1.0000   1.0000
     1.0000   1.0000   1.0000   1.0000   1.0000   1.0000   1.0000   1.0000
     1.0000   1.0000   1.0000   1.0000   1.0000   1.0000   1.0000   1.0000
     1.0000   1.0000   1.0000   1.0000   1.0000   1.0000   1.0000   1.0000
     1.0000   1.0000   1.0000   1.0000   1.0000   1.0000   1.0000   1.0000
     1.0000   1.0000   1.0000   1.0000   1.0000   1.0000   1.0000   1.0000
     1.0000   1.0000   1.0000   1.0000   1.0000   1.0000   1.0000   1.0000
     1.0000   1.0000   1.0000   1.0000   1.0000   1.0000   1.0000   1.0000
     1.0000   1.0000   1.0000   1.0000   1.0000   1.0000   1.0000   1.0000
     1.0000   1.0000   1.0000   1.0000   1.0000   1.0000   1.0000   1.0000
     1.0000   1.0000   1.0000   1.0000   0.0000   0.0000   0.0000   0.0000
     0.0000   0.0000   0.0000   0.0000   0.0000   0.0000   0.0000   0.0000
     0.0000   0.0000

          k = 0.0000 0.0000 0.4675 ( 34709 PWs)   bands (ev):

   -80.1756 -80.1755 -80.1754 -80.1753 -47.1088 -47.1086 -47.1079 -47.1078
   -46.0197 -46.0196 -46.0195 -46.0194 -45.5793 -45.5792 -45.5788 -45.5786
   -42.2543 -42.2542 -42.2441 -42.2441 -14.6580 -14.6264 -14.4673 -14.4351
   -14.3220 -14.3034 -14.2926 -14.2896 -14.2136 -14.2134 -14.1904 -14.1900
   -14.0167 -13.8943 -13.7324 -13.6440 -11.5738 -11.5538 -11.5195 -11.4486
   -11.4362 -11.3784 -11.3755 -11.2955 -11.2703 -11.2355 -11.2207 -11.2112
    -1.5179  -1.1657  -1.0111  -0.9143   0.2769   0.4800   0.7124   0.7228
     0.8655   0.9724   1.1978   1.2004   1.2604   1.3123   1.3350   1.5893
     2.4163   2.5798   2.8271   2.8970   3.0790   3.1746   3.1898   3.2152
     3.2786   3.3917   3.6889   3.7240   3.8087   3.8106   3.8750   4.0255
     4.0718   4.1703   4.4734   4.4833   4.6027   4.6378   4.6447   4.7313
     4.7610   5.0020   5.0448   5.3474   5.3565   5.6382   5.7341   5.8492
     6.2746   6.2756   6.3422   6.5185   6.5813   6.5885   6.6030   6.7072
     7.0683   7.1931   7.4553   7.5029   7.5118   7.5371   7.5848   7.8289
     7.8762   7.9158   8.1651   8.1842  11.8915  13.5134  13.8170  14.0941
    14.5621  14.6723  15.1295  15.5197  15.6245  15.7081  15.7674  15.8074
    16.3273  16.3895

     occupation numbers 
     1.0000   1.0000   1.0000   1.0000   1.0000   1.0000   1.0000   1.0000
     1.0000   1.0000   1.0000   1.0000   1.0000   1.0000   1.0000   1.0000
     1.0000   1.0000   1.0000   1.0000   1.0000   1.0000   1.0000   1.0000
     1.0000   1.0000   1.0000   1.0000   1.0000   1.0000   1.0000   1.0000
     1.0000   1.0000   1.0000   1.0000   1.0000   1.0000   1.0000   1.0000
     1.0000   1.0000   1.0000   1.0000   1.0000   1.0000   1.0000   1.0000
     1.0000   1.0000   1.0000   1.0000   1.0000   1.0000   1.0000   1.0000
     1.0000   1.0000   1.0000   1.0000   1.0000   1.0000   1.0000   1.0000
     1.0000   1.0000   1.0000   1.0000   1.0000   1.0000   1.0000   1.0000
     1.0000   1.0000   1.0000   1.0000   1.0000   1.0000   1.0000   1.0000
     1.0000   1.0000   1.0000   1.0000   1.0000   1.0000   1.0000   1.0000
     1.0000   1.0000   1.0000   1.0000   1.0000   1.0000   1.0000   1.0000
     1.0000   1.0000   1.0000   1.0000   1.0000   1.0000   1.0000   1.0000
     1.0000   1.0000   1.0000   1.0000   1.0000   1.0000   1.0000   1.0000
     1.0000   1.0000   1.0000   1.0000   0.0000   0.0000   0.0000   0.0000
     0.0000   0.0000   0.0000   0.0000   0.0000   0.0000   0.0000   0.0000
     0.0000   0.0000

          k = 0.0000 0.0000 0.7012 ( 34655 PWs)   bands (ev):

   -80.1756 -80.1755 -80.1754 -80.1753 -47.1086 -47.1085 -47.1080 -47.1079
   -46.0196 -46.0195 -46.0195 -46.0194 -45.5792 -45.5791 -45.5788 -45.5787
   -42.2542 -42.2542 -42.2441 -42.2441 -14.6659 -14.6405 -14.4552 -14.4412
   -14.3130 -14.2977 -14.2928 -14.2908 -14.2139 -14.2137 -14.1905 -14.1902
   -13.9224 -13.8504 -13.7464 -13.6771 -11.6271 -11.5954 -11.5412 -11.5037
   -11.3992 -11.3876 -11.3570 -11.3229 -11.2895 -11.2554 -11.2059 -11.1984
    -1.4288  -1.1552  -1.0847  -0.9717   0.5954   0.6293   0.7598   0.8278
     1.0281   1.0434   1.0717   1.1979   1.2229   1.4643   1.4879   1.4886
     2.3957   2.5768   2.6728   2.9091   2.9273   2.9954   3.1512   3.1619
     3.2043   3.2679   3.3875   3.6539   3.7453   3.8049   3.8836   3.9597
     4.0931   4.1049   4.3596   4.4011   4.7279   4.7806   4.8129   4.8406
     4.8603   5.0690   5.0926   5.3197   5.3643   5.6320   5.7881   5.8897
     6.2269   6.2776   6.3536   6.4342   6.4689   6.4979   6.6015   6.7057
     7.2137   7.3146   7.4893   7.5102   7.5498   7.5611   7.6882   7.7071
     7.7666   7.8693   8.1554   8.1814  12.4310  13.6621  13.7501  14.3095
    14.5606  14.5843  14.9455  15.3046  15.4752  15.5833  15.7152  15.7215
    16.0033  16.3716

     occupation numbers 
     1.0000   1.0000   1.0000   1.0000   1.0000   1.0000   1.0000   1.0000
     1.0000   1.0000   1.0000   1.0000   1.0000   1.0000   1.0000   1.0000
     1.0000   1.0000   1.0000   1.0000   1.0000   1.0000   1.0000   1.0000
     1.0000   1.0000   1.0000   1.0000   1.0000   1.0000   1.0000   1.0000
     1.0000   1.0000   1.0000   1.0000   1.0000   1.0000   1.0000   1.0000
     1.0000   1.0000   1.0000   1.0000   1.0000   1.0000   1.0000   1.0000
     1.0000   1.0000   1.0000   1.0000   1.0000   1.0000   1.0000   1.0000
     1.0000   1.0000   1.0000   1.0000   1.0000   1.0000   1.0000   1.0000
     1.0000   1.0000   1.0000   1.0000   1.0000   1.0000   1.0000   1.0000
     1.0000   1.0000   1.0000   1.0000   1.0000   1.0000   1.0000   1.0000
     1.0000   1.0000   1.0000   1.0000   1.0000   1.0000   1.0000   1.0000
     1.0000   1.0000   1.0000   1.0000   1.0000   1.0000   1.0000   1.0000
     1.0000   1.0000   1.0000   1.0000   1.0000   1.0000   1.0000   1.0000
     1.0000   1.0000   1.0000   1.0000   1.0000   1.0000   1.0000   1.0000
     1.0000   1.0000   1.0000   1.0000   0.0000   0.0000   0.0000   0.0000
     0.0000   0.0000   0.0000   0.0000   0.0000   0.0000   0.0000   0.0000
     0.0000   0.0000

          k = 0.0000 0.0000 0.9349 ( 34716 PWs)   bands (ev):

   -80.1756 -80.1755 -80.1754 -80.1753 -47.1084 -47.1083 -47.1082 -47.1081
   -46.0196 -46.0195 -46.0195 -46.0194 -45.5791 -45.5790 -45.5790 -45.5788
   -42.2542 -42.2542 -42.2441 -42.2440 -14.6761 -14.6666 -14.4238 -14.4213
   -14.2983 -14.2926 -14.2919 -14.2915 -14.2140 -14.2140 -14.1905 -14.1904
   -13.9101 -13.8885 -13.6998 -13.6708 -11.6538 -11.6354 -11.5564 -11.5507
   -11.3716 -11.3559 -11.3491 -11.3300 -11.3168 -11.2957 -11.1902 -11.1890
    -1.3126  -1.1889  -1.1164  -1.0510   0.7571   0.8325   0.8387   0.8967
     0.9412   1.0309   1.1291   1.2178   1.2812   1.3757   1.6476   1.6629
     2.3783   2.4854   2.6171   2.7367   2.8625   2.9280   2.9887   3.0825
     3.1547   3.1927   3.3578   3.4811   3.7853   3.8071   3.9001   3.9097
     4.1414   4.1496   4.2338   4.2758   4.7935   4.8305   4.8487   4.8828
     5.0791   5.1548   5.2495   5.2532   5.2951   5.4911   5.9036   5.9528
     6.2215   6.3138   6.3178   6.3756   6.3788   6.4200   6.6393   6.6795
     7.3818   7.4665   7.5120   7.5134   7.5526   7.5590   7.5747   7.6246
     7.7734   7.8296   8.1578   8.1697  12.9911  13.4657  13.8825  14.1367
    14.6430  14.6844  14.9357  15.0946  15.4315  15.5738  15.6086  15.6381
    15.9006  16.1093

     occupation numbers 
     1.0000   1.0000   1.0000   1.0000   1.0000   1.0000   1.0000   1.0000
     1.0000   1.0000   1.0000   1.0000   1.0000   1.0000   1.0000   1.0000
     1.0000   1.0000   1.0000   1.0000   1.0000   1.0000   1.0000   1.0000
     1.0000   1.0000   1.0000   1.0000   1.0000   1.0000   1.0000   1.0000
     1.0000   1.0000   1.0000   1.0000   1.0000   1.0000   1.0000   1.0000
     1.0000   1.0000   1.0000   1.0000   1.0000   1.0000   1.0000   1.0000
     1.0000   1.0000   1.0000   1.0000   1.0000   1.0000   1.0000   1.0000
     1.0000   1.0000   1.0000   1.0000   1.0000   1.0000   1.0000   1.0000
     1.0000   1.0000   1.0000   1.0000   1.0000   1.0000   1.0000   1.0000
     1.0000   1.0000   1.0000   1.0000   1.0000   1.0000   1.0000   1.0000
     1.0000   1.0000   1.0000   1.0000   1.0000   1.0000   1.0000   1.0000
     1.0000   1.0000   1.0000   1.0000   1.0000   1.0000   1.0000   1.0000
     1.0000   1.0000   1.0000   1.0000   1.0000   1.0000   1.0000   1.0000
     1.0000   1.0000   1.0000   1.0000   1.0000   1.0000   1.0000   1.0000
     1.0000   1.0000   1.0000   1.0000   0.0000   0.0000   0.0000   0.0000
     0.0000   0.0000   0.0000   0.0000   0.0000   0.0000   0.0000   0.0000
     0.0000   0.0000

          k = 0.0000 0.2391 0.0000 ( 34769 PWs)   bands (ev):

   -80.1756 -80.1755 -80.1754 -80.1753 -47.1088 -47.1087 -47.1078 -47.1077
   -46.0197 -46.0196 -46.0195 -46.0194 -45.5793 -45.5792 -45.5787 -45.5786
   -42.2538 -42.2537 -42.2446 -42.2446 -14.6686 -14.6372 -14.3533 -14.3414
   -14.3378 -14.3169 -14.2991 -14.2896 -14.2647 -14.2444 -14.2018 -14.2000
   -14.1386 -14.0034 -13.6905 -13.5951 -11.5118 -11.4981 -11.4919 -11.4539
   -11.4492 -11.4362 -11.3332 -11.2860 -11.2403 -11.2180 -11.2142 -11.2080
    -1.5522  -1.1224  -0.9519  -0.9220   0.0231   0.3863   0.5080   0.6208
     0.7634   0.9132   1.1335   1.2114   1.3277   1.3317   1.3575   1.6460
     2.4311   2.6077   2.8740   2.9237   3.0405   3.2287   3.2733   3.4281
     3.4344   3.5041   3.6774   3.8111   3.8148   3.8376   4.0060   4.1844
     4.1917   4.2678   4.2850   4.3218   4.5040   4.5379   4.5972   4.7698
     4.8127   4.8834   4.9871   5.2357   5.3540   5.4723   5.7096   5.9050
     6.2250   6.2765   6.3803   6.4881   6.5346   6.6637   6.8090   6.9203
     6.9250   7.0566   7.4095   7.4237   7.4779   7.4966   7.5794   7.7746
     7.7767   8.1439   8.2198   8.2461  11.5035  13.4982  13.6718  14.0981
    14.6551  14.7637  15.1584  15.7920  15.7951  16.0644  16.0776  16.1918
    16.2535  16.4991

     occupation numbers 
     1.0000   1.0000   1.0000   1.0000   1.0000   1.0000   1.0000   1.0000
     1.0000   1.0000   1.0000   1.0000   1.0000   1.0000   1.0000   1.0000
     1.0000   1.0000   1.0000   1.0000   1.0000   1.0000   1.0000   1.0000
     1.0000   1.0000   1.0000   1.0000   1.0000   1.0000   1.0000   1.0000
     1.0000   1.0000   1.0000   1.0000   1.0000   1.0000   1.0000   1.0000
     1.0000   1.0000   1.0000   1.0000   1.0000   1.0000   1.0000   1.0000
     1.0000   1.0000   1.0000   1.0000   1.0000   1.0000   1.0000   1.0000
     1.0000   1.0000   1.0000   1.0000   1.0000   1.0000   1.0000   1.0000
     1.0000   1.0000   1.0000   1.0000   1.0000   1.0000   1.0000   1.0000
     1.0000   1.0000   1.0000   1.0000   1.0000   1.0000   1.0000   1.0000
     1.0000   1.0000   1.0000   1.0000   1.0000   1.0000   1.0000   1.0000
     1.0000   1.0000   1.0000   1.0000   1.0000   1.0000   1.0000   1.0000
     1.0000   1.0000   1.0000   1.0000   1.0000   1.0000   1.0000   1.0000
     1.0000   1.0000   1.0000   1.0000   1.0000   1.0000   1.0000   1.0000
     1.0000   1.0000   1.0000   1.0000   0.0000   0.0000   0.0000   0.0000
     0.0000   0.0000   0.0000   0.0000   0.0000   0.0000   0.0000   0.0000
     0.0000   0.0000

          k = 0.0000 0.2391 0.2337 ( 34721 PWs)   bands (ev):

   -80.1756 -80.1755 -80.1754 -80.1753 -47.1088 -47.1087 -47.1079 -47.1077
   -46.0197 -46.0196 -46.0195 -46.0194 -45.5793 -45.5792 -45.5787 -45.5786
   -42.2538 -42.2537 -42.2446 -42.2446 -14.6588 -14.6284 -14.4184 -14.3813
   -14.3268 -14.3120 -14.2926 -14.2910 -14.2422 -14.2350 -14.2000 -14.1995
   -14.0934 -13.9592 -13.7031 -13.6135 -11.5252 -11.5199 -11.5086 -11.4464
   -11.4376 -11.4271 -11.3548 -11.2731 -11.2554 -11.2230 -11.2127 -11.2116
    -1.5346  -1.1289  -0.9673  -0.9132   0.0962   0.4125   0.5736   0.6785
     0.7687   0.9303   1.1464   1.2273   1.3096   1.3290   1.3296   1.6249
     2.4316   2.5916   2.8609   2.9345   2.9870   3.2030   3.2174   3.3563
     3.3783   3.5560   3.6860   3.7266   3.7842   3.8674   4.0550   4.1602
     4.1730   4.1954   4.3115   4.4111   4.5538   4.5590   4.5591   4.7608
     4.7826   4.9281   5.0103   5.2503   5.3579   5.5015   5.7008   5.8855
     6.2188   6.2649   6.3827   6.4960   6.5392   6.6520   6.7757   6.8660
     6.9401   7.0719   7.4312   7.4503   7.5092   7.5234   7.5822   7.7417
     7.7605   8.1198   8.2156   8.2514  11.6508  13.5274  13.7597  14.0987
    14.6757  14.6863  15.3286  15.5065  15.7717  15.8802  15.9013  16.2033
    16.3964  16.4247

     occupation numbers 
     1.0000   1.0000   1.0000   1.0000   1.0000   1.0000   1.0000   1.0000
     1.0000   1.0000   1.0000   1.0000   1.0000   1.0000   1.0000   1.0000
     1.0000   1.0000   1.0000   1.0000   1.0000   1.0000   1.0000   1.0000
     1.0000   1.0000   1.0000   1.0000   1.0000   1.0000   1.0000   1.0000
     1.0000   1.0000   1.0000   1.0000   1.0000   1.0000   1.0000   1.0000
     1.0000   1.0000   1.0000   1.0000   1.0000   1.0000   1.0000   1.0000
     1.0000   1.0000   1.0000   1.0000   1.0000   1.0000   1.0000   1.0000
     1.0000   1.0000   1.0000   1.0000   1.0000   1.0000   1.0000   1.0000
     1.0000   1.0000   1.0000   1.0000   1.0000   1.0000   1.0000   1.0000
     1.0000   1.0000   1.0000   1.0000   1.0000   1.0000   1.0000   1.0000
     1.0000   1.0000   1.0000   1.0000   1.0000   1.0000   1.0000   1.0000
     1.0000   1.0000   1.0000   1.0000   1.0000   1.0000   1.0000   1.0000
     1.0000   1.0000   1.0000   1.0000   1.0000   1.0000   1.0000   1.0000
     1.0000   1.0000   1.0000   1.0000   1.0000   1.0000   1.0000   1.0000
     1.0000   1.0000   1.0000   1.0000   0.0000   0.0000   0.0000   0.0000
     0.0000   0.0000   0.0000   0.0000   0.0000   0.0000   0.0000   0.0000
     0.0000   0.0000

          k = 0.0000 0.2391 0.4675 ( 34695 PWs)   bands (ev):

   -80.1756 -80.1755 -80.1754 -80.1753 -47.1087 -47.1086 -47.1079 -47.1078
   -46.0197 -46.0196 -46.0195 -46.0194 -45.5792 -45.5791 -45.5788 -45.5787
   -42.2538 -42.2537 -42.2446 -42.2446 -14.6443 -14.6153 -14.4646 -14.4336
   -14.3226 -14.3098 -14.2921 -14.2911 -14.2303 -14.2290 -14.1996 -14.1991
   -13.9862 -13.8743 -13.7333 -13.6580 -11.5665 -11.5594 -11.5365 -11.4524
   -11.4135 -11.4034 -11.3973 -11.2869 -11.2540 -11.2400 -11.2249 -11.2009
    -1.4815  -1.1373  -1.0023  -0.9238   0.3123   0.4957   0.7234   0.7520
     0.8659   0.9701   1.1750   1.2309   1.2708   1.3150   1.3487   1.5649
     2.4205   2.5634   2.7916   2.8928   2.9539   3.0894   3.1081   3.2397
     3.3527   3.5058   3.6439   3.6933   3.7646   3.8432   3.9103   4.0188
     4.1515   4.1616   4.4191   4.4399   4.6062   4.6451   4.6784   4.7546
     4.7988   5.0044   5.0100   5.2854   5.3836   5.5752   5.6747   5.8439
     6.2060   6.2431   6.3892   6.5048   6.5542   6.6179   6.6746   6.7855
     7.0069   7.1215   7.4544   7.5196   7.5372   7.5588   7.6527   7.6690
     7.6947   8.0650   8.2073   8.2552  12.0426  13.6108  13.9313  14.1517
    14.6369  14.7344  15.0509  15.5548  15.6434  15.6734  15.8010  15.8768
    16.2987  16.3974

     occupation numbers 
     1.0000   1.0000   1.0000   1.0000   1.0000   1.0000   1.0000   1.0000
     1.0000   1.0000   1.0000   1.0000   1.0000   1.0000   1.0000   1.0000
     1.0000   1.0000   1.0000   1.0000   1.0000   1.0000   1.0000   1.0000
     1.0000   1.0000   1.0000   1.0000   1.0000   1.0000   1.0000   1.0000
     1.0000   1.0000   1.0000   1.0000   1.0000   1.0000   1.0000   1.0000
     1.0000   1.0000   1.0000   1.0000   1.0000   1.0000   1.0000   1.0000
     1.0000   1.0000   1.0000   1.0000   1.0000   1.0000   1.0000   1.0000
[...]
     atom   16 type  3   force =     0.17719305    0.00001099    1.48940354
     atom   17 type  3   force =     1.25074325    0.00000348   -0.65369238
     atom   18 type  3   force =    -1.25075098   -0.00000139   -0.65368964
     atom   19 type  3   force =    -1.25074325   -0.00000348    0.65369238
     atom   20 type  3   force =     1.25075098    0.00000139    0.65368964
     atom   21 type  3   force =    -0.70576786   -0.99494651    0.68628657
     atom   22 type  3   force =     0.70577293    0.99494699    0.68629210
     atom   23 type  3   force =     0.70576090   -0.99493042   -0.68627115
     atom   24 type  3   force =    -0.70575761    0.99493051   -0.68627639
     atom   25 type  3   force =     0.70576786    0.99494651   -0.68628657
     atom   26 type  3   force =    -0.70577293   -0.99494699   -0.68629210
     atom   27 type  3   force =    -0.70576090    0.99493042    0.68627115
     atom   28 type  3   force =     0.70575761   -0.99493051    0.68627639
     The ionic contribution  to forces
     atom    1 type  2   force =    -0.00004653    0.00001669   -0.00003880
     atom    2 type  2   force =    -0.00008460    0.00005474   -0.00003234
     atom    3 type  2   force =     0.00001880    0.00000403   -0.00003166
     atom    4 type  2   force =    -0.00002828   -0.00003832   -0.00001342
     atom    5 type  1   force =     3.11864864    0.00055110   -0.97809029
     atom    6 type  1   force =    -3.11870125   -0.00040895   -0.97804913
     atom    7 type  1   force =    -3.11867068   -0.00037982    0.97813423
     atom    8 type  1   force =     3.11894464    0.00051210    0.97809258
     atom    9 type  4   force =    -0.82429294    0.00005787    1.55375047
     atom   10 type  4   force =     0.82436461   -0.00011269    1.55366898
     atom   11 type  4   force =     0.82433849   -0.00010507   -1.55371327
     atom   12 type  4   force =    -0.82435084    0.00010908   -1.55366975
     atom   13 type  3   force =    -4.02797705    0.00010505    1.32689268
     atom   14 type  3   force =     4.02806862   -0.00013932    1.32691724
     atom   15 type  3   force =     4.02801042   -0.00012315   -1.32690514
     atom   16 type  3   force =    -4.02809086    0.00011163   -1.32689220
     atom   17 type  3   force =    -1.28778796    0.00008851    2.80840396
     atom   18 type  3   force =     1.28776974   -0.00008091    2.80839543
     atom   19 type  3   force =     1.28773343   -0.00009016   -2.80839092
     atom   20 type  3   force =    -1.28798730    0.00006719   -2.80834700
     atom   21 type  3   force =     0.47735396    1.63777096   -1.46206230
     atom   22 type  3   force =    -0.47732243   -1.63783129   -1.46201104
     atom   23 type  3   force =    -0.47708812    1.63769981    1.46185727
     atom   24 type  3   force =     0.47712597   -1.63775883    1.46178119
     atom   25 type  3   force =    -0.47728079   -1.63786285    1.46198244
     atom   26 type  3   force =     0.47731740    1.63779293    1.46203156
     atom   27 type  3   force =     0.47714641   -1.63767254   -1.46177428
     atom   28 type  3   force =    -0.47713149    1.63766224   -1.46188649
     The local contribution  to forces
     atom    1 type  2   force =    -0.00000000    0.00000000    0.00000000
     atom    2 type  2   force =     0.00000000    0.00000000    0.00000000
     atom    3 type  2   force =     0.00000000    0.00000000    0.00000000
     atom    4 type  2   force =     0.00000000   -0.00000000    0.00000000
     atom    5 type  1   force =    -3.06863429   -0.00046659    0.93144638
     atom    6 type  1   force =     3.07060817    0.00046163    0.93142388
     atom    7 type  1   force =     3.06863429    0.00046659   -0.93144638
     atom    8 type  1   force =    -3.06696835   -0.00046163   -0.93139348
     atom    9 type  4   force =     0.80545560   -0.00008106   -1.52080992
     atom   10 type  4   force =    -0.80550031    0.00010448   -1.52075788
     atom   11 type  4   force =    -0.80545962    0.00007618    1.52081591
     atom   12 type  4   force =     0.80550031   -0.00010936    1.52075789
     atom   13 type  3   force =     3.84936909   -0.00037880    0.18924092
     atom   14 type  3   force =    -3.84906337   -0.00011804    0.18926791
     atom   15 type  3   force =    -3.84936909   -0.00012937   -0.18924092
     atom   16 type  3   force =     3.84984689   -0.00039013   -0.18922478
     atom   17 type  3   force =     0.01178209   -0.00009341   -2.14639618
     atom   18 type  3   force =    -0.01186981    0.00007619   -2.14617550
     atom   19 type  3   force =    -0.01178209    0.00009341    2.14639618
     atom   20 type  3   force =     0.01189271   -0.00007619    2.14656794
     atom   21 type  3   force =     0.23962455   -0.62379122    0.76617341
     atom   22 type  3   force =    -0.23917927    0.62334998    0.76611561
     atom   23 type  3   force =    -0.23939338   -0.62365993   -0.76597165
     atom   24 type  3   force =     0.23935525    0.62326570   -0.76594314
     atom   25 type  3   force =    -0.23875564    0.62332860   -0.76611032
     atom   26 type  3   force =     0.23920545   -0.62376878   -0.76615383
     atom   27 type  3   force =     0.23936720    0.62324112    0.76593343
     atom   28 type  3   force =    -0.23938143   -0.62368450    0.76598136
     The core correction contribution to forces
     atom    1 type  2   force =     0.00000000    0.00000000    0.00000000
     atom    2 type  2   force =     0.00000000    0.00000000    0.00000000
     atom    3 type  2   force =     0.00000000    0.00000000    0.00000000
     atom    4 type  2   force =     0.00000000    0.00000000    0.00000000
     atom    5 type  1   force =     0.00330400   -0.00000084   -0.00196481
     atom    6 type  1   force =    -0.00336839    0.00000092   -0.00196383
     atom    7 type  1   force =    -0.00330400    0.00000084    0.00196482
     atom    8 type  1   force =     0.00323942   -0.00000092    0.00196612
     atom    9 type  4   force =    -0.00198635    0.00000116    0.00082886
     atom   10 type  4   force =     0.00198449    0.00000046    0.00082963
     atom   11 type  4   force =     0.00198372    0.00000025   -0.00082887
     atom   12 type  4   force =    -0.00198449    0.00000096   -0.00082963
     atom   13 type  3   force =    -0.00217763   -0.00000023    0.01218675
     atom   14 type  3   force =     0.00217795   -0.00000006    0.01218660
     atom   15 type  3   force =     0.00217763   -0.00000006   -0.01218675
     atom   16 type  3   force =    -0.00217730   -0.00000023   -0.01218669
     atom   17 type  3   force =    -0.00980588   -0.00000002    0.00602660
     atom   18 type  3   force =     0.00980587   -0.00000000    0.00602668
     atom   19 type  3   force =     0.00980588    0.00000002   -0.00602660
     atom   20 type  3   force =    -0.00980580    0.00000000   -0.00602639
     atom   21 type  3   force =     0.00588541    0.00802268   -0.00598332
     atom   22 type  3   force =    -0.00588532   -0.00802323   -0.00598334
     atom   23 type  3   force =    -0.00588508    0.00802254    0.00598308
     atom   24 type  3   force =     0.00588518   -0.00802314    0.00598317
     atom   25 type  3   force =    -0.00588494   -0.00802307    0.00598317
     atom   26 type  3   force =     0.00588519    0.00802262    0.00598328
     atom   27 type  3   force =     0.00588521   -0.00802314   -0.00598313
     atom   28 type  3   force =    -0.00588505    0.00802254   -0.00598312
     The Hubbard contrib.    to forces
     atom    1 type  2   force =     0.00000000    0.00000000    0.00000000
     atom    2 type  2   force =     0.00000000    0.00000000    0.00000000
     atom    3 type  2   force =     0.00000000    0.00000000    0.00000000
     atom    4 type  2   force =     0.00000000    0.00000000    0.00000000
     atom    5 type  1   force =     0.00000000    0.00000000    0.00000000
     atom    6 type  1   force =     0.00000000    0.00000000    0.00000000
     atom    7 type  1   force =     0.00000000    0.00000000    0.00000000
     atom    8 type  1   force =     0.00000000    0.00000000    0.00000000
     atom    9 type  4   force =     0.00000000    0.00000000    0.00000000
     atom   10 type  4   force =     0.00000000    0.00000000    0.00000000
     atom   11 type  4   force =     0.00000000    0.00000000    0.00000000
     atom   12 type  4   force =     0.00000000    0.00000000    0.00000000
     atom   13 type  3   force =     0.00000000    0.00000000    0.00000000
     atom   14 type  3   force =     0.00000000    0.00000000    0.00000000
     atom   15 type  3   force =     0.00000000    0.00000000    0.00000000
     atom   16 type  3   force =     0.00000000    0.00000000    0.00000000
     atom   17 type  3   force =     0.00000000    0.00000000    0.00000000
     atom   18 type  3   force =     0.00000000    0.00000000    0.00000000
     atom   19 type  3   force =     0.00000000    0.00000000    0.00000000
     atom   20 type  3   force =     0.00000000    0.00000000    0.00000000
     atom   21 type  3   force =     0.00000000    0.00000000    0.00000000
     atom   22 type  3   force =     0.00000000    0.00000000    0.00000000
     atom   23 type  3   force =     0.00000000    0.00000000    0.00000000
     atom   24 type  3   force =     0.00000000    0.00000000    0.00000000
     atom   25 type  3   force =     0.00000000    0.00000000    0.00000000
     atom   26 type  3   force =     0.00000000    0.00000000    0.00000000
     atom   27 type  3   force =     0.00000000    0.00000000    0.00000000
     atom   28 type  3   force =     0.00000000    0.00000000    0.00000000
     The SCF correction term to forces
     atom    1 type  2   force =     0.00000000   -0.00000000    0.00000000
     atom    2 type  2   force =     0.00000000   -0.00000000    0.00000000
     atom    3 type  2   force =    -0.00000000   -0.00000000    0.00000000
     atom    4 type  2   force =     0.00000000    0.00000000    0.00000000
     atom    5 type  1   force =     0.00000234   -0.00000015    0.00000059
     atom    6 type  1   force =     0.00000249    0.00000014   -0.00000221
     atom    7 type  1   force =    -0.00000234    0.00000015   -0.00000059
     atom    8 type  1   force =    -0.00000249   -0.00000014    0.00000221
     atom    9 type  4   force =     0.00000080   -0.00000014   -0.00000066
     atom   10 type  4   force =     0.00000130    0.00000000    0.00000051
     atom   11 type  4   force =    -0.00000080    0.00000014    0.00000066
     atom   12 type  4   force =    -0.00000130   -0.00000000   -0.00000051
     atom   13 type  3   force =     0.00000122   -0.00000017    0.00000127
     atom   14 type  3   force =     0.00000094    0.00000000   -0.00000118
     atom   15 type  3   force =    -0.00000122    0.00000017   -0.00000127
     atom   16 type  3   force =    -0.00000094   -0.00000000    0.00000118
     atom   17 type  3   force =    -0.00000027    0.00000009   -0.00000085
     atom   18 type  3   force =    -0.00000161    0.00000001    0.00000049
     atom   19 type  3   force =     0.00000027   -0.00000009    0.00000085
     atom   20 type  3   force =     0.00000161   -0.00000001   -0.00000049
     atom   21 type  3   force =     0.00000112   -0.00000085   -0.00000142
     atom   22 type  3   force =     0.00000158   -0.00000059    0.00000124
     atom   23 type  3   force =    -0.00000116   -0.00000036    0.00000172
     atom   24 type  3   force =    -0.00000163   -0.00000046   -0.00000139
     atom   25 type  3   force =    -0.00000112    0.00000085    0.00000142
     atom   26 type  3   force =    -0.00000158    0.00000059   -0.00000124
     atom   27 type  3   force =     0.00000116    0.00000036   -0.00000172
     atom   28 type  3   force =     0.00000163    0.00000046    0.00000139

     Total force =     0.148381     Total SCF correction =     0.000010


     Computing stress (Cartesian axis) and pressure


     negative rho (up, down):  0.000E+00 5.042E-04
          total   stress  (Ry/bohr**3)                   (kbar)     P=      125.48
   0.00082029  -0.00000000   0.00000000          120.67       -0.00        0.00
  -0.00000000   0.00082959  -0.00000001           -0.00      122.04       -0.00
   0.00000000  -0.00000001   0.00090909            0.00       -0.00      133.73

     kinetic stress (kbar)  34123.19     -0.01      0.00
                               -0.01  33987.11     -0.00
                                0.00     -0.00  34068.77

     local   stress (kbar)  -3187.68     -0.08     -0.01
                               -0.08  -5669.21      0.03
                               -0.01      0.03   -918.64

     nonloc. stress (kbar) -10213.96     -0.00     -0.00
                               -0.00 -10336.85     -0.00
                               -0.00     -0.00 -10156.45

     hartree stress (kbar)  15045.48      0.03      0.00
                                0.03  16104.49     -0.01
                                0.00     -0.01  13874.17

     exc-cor stress (kbar)  -3854.93      0.00      0.00
                                0.00  -3860.77     -0.00
                                0.00     -0.00  -3852.24

     corecor stress (kbar)  -3285.30      0.00     -0.00
                                0.00  -3266.17      0.00
                               -0.00      0.00  -3290.95

     ewald   stress (kbar) -28506.13      0.07      0.01
                                0.07 -26836.55     -0.01
                                0.01     -0.01 -29590.92

     hubbard stress (kbar)      0.00      0.00      0.00
                                0.00      0.00      0.00
                                0.00      0.00      0.00

     DFT-D   stress (kbar)      0.00      0.00      0.00
                                0.00      0.00      0.00
                                0.00      0.00      0.00

     XDM     stress (kbar)      0.00      0.00      0.00
                                0.00      0.00      0.00
                                0.00      0.00      0.00

     dft-nl  stress (kbar)      0.00      0.00      0.00
                                0.00      0.00      0.00
                                0.00      0.00      0.00

     TS-vdW  stress (kbar)      0.00      0.00      0.00
                                0.00      0.00      0.00
                                0.00      0.00      0.00



     init_run     :   1388.59s CPU   1539.92s WALL (       1 calls)
     electrons    :  33786.04s CPU  39846.35s WALL (       1 calls)
     forces       :    150.17s CPU    225.79s WALL (       1 calls)
     stress       :    965.02s CPU    999.70s WALL (       1 calls)

     Called by init_run:
     wfcinit      :   1372.69s CPU   1521.89s WALL (       1 calls)
     wfcinit:atom :      1.10s CPU      1.22s WALL (     316 calls)
     wfcinit:wfcr :   1365.71s CPU   1514.03s WALL (     316 calls)
     potinit      :      7.21s CPU      8.05s WALL (       1 calls)
     hinit0       :      4.80s CPU      5.30s WALL (       1 calls)

     Called by electrons:
     c_bands      :  29432.78s CPU  31524.40s WALL (      37 calls)
     sum_band     :   4201.78s CPU   8132.99s WALL (      37 calls)
     v_of_rho     :     42.76s CPU     51.95s WALL (      38 calls)
     v_h          :      2.44s CPU      3.10s WALL (      38 calls)
     v_xc         :     42.23s CPU     50.95s WALL (      40 calls)
     newd         :     64.73s CPU     84.03s WALL (      38 calls)
     PAW_pot      :     34.78s CPU     35.47s WALL (      38 calls)
     mix_rho      :      9.54s CPU     14.38s WALL (      37 calls)

     Called by c_bands:
     init_us_2    :    348.73s CPU    366.30s WALL (   24332 calls)
     cegterg      :  28899.21s CPU  30214.34s WALL (   11692 calls)

     Called by sum_band:
     sum_band:wei :      0.65s CPU      0.99s WALL (      37 calls)
     sum_band:loo :   3475.84s CPU   3633.02s WALL (      37 calls)
     sum_band:buf :     97.09s CPU     99.75s WALL (   11692 calls)
     sum_band:ini :    173.79s CPU    178.68s WALL (   11692 calls)
     sum_band:cal :   1038.32s CPU   1060.21s WALL (   11692 calls)
     sum_band:bec :      9.08s CPU      9.24s WALL (   11692 calls)
     addusdens    :     29.54s CPU   3782.51s WALL (      37 calls)
     addusd:skk   :      0.49s CPU     12.13s WALL (     111 calls)
     addusd:dgemm :     10.32s CPU   3725.78s WALL (     222 calls)
     addusd:qvan2 :     15.84s CPU     39.64s WALL (     222 calls)

     Called by *egterg:
     cdiaghg      :   2010.25s CPU   2113.30s WALL (   44046 calls)
     cegterg:over :   2632.71s CPU   2738.43s WALL (   32354 calls)
     cegterg:upda :   1300.77s CPU   1322.80s WALL (   32354 calls)
     cegterg:last :   2504.28s CPU   2543.97s WALL (   20137 calls)
     h_psi        :  17636.36s CPU  18716.89s WALL (   44362 calls)
     s_psi        :   2317.31s CPU   2354.06s WALL (   44362 calls)
     g_psi        :     19.94s CPU     20.40s WALL (   32354 calls)

     Called by h_psi:
     h_psi:calbec :   2848.85s CPU   2937.71s WALL (   44362 calls)
     vloc_psi     :  12121.29s CPU  13062.44s WALL (   44362 calls)
     add_vuspsi   :   2452.59s CPU   2497.28s WALL (   44362 calls)

     General routines
     calbec       :   4016.17s CPU   4128.70s WALL (   57634 calls)
     fft          :     37.71s CPU     41.89s WALL (     988 calls)
     ffts         :      1.17s CPU      1.36s WALL (     150 calls)
     fftw         :  13957.51s CPU  15022.29s WALL ( 8550988 calls)
     interpolate  :      3.24s CPU      3.92s WALL (      76 calls)

     Parallel routines
     fft_scatt_xy :    413.12s CPU    417.01s WALL ( 8552126 calls)
     fft_scatt_yz :  10914.37s CPU  11953.63s WALL ( 8552126 calls)

     PAW routines
     PAW_pot      :     34.78s CPU     35.47s WALL (      38 calls)
     PAW_symme    :      0.88s CPU      0.95s WALL (      75 calls)

     PWSCF        :     10h 5m CPU     11h50m WALL


   This run was terminated on:  17:53:31  20Dec2022            

=------------------------------------------------------------------------------=
   JOB DONE.
=------------------------------------------------------------------------------=
Note: The following floating-point exceptions are signalling: IEEE_DENORMAL
Note: The following floating-point exceptions are signalling: IEEE_DENORMAL
Note: The following floating-point exceptions are signalling: IEEE_INVALID_FLAG IEEE_DENORMAL
Note: The following floating-point exceptions are signalling: IEEE_UNDERFLOW_FLAG IEEE_DENORMAL
Note: The following floating-point exceptions are signalling: IEEE_DENORMAL
Note: The following floating-point exceptions are signalling: IEEE_INVALID_FLAG IEEE_DENORMAL
Note: The following floating-point exceptions are signalling: IEEE_DENORMAL
Note: The following floating-point exceptions are signalling: IEEE_DENORMAL
Note: The following floating-point exceptions are signalling: IEEE_DENORMAL
Note: The following floating-point exceptions are signalling: IEEE_DENORMAL
Note: The following floating-point exceptions are signalling: IEEE_DENORMAL
Note: The following floating-point exceptions are signalling: IEEE_DENORMAL
Note: The following floating-point exceptions are signalling: IEEE_DENORMAL
Note: The following floating-point exceptions are signalling: IEEE_DENORMAL
Note: The following floating-point exceptions are signalling: IEEE_DENORMAL
Note: The following floating-point exceptions are signalling: IEEE_DENORMAL
Note: The following floating-point exceptions are signalling: IEEE_DENORMAL
Note: The following floating-point exceptions are signalling: IEEE_DENORMAL
Note: The following floating-point exceptions are signalling: IEEE_INVALID_FLAG IEEE_DENORMAL
Note: The following floating-point exceptions are signalling: IEEE_DENORMAL
Note: The following floating-point exceptions are signalling: IEEE_DENORMAL
Note: The following floating-point exceptions are signalling: IEEE_DENORMAL
