
     Program PWSCF v.6.7MaX starts on 12Jan2023 at 14:36:39 

     This program is part of the open-source Quantum ESPRESSO suite
     for quantum simulation of materials; please cite
         "P. Giannozzi et al., J. Phys.:Condens. Matter 21 395502 (2009);
         "P. Giannozzi et al., J. Phys.:Condens. Matter 29 465901 (2017);
          URL http://www.quantum-espresso.org", 
     in publications or presentations arising from this work. More details at
     http://www.quantum-espresso.org/quote

     Parallel version (MPI), running on    32 processors

     MPI processes distributed on     2 nodes
     R & G space division:  proc/nbgrp/npool/nimage =      32
     Reading input from scale_2dab-01.in

     Current dimensions of program PWSCF are:
     Max number of different atomic species (ntypx) = 10
     Max number of k-points (npk) =  40000
     Max angular momentum in pseudopotentials (lmaxx) =  3
     Message from routine read_pp_mesh:
     mesh size missing, using the one in header
     file Fe.pbe-spn-kjpaw_psl.0.2.1.UPF: wavefunction(s)  3D renormalized
     file O.pbe-n-kjpaw_psl.0.1.UPF: wavefunction(s)  2P renormalized

     Subspace diagonalization in iterative solution of the eigenvalue problem:
     a serial algorithm will be used

     Message from routine find_sym:
     Not a group! Trying with lower acceptance parameter...
     Message from routine find_sym:
     Symmetry operations form a group
     Message from routine setup:
     using ibrav=0 with symmetry is DISCOURAGED, use correct ibrav instead

     Parallelization info
     --------------------
     sticks:   dense  smooth     PW     G-vecs:    dense   smooth      PW
     Min         579     215     58                37813     8523    1200
     Max         581     216     59                37814     8526    1202
     Sum       18565    6893   1859              1210029   272791   38441



     bravais-lattice index     =            0
     lattice parameter (alat)  =      19.0096  a.u.
     unit-cell volume          =    2018.7343 (a.u.)^3
     number of atoms/cell      =           28
     number of atomic types    =            4
     number of electrons       =       216.00
     number of Kohn-Sham states=          130
     kinetic-energy cutoff     =     100.0000  Ry
     charge density cutoff     =    1080.0000  Ry
     scf convergence threshold =      2.0E-10
     mixing beta               =       0.4000
     number of iterations used =            8  plain     mixing
     Exchange-correlation= PBE
                           (   1   4   3   4   0   0   0)

     celldm(1)=  19.009555  celldm(2)=   0.000000  celldm(3)=   0.000000
     celldm(4)=   0.000000  celldm(5)=   0.000000  celldm(6)=   0.000000

     crystal axes: (cart. coord. in units of alat)
               a(1) = (   1.000000   0.000000   0.000000 )  
               a(2) = (   0.000000   0.597590   0.000000 )  
               a(3) = (   0.000000   0.000000   0.491768 )  

     reciprocal axes: (cart. coord. in units 2 pi/alat)
               b(1) = (  1.000000  0.000000  0.000000 )  
               b(2) = (  0.000000  1.673388  0.000000 )  
               b(3) = (  0.000000  0.000000  2.033480 )  


     PseudoPot. # 1 for Fe read from file:
     /opt/QEpot/SSSP_precision_pseudos/Fe.pbe-spn-kjpaw_psl.0.2.1.UPF
     MD5 check sum: e86618425769142926afa95317d90200
     Pseudo is Projector augmented-wave + core cor, Zval = 16.0
     Generated using "atomic" code by A. Dal Corso  v.5.0.99 svn rev. 10869
     Shape of augmentation charge: PSQ
     Using radial grid of 1191 points,  6 beta functions with: 
                l(1) =   0
                l(2) =   0
                l(3) =   1
                l(4) =   1
                l(5) =   2
                l(6) =   2
     Q(r) pseudized with 0 coefficients 


     PseudoPot. # 2 for Na read from file:
     /opt/QEpot/SSSP_precision_pseudos/Na_ONCV_PBE-1.0.oncvpsp.upf
     MD5 check sum: 24a298df0a6742ae313db96548fdb2a4
     Pseudo is Norm-conserving, Zval =  9.0
     Generated using ONCVPSP code by D. R. Hamann
     Using radial grid of 1992 points,  4 beta functions with: 
                l(1) =   0
                l(2) =   0
                l(3) =   1
                l(4) =   1

     PseudoPot. # 3 for O  read from file:
     /opt/QEpot/SSSP_precision_pseudos/O.pbe-n-kjpaw_psl.0.1.UPF
     MD5 check sum: 0234752ac141de4415c5fc33072bef88
     Pseudo is Projector augmented-wave + core cor, Zval =  6.0
     Generated using "atomic" code by A. Dal Corso  v.5.0.99 svn rev. 10869
     Shape of augmentation charge: BESSEL
     Using radial grid of 1095 points,  4 beta functions with: 
                l(1) =   0
                l(2) =   0
                l(3) =   1
                l(4) =   1
     Q(r) pseudized with 0 coefficients 


     PseudoPot. # 4 for P  read from file:
     /opt/QEpot/SSSP_precision_pseudos/P.pbe-n-rrkjus_psl.1.0.0.UPF
     MD5 check sum: 8b930f418f0a4573dca56cd030ffe088
     Pseudo is Ultrasoft + core correction, Zval =  5.0
     Generated using "atomic" code by A. Dal Corso  v.5.1
     Using radial grid of 1147 points,  6 beta functions with: 
                l(1) =   0
                l(2) =   0
                l(3) =   1
                l(4) =   1
                l(5) =   2
                l(6) =   2
     Q(r) pseudized with 0 coefficients 


     atomic species   valence    mass     pseudopotential
        Fe            16.00    55.84500     Fe( 1.00)
        Na             9.00    22.98977     Na( 1.00)
        O              6.00    15.99940     O ( 1.00)
        P              5.00    30.97376     P ( 1.00)

     Starting magnetic structure 
     atomic species   magnetization
        Fe           0.312
        Na           0.000
        O            0.000
        P            0.000

      2 Sym. Ops., with inversion, found ( 1 have fractional translation)


                                    s                        frac. trans.

      isym =  1     identity                                     

 cryst.   s( 1) = (     1          0          0      )
                  (     0          1          0      )
                  (     0          0          1      )

 cart.    s( 1) = (  1.0000000  0.0000000  0.0000000 )
                  (  0.0000000  1.0000000  0.0000000 )
                  (  0.0000000  0.0000000  1.0000000 )


      isym =  2     inversion                                    

 cryst.   s( 2) = (    -1          0          0      )    f =( -0.0000060 )
                  (     0         -1          0      )       ( -0.0000040 )
                  (     0          0         -1      )       ( -0.0000060 )

 cart.    s( 2) = ( -1.0000000  0.0000000  0.0000000 )    f =( -0.0000060 )
                  (  0.0000000 -1.0000000  0.0000000 )       ( -0.0000024 )
                  (  0.0000000  0.0000000 -1.0000000 )       ( -0.0000030 )


   Cartesian axes

     site n.     atom                  positions (alat units)
         1           Na  tau(   1) = (   0.0000030   0.0000012   0.0000015  )
         2           Na  tau(   2) = (   0.5000030   0.0000012   0.2458854  )
         3           Na  tau(   3) = (   0.0000030   0.2987962   0.0000015  )
         4           Na  tau(   4) = (   0.5000030   0.2987962   0.2458854  )
         5           Fe  tau(   5) = (   0.2868420   0.4481918   0.4828082  )
         6           Fe  tau(   6) = (   0.2131640   0.1494005   0.2369244  )
         7           Fe  tau(   7) = (   0.7131640   0.1494005   0.0089625  )
         8           Fe  tau(   8) = (   0.7868410   0.4481918   0.2548463  )
         9           P   tau(   9) = (   0.1082720   0.4481948   0.2174105  )
        10           P   tau(  10) = (   0.3917330   0.1493981   0.4632949  )
        11           P   tau(  11) = (   0.8917330   0.1493981   0.2743602  )
        12           P   tau(  12) = (   0.6082730   0.4481948   0.0284758  )
        13           O   tau(  13) = (   0.1122130   0.4481936   0.3705322  )
        14           O   tau(  14) = (   0.3877920   0.1493993   0.1246484  )
        15           O   tau(  15) = (   0.8877930   0.1493993   0.1212385  )
        16           O   tau(  16) = (   0.6122130   0.4481936   0.3671223  )
        17           O   tau(  17) = (   0.4671820   0.4481936   0.0801690  )
        18           O   tau(  18) = (   0.0328240   0.1493987   0.3260528  )
        19           O   tau(  19) = (   0.5328240   0.1493987   0.4116017  )
        20           O   tau(  20) = (   0.9671820   0.4481936   0.1657174  )
        21           O   tau(  21) = (   0.1790170   0.5668881   0.1535348  )
        22           O   tau(  22) = (   0.3209880   0.0307048   0.3994187  )
        23           O   tau(  23) = (   0.8209870   0.2680908   0.3382369  )
        24           O   tau(  24) = (   0.6790190   0.3295021   0.0923530  )
        25           O   tau(  25) = (   0.8209880   0.0307048   0.3382359  )
        26           O   tau(  26) = (   0.6790180   0.5668881   0.0923520  )
        27           O   tau(  27) = (   0.1790190   0.3295021   0.1535338  )
        28           O   tau(  28) = (   0.3209870   0.2680908   0.3994177  )

   Crystallographic axes

     site n.     atom                  positions (cryst. coord.)
         1           Na  tau(   1) = (  0.0000030  0.0000020  0.0000030  )
         2           Na  tau(   2) = (  0.5000030  0.0000020  0.5000030  )
         3           Na  tau(   3) = (  0.0000030  0.5000020  0.0000030  )
         4           Na  tau(   4) = (  0.5000030  0.5000020  0.5000030  )
         5           Fe  tau(   5) = (  0.2868420  0.7499990  0.9817810  )
         6           Fe  tau(   6) = (  0.2131640  0.2500050  0.4817810  )
         7           Fe  tau(   7) = (  0.7131640  0.2500050  0.0182250  )
         8           Fe  tau(   8) = (  0.7868410  0.7499990  0.5182250  )
         9           P   tau(   9) = (  0.1082720  0.7500040  0.4421000  )
        10           P   tau(  10) = (  0.3917330  0.2500010  0.9421010  )
        11           P   tau(  11) = (  0.8917330  0.2500010  0.5579060  )
        12           P   tau(  12) = (  0.6082730  0.7500040  0.0579050  )
        13           O   tau(  13) = (  0.1122130  0.7500020  0.7534700  )
        14           O   tau(  14) = (  0.3877920  0.2500030  0.2534700  )
        15           O   tau(  15) = (  0.8877930  0.2500030  0.2465360  )
        16           O   tau(  16) = (  0.6122130  0.7500020  0.7465360  )
        17           O   tau(  17) = (  0.4671820  0.7500020  0.1630220  )
        18           O   tau(  18) = (  0.0328240  0.2500020  0.6630220  )
        19           O   tau(  19) = (  0.5328240  0.2500020  0.8369840  )
        20           O   tau(  20) = (  0.9671820  0.7500020  0.3369830  )
        21           O   tau(  21) = (  0.1790170  0.9486240  0.3122100  )
        22           O   tau(  22) = (  0.3209880  0.0513810  0.8122100  )
        23           O   tau(  23) = (  0.8209870  0.4486200  0.6877980  )
        24           O   tau(  24) = (  0.6790190  0.5513850  0.1877980  )
        25           O   tau(  25) = (  0.8209880  0.0513810  0.6877960  )
        26           O   tau(  26) = (  0.6790180  0.9486240  0.1877960  )
        27           O   tau(  27) = (  0.1790190  0.5513850  0.3122080  )
        28           O   tau(  28) = (  0.3209870  0.4486200  0.8122080  )

     number of k points=   158  Marzari-Vanderbilt smearing, width (Ry)=  0.0073
                       cart. coord. in units 2pi/alat
        k(    1) = (   0.0000000   0.0000000   0.0000000), wk =   0.0031746
        k(    2) = (   0.0000000   0.0000000   0.2259422), wk =   0.0063492
        k(    3) = (   0.0000000   0.0000000   0.4518845), wk =   0.0063492
        k(    4) = (   0.0000000   0.0000000   0.6778267), wk =   0.0063492
        k(    5) = (   0.0000000   0.0000000   0.9037690), wk =   0.0063492
        k(    6) = (   0.0000000   0.2390555   0.0000000), wk =   0.0063492
        k(    7) = (   0.0000000   0.2390555   0.2259422), wk =   0.0063492
        k(    8) = (   0.0000000   0.2390555   0.4518845), wk =   0.0063492
        k(    9) = (   0.0000000   0.2390555   0.6778267), wk =   0.0063492
        k(   10) = (   0.0000000   0.2390555   0.9037690), wk =   0.0063492
        k(   11) = (   0.0000000   0.4781110   0.0000000), wk =   0.0063492
        k(   12) = (   0.0000000   0.4781110   0.2259422), wk =   0.0063492
        k(   13) = (   0.0000000   0.4781110   0.4518845), wk =   0.0063492
        k(   14) = (   0.0000000   0.4781110   0.6778267), wk =   0.0063492
        k(   15) = (   0.0000000   0.4781110   0.9037690), wk =   0.0063492
        k(   16) = (   0.0000000   0.7171664   0.0000000), wk =   0.0063492
        k(   17) = (   0.0000000   0.7171664   0.2259422), wk =   0.0063492
        k(   18) = (   0.0000000   0.7171664   0.4518845), wk =   0.0063492
        k(   19) = (   0.0000000   0.7171664   0.6778267), wk =   0.0063492
        k(   20) = (   0.0000000   0.7171664   0.9037690), wk =   0.0063492
        k(   21) = (   0.2000000   0.0000000   0.0000000), wk =   0.0063492
        k(   22) = (   0.2000000   0.0000000   0.2259422), wk =   0.0063492
        k(   23) = (   0.2000000   0.0000000   0.4518845), wk =   0.0063492
        k(   24) = (   0.2000000   0.0000000   0.6778267), wk =   0.0063492
        k(   25) = (   0.2000000   0.0000000   0.9037690), wk =   0.0063492
        k(   26) = (   0.2000000   0.2390555   0.0000000), wk =   0.0063492
        k(   27) = (   0.2000000   0.2390555   0.2259422), wk =   0.0063492
        k(   28) = (   0.2000000   0.2390555   0.4518845), wk =   0.0063492
        k(   29) = (   0.2000000   0.2390555   0.6778267), wk =   0.0063492
        k(   30) = (   0.2000000   0.2390555   0.9037690), wk =   0.0063492
        k(   31) = (   0.2000000   0.4781110   0.0000000), wk =   0.0063492
        k(   32) = (   0.2000000   0.4781110   0.2259422), wk =   0.0063492
        k(   33) = (   0.2000000   0.4781110   0.4518845), wk =   0.0063492
        k(   34) = (   0.2000000   0.4781110   0.6778267), wk =   0.0063492
        k(   35) = (   0.2000000   0.4781110   0.9037690), wk =   0.0063492
        k(   36) = (   0.2000000   0.7171664   0.0000000), wk =   0.0063492
        k(   37) = (   0.2000000   0.7171664   0.2259422), wk =   0.0063492
        k(   38) = (   0.2000000   0.7171664   0.4518845), wk =   0.0063492
        k(   39) = (   0.2000000   0.7171664   0.6778267), wk =   0.0063492
        k(   40) = (   0.2000000   0.7171664   0.9037690), wk =   0.0063492
        k(   41) = (   0.4000000   0.0000000   0.0000000), wk =   0.0063492
        k(   42) = (   0.4000000   0.0000000   0.2259422), wk =   0.0063492
        k(   43) = (   0.4000000   0.0000000   0.4518845), wk =   0.0063492
        k(   44) = (   0.4000000   0.0000000   0.6778267), wk =   0.0063492
        k(   45) = (   0.4000000   0.0000000   0.9037690), wk =   0.0063492
        k(   46) = (   0.4000000   0.2390555   0.0000000), wk =   0.0063492
        k(   47) = (   0.4000000   0.2390555   0.2259422), wk =   0.0063492
        k(   48) = (   0.4000000   0.2390555   0.4518845), wk =   0.0063492
        k(   49) = (   0.4000000   0.2390555   0.6778267), wk =   0.0063492
        k(   50) = (   0.4000000   0.2390555   0.9037690), wk =   0.0063492
        k(   51) = (   0.4000000   0.4781110   0.0000000), wk =   0.0063492
        k(   52) = (   0.4000000   0.4781110   0.2259422), wk =   0.0063492
        k(   53) = (   0.4000000   0.4781110   0.4518845), wk =   0.0063492
        k(   54) = (   0.4000000   0.4781110   0.6778267), wk =   0.0063492
        k(   55) = (   0.4000000   0.4781110   0.9037690), wk =   0.0063492
        k(   56) = (   0.4000000   0.7171664   0.0000000), wk =   0.0063492
        k(   57) = (   0.4000000   0.7171664   0.2259422), wk =   0.0063492
        k(   58) = (   0.4000000   0.7171664   0.4518845), wk =   0.0063492
        k(   59) = (   0.4000000   0.7171664   0.6778267), wk =   0.0063492
        k(   60) = (   0.4000000   0.7171664   0.9037690), wk =   0.0063492
        k(   61) = (   0.0000000   0.2390555  -0.2259422), wk =   0.0063492
        k(   62) = (   0.0000000   0.2390555  -0.4518845), wk =   0.0063492
        k(   63) = (   0.0000000   0.2390555  -0.6778267), wk =   0.0063492
        k(   64) = (   0.0000000   0.2390555  -0.9037690), wk =   0.0063492
        k(   65) = (   0.0000000   0.4781110  -0.2259422), wk =   0.0063492
        k(   66) = (   0.0000000   0.4781110  -0.4518845), wk =   0.0063492
        k(   67) = (   0.0000000   0.4781110  -0.6778267), wk =   0.0063492
        k(   68) = (   0.0000000   0.4781110  -0.9037690), wk =   0.0063492
        k(   69) = (   0.0000000   0.7171664  -0.2259422), wk =   0.0063492
        k(   70) = (   0.0000000   0.7171664  -0.4518845), wk =   0.0063492
        k(   71) = (   0.0000000   0.7171664  -0.6778267), wk =   0.0063492
        k(   72) = (   0.0000000   0.7171664  -0.9037690), wk =   0.0063492
        k(   73) = (   0.2000000   0.0000000  -0.2259422), wk =   0.0063492
        k(   74) = (   0.2000000   0.0000000  -0.4518845), wk =   0.0063492
        k(   75) = (   0.2000000   0.0000000  -0.6778267), wk =   0.0063492
        k(   76) = (   0.2000000   0.0000000  -0.9037690), wk =   0.0063492
        k(   77) = (  -0.2000000   0.2390555   0.0000000), wk =   0.0063492
        k(   78) = (  -0.2000000   0.2390555  -0.2259422), wk =   0.0063492
        k(   79) = (   0.2000000  -0.2390555  -0.2259422), wk =   0.0063492
        k(   80) = (  -0.2000000  -0.2390555   0.2259422), wk =   0.0063492
        k(   81) = (  -0.2000000   0.2390555  -0.4518845), wk =   0.0063492
        k(   82) = (   0.2000000  -0.2390555  -0.4518845), wk =   0.0063492
        k(   83) = (  -0.2000000  -0.2390555   0.4518845), wk =   0.0063492
        k(   84) = (  -0.2000000   0.2390555  -0.6778267), wk =   0.0063492
        k(   85) = (   0.2000000  -0.2390555  -0.6778267), wk =   0.0063492
        k(   86) = (  -0.2000000  -0.2390555   0.6778267), wk =   0.0063492
        k(   87) = (  -0.2000000   0.2390555  -0.9037690), wk =   0.0063492
        k(   88) = (   0.2000000  -0.2390555  -0.9037690), wk =   0.0063492
        k(   89) = (  -0.2000000  -0.2390555   0.9037690), wk =   0.0063492
        k(   90) = (  -0.2000000   0.4781110   0.0000000), wk =   0.0063492
        k(   91) = (  -0.2000000   0.4781110  -0.2259422), wk =   0.0063492
        k(   92) = (   0.2000000  -0.4781110  -0.2259422), wk =   0.0063492
        k(   93) = (  -0.2000000  -0.4781110   0.2259422), wk =   0.0063492
        k(   94) = (  -0.2000000   0.4781110  -0.4518845), wk =   0.0063492
        k(   95) = (   0.2000000  -0.4781110  -0.4518845), wk =   0.0063492
        k(   96) = (  -0.2000000  -0.4781110   0.4518845), wk =   0.0063492
        k(   97) = (  -0.2000000   0.4781110  -0.6778267), wk =   0.0063492
        k(   98) = (   0.2000000  -0.4781110  -0.6778267), wk =   0.0063492
        k(   99) = (  -0.2000000  -0.4781110   0.6778267), wk =   0.0063492
        k(  100) = (  -0.2000000   0.4781110  -0.9037690), wk =   0.0063492
        k(  101) = (   0.2000000  -0.4781110  -0.9037690), wk =   0.0063492
        k(  102) = (  -0.2000000  -0.4781110   0.9037690), wk =   0.0063492
        k(  103) = (  -0.2000000   0.7171664   0.0000000), wk =   0.0063492
        k(  104) = (  -0.2000000   0.7171664  -0.2259422), wk =   0.0063492
        k(  105) = (   0.2000000  -0.7171664  -0.2259422), wk =   0.0063492
        k(  106) = (  -0.2000000  -0.7171664   0.2259422), wk =   0.0063492
        k(  107) = (  -0.2000000   0.7171664  -0.4518845), wk =   0.0063492
        k(  108) = (   0.2000000  -0.7171664  -0.4518845), wk =   0.0063492
        k(  109) = (  -0.2000000  -0.7171664   0.4518845), wk =   0.0063492
        k(  110) = (  -0.2000000   0.7171664  -0.6778267), wk =   0.0063492
        k(  111) = (   0.2000000  -0.7171664  -0.6778267), wk =   0.0063492
        k(  112) = (  -0.2000000  -0.7171664   0.6778267), wk =   0.0063492
        k(  113) = (  -0.2000000   0.7171664  -0.9037690), wk =   0.0063492
        k(  114) = (   0.2000000  -0.7171664  -0.9037690), wk =   0.0063492
        k(  115) = (  -0.2000000  -0.7171664   0.9037690), wk =   0.0063492
        k(  116) = (   0.4000000   0.0000000  -0.2259422), wk =   0.0063492
        k(  117) = (   0.4000000   0.0000000  -0.4518845), wk =   0.0063492
        k(  118) = (   0.4000000   0.0000000  -0.6778267), wk =   0.0063492
        k(  119) = (   0.4000000   0.0000000  -0.9037690), wk =   0.0063492
        k(  120) = (  -0.4000000   0.2390555   0.0000000), wk =   0.0063492
        k(  121) = (  -0.4000000   0.2390555  -0.2259422), wk =   0.0063492
        k(  122) = (   0.4000000  -0.2390555  -0.2259422), wk =   0.0063492
        k(  123) = (  -0.4000000  -0.2390555   0.2259422), wk =   0.0063492
        k(  124) = (  -0.4000000   0.2390555  -0.4518845), wk =   0.0063492
        k(  125) = (   0.4000000  -0.2390555  -0.4518845), wk =   0.0063492
        k(  126) = (  -0.4000000  -0.2390555   0.4518845), wk =   0.0063492
        k(  127) = (  -0.4000000   0.2390555  -0.6778267), wk =   0.0063492
        k(  128) = (   0.4000000  -0.2390555  -0.6778267), wk =   0.0063492
        k(  129) = (  -0.4000000  -0.2390555   0.6778267), wk =   0.0063492
        k(  130) = (  -0.4000000   0.2390555  -0.9037690), wk =   0.0063492
        k(  131) = (   0.4000000  -0.2390555  -0.9037690), wk =   0.0063492
        k(  132) = (  -0.4000000  -0.2390555   0.9037690), wk =   0.0063492
        k(  133) = (  -0.4000000   0.4781110   0.0000000), wk =   0.0063492
        k(  134) = (  -0.4000000   0.4781110  -0.2259422), wk =   0.0063492
        k(  135) = (   0.4000000  -0.4781110  -0.2259422), wk =   0.0063492
        k(  136) = (  -0.4000000  -0.4781110   0.2259422), wk =   0.0063492
        k(  137) = (  -0.4000000   0.4781110  -0.4518845), wk =   0.0063492
        k(  138) = (   0.4000000  -0.4781110  -0.4518845), wk =   0.0063492
        k(  139) = (  -0.4000000  -0.4781110   0.4518845), wk =   0.0063492
        k(  140) = (  -0.4000000   0.4781110  -0.6778267), wk =   0.0063492
        k(  141) = (   0.4000000  -0.4781110  -0.6778267), wk =   0.0063492
        k(  142) = (  -0.4000000  -0.4781110   0.6778267), wk =   0.0063492
        k(  143) = (  -0.4000000   0.4781110  -0.9037690), wk =   0.0063492
        k(  144) = (   0.4000000  -0.4781110  -0.9037690), wk =   0.0063492
        k(  145) = (  -0.4000000  -0.4781110   0.9037690), wk =   0.0063492
        k(  146) = (  -0.4000000   0.7171664   0.0000000), wk =   0.0063492
        k(  147) = (  -0.4000000   0.7171664  -0.2259422), wk =   0.0063492
        k(  148) = (   0.4000000  -0.7171664  -0.2259422), wk =   0.0063492
        k(  149) = (  -0.4000000  -0.7171664   0.2259422), wk =   0.0063492
        k(  150) = (  -0.4000000   0.7171664  -0.4518845), wk =   0.0063492
        k(  151) = (   0.4000000  -0.7171664  -0.4518845), wk =   0.0063492
        k(  152) = (  -0.4000000  -0.7171664   0.4518845), wk =   0.0063492
        k(  153) = (  -0.4000000   0.7171664  -0.6778267), wk =   0.0063492
        k(  154) = (   0.4000000  -0.7171664  -0.6778267), wk =   0.0063492
        k(  155) = (  -0.4000000  -0.7171664   0.6778267), wk =   0.0063492
        k(  156) = (  -0.4000000   0.7171664  -0.9037690), wk =   0.0063492
        k(  157) = (   0.4000000  -0.7171664  -0.9037690), wk =   0.0063492
        k(  158) = (  -0.4000000  -0.7171664   0.9037690), wk =   0.0063492

                       cryst. coord.
        k(    1) = (   0.0000000   0.0000000   0.0000000), wk =   0.0031746
        k(    2) = (   0.0000000   0.0000000   0.1111111), wk =   0.0063492
        k(    3) = (   0.0000000   0.0000000   0.2222222), wk =   0.0063492
        k(    4) = (   0.0000000   0.0000000   0.3333333), wk =   0.0063492
        k(    5) = (   0.0000000   0.0000000   0.4444444), wk =   0.0063492
        k(    6) = (   0.0000000   0.1428571   0.0000000), wk =   0.0063492
        k(    7) = (   0.0000000   0.1428571   0.1111111), wk =   0.0063492
        k(    8) = (   0.0000000   0.1428571   0.2222222), wk =   0.0063492
        k(    9) = (   0.0000000   0.1428571   0.3333333), wk =   0.0063492
        k(   10) = (   0.0000000   0.1428571   0.4444444), wk =   0.0063492
        k(   11) = (   0.0000000   0.2857143   0.0000000), wk =   0.0063492
        k(   12) = (   0.0000000   0.2857143   0.1111111), wk =   0.0063492
        k(   13) = (   0.0000000   0.2857143   0.2222222), wk =   0.0063492
        k(   14) = (   0.0000000   0.2857143   0.3333333), wk =   0.0063492
        k(   15) = (   0.0000000   0.2857143   0.4444444), wk =   0.0063492
        k(   16) = (   0.0000000   0.4285714   0.0000000), wk =   0.0063492
        k(   17) = (   0.0000000   0.4285714   0.1111111), wk =   0.0063492
        k(   18) = (   0.0000000   0.4285714   0.2222222), wk =   0.0063492
        k(   19) = (   0.0000000   0.4285714   0.3333333), wk =   0.0063492
        k(   20) = (   0.0000000   0.4285714   0.4444444), wk =   0.0063492
        k(   21) = (   0.2000000   0.0000000   0.0000000), wk =   0.0063492
        k(   22) = (   0.2000000   0.0000000   0.1111111), wk =   0.0063492
        k(   23) = (   0.2000000   0.0000000   0.2222222), wk =   0.0063492
        k(   24) = (   0.2000000   0.0000000   0.3333333), wk =   0.0063492
        k(   25) = (   0.2000000   0.0000000   0.4444444), wk =   0.0063492
        k(   26) = (   0.2000000   0.1428571   0.0000000), wk =   0.0063492
        k(   27) = (   0.2000000   0.1428571   0.1111111), wk =   0.0063492
        k(   28) = (   0.2000000   0.1428571   0.2222222), wk =   0.0063492
        k(   29) = (   0.2000000   0.1428571   0.3333333), wk =   0.0063492
        k(   30) = (   0.2000000   0.1428571   0.4444444), wk =   0.0063492
        k(   31) = (   0.2000000   0.2857143   0.0000000), wk =   0.0063492
        k(   32) = (   0.2000000   0.2857143   0.1111111), wk =   0.0063492
        k(   33) = (   0.2000000   0.2857143   0.2222222), wk =   0.0063492
        k(   34) = (   0.2000000   0.2857143   0.3333333), wk =   0.0063492
        k(   35) = (   0.2000000   0.2857143   0.4444444), wk =   0.0063492
        k(   36) = (   0.2000000   0.4285714   0.0000000), wk =   0.0063492
        k(   37) = (   0.2000000   0.4285714   0.1111111), wk =   0.0063492
        k(   38) = (   0.2000000   0.4285714   0.2222222), wk =   0.0063492
        k(   39) = (   0.2000000   0.4285714   0.3333333), wk =   0.0063492
        k(   40) = (   0.2000000   0.4285714   0.4444444), wk =   0.0063492
        k(   41) = (   0.4000000   0.0000000   0.0000000), wk =   0.0063492
        k(   42) = (   0.4000000   0.0000000   0.1111111), wk =   0.0063492
        k(   43) = (   0.4000000   0.0000000   0.2222222), wk =   0.0063492
        k(   44) = (   0.4000000   0.0000000   0.3333333), wk =   0.0063492
        k(   45) = (   0.4000000   0.0000000   0.4444444), wk =   0.0063492
        k(   46) = (   0.4000000   0.1428571   0.0000000), wk =   0.0063492
        k(   47) = (   0.4000000   0.1428571   0.1111111), wk =   0.0063492
        k(   48) = (   0.4000000   0.1428571   0.2222222), wk =   0.0063492
        k(   49) = (   0.4000000   0.1428571   0.3333333), wk =   0.0063492
        k(   50) = (   0.4000000   0.1428571   0.4444444), wk =   0.0063492
        k(   51) = (   0.4000000   0.2857143   0.0000000), wk =   0.0063492
        k(   52) = (   0.4000000   0.2857143   0.1111111), wk =   0.0063492
        k(   53) = (   0.4000000   0.2857143   0.2222222), wk =   0.0063492
        k(   54) = (   0.4000000   0.2857143   0.3333333), wk =   0.0063492
        k(   55) = (   0.4000000   0.2857143   0.4444444), wk =   0.0063492
        k(   56) = (   0.4000000   0.4285714   0.0000000), wk =   0.0063492
        k(   57) = (   0.4000000   0.4285714   0.1111111), wk =   0.0063492
        k(   58) = (   0.4000000   0.4285714   0.2222222), wk =   0.0063492
        k(   59) = (   0.4000000   0.4285714   0.3333333), wk =   0.0063492
        k(   60) = (   0.4000000   0.4285714   0.4444444), wk =   0.0063492
        k(   61) = (   0.0000000   0.1428571  -0.1111111), wk =   0.0063492
        k(   62) = (   0.0000000   0.1428571  -0.2222222), wk =   0.0063492
        k(   63) = (   0.0000000   0.1428571  -0.3333333), wk =   0.0063492
        k(   64) = (   0.0000000   0.1428571  -0.4444444), wk =   0.0063492
        k(   65) = (   0.0000000   0.2857143  -0.1111111), wk =   0.0063492
        k(   66) = (   0.0000000   0.2857143  -0.2222222), wk =   0.0063492
        k(   67) = (   0.0000000   0.2857143  -0.3333333), wk =   0.0063492
        k(   68) = (   0.0000000   0.2857143  -0.4444444), wk =   0.0063492
        k(   69) = (   0.0000000   0.4285714  -0.1111111), wk =   0.0063492
        k(   70) = (   0.0000000   0.4285714  -0.2222222), wk =   0.0063492
        k(   71) = (   0.0000000   0.4285714  -0.3333333), wk =   0.0063492
        k(   72) = (   0.0000000   0.4285714  -0.4444444), wk =   0.0063492
        k(   73) = (   0.2000000   0.0000000  -0.1111111), wk =   0.0063492
        k(   74) = (   0.2000000   0.0000000  -0.2222222), wk =   0.0063492
        k(   75) = (   0.2000000   0.0000000  -0.3333333), wk =   0.0063492
        k(   76) = (   0.2000000   0.0000000  -0.4444444), wk =   0.0063492
        k(   77) = (  -0.2000000   0.1428571   0.0000000), wk =   0.0063492
        k(   78) = (  -0.2000000   0.1428571  -0.1111111), wk =   0.0063492
        k(   79) = (   0.2000000  -0.1428571  -0.1111111), wk =   0.0063492
        k(   80) = (  -0.2000000  -0.1428571   0.1111111), wk =   0.0063492
        k(   81) = (  -0.2000000   0.1428571  -0.2222222), wk =   0.0063492
        k(   82) = (   0.2000000  -0.1428571  -0.2222222), wk =   0.0063492
        k(   83) = (  -0.2000000  -0.1428571   0.2222222), wk =   0.0063492
        k(   84) = (  -0.2000000   0.1428571  -0.3333333), wk =   0.0063492
        k(   85) = (   0.2000000  -0.1428571  -0.3333333), wk =   0.0063492
        k(   86) = (  -0.2000000  -0.1428571   0.3333333), wk =   0.0063492
        k(   87) = (  -0.2000000   0.1428571  -0.4444444), wk =   0.0063492
        k(   88) = (   0.2000000  -0.1428571  -0.4444444), wk =   0.0063492
        k(   89) = (  -0.2000000  -0.1428571   0.4444444), wk =   0.0063492
        k(   90) = (  -0.2000000   0.2857143   0.0000000), wk =   0.0063492
        k(   91) = (  -0.2000000   0.2857143  -0.1111111), wk =   0.0063492
        k(   92) = (   0.2000000  -0.2857143  -0.1111111), wk =   0.0063492
        k(   93) = (  -0.2000000  -0.2857143   0.1111111), wk =   0.0063492
        k(   94) = (  -0.2000000   0.2857143  -0.2222222), wk =   0.0063492
        k(   95) = (   0.2000000  -0.2857143  -0.2222222), wk =   0.0063492
        k(   96) = (  -0.2000000  -0.2857143   0.2222222), wk =   0.0063492
        k(   97) = (  -0.2000000   0.2857143  -0.3333333), wk =   0.0063492
        k(   98) = (   0.2000000  -0.2857143  -0.3333333), wk =   0.0063492
        k(   99) = (  -0.2000000  -0.2857143   0.3333333), wk =   0.0063492
        k(  100) = (  -0.2000000   0.2857143  -0.4444444), wk =   0.0063492
        k(  101) = (   0.2000000  -0.2857143  -0.4444444), wk =   0.0063492
        k(  102) = (  -0.2000000  -0.2857143   0.4444444), wk =   0.0063492
        k(  103) = (  -0.2000000   0.4285714   0.0000000), wk =   0.0063492
        k(  104) = (  -0.2000000   0.4285714  -0.1111111), wk =   0.0063492
        k(  105) = (   0.2000000  -0.4285714  -0.1111111), wk =   0.0063492
        k(  106) = (  -0.2000000  -0.4285714   0.1111111), wk =   0.0063492
        k(  107) = (  -0.2000000   0.4285714  -0.2222222), wk =   0.0063492
        k(  108) = (   0.2000000  -0.4285714  -0.2222222), wk =   0.0063492
        k(  109) = (  -0.2000000  -0.4285714   0.2222222), wk =   0.0063492
        k(  110) = (  -0.2000000   0.4285714  -0.3333333), wk =   0.0063492
        k(  111) = (   0.2000000  -0.4285714  -0.3333333), wk =   0.0063492
        k(  112) = (  -0.2000000  -0.4285714   0.3333333), wk =   0.0063492
        k(  113) = (  -0.2000000   0.4285714  -0.4444444), wk =   0.0063492
        k(  114) = (   0.2000000  -0.4285714  -0.4444444), wk =   0.0063492
        k(  115) = (  -0.2000000  -0.4285714   0.4444444), wk =   0.0063492
        k(  116) = (   0.4000000   0.0000000  -0.1111111), wk =   0.0063492
        k(  117) = (   0.4000000   0.0000000  -0.2222222), wk =   0.0063492
        k(  118) = (   0.4000000   0.0000000  -0.3333333), wk =   0.0063492
        k(  119) = (   0.4000000   0.0000000  -0.4444444), wk =   0.0063492
        k(  120) = (  -0.4000000   0.1428571   0.0000000), wk =   0.0063492
        k(  121) = (  -0.4000000   0.1428571  -0.1111111), wk =   0.0063492
        k(  122) = (   0.4000000  -0.1428571  -0.1111111), wk =   0.0063492
        k(  123) = (  -0.4000000  -0.1428571   0.1111111), wk =   0.0063492
        k(  124) = (  -0.4000000   0.1428571  -0.2222222), wk =   0.0063492
        k(  125) = (   0.4000000  -0.1428571  -0.2222222), wk =   0.0063492
        k(  126) = (  -0.4000000  -0.1428571   0.2222222), wk =   0.0063492
        k(  127) = (  -0.4000000   0.1428571  -0.3333333), wk =   0.0063492
        k(  128) = (   0.4000000  -0.1428571  -0.3333333), wk =   0.0063492
        k(  129) = (  -0.4000000  -0.1428571   0.3333333), wk =   0.0063492
        k(  130) = (  -0.4000000   0.1428571  -0.4444444), wk =   0.0063492
        k(  131) = (   0.4000000  -0.1428571  -0.4444444), wk =   0.0063492
        k(  132) = (  -0.4000000  -0.1428571   0.4444444), wk =   0.0063492
        k(  133) = (  -0.4000000   0.2857143   0.0000000), wk =   0.0063492
        k(  134) = (  -0.4000000   0.2857143  -0.1111111), wk =   0.0063492
        k(  135) = (   0.4000000  -0.2857143  -0.1111111), wk =   0.0063492
        k(  136) = (  -0.4000000  -0.2857143   0.1111111), wk =   0.0063492
        k(  137) = (  -0.4000000   0.2857143  -0.2222222), wk =   0.0063492
        k(  138) = (   0.4000000  -0.2857143  -0.2222222), wk =   0.0063492
        k(  139) = (  -0.4000000  -0.2857143   0.2222222), wk =   0.0063492
        k(  140) = (  -0.4000000   0.2857143  -0.3333333), wk =   0.0063492
        k(  141) = (   0.4000000  -0.2857143  -0.3333333), wk =   0.0063492
        k(  142) = (  -0.4000000  -0.2857143   0.3333333), wk =   0.0063492
        k(  143) = (  -0.4000000   0.2857143  -0.4444444), wk =   0.0063492
        k(  144) = (   0.4000000  -0.2857143  -0.4444444), wk =   0.0063492
        k(  145) = (  -0.4000000  -0.2857143   0.4444444), wk =   0.0063492
        k(  146) = (  -0.4000000   0.4285714   0.0000000), wk =   0.0063492
        k(  147) = (  -0.4000000   0.4285714  -0.1111111), wk =   0.0063492
        k(  148) = (   0.4000000  -0.4285714  -0.1111111), wk =   0.0063492
        k(  149) = (  -0.4000000  -0.4285714   0.1111111), wk =   0.0063492
        k(  150) = (  -0.4000000   0.4285714  -0.2222222), wk =   0.0063492
        k(  151) = (   0.4000000  -0.4285714  -0.2222222), wk =   0.0063492
        k(  152) = (  -0.4000000  -0.4285714   0.2222222), wk =   0.0063492
        k(  153) = (  -0.4000000   0.4285714  -0.3333333), wk =   0.0063492
        k(  154) = (   0.4000000  -0.4285714  -0.3333333), wk =   0.0063492
        k(  155) = (  -0.4000000  -0.4285714   0.3333333), wk =   0.0063492
        k(  156) = (  -0.4000000   0.4285714  -0.4444444), wk =   0.0063492
        k(  157) = (   0.4000000  -0.4285714  -0.4444444), wk =   0.0063492
        k(  158) = (  -0.4000000  -0.4285714   0.4444444), wk =   0.0063492

     Dense  grid:  1210029 G-vectors     FFT dimensions: ( 200, 120, 100)

     Smooth grid:   272791 G-vectors     FFT dimensions: ( 125,  75,  60)

     Dynamical RAM for                 wfc:       2.11 MB

     Dynamical RAM for     wfc (w. buffer):     669.69 MB

     Dynamical RAM for           str. fact:       2.31 MB

     Dynamical RAM for           local pot:       0.00 MB

     Dynamical RAM for          nlocal pot:       4.94 MB

     Dynamical RAM for                qrad:      10.54 MB

     Dynamical RAM for          rho,v,vnew:       7.86 MB

     Dynamical RAM for               rhoin:       2.62 MB

     Dynamical RAM for            rho*nmix:      18.46 MB

     Dynamical RAM for           G-vectors:       2.23 MB

     Dynamical RAM for          h,s,v(r/c):       3.09 MB

     Dynamical RAM for          <psi|beta>:       0.60 MB

     Dynamical RAM for                 psi:       4.23 MB

     Dynamical RAM for                hpsi:       4.23 MB

     Dynamical RAM for                spsi:       4.23 MB

     Dynamical RAM for      wfcinit/wfcrot:       5.47 MB

     Dynamical RAM for           addusdens:     117.13 MB

     Dynamical RAM for          addusforce:     134.57 MB

     Dynamical RAM for         addusstress:     116.84 MB

     Estimated static dynamical RAM per process >     725.93 MB

     Estimated max dynamical RAM per process >     860.49 MB

     Estimated total dynamical RAM >      26.89 GB

     Check: negative core charge=   -0.000003
     Generating pointlists ...
     new r_m :   0.0830 (alat units)  1.5774 (a.u.) for type    1
     new r_m :   0.0919 (alat units)  1.7465 (a.u.) for type    2
     new r_m :   0.0620 (alat units)  1.1783 (a.u.) for type    3
     new r_m :   0.0620 (alat units)  1.1783 (a.u.) for type    4

     Initial potential from superposition of free atoms

     starting charge  215.97252, renormalised to  216.00000
     Starting wfcs are  152 randomized atomic wfcs
     Checking if some PAW data can be deallocated... 
       PAW data deallocated on   28 nodes for type:  1
       PAW data deallocated on   16 nodes for type:  3

     total cpu time spent up to now is     1530.3 secs

     Self-consistent Calculation

     iteration #  1     ecut=   100.00 Ry     beta= 0.40
     Davidson diagonalization with overlap
     ethr =  1.00E-02,  avg # of iterations =  3.7

     negative rho (up, down):  0.000E+00 2.206E-05

     total cpu time spent up to now is     6066.3 secs

     total energy              =   -2380.62685181 Ry
     estimated scf accuracy    <       5.64302551 Ry

     total magnetization       =    16.00 Bohr mag/cell
     absolute magnetization    =    16.01 Bohr mag/cell

     iteration #  2     ecut=   100.00 Ry     beta= 0.40
     Davidson diagonalization with overlap
     ethr =  2.61E-03,  avg # of iterations =  2.0

     negative rho (up, down):  0.000E+00 1.345E-04

     total cpu time spent up to now is    10107.6 secs

     total energy              =   -2381.96488549 Ry
     estimated scf accuracy    <       0.44398090 Ry

     total magnetization       =    16.00 Bohr mag/cell
     absolute magnetization    =    16.01 Bohr mag/cell

     iteration #  3     ecut=   100.00 Ry     beta= 0.40
     Davidson diagonalization with overlap
     ethr =  2.06E-04,  avg # of iterations =  9.2

     negative rho (up, down):  0.000E+00 1.497E-04

     total cpu time spent up to now is    15484.1 secs

     total energy              =   -2381.94538206 Ry
     estimated scf accuracy    <       3.23783158 Ry

     total magnetization       =    16.00 Bohr mag/cell
     absolute magnetization    =    16.04 Bohr mag/cell

     iteration #  4     ecut=   100.00 Ry     beta= 0.40
     Davidson diagonalization with overlap
     ethr =  2.06E-04,  avg # of iterations =  2.0

     negative rho (up, down):  0.000E+00 3.061E-04

     total cpu time spent up to now is    19019.9 secs

     total energy              =   -2382.00680132 Ry
     estimated scf accuracy    <       1.56583802 Ry

     total magnetization       =    16.00 Bohr mag/cell
     absolute magnetization    =    16.05 Bohr mag/cell

     iteration #  5     ecut=   100.00 Ry     beta= 0.40
     Davidson diagonalization with overlap
     ethr =  2.06E-04,  avg # of iterations =  1.5

     negative rho (up, down):  0.000E+00 4.740E-04

     total cpu time spent up to now is    22394.9 secs

     total energy              =   -2382.01858147 Ry
     estimated scf accuracy    <       1.61078695 Ry

     total magnetization       =    16.00 Bohr mag/cell
     absolute magnetization    =    16.05 Bohr mag/cell

     iteration #  6     ecut=   100.00 Ry     beta= 0.40
     Davidson diagonalization with overlap
     ethr =  2.06E-04,  avg # of iterations =  1.6

     negative rho (up, down):  0.000E+00 4.963E-04

     total cpu time spent up to now is    25767.8 secs

     total energy              =   -2382.06299602 Ry
     estimated scf accuracy    <       1.65225471 Ry

     total magnetization       =    16.00 Bohr mag/cell
     absolute magnetization    =    16.07 Bohr mag/cell

     iteration #  7     ecut=   100.00 Ry     beta= 0.40
     Davidson diagonalization with overlap
     ethr =  2.06E-04,  avg # of iterations =  1.0

     negative rho (up, down):  0.000E+00 5.019E-04

     total cpu time spent up to now is    29032.1 secs

     total energy              =   -2382.11300664 Ry
     estimated scf accuracy    <       0.15601599 Ry

     total magnetization       =    16.00 Bohr mag/cell
     absolute magnetization    =    16.06 Bohr mag/cell

     iteration #  8     ecut=   100.00 Ry     beta= 0.40
     Davidson diagonalization with overlap
     ethr =  7.22E-05,  avg # of iterations =  1.0

     negative rho (up, down):  0.000E+00 4.986E-04

     total cpu time spent up to now is    32287.0 secs

     total energy              =   -2382.11404855 Ry
     estimated scf accuracy    <       0.33273613 Ry

     total magnetization       =    16.00 Bohr mag/cell
     absolute magnetization    =    16.06 Bohr mag/cell

     iteration #  9     ecut=   100.00 Ry     beta= 0.40
     Davidson diagonalization with overlap
     ethr =  7.22E-05,  avg # of iterations =  1.0

     negative rho (up, down):  0.000E+00 4.942E-04

     total cpu time spent up to now is    35541.0 secs

     total energy              =   -2382.11177081 Ry
     estimated scf accuracy    <       0.19764648 Ry

     total magnetization       =    16.00 Bohr mag/cell
     absolute magnetization    =    16.06 Bohr mag/cell

     iteration # 10     ecut=   100.00 Ry     beta= 0.40
     Davidson diagonalization with overlap
     ethr =  7.22E-05,  avg # of iterations =  1.0

     negative rho (up, down):  0.000E+00 4.877E-04

     total cpu time spent up to now is    38793.1 secs

     total energy              =   -2382.11515700 Ry
     estimated scf accuracy    <       0.05524549 Ry

     total magnetization       =    16.00 Bohr mag/cell
     absolute magnetization    =    16.07 Bohr mag/cell

     iteration # 11     ecut=   100.00 Ry     beta= 0.40
     Davidson diagonalization with overlap
     ethr =  2.56E-05,  avg # of iterations =  1.1

     negative rho (up, down):  0.000E+00 4.887E-04

     total cpu time spent up to now is    42074.0 secs

     total energy              =   -2382.11529245 Ry
     estimated scf accuracy    <       0.03144374 Ry

     total magnetization       =    16.00 Bohr mag/cell
     absolute magnetization    =    16.07 Bohr mag/cell

     iteration # 12     ecut=   100.00 Ry     beta= 0.40
     Davidson diagonalization with overlap
     ethr =  1.46E-05,  avg # of iterations =  1.4

     negative rho (up, down):  0.000E+00 4.855E-04

     total cpu time spent up to now is    45397.1 secs

     total energy              =   -2382.11567231 Ry
     estimated scf accuracy    <       0.03619392 Ry

     total magnetization       =    16.00 Bohr mag/cell
     absolute magnetization    =    16.07 Bohr mag/cell

     iteration # 13     ecut=   100.00 Ry     beta= 0.40
     Davidson diagonalization with overlap
     ethr =  1.46E-05,  avg # of iterations =  1.0

     negative rho (up, down):  0.000E+00 4.872E-04

     total cpu time spent up to now is    48675.5 secs

     total energy              =   -2382.11431534 Ry
     estimated scf accuracy    <       0.03148511 Ry

     total magnetization       =    16.00 Bohr mag/cell
     absolute magnetization    =    16.07 Bohr mag/cell

     iteration # 14     ecut=   100.00 Ry     beta= 0.40
     Davidson diagonalization with overlap
     ethr =  1.46E-05,  avg # of iterations =  1.0

     negative rho (up, down):  0.000E+00 4.804E-04

     total cpu time spent up to now is    51947.9 secs

     total energy              =   -2382.11724162 Ry
     estimated scf accuracy    <       0.03408434 Ry

     total magnetization       =    16.00 Bohr mag/cell
     absolute magnetization    =    16.07 Bohr mag/cell

     iteration # 15     ecut=   100.00 Ry     beta= 0.40
     Davidson diagonalization with overlap
     ethr =  1.46E-05,  avg # of iterations =  1.0

     negative rho (up, down):  0.000E+00 4.776E-04

     total cpu time spent up to now is    55216.0 secs

     total energy              =   -2382.12097074 Ry
     estimated scf accuracy    <       0.02714415 Ry

     total magnetization       =    16.00 Bohr mag/cell
     absolute magnetization    =    16.07 Bohr mag/cell

     iteration # 16     ecut=   100.00 Ry     beta= 0.40
     Davidson diagonalization with overlap
     ethr =  1.26E-05,  avg # of iterations =  2.0

     negative rho (up, down):  0.000E+00 4.669E-04

     total cpu time spent up to now is    58751.0 secs

     total energy              =   -2382.12493596 Ry
     estimated scf accuracy    <       0.01473677 Ry

     total magnetization       =    16.00 Bohr mag/cell
     absolute magnetization    =    16.07 Bohr mag/cell

     iteration # 17     ecut=   100.00 Ry     beta= 0.40
     Davidson diagonalization with overlap
     c_bands:  1 eigenvalues not converged
     c_bands:  1 eigenvalues not converged
     c_bands:  1 eigenvalues not converged
     c_bands:  1 eigenvalues not converged
     c_bands:  1 eigenvalues not converged
     c_bands:  1 eigenvalues not converged
     c_bands:  1 eigenvalues not converged
     c_bands:  1 eigenvalues not converged
     ethr =  6.82E-06,  avg # of iterations =  3.5

     negative rho (up, down):  0.000E+00 4.736E-04

     total cpu time spent up to now is    62416.5 secs

     total energy              =   -2382.12598003 Ry
     estimated scf accuracy    <       0.00443669 Ry

     total magnetization       =    16.00 Bohr mag/cell
     absolute magnetization    =    16.07 Bohr mag/cell

     iteration # 18     ecut=   100.00 Ry     beta= 0.40
     Davidson diagonalization with overlap
     c_bands:  3 eigenvalues not converged
     c_bands:  1 eigenvalues not converged
     c_bands:  1 eigenvalues not converged
     c_bands:  1 eigenvalues not converged
     c_bands:  1 eigenvalues not converged
     c_bands:  1 eigenvalues not converged
     c_bands:  1 eigenvalues not converged
     c_bands:  1 eigenvalues not converged
     c_bands:  1 eigenvalues not converged
     c_bands:  1 eigenvalues not converged
     c_bands:  1 eigenvalues not converged
     c_bands:  1 eigenvalues not converged
     c_bands:  1 eigenvalues not converged
     c_bands:  1 eigenvalues not converged
     c_bands:  2 eigenvalues not converged
     c_bands:  1 eigenvalues not converged
     c_bands:  1 eigenvalues not converged
     c_bands:  1 eigenvalues not converged
     c_bands:  2 eigenvalues not converged
     c_bands:  1 eigenvalues not converged
     c_bands:  1 eigenvalues not converged
     c_bands:  1 eigenvalues not converged
     c_bands:  1 eigenvalues not converged
     c_bands:  1 eigenvalues not converged
     c_bands:  1 eigenvalues not converged
     c_bands:  1 eigenvalues not converged
     c_bands:  1 eigenvalues not converged
     c_bands:  1 eigenvalues not converged
     c_bands:  1 eigenvalues not converged
     c_bands:  2 eigenvalues not converged
     c_bands:  1 eigenvalues not converged
     c_bands:  1 eigenvalues not converged
     c_bands:  1 eigenvalues not converged
     c_bands:  1 eigenvalues not converged
     c_bands:  1 eigenvalues not converged
     c_bands:  1 eigenvalues not converged
     c_bands:  1 eigenvalues not converged
     c_bands:  1 eigenvalues not converged
     c_bands:  1 eigenvalues not converged
     c_bands:  1 eigenvalues not converged
     c_bands:  1 eigenvalues not converged
     c_bands:  1 eigenvalues not converged
     c_bands:  1 eigenvalues not converged
     c_bands:  1 eigenvalues not converged
     c_bands:  2 eigenvalues not converged
     c_bands:  1 eigenvalues not converged
     c_bands:  1 eigenvalues not converged
     ethr =  2.05E-06,  avg # of iterations = 12.4

     negative rho (up, down):  0.000E+00 4.731E-04

     total cpu time spent up to now is    67402.5 secs

     total energy              =   -2382.12646573 Ry
     estimated scf accuracy    <       0.00459512 Ry

     total magnetization       =    16.00 Bohr mag/cell
     absolute magnetization    =    16.07 Bohr mag/cell

     iteration # 19     ecut=   100.00 Ry     beta= 0.40
     Davidson diagonalization with overlap
     c_bands:  1 eigenvalues not converged
     c_bands:  1 eigenvalues not converged
     ethr =  2.05E-06,  avg # of iterations =  2.5

     negative rho (up, down):  0.000E+00 4.702E-04

     total cpu time spent up to now is    71024.3 secs

     total energy              =   -2382.12705678 Ry
     estimated scf accuracy    <       0.00046564 Ry

     total magnetization       =    16.00 Bohr mag/cell
     absolute magnetization    =    16.07 Bohr mag/cell

     iteration # 20     ecut=   100.00 Ry     beta= 0.40
     Davidson diagonalization with overlap
     ethr =  2.16E-07,  avg # of iterations =  2.5

     negative rho (up, down):  0.000E+00 4.682E-04

     total cpu time spent up to now is    74608.1 secs

     total energy              =   -2382.12713405 Ry
     estimated scf accuracy    <       0.00017175 Ry

     total magnetization       =    16.00 Bohr mag/cell
     absolute magnetization    =    16.07 Bohr mag/cell

     iteration # 21     ecut=   100.00 Ry     beta= 0.40
     Davidson diagonalization with overlap
     ethr =  7.95E-08,  avg # of iterations =  2.4

     negative rho (up, down):  0.000E+00 4.646E-04

     total cpu time spent up to now is    78161.7 secs

     total energy              =   -2382.12717289 Ry
     estimated scf accuracy    <       0.00007099 Ry

     total magnetization       =    16.00 Bohr mag/cell
     absolute magnetization    =    16.06 Bohr mag/cell

     iteration # 22     ecut=   100.00 Ry     beta= 0.40
     Davidson diagonalization with overlap
     ethr =  3.29E-08,  avg # of iterations =  3.0

     negative rho (up, down):  0.000E+00 4.628E-04

     total cpu time spent up to now is    82276.1 secs

     total energy              =   -2382.12722468 Ry
     estimated scf accuracy    <       0.00005236 Ry

     total magnetization       =    16.00 Bohr mag/cell
     absolute magnetization    =    16.06 Bohr mag/cell

     iteration # 23     ecut=   100.00 Ry     beta= 0.40
     Davidson diagonalization with overlap
     ethr =  2.42E-08,  avg # of iterations =  2.6

     negative rho (up, down):  0.000E+00 4.606E-04

     total cpu time spent up to now is    86373.7 secs

     total energy              =   -2382.12720719 Ry
     estimated scf accuracy    <       0.00002545 Ry

     total magnetization       =    16.00 Bohr mag/cell
     absolute magnetization    =    16.06 Bohr mag/cell

     iteration # 24     ecut=   100.00 Ry     beta= 0.40
     Davidson diagonalization with overlap
     ethr =  1.18E-08,  avg # of iterations =  4.1

     negative rho (up, down):  0.000E+00 4.600E-04

     total cpu time spent up to now is    90976.5 secs

     total energy              =   -2382.12736037 Ry
     estimated scf accuracy    <       0.00001039 Ry

     total magnetization       =    16.00 Bohr mag/cell
     absolute magnetization    =    16.06 Bohr mag/cell

     iteration # 25     ecut=   100.00 Ry     beta= 0.40
     Davidson diagonalization with overlap
     ethr =  4.81E-09,  avg # of iterations =  3.2

     negative rho (up, down):  0.000E+00 4.585E-04

     total cpu time spent up to now is    95236.4 secs

     total energy              =   -2382.12737025 Ry
     estimated scf accuracy    <       0.00000203 Ry

     total magnetization       =    16.00 Bohr mag/cell
     absolute magnetization    =    16.06 Bohr mag/cell

     iteration # 26     ecut=   100.00 Ry     beta= 0.40
     Davidson diagonalization with overlap
     ethr =  9.40E-10,  avg # of iterations =  4.6

     negative rho (up, down):  0.000E+00 4.581E-04

     total cpu time spent up to now is   100548.4 secs

     total energy              =   -2382.12740850 Ry
     estimated scf accuracy    <       0.00000049 Ry

     total magnetization       =    16.00 Bohr mag/cell
     absolute magnetization    =    16.06 Bohr mag/cell

     iteration # 27     ecut=   100.00 Ry     beta= 0.40
     Davidson diagonalization with overlap
     ethr =  2.27E-10,  avg # of iterations =  2.8

     negative rho (up, down):  0.000E+00 4.580E-04

     total cpu time spent up to now is   104593.7 secs

     total energy              =   -2382.12741263 Ry
     estimated scf accuracy    <       0.00000039 Ry

     total magnetization       =    16.00 Bohr mag/cell
     absolute magnetization    =    16.06 Bohr mag/cell

     iteration # 28     ecut=   100.00 Ry     beta= 0.40
     Davidson diagonalization with overlap
     ethr =  1.81E-10,  avg # of iterations =  2.0

     negative rho (up, down):  0.000E+00 4.579E-04

     total cpu time spent up to now is   108124.0 secs

     total energy              =   -2382.12741418 Ry
     estimated scf accuracy    <       0.00000037 Ry

     total magnetization       =    16.00 Bohr mag/cell
     absolute magnetization    =    16.06 Bohr mag/cell

     iteration # 29     ecut=   100.00 Ry     beta= 0.40
     Davidson diagonalization with overlap
     ethr =  1.71E-10,  avg # of iterations =  1.0

     negative rho (up, down):  0.000E+00 4.579E-04

     total cpu time spent up to now is   111388.2 secs

     total energy              =   -2382.12741475 Ry
     estimated scf accuracy    <       0.00000003 Ry

     total magnetization       =    16.00 Bohr mag/cell
     absolute magnetization    =    16.06 Bohr mag/cell

     iteration # 30     ecut=   100.00 Ry     beta= 0.40
     Davidson diagonalization with overlap
     ethr =  1.32E-11,  avg # of iterations =  4.3

     negative rho (up, down):  0.000E+00 4.579E-04

     total cpu time spent up to now is   115508.8 secs

     total energy              =   -2382.12741494 Ry
     estimated scf accuracy    <       0.00000003 Ry

     total magnetization       =    16.00 Bohr mag/cell
     absolute magnetization    =    16.06 Bohr mag/cell

     iteration # 31     ecut=   100.00 Ry     beta= 0.40
     Davidson diagonalization with overlap
     ethr =  1.25E-11,  avg # of iterations =  2.0

     negative rho (up, down):  0.000E+00 4.580E-04

     total cpu time spent up to now is   119151.7 secs

     total energy              =   -2382.12741502 Ry
     estimated scf accuracy    <       0.00000001 Ry

     total magnetization       =    16.00 Bohr mag/cell
     absolute magnetization    =    16.06 Bohr mag/cell

     iteration # 32     ecut=   100.00 Ry     beta= 0.40
     Davidson diagonalization with overlap
     ethr =  6.01E-12,  avg # of iterations =  4.0

     negative rho (up, down):  0.000E+00 4.580E-04

     total cpu time spent up to now is   123596.0 secs

     total energy              =   -2382.12741508 Ry
     estimated scf accuracy    <       0.00000001 Ry

     total magnetization       =    16.00 Bohr mag/cell
     absolute magnetization    =    16.06 Bohr mag/cell

     iteration # 33     ecut=   100.00 Ry     beta= 0.40
     Davidson diagonalization with overlap
     ethr =  4.94E-12,  avg # of iterations =  2.1

     negative rho (up, down):  0.000E+00 4.579E-04

     total cpu time spent up to now is   127514.5 secs

     total energy              =   -2382.12741512 Ry
     estimated scf accuracy    <          8.4E-10 Ry

     total magnetization       =    16.00 Bohr mag/cell
     absolute magnetization    =    16.06 Bohr mag/cell

     iteration # 34     ecut=   100.00 Ry     beta= 0.40
     Davidson diagonalization with overlap
     ethr =  3.89E-13,  avg # of iterations =  4.6

     negative rho (up, down):  0.000E+00 4.579E-04

     total cpu time spent up to now is   132558.1 secs

     total energy              =   -2382.12741513 Ry
     estimated scf accuracy    <          2.1E-10 Ry

     total magnetization       =    16.00 Bohr mag/cell
     absolute magnetization    =    16.06 Bohr mag/cell

     iteration # 35     ecut=   100.00 Ry     beta= 0.40
     Davidson diagonalization with overlap
     ethr =  1.00E-13,  avg # of iterations =  2.7

     negative rho (up, down):  0.000E+00 4.579E-04

     Magnetic moment per site:
     atom:    1    charge:    7.9380    magn:    0.0002    constr:    0.0000
     atom:    2    charge:    7.9380    magn:    0.0002    constr:    0.0000
     atom:    3    charge:    7.9380    magn:    0.0002    constr:    0.0000
     atom:    4    charge:    7.9380    magn:    0.0002    constr:    0.0000
     atom:    5    charge:   13.2748    magn:    3.3011    constr:    0.0000
     atom:    6    charge:   13.2748    magn:    3.3011    constr:    0.0000
     atom:    7    charge:   13.2748    magn:    3.3011    constr:    0.0000
     atom:    8    charge:   13.2748    magn:    3.3011    constr:    0.0000
     atom:    9    charge:    0.8335    magn:    0.0071    constr:    0.0000
     atom:   10    charge:    0.8335    magn:    0.0071    constr:    0.0000
     atom:   11    charge:    0.8335    magn:    0.0071    constr:    0.0000
     atom:   12    charge:    0.8335    magn:    0.0071    constr:    0.0000
     atom:   13    charge:    4.1935    magn:    0.0341    constr:    0.0000
     atom:   14    charge:    4.1935    magn:    0.0341    constr:    0.0000
     atom:   15    charge:    4.1935    magn:    0.0341    constr:    0.0000
     atom:   16    charge:    4.1935    magn:    0.0341    constr:    0.0000
     atom:   17    charge:    4.2218    magn:    0.0438    constr:    0.0000
     atom:   18    charge:    4.2218    magn:    0.0438    constr:    0.0000
     atom:   19    charge:    4.2218    magn:    0.0438    constr:    0.0000
     atom:   20    charge:    4.2218    magn:    0.0438    constr:    0.0000
     atom:   21    charge:    4.2025    magn:    0.0788    constr:    0.0000
     atom:   22    charge:    4.2025    magn:    0.0788    constr:    0.0000
     atom:   23    charge:    4.2025    magn:    0.0788    constr:    0.0000
     atom:   24    charge:    4.2025    magn:    0.0788    constr:    0.0000
     atom:   25    charge:    4.2025    magn:    0.0788    constr:    0.0000
     atom:   26    charge:    4.2025    magn:    0.0788    constr:    0.0000
     atom:   27    charge:    4.2025    magn:    0.0788    constr:    0.0000
     atom:   28    charge:    4.2025    magn:    0.0788    constr:    0.0000

     total cpu time spent up to now is   136608.4 secs

     End of self-consistent calculation

 ------ SPIN UP ------------


          k = 0.0000 0.0000 0.0000 ( 34089 PWs)   bands (ev):

   -79.8530 -79.8529 -79.8529 -79.8528 -46.8115 -46.8114 -46.8103 -46.8102
   -45.6247 -45.6246 -45.6244 -45.6243 -45.3139 -45.3138 -45.3132 -45.3131
   -42.0543 -42.0543 -42.0420 -42.0420 -14.5267 -14.4857 -14.1946 -14.1598
   -14.1535 -14.1054 -14.0953 -14.0941 -14.0894 -14.0134 -14.0129 -13.9812
   -13.9809 -13.9752 -13.5507 -13.4425 -11.3649 -11.3639 -11.3101 -11.2925
   -11.2872 -11.2861 -11.1632 -11.0946 -11.0907 -11.0336 -11.0216 -11.0071
    -1.4093  -0.9588  -0.7522  -0.7457   0.0854   0.5209   0.6354   0.8126
     0.8160   1.0603   1.3528   1.3996   1.4278   1.4751   1.5042   1.8431
     2.5629   2.7526   3.0554   3.1853   3.2784   3.4492   3.4934   3.5934
     3.6311   3.6558   3.7739   3.9737   4.0506   4.0736   4.2377   4.2773
     4.3124   4.3614   4.4373   4.4551   4.6098   4.6494   4.8861   4.9469
     5.0386   5.1153   5.3110   5.5466   5.5897   5.8001   5.9609   6.1441
     6.6125   6.6249   6.6633   6.8809   6.8931   7.0150   7.0528   7.0945
     7.2572   7.4368   7.7123   7.7257   7.7557   7.7883   7.8921   8.2529
     8.2875   8.4022   8.5582   8.5762  11.6690  13.7520  13.8396  14.5267
    14.8683  15.0213  15.4068  16.0284  16.0970  16.3247  16.4355  16.5563
    16.5790  16.7341

     occupation numbers 
     1.0000   1.0000   1.0000   1.0000   1.0000   1.0000   1.0000   1.0000
     1.0000   1.0000   1.0000   1.0000   1.0000   1.0000   1.0000   1.0000
     1.0000   1.0000   1.0000   1.0000   1.0000   1.0000   1.0000   1.0000
     1.0000   1.0000   1.0000   1.0000   1.0000   1.0000   1.0000   1.0000
     1.0000   1.0000   1.0000   1.0000   1.0000   1.0000   1.0000   1.0000
     1.0000   1.0000   1.0000   1.0000   1.0000   1.0000   1.0000   1.0000
     1.0000   1.0000   1.0000   1.0000   1.0000   1.0000   1.0000   1.0000
     1.0000   1.0000   1.0000   1.0000   1.0000   1.0000   1.0000   1.0000
     1.0000   1.0000   1.0000   1.0000   1.0000   1.0000   1.0000   1.0000
     1.0000   1.0000   1.0000   1.0000   1.0000   1.0000   1.0000   1.0000
     1.0000   1.0000   1.0000   1.0000   1.0000   1.0000   1.0000   1.0000
     1.0000   1.0000   1.0000   1.0000   1.0000   1.0000   1.0000   1.0000
     1.0000   1.0000   1.0000   1.0000   1.0000   1.0000   1.0000   1.0000
     1.0000   1.0000   1.0000   1.0000   1.0000   1.0000   1.0000   1.0000
     1.0000   1.0000   1.0000   1.0000   0.0000   0.0000   0.0000   0.0000
     0.0000   0.0000   0.0000   0.0000   0.0000   0.0000   0.0000   0.0000
     0.0000   0.0000

          k = 0.0000 0.0000 0.2259 ( 34083 PWs)   bands (ev):

   -79.8530 -79.8529 -79.8529 -79.8528 -46.8115 -46.8114 -46.8104 -46.8102
   -45.6247 -45.6246 -45.6245 -45.6243 -45.3139 -45.3138 -45.3132 -45.3131
   -42.0543 -42.0543 -42.0420 -42.0420 -14.5215 -14.4809 -14.2620 -14.1968
   -14.1434 -14.1110 -14.0941 -14.0897 -14.0246 -14.0135 -14.0130 -13.9813
   -13.9811 -13.9007 -13.5635 -13.4623 -11.3767 -11.3556 -11.3200 -11.2977
   -11.2869 -11.2820 -11.1666 -11.1023 -11.0795 -11.0451 -11.0372 -11.0126
    -1.3878  -0.9624  -0.7747  -0.7271   0.1575   0.5462   0.6951   0.8210
     0.8685   1.0773   1.3537   1.4139   1.4401   1.4404   1.4844   1.8247
     2.5677   2.7463   3.0610   3.1402   3.2921   3.3824   3.4912   3.5205
     3.5498   3.6292   3.8207   3.9244   4.0131   4.0392   4.2422   4.2442
     4.3094   4.3128   4.5156   4.5502   4.6329   4.7274   4.8313   4.9326
     5.0044   5.1677   5.3252   5.5416   5.6173   5.8300   5.9494   6.1239
     6.5987   6.6292   6.6458   6.8669   6.8925   7.0002   7.0255   7.0321
     7.2944   7.4589   7.7230   7.7675   7.7990   7.8065   7.8864   8.2258
     8.2647   8.3703   8.5691   8.5716  11.8237  13.7831  13.9370  14.4976
    14.8204  15.0401  15.5602  15.8004  16.0218  16.1646  16.2062  16.5248
    16.6435  16.7419

     occupation numbers 
     1.0000   1.0000   1.0000   1.0000   1.0000   1.0000   1.0000   1.0000
     1.0000   1.0000   1.0000   1.0000   1.0000   1.0000   1.0000   1.0000
     1.0000   1.0000   1.0000   1.0000   1.0000   1.0000   1.0000   1.0000
     1.0000   1.0000   1.0000   1.0000   1.0000   1.0000   1.0000   1.0000
     1.0000   1.0000   1.0000   1.0000   1.0000   1.0000   1.0000   1.0000
     1.0000   1.0000   1.0000   1.0000   1.0000   1.0000   1.0000   1.0000
     1.0000   1.0000   1.0000   1.0000   1.0000   1.0000   1.0000   1.0000
     1.0000   1.0000   1.0000   1.0000   1.0000   1.0000   1.0000   1.0000
     1.0000   1.0000   1.0000   1.0000   1.0000   1.0000   1.0000   1.0000
     1.0000   1.0000   1.0000   1.0000   1.0000   1.0000   1.0000   1.0000
     1.0000   1.0000   1.0000   1.0000   1.0000   1.0000   1.0000   1.0000
     1.0000   1.0000   1.0000   1.0000   1.0000   1.0000   1.0000   1.0000
     1.0000   1.0000   1.0000   1.0000   1.0000   1.0000   1.0000   1.0000
     1.0000   1.0000   1.0000   1.0000   1.0000   1.0000   1.0000   1.0000
     1.0000   1.0000   1.0000   1.0000   0.0000   0.0000   0.0000   0.0000
     0.0000   0.0000   0.0000   0.0000   0.0000   0.0000   0.0000   0.0000
     0.0000   0.0000

          k = 0.0000 0.0000 0.4519 ( 34060 PWs)   bands (ev):

   -79.8530 -79.8529 -79.8529 -79.8528 -46.8114 -46.8113 -46.8105 -46.8103
   -45.6247 -45.6246 -45.6245 -45.6244 -45.3138 -45.3137 -45.3133 -45.3132
   -42.0543 -42.0543 -42.0420 -42.0420 -14.5206 -14.4805 -14.2975 -14.2516
   -14.1372 -14.1113 -14.0942 -14.0906 -14.0137 -14.0133 -13.9816 -13.9813
   -13.9058 -13.8017 -13.5925 -13.5083 -11.4011 -11.3470 -11.3319 -11.3221
   -11.2733 -11.2700 -11.1768 -11.1245 -11.1108 -11.0795 -11.0494 -10.9969
    -1.3250  -0.9642  -0.8121  -0.7317   0.3734   0.6303   0.8352   0.8408
     1.0128   1.1195   1.3449   1.3632   1.4231   1.4719   1.5000   1.7665
     2.5756   2.7315   3.0300   3.0780   3.2329   3.3166   3.3468   3.4139
     3.4789   3.5480   3.8106   3.9032   3.9514   3.9772   4.0230   4.1602
     4.2838   4.3051   4.6628   4.6752   4.7560   4.8024   4.8738   4.9326
     4.9834   5.2402   5.3251   5.5264   5.6823   5.8877   5.9350   6.0908
     6.5835   6.6037   6.6315   6.8155   6.8828   6.9028   6.9147   7.0402
     7.3954   7.5288   7.7553   7.8215   7.8407   7.8717   7.9177   8.1476
     8.1968   8.3071   8.5619   8.5817  12.2337  13.8672  14.1841  14.4255
    14.8169  15.0760  15.3665  15.8110  15.9480  15.9540  15.9961  16.1097
    16.6092  16.6491

     occupation numbers 
     1.0000   1.0000   1.0000   1.0000   1.0000   1.0000   1.0000   1.0000
     1.0000   1.0000   1.0000   1.0000   1.0000   1.0000   1.0000   1.0000
     1.0000   1.0000   1.0000   1.0000   1.0000   1.0000   1.0000   1.0000
     1.0000   1.0000   1.0000   1.0000   1.0000   1.0000   1.0000   1.0000
     1.0000   1.0000   1.0000   1.0000   1.0000   1.0000   1.0000   1.0000
     1.0000   1.0000   1.0000   1.0000   1.0000   1.0000   1.0000   1.0000
     1.0000   1.0000   1.0000   1.0000   1.0000   1.0000   1.0000   1.0000
     1.0000   1.0000   1.0000   1.0000   1.0000   1.0000   1.0000   1.0000
     1.0000   1.0000   1.0000   1.0000   1.0000   1.0000   1.0000   1.0000
     1.0000   1.0000   1.0000   1.0000   1.0000   1.0000   1.0000   1.0000
     1.0000   1.0000   1.0000   1.0000   1.0000   1.0000   1.0000   1.0000
     1.0000   1.0000   1.0000   1.0000   1.0000   1.0000   1.0000   1.0000
     1.0000   1.0000   1.0000   1.0000   1.0000   1.0000   1.0000   1.0000
     1.0000   1.0000   1.0000   1.0000   1.0000   1.0000   1.0000   1.0000
     1.0000   1.0000   1.0000   1.0000   0.0000   0.0000   0.0000   0.0000
     0.0000   0.0000   0.0000   0.0000   0.0000   0.0000   0.0000   0.0000
     0.0000   0.0000

          k = 0.0000 0.0000 0.6778 ( 34088 PWs)   bands (ev):

   -79.8530 -79.8529 -79.8529 -79.8528 -46.8112 -46.8111 -46.8106 -46.8105
   -45.6247 -45.6246 -45.6245 -45.6244 -45.3138 -45.3136 -45.3134 -45.3133
   -42.0543 -42.0543 -42.0420 -42.0420 -14.5363 -14.5049 -14.2719 -14.2529
   -14.1266 -14.1045 -14.0941 -14.0918 -14.0139 -14.0137 -13.9818 -13.9816
   -13.8323 -13.7691 -13.5998 -13.5359 -11.4204 -11.3815 -11.3446 -11.2963
   -11.2645 -11.2516 -11.1934 -11.1876 -11.1583 -11.1245 -11.0194 -10.9825
    -1.2268  -0.9491  -0.8772  -0.7814   0.6942   0.7715   0.8866   0.9561
     1.1697   1.1698   1.2150   1.3446   1.3958   1.6006   1.6322   1.6712
     2.5639   2.7318   2.8771   3.0436   3.1101   3.1488   3.3145   3.3401
     3.3826   3.4407   3.5286   3.8441   3.9215   3.9427   4.0332   4.0776
     4.2698   4.3044   4.5537   4.6157   4.9321   4.9803   4.9823   5.0251
     5.0862   5.2958   5.3446   5.4931   5.6708   5.8094   6.0444   6.1233
     6.5570   6.5908   6.6384   6.7292   6.7683   6.8045   6.9283   7.0357
     7.5390   7.6458   7.8038   7.8389   7.8540   7.8919   8.0258   8.0302
     8.0881   8.2465   8.5570   8.5828  12.7825  14.0105  14.1649  14.6310
    14.8488  14.9021  15.2970  15.6647  15.7542  15.8205  15.9417  15.9882
    16.2848  16.6167

     occupation numbers 
     1.0000   1.0000   1.0000   1.0000   1.0000   1.0000   1.0000   1.0000
     1.0000   1.0000   1.0000   1.0000   1.0000   1.0000   1.0000   1.0000
     1.0000   1.0000   1.0000   1.0000   1.0000   1.0000   1.0000   1.0000
     1.0000   1.0000   1.0000   1.0000   1.0000   1.0000   1.0000   1.0000
     1.0000   1.0000   1.0000   1.0000   1.0000   1.0000   1.0000   1.0000
     1.0000   1.0000   1.0000   1.0000   1.0000   1.0000   1.0000   1.0000
     1.0000   1.0000   1.0000   1.0000   1.0000   1.0000   1.0000   1.0000
     1.0000   1.0000   1.0000   1.0000   1.0000   1.0000   1.0000   1.0000
     1.0000   1.0000   1.0000   1.0000   1.0000   1.0000   1.0000   1.0000
     1.0000   1.0000   1.0000   1.0000   1.0000   1.0000   1.0000   1.0000
     1.0000   1.0000   1.0000   1.0000   1.0000   1.0000   1.0000   1.0000
     1.0000   1.0000   1.0000   1.0000   1.0000   1.0000   1.0000   1.0000
     1.0000   1.0000   1.0000   1.0000   1.0000   1.0000   1.0000   1.0000
     1.0000   1.0000   1.0000   1.0000   1.0000   1.0000   1.0000   1.0000
     1.0000   1.0000   1.0000   1.0000   0.0000   0.0000   0.0000   0.0000
     0.0000   0.0000   0.0000   0.0000   0.0000   0.0000   0.0000   0.0000
     0.0000   0.0000

          k = 0.0000 0.0000 0.9038 ( 34082 PWs)   bands (ev):

   -79.8530 -79.8529 -79.8529 -79.8528 -46.8110 -46.8109 -46.8108 -46.8107
   -45.6246 -45.6245 -45.6245 -45.6244 -45.3137 -45.3135 -45.3135 -45.3134
   -42.0543 -42.0543 -42.0420 -42.0420 -14.5461 -14.5345 -14.2360 -14.2327
   -14.1077 -14.0974 -14.0937 -14.0929 -14.0140 -14.0140 -13.9819 -13.9819
   -13.8251 -13.8058 -13.5622 -13.5364 -11.4243 -11.4104 -11.3443 -11.3063
   -11.2544 -11.2283 -11.2174 -11.1971 -11.1965 -11.1656 -10.9942 -10.9809
    -1.1047  -0.9788  -0.9106  -0.8512   0.9088   0.9668   0.9850   1.0039
     1.0808   1.1597   1.2473   1.3257   1.4621   1.5600   1.7590   1.7782
     2.5527   2.6698   2.7765   2.8874   3.0115   3.0664   3.1689   3.2527
     3.3348   3.3678   3.5664   3.6870   3.9488   3.9542   4.0163   4.0230
     4.3418   4.3639   4.4295   4.4983   5.0108   5.0410   5.0432   5.0658
     5.3250   5.3559   5.4322   5.4617   5.5540   5.6683   6.1528   6.1866
     6.5471   6.6224   6.6288   6.6605   6.6870   6.7150   6.9672   7.0080
     7.7045   7.7934   7.8393   7.8446   7.8615   7.8728   7.8948   7.9480
     8.1221   8.1903   8.5628   8.5744  13.3544  13.8454  14.2277  14.4944
    15.0201  15.0300  15.2437  15.4080  15.7267  15.8052  15.8652  15.8972
    16.1573  16.3392

     occupation numbers 
     1.0000   1.0000   1.0000   1.0000   1.0000   1.0000   1.0000   1.0000
     1.0000   1.0000   1.0000   1.0000   1.0000   1.0000   1.0000   1.0000
     1.0000   1.0000   1.0000   1.0000   1.0000   1.0000   1.0000   1.0000
     1.0000   1.0000   1.0000   1.0000   1.0000   1.0000   1.0000   1.0000
     1.0000   1.0000   1.0000   1.0000   1.0000   1.0000   1.0000   1.0000
     1.0000   1.0000   1.0000   1.0000   1.0000   1.0000   1.0000   1.0000
     1.0000   1.0000   1.0000   1.0000   1.0000   1.0000   1.0000   1.0000
     1.0000   1.0000   1.0000   1.0000   1.0000   1.0000   1.0000   1.0000
     1.0000   1.0000   1.0000   1.0000   1.0000   1.0000   1.0000   1.0000
     1.0000   1.0000   1.0000   1.0000   1.0000   1.0000   1.0000   1.0000
     1.0000   1.0000   1.0000   1.0000   1.0000   1.0000   1.0000   1.0000
     1.0000   1.0000   1.0000   1.0000   1.0000   1.0000   1.0000   1.0000
     1.0000   1.0000   1.0000   1.0000   1.0000   1.0000   1.0000   1.0000
     1.0000   1.0000   1.0000   1.0000   1.0000   1.0000   1.0000   1.0000
     1.0000   1.0000   1.0000   1.0000   0.0000   0.0000   0.0000   0.0000
     0.0000   0.0000   0.0000   0.0000   0.0000   0.0000   0.0000   0.0000
     0.0000   0.0000

          k = 0.0000 0.2391 0.0000 ( 34090 PWs)   bands (ev):

   -79.8530 -79.8529 -79.8529 -79.8528 -46.8115 -46.8113 -46.8104 -46.8103
   -45.6247 -45.6246 -45.6245 -45.6243 -45.3139 -45.3138 -45.3132 -45.3131
   -42.0537 -42.0537 -42.0426 -42.0426 -14.5124 -14.4756 -14.2305 -14.1545
   -14.1483 -14.1393 -14.0998 -14.0908 -14.0735 -14.0530 -13.9980 -13.9918
   -13.9726 -13.8894 -13.5577 -13.4682 -11.3921 -11.3690 -11.3430 -11.2886
   -11.2756 -11.2703 -11.1533 -11.1152 -11.0680 -11.0310 -11.0226 -11.0049
    -1.3730  -0.9298  -0.7806  -0.7314   0.1346   0.5404   0.6532   0.7825
     0.8842   1.0655   1.2914   1.3844   1.4882   1.5068   1.5150   1.8150
     2.5799   2.7545   3.0586   3.1034   3.1754   3.3886   3.4698   3.6005
     3.6395   3.6659   3.8000   3.9734   3.9834   3.9841   4.2464   4.3162
     4.3482   4.3871   4.3886   4.5217   4.7139   4.7403   4.7643   4.9929
     5.0277   5.1271   5.2829   5.5455   5.5545   5.7481   5.9038   6.1510
     6.5601   6.5831   6.6732   6.8029   6.8599   6.9611   7.1115   7.2311
     7.2526   7.3921   7.7135   7.7450   7.7882   7.8022   7.9614   8.0956
     8.1014   8.5342   8.6140   8.6331  11.8373  13.8428  13.9312  14.4822
    14.9657  15.1163  15.3764  15.9977  16.0238  16.3312  16.3715  16.5059
    16.5602  16.9107

     occupation numbers 
     1.0000   1.0000   1.0000   1.0000   1.0000   1.0000   1.0000   1.0000
     1.0000   1.0000   1.0000   1.0000   1.0000   1.0000   1.0000   1.0000
     1.0000   1.0000   1.0000   1.0000   1.0000   1.0000   1.0000   1.0000
     1.0000   1.0000   1.0000   1.0000   1.0000   1.0000   1.0000   1.0000
     1.0000   1.0000   1.0000   1.0000   1.0000   1.0000   1.0000   1.0000
     1.0000   1.0000   1.0000   1.0000   1.0000   1.0000   1.0000   1.0000
     1.0000   1.0000   1.0000   1.0000   1.0000   1.0000   1.0000   1.0000
     1.0000   1.0000   1.0000   1.0000   1.0000   1.0000   1.0000   1.0000
     1.0000   1.0000   1.0000   1.0000   1.0000   1.0000   1.0000   1.0000
     1.0000   1.0000   1.0000   1.0000   1.0000   1.0000   1.0000   1.0000
     1.0000   1.0000   1.0000   1.0000   1.0000   1.0000   1.0000   1.0000
     1.0000   1.0000   1.0000   1.0000   1.0000   1.0000   1.0000   1.0000
     1.0000   1.0000   1.0000   1.0000   1.0000   1.0000   1.0000   1.0000
     1.0000   1.0000   1.0000   1.0000   1.0000   1.0000   1.0000   1.0000
     1.0000   1.0000   1.0000   1.0000   0.0000   0.0000   0.0000   0.0000
     0.0000   0.0000   0.0000   0.0000   0.0000   0.0000   0.0000   0.0000
     0.0000   0.0000

          k = 0.0000 0.2391 0.2259 ( 34083 PWs)   bands (ev):

   -79.8530 -79.8529 -79.8529 -79.8528 -46.8114 -46.8113 -46.8104 -46.8103
   -45.6247 -45.6246 -45.6245 -45.6244 -45.3139 -45.3138 -45.3133 -45.3131
   -42.0537 -42.0537 -42.0426 -42.0426 -14.5072 -14.4706 -14.2706 -14.2033
   -14.1440 -14.1239 -14.0943 -14.0929 -14.0503 -14.0396 -13.9927 -13.9909
   -13.9501 -13.8486 -13.5691 -13.4849 -11.3996 -11.3760 -11.3306 -11.2842
   -11.2840 -11.2742 -11.1659 -11.1183 -11.0600 -11.0376 -11.0349 -11.0156
    -1.3517  -0.9330  -0.7858  -0.7265   0.2037   0.5650   0.7110   0.8248
     0.9012   1.0811   1.3065   1.3970   1.4707   1.4864   1.5028   1.7952
     2.5849   2.7394   3.0541   3.1156   3.1283   3.3499   3.4086   3.5381
     3.5786   3.7152   3.8272   3.8856   3.9429   4.0153   4.2612   4.2700
     4.3107   4.3829   4.4299   4.6012   4.7309   4.7338   4.7919   4.9714
     5.0035   5.1713   5.2947   5.5440   5.5772   5.7744   5.8923   6.1286
     6.5531   6.5729   6.6748   6.8087   6.8642   6.9486   7.0773   7.1876
     7.2603   7.4063   7.7244   7.7857   7.8004   7.8397   7.9689   8.0638
     8.0835   8.5058   8.6109   8.6413  11.9863  13.8755  14.0301  14.4870
    14.9027  15.1155  15.5458  15.7091  16.0084  16.1262  16.2874  16.5145
    16.7199  16.7249

     occupation numbers 
     1.0000   1.0000   1.0000   1.0000   1.0000   1.0000   1.0000   1.0000
     1.0000   1.0000   1.0000   1.0000   1.0000   1.0000   1.0000   1.0000
     1.0000   1.0000   1.0000   1.0000   1.0000   1.0000   1.0000   1.0000
     1.0000   1.0000   1.0000   1.0000   1.0000   1.0000   1.0000   1.0000
     1.0000   1.0000   1.0000   1.0000   1.0000   1.0000   1.0000   1.0000
     1.0000   1.0000   1.0000   1.0000   1.0000   1.0000   1.0000   1.0000
     1.0000   1.0000   1.0000   1.0000   1.0000   1.0000   1.0000   1.0000
     1.0000   1.0000   1.0000   1.0000   1.0000   1.0000   1.0000   1.0000
     1.0000   1.0000   1.0000   1.0000   1.0000   1.0000   1.0000   1.0000
     1.0000   1.0000   1.0000   1.0000   1.0000   1.0000   1.0000   1.0000
     1.0000   1.0000   1.0000   1.0000   1.0000   1.0000   1.0000   1.0000
     1.0000   1.0000   1.0000   1.0000   1.0000   1.0000   1.0000   1.0000
     1.0000   1.0000   1.0000   1.0000   1.0000   1.0000   1.0000   1.0000
     1.0000   1.0000   1.0000   1.0000   1.0000   1.0000   1.0000   1.0000
     1.0000   1.0000   1.0000   1.0000   0.0000   0.0000   0.0000   0.0000
     0.0000   0.0000   0.0000   0.0000   0.0000   0.0000   0.0000   0.0000
     0.0000   0.0000

          k = 0.0000 0.2391 0.4519 ( 34077 PWs)   bands (ev):

   -79.8530 -79.8529 -79.8529 -79.8528 -46.8113 -46.8112 -46.8105 -46.8104
   -45.6247 -45.6246 -45.6245 -45.6244 -45.3138 -45.3137 -45.3133 -45.3132
   -42.0537 -42.0537 -42.0426 -42.0426 -14.5055 -14.4689 -14.2962 -14.2518
   -14.1381 -14.1196 -14.0939 -14.0937 -14.0341 -14.0322 -13.9913 -13.9910
   -13.8680 -13.7732 -13.5942 -13.5229 -11.4162 -11.3894 -11.3154 -11.2960
   -11.2786 -11.2730 -11.1982 -11.1325 -11.0841 -11.0758 -11.0388 -11.0045
    -1.2897  -0.9348  -0.8054  -0.7377   0.4117   0.6444   0.8482   0.8726
     1.0142   1.1183   1.3410   1.3829   1.4259   1.4750   1.5193   1.7384
     2.5837   2.7134   3.0117   3.0231   3.1401   3.2548   3.2655   3.4280
     3.5587   3.6582   3.8069   3.8156   3.9063   3.9990   4.0642   4.1713
     4.2656   4.3718   4.5945   4.6245   4.8056   4.8070   4.9105   4.9565
     5.0009   5.2423   5.2888   5.5276   5.6500   5.8210   5.8796   6.0786
     6.5385   6.5545   6.6804   6.8129   6.8772   6.9133   6.9758   7.1106
     7.3259   7.4528   7.7569   7.8271   7.8566   7.8803   7.9879   8.0190
     8.0243   8.4446   8.6055   8.6493  12.3835  13.9611  14.2847  14.4810
    14.8921  15.1331  15.2902  15.8135  15.9217  15.9315  16.0977  16.1821
    16.5741  16.6567

     occupation numbers 
     1.0000   1.0000   1.0000   1.0000   1.0000   1.0000   1.0000   1.0000
     1.0000   1.0000   1.0000   1.0000   1.0000   1.0000   1.0000   1.0000
     1.0000   1.0000   1.0000   1.0000   1.0000   1.0000   1.0000   1.0000
     1.0000   1.0000   1.0000   1.0000   1.0000   1.0000   1.0000   1.0000
     1.0000   1.0000   1.0000   1.0000   1.0000   1.0000   1.0000   1.0000
     1.0000   1.0000   1.0000   1.0000   1.0000   1.0000   1.0000   1.0000
     1.0000   1.0000   1.0000   1.0000   1.0000   1.0000   1.0000   1.0000
     1.0000   1.0000   1.0000   1.0000   1.0000   1.0000   1.0000   1.0000
     1.0000   1.0000   1.0000   1.0000   1.0000   1.0000   1.0000   1.0000
     1.0000   1.0000   1.0000   1.0000   1.0000   1.0000   1.0000   1.0000
     1.0000   1.0000   1.0000   1.0000   1.0000   1.0000   1.0000   1.0000
     1.0000   1.0000   1.0000   1.0000   1.0000   1.0000   1.0000   1.0000
     1.0000   1.0000   1.0000   1.0000   1.0000   1.0000   1.0000   1.0000
     1.0000   1.0000   1.0000   1.0000   1.0000   1.0000   1.0000   1.0000
     1.0000   1.0000   1.0000   1.0000   0.0000   0.0000   0.0000   0.0000
     0.0000   0.0000   0.0000   0.0000   0.0000   0.0000   0.0000   0.0000
     0.0000   0.0000

          k = 0.0000 0.2391 0.6778 ( 34083 PWs)   bands (ev):

   -79.8530 -79.8529 -79.8529 -79.8528 -46.8112 -46.8111 -46.8106 -46.8105
   -45.6246 -45.6246 -45.6245 -45.6244 -45.3137 -45.3136 -45.3134 -45.3133
   -42.0537 -42.0537 -42.0426 -42.0426 -14.5193 -14.4903 -14.2674 -14.2484
   -14.1331 -14.1174 -14.0953 -14.0936 -14.0325 -14.0325 -13.9937 -13.9932
   -13.8004 -13.7436 -13.5999 -13.5436 -11.4306 -11.4083 -11.3343 -11.2771
   -11.2655 -11.2644 -11.2436 -11.1593 -11.1348 -11.1167 -11.0167 -10.9929
    -1.1932  -0.9226  -0.8544  -0.7866   0.7235   0.7733   0.9085   0.9773
     1.1563   1.1762   1.2764   1.3120   1.4213   1.5827   1.6280   1.6684
[...]
     atom   23 type  3   force =     0.68984327   -0.96222606   -0.73604793
     atom   24 type  3   force =    -0.68984007    0.96222605   -0.73605326
     atom   25 type  3   force =     0.68984831    0.96224389   -0.73606255
     atom   26 type  3   force =    -0.68985355   -0.96224341   -0.73606720
     atom   27 type  3   force =    -0.68984327    0.96222606    0.73604793
     atom   28 type  3   force =     0.68984007   -0.96222605    0.73605326
     The ionic contribution  to forces
     atom    1 type  2   force =    -0.00004334    0.00001678   -0.00003980
     atom    2 type  2   force =    -0.00008466    0.00005434   -0.00003380
     atom    3 type  2   force =     0.00001885    0.00000290   -0.00003326
     atom    4 type  2   force =    -0.00003023   -0.00003872   -0.00001399
     atom    5 type  1   force =     2.61284489    0.00052669   -0.79033017
     atom    6 type  1   force =    -2.61289284   -0.00038617   -0.79028538
     atom    7 type  1   force =    -2.61286542   -0.00035697    0.79037357
     atom    8 type  1   force =     2.61313530    0.00048971    0.79032671
     atom    9 type  4   force =    -0.63871070    0.00004972    2.14573742
     atom   10 type  4   force =     0.63877918   -0.00010498    2.14565567
     atom   11 type  4   force =     0.63875704   -0.00009753   -2.14569859
     atom   12 type  4   force =    -0.63876732    0.00010114   -2.14565639
     atom   13 type  3   force =    -4.03945968    0.00010855    0.82435732
     atom   14 type  3   force =     4.03954924   -0.00014276    0.82437997
     atom   15 type  3   force =     4.03948856   -0.00012615   -0.82437003
     atom   16 type  3   force =    -4.03956743    0.00011455   -0.82435402
     atom   17 type  3   force =    -1.29495661    0.00008852    3.12040297
     atom   18 type  3   force =     1.29494104   -0.00008115    3.12039385
     atom   19 type  3   force =     1.29490347   -0.00009003   -3.12038988
     atom   20 type  3   force =    -1.29516052    0.00006660   -3.12034328
     atom   21 type  3   force =     0.62106909    1.51439728   -1.68961943
     atom   22 type  3   force =    -0.62104026   -1.51445257   -1.68956824
     atom   23 type  3   force =    -0.62081552    1.51432028    1.68941810
     atom   24 type  3   force =     0.62085528   -1.51437515    1.68934149
     atom   25 type  3   force =    -0.62099840   -1.51448718    1.68953885
     atom   26 type  3   force =     0.62103328    1.51441396    1.68959070
     atom   27 type  3   force =     0.62087711   -1.51429179   -1.68933216
     atom   28 type  3   force =    -0.62085940    1.51428014   -1.68944817
     The local contribution  to forces
     atom    1 type  2   force =     0.00000000   -0.00000000    0.00000000
     atom    2 type  2   force =    -0.00000000   -0.00000000   -0.00000000
     atom    3 type  2   force =    -0.00000000    0.00000000    0.00000000
     atom    4 type  2   force =    -0.00000000    0.00000000   -0.00000000
     atom    5 type  1   force =    -2.55144689   -0.00044248    0.71822429
     atom    6 type  1   force =     2.55338334    0.00043867    0.71819749
     atom    7 type  1   force =     2.55144689    0.00044248   -0.71822429
     atom    8 type  1   force =    -2.54980857   -0.00043868   -0.71816384
     atom    9 type  4   force =     0.61718820   -0.00007203   -2.11782699
     atom   10 type  4   force =    -0.61723046    0.00009825   -2.11777405
     atom   11 type  4   force =    -0.61719480    0.00006955    2.11783349
     atom   12 type  4   force =     0.61723046   -0.00010073    2.11777406
     atom   13 type  3   force =     3.85746250   -0.00037493    0.62789117
     atom   14 type  3   force =    -3.85716251   -0.00010952    0.62791862
     atom   15 type  3   force =    -3.85746250   -0.00012106   -0.62789117
     atom   16 type  3   force =     3.85792728   -0.00038646   -0.62787396
     atom   17 type  3   force =     0.00544443   -0.00009420   -2.40937661
     atom   18 type  3   force =    -0.00553545    0.00007665   -2.40914993
     atom   19 type  3   force =    -0.00544443    0.00009420    2.40937661
     atom   20 type  3   force =     0.00556004   -0.00007665    2.40954984
     atom   21 type  3   force =     0.09681823   -0.50694729    0.93916136
     atom   22 type  3   force =    -0.09637658    0.50650888    0.93910694
     atom   23 type  3   force =    -0.09658176   -0.50681158   -0.93896159
     atom   24 type  3   force =     0.09654206    0.50642222   -0.93893619
     atom   25 type  3   force =    -0.09595989    0.50649077   -0.93909677
     atom   26 type  3   force =     0.09640431   -0.50691900   -0.93914633
     atom   27 type  3   force =     0.09655403    0.50640146    0.93892220
     atom   28 type  3   force =    -0.09656979   -0.50683235    0.93897557
     The core correction contribution to forces
     atom    1 type  2   force =     0.00000000    0.00000000    0.00000000
     atom    2 type  2   force =     0.00000000    0.00000000    0.00000000
     atom    3 type  2   force =     0.00000000    0.00000000    0.00000000
     atom    4 type  2   force =     0.00000000    0.00000000    0.00000000
     atom    5 type  1   force =     0.00353539   -0.00000027   -0.00289523
     atom    6 type  1   force =    -0.00359936    0.00000036   -0.00289413
     atom    7 type  1   force =    -0.00353544    0.00000029    0.00289522
     atom    8 type  1   force =     0.00347157   -0.00000034    0.00289624
     atom    9 type  4   force =    -0.00271630    0.00000128   -0.00603283
     atom   10 type  4   force =     0.00271441    0.00000040   -0.00603207
     atom   11 type  4   force =     0.00271358    0.00000017    0.00603283
     atom   12 type  4   force =    -0.00271441    0.00000105    0.00603207
     atom   13 type  3   force =    -0.00213869   -0.00000022    0.01271297
     atom   14 type  3   force =     0.00213899   -0.00000004    0.01271285
     atom   15 type  3   force =     0.00213869   -0.00000004   -0.01271297
     atom   16 type  3   force =    -0.00213840   -0.00000023   -0.01271294
     atom   17 type  3   force =    -0.00912774   -0.00000002    0.00624920
     atom   18 type  3   force =     0.00912772   -0.00000001    0.00624927
     atom   19 type  3   force =     0.00912774    0.00000002   -0.00624920
     atom   20 type  3   force =    -0.00912765    0.00000001   -0.00624896
     atom   21 type  3   force =     0.00551375    0.00738510   -0.00631165
     atom   22 type  3   force =    -0.00551366   -0.00738560   -0.00631167
     atom   23 type  3   force =    -0.00551346    0.00738495    0.00631143
     atom   24 type  3   force =     0.00551354   -0.00738550    0.00631153
     atom   25 type  3   force =    -0.00551329   -0.00738548    0.00631152
     atom   26 type  3   force =     0.00551355    0.00738505    0.00631162
     atom   27 type  3   force =     0.00551356   -0.00738551   -0.00631149
     atom   28 type  3   force =    -0.00551343    0.00738495   -0.00631147
     The Hubbard contrib.    to forces
     atom    1 type  2   force =     0.00000000    0.00000000    0.00000000
     atom    2 type  2   force =     0.00000000    0.00000000    0.00000000
     atom    3 type  2   force =     0.00000000    0.00000000    0.00000000
     atom    4 type  2   force =     0.00000000    0.00000000    0.00000000
     atom    5 type  1   force =     0.00000000    0.00000000    0.00000000
     atom    6 type  1   force =     0.00000000    0.00000000    0.00000000
     atom    7 type  1   force =     0.00000000    0.00000000    0.00000000
     atom    8 type  1   force =     0.00000000    0.00000000    0.00000000
     atom    9 type  4   force =     0.00000000    0.00000000    0.00000000
     atom   10 type  4   force =     0.00000000    0.00000000    0.00000000
     atom   11 type  4   force =     0.00000000    0.00000000    0.00000000
     atom   12 type  4   force =     0.00000000    0.00000000    0.00000000
     atom   13 type  3   force =     0.00000000    0.00000000    0.00000000
     atom   14 type  3   force =     0.00000000    0.00000000    0.00000000
     atom   15 type  3   force =     0.00000000    0.00000000    0.00000000
     atom   16 type  3   force =     0.00000000    0.00000000    0.00000000
     atom   17 type  3   force =     0.00000000    0.00000000    0.00000000
     atom   18 type  3   force =     0.00000000    0.00000000    0.00000000
     atom   19 type  3   force =     0.00000000    0.00000000    0.00000000
     atom   20 type  3   force =     0.00000000    0.00000000    0.00000000
     atom   21 type  3   force =     0.00000000    0.00000000    0.00000000
     atom   22 type  3   force =     0.00000000    0.00000000    0.00000000
     atom   23 type  3   force =     0.00000000    0.00000000    0.00000000
     atom   24 type  3   force =     0.00000000    0.00000000    0.00000000
     atom   25 type  3   force =     0.00000000    0.00000000    0.00000000
     atom   26 type  3   force =     0.00000000    0.00000000    0.00000000
     atom   27 type  3   force =     0.00000000    0.00000000    0.00000000
     atom   28 type  3   force =     0.00000000    0.00000000    0.00000000
     The SCF correction term to forces
     atom    1 type  2   force =     0.00000000   -0.00000000    0.00000000
     atom    2 type  2   force =     0.00000000   -0.00000000    0.00000000
     atom    3 type  2   force =    -0.00000000   -0.00000000    0.00000000
     atom    4 type  2   force =     0.00000000    0.00000000    0.00000000
     atom    5 type  1   force =     0.00000406   -0.00000001    0.00000092
     atom    6 type  1   force =     0.00000257   -0.00000009   -0.00000110
     atom    7 type  1   force =    -0.00000406    0.00000001   -0.00000092
     atom    8 type  1   force =    -0.00000257    0.00000009    0.00000110
     atom    9 type  4   force =     0.00000078   -0.00000005    0.00000020
     atom   10 type  4   force =     0.00000116   -0.00000007    0.00000050
     atom   11 type  4   force =    -0.00000078    0.00000005   -0.00000020
     atom   12 type  4   force =    -0.00000116    0.00000007   -0.00000050
     atom   13 type  3   force =     0.00000034   -0.00000013   -0.00000077
     atom   14 type  3   force =     0.00000061   -0.00000000   -0.00000065
     atom   15 type  3   force =    -0.00000034    0.00000013    0.00000077
     atom   16 type  3   force =    -0.00000061    0.00000000    0.00000065
     atom   17 type  3   force =     0.00000024    0.00000010   -0.00000048
     atom   18 type  3   force =     0.00000020    0.00000000    0.00000043
     atom   19 type  3   force =    -0.00000024   -0.00000010    0.00000048
     atom   20 type  3   force =    -0.00000020   -0.00000000   -0.00000043
     atom   21 type  3   force =     0.00000126   -0.00000004    0.00000051
     atom   22 type  3   force =     0.00000106    0.00000002    0.00000029
     atom   23 type  3   force =    -0.00000135    0.00000010   -0.00000018
     atom   24 type  3   force =    -0.00000105    0.00000035   -0.00000029
     atom   25 type  3   force =    -0.00000126    0.00000004   -0.00000051
     atom   26 type  3   force =    -0.00000106   -0.00000002   -0.00000029
     atom   27 type  3   force =     0.00000135   -0.00000010    0.00000018
     atom   28 type  3   force =     0.00000105   -0.00000035    0.00000029

     Total force =     0.265874     Total SCF correction =     0.000008


     Computing stress (Cartesian axis) and pressure


     negative rho (up, down):  0.000E+00 4.579E-04
          total   stress  (Ry/bohr**3)                   (kbar)     P=      161.92
   0.00128481   0.00000001  -0.00000000          189.00        0.00       -0.00
   0.00000001   0.00131540  -0.00000001            0.00      193.50       -0.00
  -0.00000000  -0.00000001   0.00070194           -0.00       -0.00      103.26

     kinetic stress (kbar)  34844.64     -0.01     -0.00
                               -0.01  34689.01     -0.00
                               -0.00     -0.00  34656.05

     local   stress (kbar)  -2988.11     -0.09     -0.01
                               -0.09  -5451.15      0.03
                               -0.01      0.03   -841.86

     nonloc. stress (kbar) -10414.10     -0.00     -0.00
                               -0.00 -10552.44     -0.00
                               -0.00     -0.00 -10373.22

     hartree stress (kbar)  15230.46      0.03      0.00
                                0.03  16241.79     -0.01
                                0.00     -0.01  14131.48

     exc-cor stress (kbar)  -3927.85      0.00      0.00
                                0.00  -3934.19     -0.00
                                0.00     -0.00  -3925.88

     corecor stress (kbar)  -3345.23      0.00     -0.00
                                0.00  -3324.14      0.00
                               -0.00      0.00  -3347.65

     ewald   stress (kbar) -29210.80      0.07      0.01
                                0.07 -27475.38     -0.01
                                0.01     -0.01 -30195.66

     hubbard stress (kbar)      0.00      0.00      0.00
                                0.00      0.00      0.00
                                0.00      0.00      0.00

     DFT-D   stress (kbar)      0.00      0.00      0.00
                                0.00      0.00      0.00
                                0.00      0.00      0.00

     XDM     stress (kbar)      0.00      0.00      0.00
                                0.00      0.00      0.00
                                0.00      0.00      0.00

     dft-nl  stress (kbar)      0.00      0.00      0.00
                                0.00      0.00      0.00
                                0.00      0.00      0.00

     TS-vdW  stress (kbar)      0.00      0.00      0.00
                                0.00      0.00      0.00
                                0.00      0.00      0.00



     init_run     :   1222.21s CPU   1485.43s WALL (       1 calls)
     electrons    : 117605.76s CPU 135078.24s WALL (       1 calls)
     forces       :    237.61s CPU    270.59s WALL (       1 calls)
     stress       :    746.01s CPU    862.27s WALL (       1 calls)

     Called by init_run:
     wfcinit      :   1205.18s CPU   1453.44s WALL (       1 calls)
     wfcinit:atom :      0.60s CPU      0.77s WALL (     316 calls)
     wfcinit:wfcr :   1200.08s CPU   1446.93s WALL (     316 calls)
     potinit      :      7.01s CPU     12.32s WALL (       1 calls)
     hinit0       :      6.07s CPU     12.09s WALL (       1 calls)

     Called by electrons:
     c_bands      :  99025.35s CPU 113773.99s WALL (      35 calls)
     sum_band     :  18318.94s CPU  21005.48s WALL (      35 calls)
     v_of_rho     :     91.51s CPU    105.12s WALL (      36 calls)
     v_h          :      8.93s CPU      9.99s WALL (      36 calls)
     v_xc         :     87.48s CPU    100.31s WALL (      38 calls)
     newd         :     57.84s CPU     67.33s WALL (      36 calls)
     PAW_pot      :     27.37s CPU     32.34s WALL (      36 calls)
     mix_rho      :     69.53s CPU     80.32s WALL (      35 calls)

     Called by c_bands:
     init_us_2    :     57.85s CPU     64.15s WALL (   23068 calls)
     cegterg      :  98035.92s CPU 112578.64s WALL (   11060 calls)

     Called by sum_band:
     sum_band:wei :      0.67s CPU      0.81s WALL (      35 calls)
     sum_band:loo :  18218.21s CPU  20888.62s WALL (      35 calls)
     sum_band:buf :     11.74s CPU     12.85s WALL (   11060 calls)
     sum_band:ini :     20.31s CPU     21.75s WALL (   11060 calls)
     sum_band:cal :   1658.26s CPU   1903.55s WALL (   11060 calls)
     sum_band:bec :      2.63s CPU      2.63s WALL (   11060 calls)
     addusdens    :     67.55s CPU     80.49s WALL (      35 calls)
     addusd:skk   :      0.67s CPU      0.81s WALL (     105 calls)
     addusd:dgemm :      5.13s CPU      8.18s WALL (     210 calls)
     addusd:qvan2 :     60.78s CPU     70.24s WALL (     210 calls)

     Called by *egterg:
     cdiaghg      :   7150.76s CPU   8170.91s WALL (   41899 calls)
     cegterg:over :   6470.43s CPU   7424.25s WALL (   30839 calls)
     cegterg:upda :    187.21s CPU    213.55s WALL (   30839 calls)
     cegterg:last :    381.52s CPU    445.33s WALL (   19193 calls)
     h_psi        :  80275.90s CPU  92265.51s WALL (   42215 calls)
     s_psi        :    389.85s CPU    464.38s WALL (   42215 calls)
     g_psi        :     16.67s CPU     21.32s WALL (   30839 calls)

     Called by h_psi:
     h_psi:calbec :   4633.62s CPU   5367.11s WALL (   42215 calls)
     vloc_psi     :  75203.43s CPU  86387.64s WALL (   42215 calls)
     add_vuspsi   :    396.49s CPU    462.44s WALL (   42215 calls)

     General routines
     calbec       :   6672.08s CPU   7700.52s WALL (   54855 calls)
     fft          :    133.83s CPU    153.10s WALL (     938 calls)
     ffts         :      3.28s CPU      3.79s WALL (     142 calls)
     fftw         :  90977.59s CPU 104571.35s WALL ( 8117420 calls)
     interpolate  :     11.53s CPU     13.00s WALL (      72 calls)

     Parallel routines
     fft_scatt_xy :    321.25s CPU    326.35s WALL ( 8118500 calls)
     fft_scatt_yz :  89428.24s CPU 103014.59s WALL ( 8118500 calls)

     PAW routines
     PAW_pot      :     27.37s CPU     32.34s WALL (      36 calls)
     PAW_symme    :      5.73s CPU      6.59s WALL (      71 calls)

     PWSCF        :   1d 9h17m CPU   1d14h15m WALL


   This run was terminated on:   4:52:21  14Jan2023            

=------------------------------------------------------------------------------=
   JOB DONE.
=------------------------------------------------------------------------------=
Note: The following floating-point exceptions are signalling: IEEE_UNDERFLOW_FLAG IEEE_DENORMAL
Note: The following floating-point exceptions are signalling: IEEE_DENORMAL
Note: The following floating-point exceptions are signalling: IEEE_DENORMAL
Note: The following floating-point exceptions are signalling: IEEE_DENORMAL
Note: The following floating-point exceptions are signalling: IEEE_DENORMAL
Note: The following floating-point exceptions are signalling: IEEE_DENORMAL
Note: The following floating-point exceptions are signalling: IEEE_DENORMAL
Note: The following floating-point exceptions are signalling: IEEE_DENORMAL
Note: The following floating-point exceptions are signalling: IEEE_DENORMAL
Note: The following floating-point exceptions are signalling: IEEE_DENORMAL
Note: The following floating-point exceptions are signalling: IEEE_DENORMAL
Note: The following floating-point exceptions are signalling: IEEE_DENORMAL
Note: The following floating-point exceptions are signalling: IEEE_DENORMAL
Note: The following floating-point exceptions are signalling: IEEE_DENORMAL
Note: The following floating-point exceptions are signalling: IEEE_DENORMAL
Note: The following floating-point exceptions are signalling: IEEE_INVALID_FLAG IEEE_DENORMAL
Note: The following floating-point exceptions are signalling: IEEE_DENORMAL
Note: The following floating-point exceptions are signalling: IEEE_DENORMAL
Note: The following floating-point exceptions are signalling: IEEE_DENORMAL
Note: The following floating-point exceptions are signalling: IEEE_DENORMAL
Note: The following floating-point exceptions are signalling: IEEE_DENORMAL
Note: The following floating-point exceptions are signalling: IEEE_DENORMAL
Note: The following floating-point exceptions are signalling: IEEE_DENORMAL
Note: The following floating-point exceptions are signalling: IEEE_DENORMAL
Note: The following floating-point exceptions are signalling: IEEE_INVALID_FLAG IEEE_DENORMAL
Note: The following floating-point exceptions are signalling: IEEE_DENORMAL
Note: The following floating-point exceptions are signalling: IEEE_DENORMAL
Note: The following floating-point exceptions are signalling: IEEE_DENORMAL
Note: The following floating-point exceptions are signalling: IEEE_INVALID_FLAG IEEE_DENORMAL
