5.21221967 0 0 2.3195475056890000e+00 4.667647507812 0 2.3195487482489998e+00 1.4374894605030000e+00 4.44078299725
5.21221967 0 0 2.3195475056890000e+00 4.667647507812 0 2.3195487482489998e+00 1.4374894605030000e+00 4.44078299725