4.43314 1.15851 0.846496 3.0204 1.89327 2.98503 3.02702 3.45501 0.903597 6.78297 2.69094 3.60757 5.43517 4.86814 3.5642 6.76094 4.21397 1.45669 5.78565 1.45297 4.37824 9.05953 5.603 2.97359 6.74934 3.16231 0.0295701 0.790878 1.51616 0.00547873 1.74766 0.0412892 0.0130268 5.99294 0.536973 1.50052 4.8908 3.02105 2.22752 6.06585 3.78452 2.75423 3.79835 2.31666 1.74039
4.44538 1.19614 0.886361 3.09754 1.9371 3.05315 3.03253 3.41699 0.895405 6.83761 2.655 3.58998 5.39531 4.94811 3.57198 6.78795 4.25674 1.42508 5.81493 1.4322 4.41383 3.8668 5.58182 2.99564 9.00701 4.50812 4.42508 0.851424 1.5188 0.0667572 4.10908 1.47915 4.43582 5.97922 0.523021 1.42052 4.93707 3.03332 2.17281 6.05858 3.792 2.76751 3.81855 2.30072 1.6917