0.174764733504569 0.990841196767672 1.22448133401592 0.236852986097669 -0.528650418347877 1.25819182146747 0.843363309897276 0.220690011540191 -0.185827927578025 0.320083151946161 -0.604649103183331 -1.18938476556666 -1.27657082869406 1.86833459793551 1.13397572131306 0.664723411711327 0.123387176923739 -0.710402121081249 -0.339305994794053 -0.624327288165692 0.614782843944473 -0.00142490463536437 0.313647684060349 0.172862375258978 -0.696540282663523 -1.46502847922599 -0.782235363838475 0.376462015810843 1.38369347253795 0.340202023782549 -0.345770259020385 -0.401269291838113 0.068425761499109 0.0907706933017519 -0.975424098851694 -0.705590561112608 2.25017972965227 1.35797037003808 1.0591823690165 -1.11493825490726 -1.77269629464518 -0.76538359110017 -1.18264950720722 0.113480721564557 -1.53327966291069
0.520818585057037 -0.407666964526993 -0.792451636968428 -0.0847625425404392 -0.723069682697952 -0.549018944172165 0.176425665288122 0.763504629881252 -0.659557296800036 -0.735237422118489 0.344358467004365 -0.489349069962362 0.161576780877043 -0.878201225502221 0.414683244316682 -0.0929247624167072 -1.36205456529841 0.406666034583746 -0.261044226125962 -0.479881758796106 0.0838811688323863 -0.689299288573706 0.476756584519157 -0.823833220380445 1.09818546958949 1.45221179370302 0.413740164164658 -0.746727933316445 0.800019675211292 -1.05990279174987 -0.653114629829094 -0.419247207178889 0.520245486458656 1.31718498167506 -0.939241496988547 2.11778778278188 1.57563265206076 1.01640077719102 0.519520949962363 -0.461752919777784 -1.07817638380134 -0.942157126466178 -1.12496118117944 1.43428735728035 0.839744998288925