0.278496647869241 0.67972063208764 -0.220504609814145 0.67972063208764 0.0681069284135433 1.03643909872887 -0.220504609814145 1.03643909872887 0.681743610159329
-1.13084474207438 -1.31830737671759 -0.358741444712921 -1.31830737671759 1.49700377305016 0.267033105463001 -0.358741444712921 0.267033105463001 0.375599595310333