ITEM: TIMESTEP
3000
ITEM: NUMBER OF ATOMS
4
ITEM: BOX BOUNDS xy xz yz pp pp pp
-1.1960065799157087e+00 2.5135467571501264e+00 -1.2363990227655832e+00
3.5134490065444446e-02 2.1766421966425646e+00 0.0000000000000000e+00
-1.3586372070083964e+01 1.7813227070081417e+01 0.0000000000000000e+00
ITEM: ATOMS id type x y z
3 2 0.0476576 1.45449 -4.89322
1 1 0.0176244 1.44459 -2.43061
2 1 1.28221 0.745594 -4.89098
4 2 1.24524 0.729252 -2.33949
