ITEM: TIMESTEP
2500
ITEM: NUMBER OF ATOMS
4
ITEM: BOX BOUNDS xy xz yz pp pp pp
-1.1866313540550473e+00 2.5053653443984762e+00 -1.2352052096565813e+00
3.6168363404906145e-02 2.1756083233030981e+00 0.0000000000000000e+00
-9.8422049279463852e+00 1.4069059927944751e+01 0.0000000000000000e+00
ITEM: ATOMS id type x y z
3 2 0.218132 1.56776 -3.44637
1 1 -0.140449 1.32839 -1.18625
2 1 1.43344 0.86927 -3.32576
4 2 1.08256 0.610257 -1.0962
