ITEM: TIMESTEP
5500
ITEM: NUMBER OF ATOMS
4
ITEM: BOX BOUNDS xy xz yz pp pp pp
-1.1783550493387713e+00 2.5042367905369254e+00 -1.2280574588018531e+00
4.2358502372276341e-02 2.1694181843357430e+00 0.0000000000000000e+00
-8.6100686762883228e+01 9.0327541762866502e+01 0.0000000000000000e+00
ITEM: ATOMS id type x y z
3 2 0.15753 1.44075 -31.5343
1 1 -0.0921652 1.45013 -28.8838
2 1 1.42015 0.739451 -31.4085
4 2 1.12873 0.743763 -28.913
