ITEM: TIMESTEP
1000
ITEM: NUMBER OF ATOMS
4
ITEM: BOX BOUNDS xy xz yz pp pp pp
-1.1660251281629024e+00 2.4991646566636296e+00 -1.2207996714992744e+00
4.8643935778082792e-02 2.1631327509299139e+00 0.0000000000000000e+00
-5.7549891637820263e+00 9.9818441637810409e+00 0.0000000000000000e+00
ITEM: ATOMS id type x y z
3 2 0.204085 1.40873 -1.98728
1 1 -0.11695 1.49443 0.373948
2 1 1.40707 0.704188 -1.95257
4 2 1.12437 0.769073 0.484447
