ITEM: TIMESTEP
1500
ITEM: NUMBER OF ATOMS
4
ITEM: BOX BOUNDS xy xz yz pp pp pp
-1.2008308806791950e+00 2.4765052250131205e+00 -1.2359253056660795e+00
1.7211541903848326e-02 2.1578977612151586e+00 0.0000000000000000e+00
-7.8486922323479202e-01 9.0526652232348468e+00 0.0000000000000000e+00
ITEM: ATOMS id type x y z
1 1 1.55869 0.830675 0.304102
4 2 0.926506 0.641811 7.83879
3 2 0.341803 1.5584 0.409425
2 1 -0.284601 1.37833 7.94996
