ITEM: TIMESTEP
2500
ITEM: NUMBER OF ATOMS
4
ITEM: BOX BOUNDS xy xz yz pp pp pp
-1.2089614649659990e+00 2.4963101457246477e+00 -1.2242509692413690e+00
2.7321817577228069e-02 2.1477874855417753e+00 0.0000000000000000e+00
-6.1394341801403485e-01 8.8817394180140710e+00 0.0000000000000000e+00
ITEM: ATOMS id type x y z
1 1 1.16151 0.614872 0.584632
4 2 1.37018 0.897988 7.62331
3 2 -0.0854455 1.29901 0.631263
2 1 0.118891 1.59767 7.66256
