ITEM: TIMESTEP
500
ITEM: NUMBER OF ATOMS
4
ITEM: BOX BOUNDS xy xz yz pp pp pp
-1.1809926327540965e+00 2.4767335994306263e+00 -1.2158586833234706e+00
3.4589753078918539e-02 2.1405195500400880e+00 0.0000000000000000e+00
-2.2166536568340174e+00 1.0484449656834050e+01 0.0000000000000000e+00
ITEM: ATOMS id type x y z
3 2 2.05184 0.422211 -0.979637
2 1 1.67257 0.369766 9.3019
1 1 -0.384469 1.82569 -1.05825
4 2 -0.758307 1.78763 9.22711
