ITEM: TIMESTEP
3000
ITEM: NUMBER OF ATOMS
4
ITEM: BOX BOUNDS xy xz yz pp pp pp
-1.2001638677705417e+00 2.4966020089086687e+00 -1.2151615088618957e+00
3.5193524097888007e-02 2.1399157790211127e+00 0.0000000000000000e+00
-1.0110251671251405e+00 9.2788211671251624e+00 0.0000000000000000e+00
ITEM: ATOMS id type x y z
1 1 -0.164584 0.867967 0.125203
4 2 0.228894 0.659997 8.06889
3 2 1.06178 1.53958 0.193637
2 1 1.45845 1.34075 8.10852
