ITEM: TIMESTEP
1000
ITEM: NUMBER OF ATOMS
8
ITEM: BOX BOUNDS xy xz yz pp pp pp
1.1549637731093432e-01 6.0681377013003939e+00 7.9737130436962822e-01
-1.9971227203028352e-02 4.2501218043915063e+00 3.9242479424170212e-01
1.3426021434521651e-03 4.1804003956415610e+00 1.1257264947034689e+00
ITEM: ATOMS id type x y z
5 2 2.47597 1.33891 0.667049
1 1 1.09578 1.24291 0.0391
7 2 1.2534 1.86657 2.9335
3 1 2.15428 1.00948 2.05568
8 2 4.77739 1.9463 0.746324
6 2 3.89224 3.19618 2.69605
2 1 4.88421 2.32212 2.10233
4 1 3.85235 2.95121 4.1088
