ITEM: TIMESTEP
2000
ITEM: NUMBER OF ATOMS
8
ITEM: BOX BOUNDS xy xz yz pp pp pp
1.5920987489616945e-01 6.0667731237279483e+00 8.3599415434253066e-01
-9.6124204083835707e-02 4.3369635446393824e+00 3.9615086428158408e-01
-1.8497456726144446e-02 4.2002404545111709e+00 1.1364152580705238e+00
ITEM: ATOMS id type x y z
5 2 2.40104 1.31051 0.717186
3 1 2.24679 0.99796 2.04747
7 2 1.32583 1.7914 2.86339
1 1 1.55936 2.451 4.14895
8 2 4.76647 1.99404 0.700349
4 1 3.52681 1.75261 -0.0232962
6 2 3.89162 3.21686 2.73853
2 1 4.85766 2.38501 2.14641
