ITEM: TIMESTEP
500
ITEM: NUMBER OF ATOMS
8
ITEM: BOX BOUNDS xy xz yz pp pp pp
3.6376612789165375e-02 6.1365012322181576e+00 7.9273400856164045e-01
-1.0827834607637365e-02 4.2234253659705310e+00 3.8630585644568610e-01
3.3923870018980118e-02 4.1478191277660317e+00 1.1081734488778907e+00
ITEM: ATOMS id type x y z
5 2 2.31503 1.37714 0.662947
3 1 2.24678 1.07791 2.0693
1 1 1.42041 2.36639 4.1678
7 2 1.21526 1.74028 2.80031
8 2 4.71897 1.87397 0.808032
4 1 3.53406 1.78568 0.059689
6 2 3.98326 3.28922 2.71644
2 1 4.95448 2.31336 2.10821
