ITEM: TIMESTEP
3000
ITEM: NUMBER OF ATOMS
8
ITEM: BOX BOUNDS xy xz yz pp pp pp
5.1806142507983655e-02 6.1172445311377812e+00 7.7524910857755835e-01
2.3647280128464176e-02 4.2281293938203550e+00 3.9996358506820567e-01
-3.8798901425320498e-02 4.2205418992103407e+00 1.1473525914637932e+00
ITEM: ATOMS id type x y z
5 2 2.31199 1.29839 0.677708
7 2 1.22083 1.84609 2.88895
3 1 2.23655 1.11583 2.0739
1 1 1.49536 2.55068 4.19387
8 2 4.84158 1.92906 0.639816
4 1 3.5242 1.7853 -0.0731206
6 2 3.86021 3.17736 2.79074
2 1 4.87706 2.30658 2.13651
