ITEM: TIMESTEP
5500
ITEM: NUMBER OF ATOMS
8
ITEM: BOX BOUNDS xy xz yz pp pp pp
3.9641686842616597e-02 6.0902463852458624e+00 7.4924057407761058e-01
7.4928512038275885e-02 4.1391138443627025e+00 3.8680951801085856e-01
3.1242043054800384e-02 4.1505009547302816e+00 1.1096182739159544e+00
ITEM: ATOMS id type x y z
5 2 2.29087 1.41556 0.634732
7 2 1.14424 1.77732 2.84735
3 1 2.2627 1.01575 2.08347
1 1 1.40434 2.4407 4.10109
8 2 4.76359 1.87747 0.768468
6 2 3.94554 3.21156 2.74645
2 1 4.8676 2.30587 2.1023
4 1 3.93308 2.92791 4.22313
