ITEM: TIMESTEP
2500
ITEM: NUMBER OF ATOMS
8
ITEM: BOX BOUNDS xy xz yz pp pp pp
1.6716907864624542e-02 6.1185799206032891e+00 7.6044185013817289e-01
5.2842867983678765e-02 4.1445828195120376e+00 3.8101699832973907e-01
6.2085245207899042e-02 4.1196577525771296e+00 1.0930016050106983e+00
ITEM: ATOMS id type x y z
5 2 2.27453 1.31147 0.70537
1 1 0.984346 1.22996 0.121519
7 2 1.1621 1.75438 2.84634
3 1 2.2564 1.12985 2.08949
8 2 4.75817 1.86259 0.709178
4 1 3.49089 1.83729 0.0587159
2 1 5.02376 2.38103 2.13762
6 2 3.92585 3.22361 2.699
