ITEM: TIMESTEP
4500
ITEM: NUMBER OF ATOMS
8
ITEM: BOX BOUNDS xy xz yz pp pp pp
3.6460585489380470e-02 6.1548580573315315e+00 8.0838106394435372e-01
-4.1679256697112699e-02 4.2622910367006748e+00 3.8909959887655698e-01
1.9048139369342465e-02 4.1626948584157040e+00 1.1161876975185383e+00
ITEM: ATOMS id type x y z
5 2 2.33426 1.27005 0.580426
7 2 1.2259 1.84568 2.8937
3 1 2.26289 1.07766 2.1822
1 1 1.37573 2.46603 4.16271
8 2 4.73121 1.82278 0.766958
6 2 3.93757 3.25945 2.70351
2 1 5.00845 2.34913 2.13479
4 1 3.98288 2.89537 4.11226
