
     Program PWSCF v.6.7MaX starts on 14Dec2022 at  4:44:37 

     This program is part of the open-source Quantum ESPRESSO suite
     for quantum simulation of materials; please cite
         "P. Giannozzi et al., J. Phys.:Condens. Matter 21 395502 (2009);
         "P. Giannozzi et al., J. Phys.:Condens. Matter 29 465901 (2017);
          URL http://www.quantum-espresso.org", 
     in publications or presentations arising from this work. More details at
     http://www.quantum-espresso.org/quote

     Parallel version (MPI), running on    24 processors

     MPI processes distributed on     1 nodes
     R & G space division:  proc/nbgrp/npool/nimage =      24
     Reading input from path1_cod-6.in

     Current dimensions of program PWSCF are:
     Max number of different atomic species (ntypx) = 10
     Max number of k-points (npk) =  40000
     Max angular momentum in pseudopotentials (lmaxx) =  3
     Message from routine read_pp_mesh:
     mesh size missing, using the one in header
     file Fe.pbe-spn-kjpaw_psl.0.2.1.UPF: wavefunction(s)  3D renormalized
     file O.pbe-n-kjpaw_psl.0.1.UPF: wavefunction(s)  2P renormalized

     Subspace diagonalization in iterative solution of the eigenvalue problem:
     a serial algorithm will be used


     Parallelization info
     --------------------
     sticks:   dense  smooth     PW     G-vecs:    dense   smooth      PW
     Min         827     306     82                53951    12161    1706
     Max         828     309     83                53954    12162    1709
     Sum       19863    7371   1983              1294859   291873   40977



     bravais-lattice index     =            0
     lattice parameter (alat)  =      19.6651  a.u.
     unit-cell volume          =    2160.3578 (a.u.)^3
     number of atoms/cell      =           25
     number of atomic types    =            4
     number of electrons       =       189.00
     number of Kohn-Sham states=          114
     kinetic-energy cutoff     =     100.0000  Ry
     charge density cutoff     =    1080.0000  Ry
     scf convergence threshold =      2.0E-10
     mixing beta               =       0.4000
     number of iterations used =            8  plain     mixing
     Exchange-correlation= PBE
                           (   1   4   3   4   0   0   0)

     celldm(1)=  19.665057  celldm(2)=   0.000000  celldm(3)=   0.000000
     celldm(4)=   0.000000  celldm(5)=   0.000000  celldm(6)=   0.000000

     crystal axes: (cart. coord. in units of alat)
               a(1) = (   1.000000   0.000000   0.000000 )  
               a(2) = (   0.000000   0.597590   0.000000 )  
               a(3) = (   0.000000   0.000000   0.475375 )  

     reciprocal axes: (cart. coord. in units 2 pi/alat)
               b(1) = (  1.000000  0.000000  0.000000 )  
               b(2) = (  0.000000  1.673388  0.000000 )  
               b(3) = (  0.000000  0.000000  2.103600 )  


     PseudoPot. # 1 for Fe read from file:
     /opt/QEpot/SSSP_precision_pseudos/Fe.pbe-spn-kjpaw_psl.0.2.1.UPF
     MD5 check sum: e86618425769142926afa95317d90200
     Pseudo is Projector augmented-wave + core cor, Zval = 16.0
     Generated using "atomic" code by A. Dal Corso  v.5.0.99 svn rev. 10869
     Shape of augmentation charge: PSQ
     Using radial grid of 1191 points,  6 beta functions with: 
                l(1) =   0
                l(2) =   0
                l(3) =   1
                l(4) =   1
                l(5) =   2
                l(6) =   2
     Q(r) pseudized with 0 coefficients 


     PseudoPot. # 2 for Na read from file:
     /opt/QEpot/SSSP_precision_pseudos/Na_ONCV_PBE-1.0.oncvpsp.upf
     MD5 check sum: 24a298df0a6742ae313db96548fdb2a4
     Pseudo is Norm-conserving, Zval =  9.0
     Generated using ONCVPSP code by D. R. Hamann
     Using radial grid of 1992 points,  4 beta functions with: 
                l(1) =   0
                l(2) =   0
                l(3) =   1
                l(4) =   1

     PseudoPot. # 3 for O  read from file:
     /opt/QEpot/SSSP_precision_pseudos/O.pbe-n-kjpaw_psl.0.1.UPF
     MD5 check sum: 0234752ac141de4415c5fc33072bef88
     Pseudo is Projector augmented-wave + core cor, Zval =  6.0
     Generated using "atomic" code by A. Dal Corso  v.5.0.99 svn rev. 10869
     Shape of augmentation charge: BESSEL
     Using radial grid of 1095 points,  4 beta functions with: 
                l(1) =   0
                l(2) =   0
                l(3) =   1
                l(4) =   1
     Q(r) pseudized with 0 coefficients 


     PseudoPot. # 4 for P  read from file:
     /opt/QEpot/SSSP_precision_pseudos/P.pbe-n-rrkjus_psl.1.0.0.UPF
     MD5 check sum: 8b930f418f0a4573dca56cd030ffe088
     Pseudo is Ultrasoft + core correction, Zval =  5.0
     Generated using "atomic" code by A. Dal Corso  v.5.1
     Using radial grid of 1147 points,  6 beta functions with: 
                l(1) =   0
                l(2) =   0
                l(3) =   1
                l(4) =   1
                l(5) =   2
                l(6) =   2
     Q(r) pseudized with 0 coefficients 


     atomic species   valence    mass     pseudopotential
        Fe            16.00    55.84500     Fe( 1.00)
        Na             9.00    22.98977     Na( 1.00)
        O              6.00    15.99940     O ( 1.00)
        P              5.00    30.97376     P ( 1.00)

     Starting magnetic structure 
     atomic species   magnetization
        Fe           0.312
        Na           0.000
        O            0.000
        P            0.000

     No symmetry found


                                    s                        frac. trans.

      isym =  1     identity                                     

 cryst.   s( 1) = (     1          0          0      )
                  (     0          1          0      )
                  (     0          0          1      )

 cart.    s( 1) = (  1.0000000  0.0000000  0.0000000 )
                  (  0.0000000  1.0000000  0.0000000 )
                  (  0.0000000  0.0000000  1.0000000 )


   Cartesian axes

     site n.     atom                  positions (alat units)
         1           Na  tau(   1) = (   0.5528953   0.1816648   0.2149343  )
         2           Fe  tau(   2) = (   0.2772548   0.4474831   0.4713978  )
         3           Fe  tau(   3) = (   0.2104813   0.1484057   0.2331970  )
         4           Fe  tau(   4) = (   0.7295177   0.1450147   0.0007768  )
         5           Fe  tau(   5) = (   0.7815078   0.4486904   0.2441636  )
         6           P   tau(   6) = (   0.1053981   0.4473520   0.2110382  )
         7           P   tau(   7) = (   0.3872650   0.1471894   0.4478910  )
         8           P   tau(   8) = (   0.8920076   0.1491137   0.2647071  )
         9           P   tau(   9) = (   0.6044489   0.4481384   0.0303868  )
        10           O   tau(  10) = (   0.1314730   0.4467317   0.3569675  )
        11           O   tau(  11) = (   0.3628327   0.1487254   0.1188427  )
        12           O   tau(  12) = (   0.8713171   0.1488498   0.1181724  )
        13           O   tau(  13) = (   0.6316827   0.4463345   0.3600675  )
        14           O   tau(  14) = (   0.4581637   0.4466890   0.0570474  )
        15           O   tau(  15) = (   0.0360600   0.1496384   0.2981195  )
        16           O   tau(  16) = (   0.5359577   0.1477207   0.4262846  )
        17           O   tau(  17) = (   0.9586073   0.4472709   0.1858182  )
        18           O   tau(  18) = (   0.1741777   0.5643627   0.1428100  )
        19           O   tau(  19) = (   0.3202339   0.0308390   0.3792475  )
        20           O   tau(  20) = (   0.8164516   0.2635845   0.3306639  )
        21           O   tau(  21) = (   0.6734541   0.3313252   0.1004124  )
        22           O   tau(  22) = (   0.8184933   0.0329727   0.3308503  )
        23           O   tau(  23) = (   0.6734875   0.5654175   0.0993694  )
        24           O   tau(  24) = (   0.1746987   0.3310277   0.1421018  )
        25           O   tau(  25) = (   0.3222047   0.2638630   0.3769617  )

   Crystallographic axes

     site n.     atom                  positions (cryst. coord.)
         1           Na  tau(   1) = (  0.5528953  0.3039958  0.4521359  )
         2           Fe  tau(   2) = (  0.2772548  0.7488130  0.9916325  )
         3           Fe  tau(   3) = (  0.2104813  0.2483404  0.4905533  )
         4           Fe  tau(   4) = (  0.7295177  0.2426659  0.0016342  )
         5           Fe  tau(   5) = (  0.7815078  0.7508333  0.5136227  )
         6           P   tau(   6) = (  0.1053981  0.7485936  0.4439399  )
         7           P   tau(   7) = (  0.3872650  0.2463051  0.9421836  )
         8           P   tau(   8) = (  0.8920076  0.2495251  0.5568380  )
         9           P   tau(   9) = (  0.6044489  0.7499096  0.0639217  )
        10           O   tau(  10) = (  0.1314730  0.7475557  0.7509169  )
        11           O   tau(  11) = (  0.3628327  0.2488753  0.2499975  )
        12           O   tau(  12) = (  0.8713171  0.2490836  0.2485874  )
        13           O   tau(  13) = (  0.6316827  0.7468910  0.7574381  )
        14           O   tau(  14) = (  0.4581637  0.7474841  0.1200050  )
        15           O   tau(  15) = (  0.0360600  0.2504032  0.6271243  )
        16           O   tau(  16) = (  0.5359577  0.2471942  0.8967324  )
        17           O   tau(  17) = (  0.9586073  0.7484579  0.3908873  )
        18           O   tau(  18) = (  0.1741777  0.9443980  0.3004152  )
        19           O   tau(  19) = (  0.3202339  0.0516057  0.7977852  )
        20           O   tau(  20) = (  0.8164516  0.4410793  0.6955846  )
        21           O   tau(  21) = (  0.6734541  0.5544357  0.2112276  )
        22           O   tau(  22) = (  0.8184933  0.0551761  0.6959768  )
        23           O   tau(  23) = (  0.6734875  0.9461631  0.2090334  )
        24           O   tau(  24) = (  0.1746987  0.5539379  0.2989255  )
        25           O   tau(  25) = (  0.3222047  0.4415452  0.7929768  )

     number of k points=   158  Marzari-Vanderbilt smearing, width (Ry)=  0.0073
                       cart. coord. in units 2pi/alat
        k(    1) = (   0.0000000   0.0000000   0.0000000), wk =   0.0031746
        k(    2) = (   0.0000000   0.0000000   0.2337334), wk =   0.0063492
        k(    3) = (   0.0000000   0.0000000   0.4674667), wk =   0.0063492
        k(    4) = (   0.0000000   0.0000000   0.7012001), wk =   0.0063492
        k(    5) = (   0.0000000   0.0000000   0.9349334), wk =   0.0063492
        k(    6) = (   0.0000000   0.2390555   0.0000000), wk =   0.0063492
        k(    7) = (   0.0000000   0.2390555   0.2337334), wk =   0.0063492
        k(    8) = (   0.0000000   0.2390555   0.4674667), wk =   0.0063492
        k(    9) = (   0.0000000   0.2390555   0.7012001), wk =   0.0063492
        k(   10) = (   0.0000000   0.2390555   0.9349334), wk =   0.0063492
        k(   11) = (   0.0000000   0.4781110   0.0000000), wk =   0.0063492
        k(   12) = (   0.0000000   0.4781110   0.2337334), wk =   0.0063492
        k(   13) = (   0.0000000   0.4781110   0.4674667), wk =   0.0063492
        k(   14) = (   0.0000000   0.4781110   0.7012001), wk =   0.0063492
        k(   15) = (   0.0000000   0.4781110   0.9349334), wk =   0.0063492
        k(   16) = (   0.0000000   0.7171664   0.0000000), wk =   0.0063492
        k(   17) = (   0.0000000   0.7171664   0.2337334), wk =   0.0063492
        k(   18) = (   0.0000000   0.7171664   0.4674667), wk =   0.0063492
        k(   19) = (   0.0000000   0.7171664   0.7012001), wk =   0.0063492
        k(   20) = (   0.0000000   0.7171664   0.9349334), wk =   0.0063492
        k(   21) = (   0.2000000   0.0000000   0.0000000), wk =   0.0063492
        k(   22) = (   0.2000000   0.0000000   0.2337334), wk =   0.0063492
        k(   23) = (   0.2000000   0.0000000   0.4674667), wk =   0.0063492
        k(   24) = (   0.2000000   0.0000000   0.7012001), wk =   0.0063492
        k(   25) = (   0.2000000   0.0000000   0.9349334), wk =   0.0063492
        k(   26) = (   0.2000000   0.2390555   0.0000000), wk =   0.0063492
        k(   27) = (   0.2000000   0.2390555   0.2337334), wk =   0.0063492
        k(   28) = (   0.2000000   0.2390555   0.4674667), wk =   0.0063492
        k(   29) = (   0.2000000   0.2390555   0.7012001), wk =   0.0063492
        k(   30) = (   0.2000000   0.2390555   0.9349334), wk =   0.0063492
        k(   31) = (   0.2000000   0.4781110   0.0000000), wk =   0.0063492
        k(   32) = (   0.2000000   0.4781110   0.2337334), wk =   0.0063492
        k(   33) = (   0.2000000   0.4781110   0.4674667), wk =   0.0063492
        k(   34) = (   0.2000000   0.4781110   0.7012001), wk =   0.0063492
        k(   35) = (   0.2000000   0.4781110   0.9349334), wk =   0.0063492
        k(   36) = (   0.2000000   0.7171664   0.0000000), wk =   0.0063492
        k(   37) = (   0.2000000   0.7171664   0.2337334), wk =   0.0063492
        k(   38) = (   0.2000000   0.7171664   0.4674667), wk =   0.0063492
        k(   39) = (   0.2000000   0.7171664   0.7012001), wk =   0.0063492
        k(   40) = (   0.2000000   0.7171664   0.9349334), wk =   0.0063492
        k(   41) = (   0.4000000   0.0000000   0.0000000), wk =   0.0063492
        k(   42) = (   0.4000000   0.0000000   0.2337334), wk =   0.0063492
        k(   43) = (   0.4000000   0.0000000   0.4674667), wk =   0.0063492
        k(   44) = (   0.4000000   0.0000000   0.7012001), wk =   0.0063492
        k(   45) = (   0.4000000   0.0000000   0.9349334), wk =   0.0063492
        k(   46) = (   0.4000000   0.2390555   0.0000000), wk =   0.0063492
        k(   47) = (   0.4000000   0.2390555   0.2337334), wk =   0.0063492
        k(   48) = (   0.4000000   0.2390555   0.4674667), wk =   0.0063492
        k(   49) = (   0.4000000   0.2390555   0.7012001), wk =   0.0063492
        k(   50) = (   0.4000000   0.2390555   0.9349334), wk =   0.0063492
        k(   51) = (   0.4000000   0.4781110   0.0000000), wk =   0.0063492
        k(   52) = (   0.4000000   0.4781110   0.2337334), wk =   0.0063492
        k(   53) = (   0.4000000   0.4781110   0.4674667), wk =   0.0063492
        k(   54) = (   0.4000000   0.4781110   0.7012001), wk =   0.0063492
        k(   55) = (   0.4000000   0.4781110   0.9349334), wk =   0.0063492
        k(   56) = (   0.4000000   0.7171664   0.0000000), wk =   0.0063492
        k(   57) = (   0.4000000   0.7171664   0.2337334), wk =   0.0063492
        k(   58) = (   0.4000000   0.7171664   0.4674667), wk =   0.0063492
        k(   59) = (   0.4000000   0.7171664   0.7012001), wk =   0.0063492
        k(   60) = (   0.4000000   0.7171664   0.9349334), wk =   0.0063492
        k(   61) = (   0.0000000  -0.2390555   0.2337334), wk =   0.0063492
        k(   62) = (   0.0000000  -0.2390555   0.4674667), wk =   0.0063492
        k(   63) = (   0.0000000  -0.2390555   0.7012001), wk =   0.0063492
        k(   64) = (   0.0000000  -0.2390555   0.9349334), wk =   0.0063492
        k(   65) = (   0.0000000  -0.4781110   0.2337334), wk =   0.0063492
        k(   66) = (   0.0000000  -0.4781110   0.4674667), wk =   0.0063492
        k(   67) = (   0.0000000  -0.4781110   0.7012001), wk =   0.0063492
        k(   68) = (   0.0000000  -0.4781110   0.9349334), wk =   0.0063492
        k(   69) = (   0.0000000  -0.7171664   0.2337334), wk =   0.0063492
        k(   70) = (   0.0000000  -0.7171664   0.4674667), wk =   0.0063492
        k(   71) = (   0.0000000  -0.7171664   0.7012001), wk =   0.0063492
        k(   72) = (   0.0000000  -0.7171664   0.9349334), wk =   0.0063492
        k(   73) = (  -0.2000000   0.0000000   0.2337334), wk =   0.0063492
        k(   74) = (  -0.2000000   0.0000000   0.4674667), wk =   0.0063492
        k(   75) = (  -0.2000000   0.0000000   0.7012001), wk =   0.0063492
        k(   76) = (  -0.2000000   0.0000000   0.9349334), wk =   0.0063492
        k(   77) = (  -0.2000000   0.2390555   0.0000000), wk =   0.0063492
        k(   78) = (  -0.2000000  -0.2390555   0.2337334), wk =   0.0063492
        k(   79) = (  -0.2000000   0.2390555  -0.2337334), wk =   0.0063492
        k(   80) = (   0.2000000  -0.2390555  -0.2337334), wk =   0.0063492
        k(   81) = (  -0.2000000  -0.2390555   0.4674667), wk =   0.0063492
        k(   82) = (  -0.2000000   0.2390555  -0.4674667), wk =   0.0063492
        k(   83) = (   0.2000000  -0.2390555  -0.4674667), wk =   0.0063492
        k(   84) = (  -0.2000000  -0.2390555   0.7012001), wk =   0.0063492
        k(   85) = (  -0.2000000   0.2390555  -0.7012001), wk =   0.0063492
        k(   86) = (   0.2000000  -0.2390555  -0.7012001), wk =   0.0063492
        k(   87) = (  -0.2000000  -0.2390555   0.9349334), wk =   0.0063492
        k(   88) = (  -0.2000000   0.2390555  -0.9349334), wk =   0.0063492
        k(   89) = (   0.2000000  -0.2390555  -0.9349334), wk =   0.0063492
        k(   90) = (  -0.2000000   0.4781110   0.0000000), wk =   0.0063492
        k(   91) = (  -0.2000000  -0.4781110   0.2337334), wk =   0.0063492
        k(   92) = (  -0.2000000   0.4781110  -0.2337334), wk =   0.0063492
        k(   93) = (   0.2000000  -0.4781110  -0.2337334), wk =   0.0063492
        k(   94) = (  -0.2000000  -0.4781110   0.4674667), wk =   0.0063492
        k(   95) = (  -0.2000000   0.4781110  -0.4674667), wk =   0.0063492
        k(   96) = (   0.2000000  -0.4781110  -0.4674667), wk =   0.0063492
        k(   97) = (  -0.2000000  -0.4781110   0.7012001), wk =   0.0063492
        k(   98) = (  -0.2000000   0.4781110  -0.7012001), wk =   0.0063492
        k(   99) = (   0.2000000  -0.4781110  -0.7012001), wk =   0.0063492
        k(  100) = (  -0.2000000  -0.4781110   0.9349334), wk =   0.0063492
        k(  101) = (  -0.2000000   0.4781110  -0.9349334), wk =   0.0063492
        k(  102) = (   0.2000000  -0.4781110  -0.9349334), wk =   0.0063492
        k(  103) = (  -0.2000000   0.7171664   0.0000000), wk =   0.0063492
        k(  104) = (  -0.2000000  -0.7171664   0.2337334), wk =   0.0063492
        k(  105) = (  -0.2000000   0.7171664  -0.2337334), wk =   0.0063492
        k(  106) = (   0.2000000  -0.7171664  -0.2337334), wk =   0.0063492
        k(  107) = (  -0.2000000  -0.7171664   0.4674667), wk =   0.0063492
        k(  108) = (  -0.2000000   0.7171664  -0.4674667), wk =   0.0063492
        k(  109) = (   0.2000000  -0.7171664  -0.4674667), wk =   0.0063492
        k(  110) = (  -0.2000000  -0.7171664   0.7012001), wk =   0.0063492
        k(  111) = (  -0.2000000   0.7171664  -0.7012001), wk =   0.0063492
        k(  112) = (   0.2000000  -0.7171664  -0.7012001), wk =   0.0063492
        k(  113) = (  -0.2000000  -0.7171664   0.9349334), wk =   0.0063492
        k(  114) = (  -0.2000000   0.7171664  -0.9349334), wk =   0.0063492
        k(  115) = (   0.2000000  -0.7171664  -0.9349334), wk =   0.0063492
        k(  116) = (  -0.4000000   0.0000000   0.2337334), wk =   0.0063492
        k(  117) = (  -0.4000000   0.0000000   0.4674667), wk =   0.0063492
        k(  118) = (  -0.4000000   0.0000000   0.7012001), wk =   0.0063492
        k(  119) = (  -0.4000000   0.0000000   0.9349334), wk =   0.0063492
        k(  120) = (  -0.4000000   0.2390555   0.0000000), wk =   0.0063492
        k(  121) = (  -0.4000000  -0.2390555   0.2337334), wk =   0.0063492
        k(  122) = (  -0.4000000   0.2390555  -0.2337334), wk =   0.0063492
        k(  123) = (   0.4000000  -0.2390555  -0.2337334), wk =   0.0063492
        k(  124) = (  -0.4000000  -0.2390555   0.4674667), wk =   0.0063492
        k(  125) = (  -0.4000000   0.2390555  -0.4674667), wk =   0.0063492
        k(  126) = (   0.4000000  -0.2390555  -0.4674667), wk =   0.0063492
        k(  127) = (  -0.4000000  -0.2390555   0.7012001), wk =   0.0063492
        k(  128) = (  -0.4000000   0.2390555  -0.7012001), wk =   0.0063492
        k(  129) = (   0.4000000  -0.2390555  -0.7012001), wk =   0.0063492
        k(  130) = (  -0.4000000  -0.2390555   0.9349334), wk =   0.0063492
        k(  131) = (  -0.4000000   0.2390555  -0.9349334), wk =   0.0063492
        k(  132) = (   0.4000000  -0.2390555  -0.9349334), wk =   0.0063492
        k(  133) = (  -0.4000000   0.4781110   0.0000000), wk =   0.0063492
        k(  134) = (  -0.4000000  -0.4781110   0.2337334), wk =   0.0063492
        k(  135) = (  -0.4000000   0.4781110  -0.2337334), wk =   0.0063492
        k(  136) = (   0.4000000  -0.4781110  -0.2337334), wk =   0.0063492
        k(  137) = (  -0.4000000  -0.4781110   0.4674667), wk =   0.0063492
        k(  138) = (  -0.4000000   0.4781110  -0.4674667), wk =   0.0063492
        k(  139) = (   0.4000000  -0.4781110  -0.4674667), wk =   0.0063492
        k(  140) = (  -0.4000000  -0.4781110   0.7012001), wk =   0.0063492
        k(  141) = (  -0.4000000   0.4781110  -0.7012001), wk =   0.0063492
        k(  142) = (   0.4000000  -0.4781110  -0.7012001), wk =   0.0063492
        k(  143) = (  -0.4000000  -0.4781110   0.9349334), wk =   0.0063492
        k(  144) = (  -0.4000000   0.4781110  -0.9349334), wk =   0.0063492
        k(  145) = (   0.4000000  -0.4781110  -0.9349334), wk =   0.0063492
        k(  146) = (  -0.4000000   0.7171664   0.0000000), wk =   0.0063492
        k(  147) = (  -0.4000000  -0.7171664   0.2337334), wk =   0.0063492
        k(  148) = (  -0.4000000   0.7171664  -0.2337334), wk =   0.0063492
        k(  149) = (   0.4000000  -0.7171664  -0.2337334), wk =   0.0063492
        k(  150) = (  -0.4000000  -0.7171664   0.4674667), wk =   0.0063492
        k(  151) = (  -0.4000000   0.7171664  -0.4674667), wk =   0.0063492
        k(  152) = (   0.4000000  -0.7171664  -0.4674667), wk =   0.0063492
        k(  153) = (  -0.4000000  -0.7171664   0.7012001), wk =   0.0063492
        k(  154) = (  -0.4000000   0.7171664  -0.7012001), wk =   0.0063492
        k(  155) = (   0.4000000  -0.7171664  -0.7012001), wk =   0.0063492
        k(  156) = (  -0.4000000  -0.7171664   0.9349334), wk =   0.0063492
        k(  157) = (  -0.4000000   0.7171664  -0.9349334), wk =   0.0063492
        k(  158) = (   0.4000000  -0.7171664  -0.9349334), wk =   0.0063492

                       cryst. coord.
        k(    1) = (   0.0000000   0.0000000   0.0000000), wk =   0.0031746
        k(    2) = (   0.0000000   0.0000000   0.1111111), wk =   0.0063492
        k(    3) = (   0.0000000   0.0000000   0.2222222), wk =   0.0063492
        k(    4) = (   0.0000000   0.0000000   0.3333333), wk =   0.0063492
        k(    5) = (   0.0000000   0.0000000   0.4444444), wk =   0.0063492
        k(    6) = (   0.0000000   0.1428571   0.0000000), wk =   0.0063492
        k(    7) = (   0.0000000   0.1428571   0.1111111), wk =   0.0063492
        k(    8) = (   0.0000000   0.1428571   0.2222222), wk =   0.0063492
        k(    9) = (   0.0000000   0.1428571   0.3333333), wk =   0.0063492
        k(   10) = (   0.0000000   0.1428571   0.4444444), wk =   0.0063492
        k(   11) = (   0.0000000   0.2857143   0.0000000), wk =   0.0063492
        k(   12) = (   0.0000000   0.2857143   0.1111111), wk =   0.0063492
        k(   13) = (   0.0000000   0.2857143   0.2222222), wk =   0.0063492
        k(   14) = (   0.0000000   0.2857143   0.3333333), wk =   0.0063492
        k(   15) = (   0.0000000   0.2857143   0.4444444), wk =   0.0063492
        k(   16) = (   0.0000000   0.4285714   0.0000000), wk =   0.0063492
        k(   17) = (   0.0000000   0.4285714   0.1111111), wk =   0.0063492
        k(   18) = (   0.0000000   0.4285714   0.2222222), wk =   0.0063492
        k(   19) = (   0.0000000   0.4285714   0.3333333), wk =   0.0063492
        k(   20) = (   0.0000000   0.4285714   0.4444444), wk =   0.0063492
        k(   21) = (   0.2000000   0.0000000   0.0000000), wk =   0.0063492
        k(   22) = (   0.2000000   0.0000000   0.1111111), wk =   0.0063492
        k(   23) = (   0.2000000   0.0000000   0.2222222), wk =   0.0063492
        k(   24) = (   0.2000000   0.0000000   0.3333333), wk =   0.0063492
        k(   25) = (   0.2000000   0.0000000   0.4444444), wk =   0.0063492
        k(   26) = (   0.2000000   0.1428571   0.0000000), wk =   0.0063492
        k(   27) = (   0.2000000   0.1428571   0.1111111), wk =   0.0063492
        k(   28) = (   0.2000000   0.1428571   0.2222222), wk =   0.0063492
        k(   29) = (   0.2000000   0.1428571   0.3333333), wk =   0.0063492
        k(   30) = (   0.2000000   0.1428571   0.4444444), wk =   0.0063492
        k(   31) = (   0.2000000   0.2857143   0.0000000), wk =   0.0063492
        k(   32) = (   0.2000000   0.2857143   0.1111111), wk =   0.0063492
        k(   33) = (   0.2000000   0.2857143   0.2222222), wk =   0.0063492
        k(   34) = (   0.2000000   0.2857143   0.3333333), wk =   0.0063492
        k(   35) = (   0.2000000   0.2857143   0.4444444), wk =   0.0063492
        k(   36) = (   0.2000000   0.4285714   0.0000000), wk =   0.0063492
        k(   37) = (   0.2000000   0.4285714   0.1111111), wk =   0.0063492
        k(   38) = (   0.2000000   0.4285714   0.2222222), wk =   0.0063492
        k(   39) = (   0.2000000   0.4285714   0.3333333), wk =   0.0063492
        k(   40) = (   0.2000000   0.4285714   0.4444444), wk =   0.0063492
        k(   41) = (   0.4000000   0.0000000   0.0000000), wk =   0.0063492
        k(   42) = (   0.4000000   0.0000000   0.1111111), wk =   0.0063492
        k(   43) = (   0.4000000   0.0000000   0.2222222), wk =   0.0063492
        k(   44) = (   0.4000000   0.0000000   0.3333333), wk =   0.0063492
        k(   45) = (   0.4000000   0.0000000   0.4444444), wk =   0.0063492
        k(   46) = (   0.4000000   0.1428571   0.0000000), wk =   0.0063492
        k(   47) = (   0.4000000   0.1428571   0.1111111), wk =   0.0063492
        k(   48) = (   0.4000000   0.1428571   0.2222222), wk =   0.0063492
        k(   49) = (   0.4000000   0.1428571   0.3333333), wk =   0.0063492
        k(   50) = (   0.4000000   0.1428571   0.4444444), wk =   0.0063492
        k(   51) = (   0.4000000   0.2857143   0.0000000), wk =   0.0063492
        k(   52) = (   0.4000000   0.2857143   0.1111111), wk =   0.0063492
        k(   53) = (   0.4000000   0.2857143   0.2222222), wk =   0.0063492
        k(   54) = (   0.4000000   0.2857143   0.3333333), wk =   0.0063492
        k(   55) = (   0.4000000   0.2857143   0.4444444), wk =   0.0063492
        k(   56) = (   0.4000000   0.4285714   0.0000000), wk =   0.0063492
        k(   57) = (   0.4000000   0.4285714   0.1111111), wk =   0.0063492
        k(   58) = (   0.4000000   0.4285714   0.2222222), wk =   0.0063492
        k(   59) = (   0.4000000   0.4285714   0.3333333), wk =   0.0063492
        k(   60) = (   0.4000000   0.4285714   0.4444444), wk =   0.0063492
        k(   61) = (   0.0000000  -0.1428571   0.1111111), wk =   0.0063492
        k(   62) = (   0.0000000  -0.1428571   0.2222222), wk =   0.0063492
        k(   63) = (   0.0000000  -0.1428571   0.3333333), wk =   0.0063492
        k(   64) = (   0.0000000  -0.1428571   0.4444444), wk =   0.0063492
        k(   65) = (   0.0000000  -0.2857143   0.1111111), wk =   0.0063492
        k(   66) = (   0.0000000  -0.2857143   0.2222222), wk =   0.0063492
        k(   67) = (   0.0000000  -0.2857143   0.3333333), wk =   0.0063492
        k(   68) = (   0.0000000  -0.2857143   0.4444444), wk =   0.0063492
        k(   69) = (   0.0000000  -0.4285714   0.1111111), wk =   0.0063492
        k(   70) = (   0.0000000  -0.4285714   0.2222222), wk =   0.0063492
        k(   71) = (   0.0000000  -0.4285714   0.3333333), wk =   0.0063492
        k(   72) = (   0.0000000  -0.4285714   0.4444444), wk =   0.0063492
        k(   73) = (  -0.2000000   0.0000000   0.1111111), wk =   0.0063492
        k(   74) = (  -0.2000000   0.0000000   0.2222222), wk =   0.0063492
        k(   75) = (  -0.2000000   0.0000000   0.3333333), wk =   0.0063492
        k(   76) = (  -0.2000000   0.0000000   0.4444444), wk =   0.0063492
        k(   77) = (  -0.2000000   0.1428571   0.0000000), wk =   0.0063492
        k(   78) = (  -0.2000000  -0.1428571   0.1111111), wk =   0.0063492
        k(   79) = (  -0.2000000   0.1428571  -0.1111111), wk =   0.0063492
        k(   80) = (   0.2000000  -0.1428571  -0.1111111), wk =   0.0063492
        k(   81) = (  -0.2000000  -0.1428571   0.2222222), wk =   0.0063492
        k(   82) = (  -0.2000000   0.1428571  -0.2222222), wk =   0.0063492
        k(   83) = (   0.2000000  -0.1428571  -0.2222222), wk =   0.0063492
        k(   84) = (  -0.2000000  -0.1428571   0.3333333), wk =   0.0063492
        k(   85) = (  -0.2000000   0.1428571  -0.3333333), wk =   0.0063492
        k(   86) = (   0.2000000  -0.1428571  -0.3333333), wk =   0.0063492
        k(   87) = (  -0.2000000  -0.1428571   0.4444444), wk =   0.0063492
        k(   88) = (  -0.2000000   0.1428571  -0.4444444), wk =   0.0063492
        k(   89) = (   0.2000000  -0.1428571  -0.4444444), wk =   0.0063492
        k(   90) = (  -0.2000000   0.2857143   0.0000000), wk =   0.0063492
        k(   91) = (  -0.2000000  -0.2857143   0.1111111), wk =   0.0063492
        k(   92) = (  -0.2000000   0.2857143  -0.1111111), wk =   0.0063492
        k(   93) = (   0.2000000  -0.2857143  -0.1111111), wk =   0.0063492
        k(   94) = (  -0.2000000  -0.2857143   0.2222222), wk =   0.0063492
        k(   95) = (  -0.2000000   0.2857143  -0.2222222), wk =   0.0063492
        k(   96) = (   0.2000000  -0.2857143  -0.2222222), wk =   0.0063492
        k(   97) = (  -0.2000000  -0.2857143   0.3333333), wk =   0.0063492
        k(   98) = (  -0.2000000   0.2857143  -0.3333333), wk =   0.0063492
        k(   99) = (   0.2000000  -0.2857143  -0.3333333), wk =   0.0063492
        k(  100) = (  -0.2000000  -0.2857143   0.4444444), wk =   0.0063492
        k(  101) = (  -0.2000000   0.2857143  -0.4444444), wk =   0.0063492
        k(  102) = (   0.2000000  -0.2857143  -0.4444444), wk =   0.0063492
        k(  103) = (  -0.2000000   0.4285714   0.0000000), wk =   0.0063492
        k(  104) = (  -0.2000000  -0.4285714   0.1111111), wk =   0.0063492
        k(  105) = (  -0.2000000   0.4285714  -0.1111111), wk =   0.0063492
        k(  106) = (   0.2000000  -0.4285714  -0.1111111), wk =   0.0063492
        k(  107) = (  -0.2000000  -0.4285714   0.2222222), wk =   0.0063492
        k(  108) = (  -0.2000000   0.4285714  -0.2222222), wk =   0.0063492
        k(  109) = (   0.2000000  -0.4285714  -0.2222222), wk =   0.0063492
        k(  110) = (  -0.2000000  -0.4285714   0.3333333), wk =   0.0063492
        k(  111) = (  -0.2000000   0.4285714  -0.3333333), wk =   0.0063492
        k(  112) = (   0.2000000  -0.4285714  -0.3333333), wk =   0.0063492
        k(  113) = (  -0.2000000  -0.4285714   0.4444444), wk =   0.0063492
        k(  114) = (  -0.2000000   0.4285714  -0.4444444), wk =   0.0063492
        k(  115) = (   0.2000000  -0.4285714  -0.4444444), wk =   0.0063492
        k(  116) = (  -0.4000000   0.0000000   0.1111111), wk =   0.0063492
        k(  117) = (  -0.4000000   0.0000000   0.2222222), wk =   0.0063492
        k(  118) = (  -0.4000000   0.0000000   0.3333333), wk =   0.0063492
        k(  119) = (  -0.4000000   0.0000000   0.4444444), wk =   0.0063492
        k(  120) = (  -0.4000000   0.1428571   0.0000000), wk =   0.0063492
        k(  121) = (  -0.4000000  -0.1428571   0.1111111), wk =   0.0063492
        k(  122) = (  -0.4000000   0.1428571  -0.1111111), wk =   0.0063492
        k(  123) = (   0.4000000  -0.1428571  -0.1111111), wk =   0.0063492
        k(  124) = (  -0.4000000  -0.1428571   0.2222222), wk =   0.0063492
        k(  125) = (  -0.4000000   0.1428571  -0.2222222), wk =   0.0063492
        k(  126) = (   0.4000000  -0.1428571  -0.2222222), wk =   0.0063492
        k(  127) = (  -0.4000000  -0.1428571   0.3333333), wk =   0.0063492
        k(  128) = (  -0.4000000   0.1428571  -0.3333333), wk =   0.0063492
        k(  129) = (   0.4000000  -0.1428571  -0.3333333), wk =   0.0063492
        k(  130) = (  -0.4000000  -0.1428571   0.4444444), wk =   0.0063492
        k(  131) = (  -0.4000000   0.1428571  -0.4444444), wk =   0.0063492
        k(  132) = (   0.4000000  -0.1428571  -0.4444444), wk =   0.0063492
        k(  133) = (  -0.4000000   0.2857143   0.0000000), wk =   0.0063492
        k(  134) = (  -0.4000000  -0.2857143   0.1111111), wk =   0.0063492
        k(  135) = (  -0.4000000   0.2857143  -0.1111111), wk =   0.0063492
        k(  136) = (   0.4000000  -0.2857143  -0.1111111), wk =   0.0063492
        k(  137) = (  -0.4000000  -0.2857143   0.2222222), wk =   0.0063492
        k(  138) = (  -0.4000000   0.2857143  -0.2222222), wk =   0.0063492
        k(  139) = (   0.4000000  -0.2857143  -0.2222222), wk =   0.0063492
        k(  140) = (  -0.4000000  -0.2857143   0.3333333), wk =   0.0063492
        k(  141) = (  -0.4000000   0.2857143  -0.3333333), wk =   0.0063492
        k(  142) = (   0.4000000  -0.2857143  -0.3333333), wk =   0.0063492
        k(  143) = (  -0.4000000  -0.2857143   0.4444444), wk =   0.0063492
        k(  144) = (  -0.4000000   0.2857143  -0.4444444), wk =   0.0063492
        k(  145) = (   0.4000000  -0.2857143  -0.4444444), wk =   0.0063492
        k(  146) = (  -0.4000000   0.4285714   0.0000000), wk =   0.0063492
        k(  147) = (  -0.4000000  -0.4285714   0.1111111), wk =   0.0063492
        k(  148) = (  -0.4000000   0.4285714  -0.1111111), wk =   0.0063492
        k(  149) = (   0.4000000  -0.4285714  -0.1111111), wk =   0.0063492
        k(  150) = (  -0.4000000  -0.4285714   0.2222222), wk =   0.0063492
        k(  151) = (  -0.4000000   0.4285714  -0.2222222), wk =   0.0063492
        k(  152) = (   0.4000000  -0.4285714  -0.2222222), wk =   0.0063492
        k(  153) = (  -0.4000000  -0.4285714   0.3333333), wk =   0.0063492
        k(  154) = (  -0.4000000   0.4285714  -0.3333333), wk =   0.0063492
        k(  155) = (   0.4000000  -0.4285714  -0.3333333), wk =   0.0063492
        k(  156) = (  -0.4000000  -0.4285714   0.4444444), wk =   0.0063492
        k(  157) = (  -0.4000000   0.4285714  -0.4444444), wk =   0.0063492
        k(  158) = (   0.4000000  -0.4285714  -0.4444444), wk =   0.0063492

     Dense  grid:  1294859 G-vectors     FFT dimensions: ( 216, 125, 100)

     Smooth grid:   291873 G-vectors     FFT dimensions: ( 125,  75,  60)

     Dynamical RAM for                 wfc:       2.64 MB

     Dynamical RAM for     wfc (w. buffer):     838.16 MB

     Dynamical RAM for           str. fact:       3.29 MB

     Dynamical RAM for           local pot:       0.00 MB

     Dynamical RAM for          nlocal pot:       6.49 MB

     Dynamical RAM for                qrad:      10.54 MB

     Dynamical RAM for          rho,v,vnew:      11.12 MB

     Dynamical RAM for               rhoin:       3.71 MB

     Dynamical RAM for            rho*nmix:      26.34 MB

     Dynamical RAM for           G-vectors:       3.18 MB

     Dynamical RAM for          h,s,v(r/c):       2.38 MB

     Dynamical RAM for          <psi|beta>:       0.49 MB

     Dynamical RAM for                 psi:       5.29 MB

     Dynamical RAM for                hpsi:       5.29 MB

     Dynamical RAM for                spsi:       5.29 MB

     Dynamical RAM for      wfcinit/wfcrot:       6.79 MB

     Dynamical RAM for           addusdens:     167.12 MB

     Dynamical RAM for          addusforce:     191.95 MB

     Dynamical RAM for         addusstress:     166.71 MB

     Estimated static dynamical RAM per process >     913.14 MB

     Estimated max dynamical RAM per process >       1.08 GB

     Estimated total dynamical RAM >      25.90 GB

     Check: negative core charge=   -0.000003
     Generating pointlists ...
     new r_m :   0.0760 (alat units)  1.4936 (a.u.) for type    1
     new r_m :   0.0886 (alat units)  1.7418 (a.u.) for type    2
     new r_m :   0.0610 (alat units)  1.1996 (a.u.) for type    3
     new r_m :   0.0610 (alat units)  1.1996 (a.u.) for type    4

     Initial potential from superposition of free atoms

     starting charge  188.99132, renormalised to  189.00000
     Starting wfcs are  137 randomized atomic wfcs
     Checking if some PAW data can be deallocated... 
       PAW data deallocated on   20 nodes for type:  1
       PAW data deallocated on    8 nodes for type:  3

     total cpu time spent up to now is      219.4 secs

     Self-consistent Calculation

     iteration #  1     ecut=   100.00 Ry     beta= 0.40
     Davidson diagonalization with overlap
     ethr =  1.00E-02,  avg # of iterations =  3.0

     negative rho (up, down):  0.000E+00 1.120E-04

     total cpu time spent up to now is      904.1 secs

     total energy              =   -2123.86721899 Ry
     estimated scf accuracy    <       7.04157295 Ry

     total magnetization       =    19.00 Bohr mag/cell
     absolute magnetization    =    19.00 Bohr mag/cell

     iteration #  2     ecut=   100.00 Ry     beta= 0.40
     Davidson diagonalization with overlap
     ethr =  3.73E-03,  avg # of iterations =  2.0

     negative rho (up, down):  0.000E+00 3.810E-05

     total cpu time spent up to now is     2979.1 secs

     total energy              =   -2120.45978727 Ry
     estimated scf accuracy    <      49.58773340 Ry

     total magnetization       =     6.64 Bohr mag/cell
     absolute magnetization    =     8.10 Bohr mag/cell

     iteration #  3     ecut=   100.00 Ry     beta= 0.40
     Davidson diagonalization with overlap
     ethr =  3.73E-03,  avg # of iterations =  2.9

     negative rho (up, down):  0.000E+00 1.940E-05

     total cpu time spent up to now is     3535.7 secs

     total energy              =   -2123.40205014 Ry
     estimated scf accuracy    <      58.10589943 Ry

     total magnetization       =     3.90 Bohr mag/cell
     absolute magnetization    =     7.91 Bohr mag/cell

     iteration #  4     ecut=   100.00 Ry     beta= 0.40
     Davidson diagonalization with overlap
     ethr =  3.73E-03,  avg # of iterations =  1.5

     negative rho (up, down):  0.000E+00 2.723E-05

     total cpu time spent up to now is     4014.3 secs

     total energy              =   -2124.56335904 Ry
     estimated scf accuracy    <      30.31289813 Ry

     total magnetization       =     9.00 Bohr mag/cell
     absolute magnetization    =     9.36 Bohr mag/cell

     iteration #  5     ecut=   100.00 Ry     beta= 0.40
     Davidson diagonalization with overlap
     ethr =  3.73E-03,  avg # of iterations =  1.9

     negative rho (up, down):  0.000E+00 1.215E-04

     total cpu time spent up to now is     4526.7 secs

     total energy              =   -2126.01468280 Ry
     estimated scf accuracy    <       1.72220011 Ry

     total magnetization       =    19.05 Bohr mag/cell
     absolute magnetization    =    19.05 Bohr mag/cell

     iteration #  6     ecut=   100.00 Ry     beta= 0.40
     Davidson diagonalization with overlap
     ethr =  9.11E-04,  avg # of iterations =  2.0

     negative rho (up, down):  0.000E+00 2.806E-04

     total cpu time spent up to now is     5059.2 secs

     total energy              =   -2126.09719582 Ry
     estimated scf accuracy    <       0.53540188 Ry

     total magnetization       =    19.00 Bohr mag/cell
     absolute magnetization    =    19.00 Bohr mag/cell

     iteration #  7     ecut=   100.00 Ry     beta= 0.40
     Davidson diagonalization with overlap
     ethr =  2.83E-04,  avg # of iterations =  2.4

     negative rho (up, down):  0.000E+00 4.683E-04

     total cpu time spent up to now is     5563.6 secs

     total energy              =   -2126.10225723 Ry
     estimated scf accuracy    <       0.22679879 Ry

     total magnetization       =    19.00 Bohr mag/cell
     absolute magnetization    =    19.00 Bohr mag/cell

     iteration #  8     ecut=   100.00 Ry     beta= 0.40
     Davidson diagonalization with overlap
     ethr =  1.20E-04,  avg # of iterations = 11.2

     negative rho (up, down):  0.000E+00 5.236E-04

     total cpu time spent up to now is     6370.2 secs

     total energy              =   -2126.10040669 Ry
     estimated scf accuracy    <       0.24658067 Ry

     total magnetization       =    19.00 Bohr mag/cell
     absolute magnetization    =    19.01 Bohr mag/cell

     iteration #  9     ecut=   100.00 Ry     beta= 0.40
     Davidson diagonalization with overlap
     ethr =  1.20E-04,  avg # of iterations =  1.1

     negative rho (up, down):  0.000E+00 6.226E-04

     total cpu time spent up to now is     6814.4 secs

     total energy              =   -2126.11498212 Ry
     estimated scf accuracy    <       0.08640574 Ry

     total magnetization       =    19.00 Bohr mag/cell
     absolute magnetization    =    19.01 Bohr mag/cell

     iteration # 10     ecut=   100.00 Ry     beta= 0.40
     Davidson diagonalization with overlap
     c_bands:  1 eigenvalues not converged
     c_bands:  1 eigenvalues not converged
     c_bands:  1 eigenvalues not converged
     c_bands:  1 eigenvalues not converged
     ethr =  4.57E-05,  avg # of iterations =  3.2

     negative rho (up, down):  0.000E+00 8.795E-04

     total cpu time spent up to now is     7340.5 secs

     total energy              =   -2126.11838671 Ry
     estimated scf accuracy    <       0.05411421 Ry

     total magnetization       =    19.00 Bohr mag/cell
     absolute magnetization    =    19.02 Bohr mag/cell

     iteration # 11     ecut=   100.00 Ry     beta= 0.40
     Davidson diagonalization with overlap
     c_bands:  1 eigenvalues not converged
     c_bands:  4 eigenvalues not converged
     c_bands:  2 eigenvalues not converged
     c_bands:  1 eigenvalues not converged
     c_bands:  1 eigenvalues not converged
     c_bands:  1 eigenvalues not converged
     c_bands:  1 eigenvalues not converged
     c_bands:  1 eigenvalues not converged
     ethr =  2.86E-05,  avg # of iterations =  5.6

     negative rho (up, down):  0.000E+00 9.491E-04

     total cpu time spent up to now is     7928.7 secs

     total energy              =   -2126.12561885 Ry
     estimated scf accuracy    <       0.32666776 Ry

     total magnetization       =    19.00 Bohr mag/cell
     absolute magnetization    =    19.03 Bohr mag/cell

     iteration # 12     ecut=   100.00 Ry     beta= 0.40
     Davidson diagonalization with overlap
     ethr =  2.86E-05,  avg # of iterations =  1.2

     negative rho (up, down):  0.000E+00 9.348E-04

     total cpu time spent up to now is     8376.3 secs

     total energy              =   -2126.12511437 Ry
     estimated scf accuracy    <       0.14122603 Ry

     total magnetization       =    19.00 Bohr mag/cell
     absolute magnetization    =    19.04 Bohr mag/cell

     iteration # 13     ecut=   100.00 Ry     beta= 0.40
     Davidson diagonalization with overlap
     ethr =  2.86E-05,  avg # of iterations =  1.0

     negative rho (up, down):  0.000E+00 9.334E-04

     total cpu time spent up to now is     8818.3 secs

     total energy              =   -2126.12570928 Ry
     estimated scf accuracy    <       0.04251549 Ry

     total magnetization       =    19.00 Bohr mag/cell
     absolute magnetization    =    19.04 Bohr mag/cell

     iteration # 14     ecut=   100.00 Ry     beta= 0.40
     Davidson diagonalization with overlap
     ethr =  2.25E-05,  avg # of iterations =  1.1

     negative rho (up, down):  0.000E+00 9.366E-04

     total cpu time spent up to now is     9260.2 secs

     total energy              =   -2126.12527607 Ry
     estimated scf accuracy    <       0.02515706 Ry

     total magnetization       =    19.00 Bohr mag/cell
     absolute magnetization    =    19.04 Bohr mag/cell

     iteration # 15     ecut=   100.00 Ry     beta= 0.40
     Davidson diagonalization with overlap
     c_bands:  1 eigenvalues not converged
     c_bands:  2 eigenvalues not converged
     c_bands:  1 eigenvalues not converged
     c_bands:  1 eigenvalues not converged
     c_bands:  1 eigenvalues not converged
     c_bands:  1 eigenvalues not converged
     c_bands:  1 eigenvalues not converged
     c_bands:  1 eigenvalues not converged
     c_bands:  1 eigenvalues not converged
     ethr =  1.33E-05,  avg # of iterations =  3.5

     negative rho (up, down):  0.000E+00 9.487E-04

     total cpu time spent up to now is     9779.7 secs

     total energy              =   -2126.12601076 Ry
     estimated scf accuracy    <       0.00361452 Ry

     total magnetization       =    19.00 Bohr mag/cell
     absolute magnetization    =    19.05 Bohr mag/cell

     iteration # 16     ecut=   100.00 Ry     beta= 0.40
     Davidson diagonalization with overlap
     c_bands:  1 eigenvalues not converged
     c_bands:  1 eigenvalues not converged
     c_bands:  1 eigenvalues not converged
     c_bands:  1 eigenvalues not converged
     c_bands:  1 eigenvalues not converged
     c_bands:  1 eigenvalues not converged
     c_bands:  1 eigenvalues not converged
     c_bands:  1 eigenvalues not converged
     c_bands:  1 eigenvalues not converged
     c_bands:  1 eigenvalues not converged
     c_bands:  1 eigenvalues not converged
     c_bands:  1 eigenvalues not converged
     c_bands:  1 eigenvalues not converged
     c_bands:  1 eigenvalues not converged
     c_bands:  1 eigenvalues not converged
     c_bands:  1 eigenvalues not converged
     c_bands:  1 eigenvalues not converged
     c_bands:  1 eigenvalues not converged
     c_bands:  1 eigenvalues not converged
     c_bands:  1 eigenvalues not converged
     c_bands:  1 eigenvalues not converged
     c_bands:  1 eigenvalues not converged
     c_bands:  1 eigenvalues not converged
     c_bands:  1 eigenvalues not converged
     c_bands:  1 eigenvalues not converged
     c_bands:  1 eigenvalues not converged
     c_bands:  1 eigenvalues not converged
     c_bands:  1 eigenvalues not converged
     c_bands:  1 eigenvalues not converged
     c_bands:  1 eigenvalues not converged
     c_bands:  1 eigenvalues not converged
     c_bands:  1 eigenvalues not converged
     c_bands:  1 eigenvalues not converged
     c_bands:  1 eigenvalues not converged
     c_bands:  1 eigenvalues not converged
     c_bands:  1 eigenvalues not converged
     c_bands:  1 eigenvalues not converged
     c_bands:  1 eigenvalues not converged
     c_bands:  1 eigenvalues not converged
     ethr =  1.91E-06,  avg # of iterations = 14.6

     negative rho (up, down):  0.000E+00 9.379E-04

     total cpu time spent up to now is    10780.9 secs

     total energy              =   -2126.12627762 Ry
     estimated scf accuracy    <       0.00075888 Ry

     total magnetization       =    19.00 Bohr mag/cell
     absolute magnetization    =    19.05 Bohr mag/cell

     iteration # 17     ecut=   100.00 Ry     beta= 0.40
     Davidson diagonalization with overlap
     ethr =  4.02E-07,  avg # of iterations =  4.3

     negative rho (up, down):  0.000E+00 9.311E-04

     total cpu time spent up to now is    11454.5 secs

     total energy              =   -2126.12644754 Ry
     estimated scf accuracy    <       0.00064969 Ry

     total magnetization       =    19.00 Bohr mag/cell
     absolute magnetization    =    19.05 Bohr mag/cell

     iteration # 18     ecut=   100.00 Ry     beta= 0.40
     Davidson diagonalization with overlap
     ethr =  3.44E-07,  avg # of iterations =  1.0

     negative rho (up, down):  0.000E+00 9.234E-04

     total cpu time spent up to now is    11894.5 secs

     total energy              =   -2126.12645699 Ry
     estimated scf accuracy    <       0.00026813 Ry

     total magnetization       =    19.00 Bohr mag/cell
     absolute magnetization    =    19.05 Bohr mag/cell

     iteration # 19     ecut=   100.00 Ry     beta= 0.40
     Davidson diagonalization with overlap
     ethr =  1.42E-07,  avg # of iterations =  1.3

     negative rho (up, down):  0.000E+00 9.225E-04

     total cpu time spent up to now is    12353.9 secs

     total energy              =   -2126.12646962 Ry
     estimated scf accuracy    <       0.00002381 Ry

     total magnetization       =    19.00 Bohr mag/cell
     absolute magnetization    =    19.05 Bohr mag/cell

     iteration # 20     ecut=   100.00 Ry     beta= 0.40
     Davidson diagonalization with overlap
     ethr =  1.26E-08,  avg # of iterations =  3.3

     negative rho (up, down):  0.000E+00 9.193E-04

     total cpu time spent up to now is    13083.4 secs

     total energy              =   -2126.12647898 Ry
     estimated scf accuracy    <       0.00002064 Ry

     total magnetization       =    19.00 Bohr mag/cell
     absolute magnetization    =    19.05 Bohr mag/cell

     iteration # 21     ecut=   100.00 Ry     beta= 0.40
     Davidson diagonalization with overlap
     ethr =  1.09E-08,  avg # of iterations =  1.2

     negative rho (up, down):  0.000E+00 9.190E-04

     total cpu time spent up to now is    13535.1 secs

     total energy              =   -2126.12648005 Ry
     estimated scf accuracy    <       0.00000569 Ry

     total magnetization       =    19.00 Bohr mag/cell
     absolute magnetization    =    19.05 Bohr mag/cell

     iteration # 22     ecut=   100.00 Ry     beta= 0.40
     Davidson diagonalization with overlap
     ethr =  3.01E-09,  avg # of iterations =  2.0

     negative rho (up, down):  0.000E+00 9.206E-04

     total cpu time spent up to now is    14058.9 secs

     total energy              =   -2126.12648074 Ry
     estimated scf accuracy    <       0.00000323 Ry

     total magnetization       =    19.00 Bohr mag/cell
     absolute magnetization    =    19.05 Bohr mag/cell

     iteration # 23     ecut=   100.00 Ry     beta= 0.40
     Davidson diagonalization with overlap
     ethr =  1.71E-09,  avg # of iterations =  1.4

     negative rho (up, down):  0.000E+00 9.209E-04

     total cpu time spent up to now is    14533.3 secs

     total energy              =   -2126.12648099 Ry
     estimated scf accuracy    <       0.00000063 Ry

     total magnetization       =    19.00 Bohr mag/cell
     absolute magnetization    =    19.05 Bohr mag/cell

     iteration # 24     ecut=   100.00 Ry     beta= 0.40
     Davidson diagonalization with overlap
     ethr =  3.33E-10,  avg # of iterations =  2.6

     negative rho (up, down):  0.000E+00 9.209E-04

     total cpu time spent up to now is    15087.1 secs

     total energy              =   -2126.12648110 Ry
     estimated scf accuracy    <       0.00000022 Ry

     total magnetization       =    19.00 Bohr mag/cell
     absolute magnetization    =    19.05 Bohr mag/cell

     iteration # 25     ecut=   100.00 Ry     beta= 0.40
     Davidson diagonalization with overlap
     ethr =  1.16E-10,  avg # of iterations =  3.3

     negative rho (up, down):  0.000E+00 9.210E-04

     total cpu time spent up to now is    15648.7 secs

     total energy              =   -2126.12648114 Ry
     estimated scf accuracy    <       0.00000002 Ry

     total magnetization       =    19.00 Bohr mag/cell
     absolute magnetization    =    19.05 Bohr mag/cell

     iteration # 26     ecut=   100.00 Ry     beta= 0.40
     Davidson diagonalization with overlap
     ethr =  1.15E-11,  avg # of iterations =  5.2

     negative rho (up, down):  0.000E+00 9.210E-04

     total cpu time spent up to now is    16628.6 secs

     total energy              =   -2126.12648116 Ry
     estimated scf accuracy    <       0.00000002 Ry

     total magnetization       =    19.00 Bohr mag/cell
     absolute magnetization    =    19.05 Bohr mag/cell

     iteration # 27     ecut=   100.00 Ry     beta= 0.40
     Davidson diagonalization with overlap
     ethr =  8.08E-12,  avg # of iterations =  1.1

     negative rho (up, down):  0.000E+00 9.210E-04

     total cpu time spent up to now is    17080.2 secs

     total energy              =   -2126.12648116 Ry
     estimated scf accuracy    <          4.2E-09 Ry

     total magnetization       =    19.00 Bohr mag/cell
     absolute magnetization    =    19.05 Bohr mag/cell

     iteration # 28     ecut=   100.00 Ry     beta= 0.40
     Davidson diagonalization with overlap
     ethr =  2.25E-12,  avg # of iterations =  2.1

     negative rho (up, down):  0.000E+00 9.210E-04

     total cpu time spent up to now is    17641.4 secs

     total energy              =   -2126.12648117 Ry
     estimated scf accuracy    <          3.1E-09 Ry

     total magnetization       =    19.00 Bohr mag/cell
     absolute magnetization    =    19.05 Bohr mag/cell

     iteration # 29     ecut=   100.00 Ry     beta= 0.40
     Davidson diagonalization with overlap
     ethr =  1.64E-12,  avg # of iterations =  2.0

     negative rho (up, down):  0.000E+00 9.210E-04

     total cpu time spent up to now is    18206.6 secs

     total energy              =   -2126.12648117 Ry
     estimated scf accuracy    <          3.2E-09 Ry

     total magnetization       =    19.00 Bohr mag/cell
     absolute magnetization    =    19.05 Bohr mag/cell

     iteration # 30     ecut=   100.00 Ry     beta= 0.40
     Davidson diagonalization with overlap
     ethr =  1.64E-12,  avg # of iterations =  2.0

     negative rho (up, down):  0.000E+00 9.210E-04

     total cpu time spent up to now is    18726.9 secs

     total energy              =   -2126.12648117 Ry
     estimated scf accuracy    <          2.9E-09 Ry

     total magnetization       =    19.00 Bohr mag/cell
     absolute magnetization    =    19.05 Bohr mag/cell

     iteration # 31     ecut=   100.00 Ry     beta= 0.40
     Davidson diagonalization with overlap
     ethr =  1.51E-12,  avg # of iterations =  2.0

     negative rho (up, down):  0.000E+00 9.210E-04

     total cpu time spent up to now is    19261.8 secs

     total energy              =   -2126.12648117 Ry
     estimated scf accuracy    <       0.00000001 Ry

     total magnetization       =    19.00 Bohr mag/cell
     absolute magnetization    =    19.05 Bohr mag/cell

     iteration # 32     ecut=   100.00 Ry     beta= 0.40
     Davidson diagonalization with overlap
     ethr =  1.51E-12,  avg # of iterations =  1.5

     negative rho (up, down):  0.000E+00 9.210E-04

     Magnetic moment per site:
     atom:    1    charge:    7.9005    magn:    0.0005    constr:    0.0000
     atom:    2    charge:   12.8398    magn:    3.6678    constr:    0.0000
     atom:    3    charge:   12.8463    magn:    3.6524    constr:    0.0000
     atom:    4    charge:   12.8852    magn:    3.5535    constr:    0.0000
     atom:    5    charge:   12.8471    magn:    3.6545    constr:    0.0000
     atom:    6    charge:    0.8482    magn:    0.0106    constr:    0.0000
     atom:    7    charge:    0.8520    magn:    0.0085    constr:    0.0000
     atom:    8    charge:    0.8509    magn:    0.0114    constr:    0.0000
     atom:    9    charge:    0.8460    magn:    0.0091    constr:    0.0000
     atom:   10    charge:    4.2669    magn:    0.1370    constr:    0.0000
     atom:   11    charge:    4.2830    magn:    0.0884    constr:    0.0000
     atom:   12    charge:    4.2700    magn:    0.1261    constr:    0.0000
     atom:   13    charge:    4.2660    magn:    0.1087    constr:    0.0000
     atom:   14    charge:    4.2586    magn:    0.1135    constr:    0.0000
     atom:   15    charge:    4.2661    magn:    0.1291    constr:    0.0000
     atom:   16    charge:    4.2639    magn:    0.0769    constr:    0.0000
     atom:   17    charge:    4.2601    magn:    0.1400    constr:    0.0000
     atom:   18    charge:    4.2380    magn:    0.1527    constr:    0.0000
     atom:   19    charge:    4.2435    magn:    0.1333    constr:    0.0000
     atom:   20    charge:    4.2438    magn:    0.1419    constr:    0.0000
     atom:   21    charge:    4.2430    magn:    0.1207    constr:    0.0000
     atom:   22    charge:    4.2455    magn:    0.1492    constr:    0.0000
     atom:   23    charge:    4.2363    magn:    0.1306    constr:    0.0000
     atom:   24    charge:    4.2380    magn:    0.1514    constr:    0.0000
     atom:   25    charge:    4.2403    magn:    0.1312    constr:    0.0000

     total cpu time spent up to now is    19735.4 secs

     End of self-consistent calculation

 ------ SPIN UP ------------


          k = 0.0000 0.0000 0.0000 ( 36463 PWs)   bands (ev):

   -85.2737 -85.2397 -85.2299 -84.8564 -51.3828 -51.3467 -51.3330 -51.2253
   -51.2047 -51.1955 -51.1759 -51.1600 -51.1428 -51.1273 -50.8033 -50.6097
   -45.0894 -17.1207 -17.0608 -17.0391 -16.2228 -16.0600 -15.8639 -15.7727
   -13.8499 -13.7837 -13.6759 -13.5797 -13.5376 -13.5070 -13.5011 -13.4193
   -13.4130 -13.3360 -13.2971 -13.1974  -4.1604  -3.6571  -3.5904  -3.1633
    -2.2889  -1.9369  -1.8739  -1.6865  -1.5159  -1.4177  -1.2823  -1.2412
    -1.1214  -0.9546  -0.7255  -0.4928  -0.3377  -0.3037   0.1987   0.2617
     0.2956   0.3921   0.5417   0.6809   0.7676   0.8179   0.9409   0.9802
     1.0968   1.3037   1.3122   1.4965   1.5746   1.6083   1.6943   1.7254
     1.8324   2.0164   2.1272   2.1871   2.2607   2.2725   2.3788   2.4571
     2.5864   2.6417   2.6879   2.8118   2.8523   3.0185   3.1041   3.1714
     3.2416   3.3769   3.3884   3.4061   3.5002   3.6818   3.6904   3.8250
     3.9427   4.0901   4.1087   4.1525   4.3717   4.4765   4.7518   4.8713
     9.0330  11.0666  11.5633  11.9360  12.1502  12.8467  13.1544  13.3563
    13.4477  13.6583

     occupation numbers 
     1.0000   1.0000   1.0000   1.0000   1.0000   1.0000   1.0000   1.0000
     1.0000   1.0000   1.0000   1.0000   1.0000   1.0000   1.0000   1.0000
     1.0000   1.0000   1.0000   1.0000   1.0000   1.0000   1.0000   1.0000
     1.0000   1.0000   1.0000   1.0000   1.0000   1.0000   1.0000   1.0000
     1.0000   1.0000   1.0000   1.0000   1.0000   1.0000   1.0000   1.0000
     1.0000   1.0000   1.0000   1.0000   1.0000   1.0000   1.0000   1.0000
     1.0000   1.0000   1.0000   1.0000   1.0000   1.0000   1.0000   1.0000
     1.0000   1.0000   1.0000   1.0000   1.0000   1.0000   1.0000   1.0000
     1.0000   1.0000   1.0000   1.0000   1.0000   1.0000   1.0000   1.0000
     1.0000   1.0000   1.0000   1.0000   1.0000   1.0000   1.0000   1.0000
     1.0000   1.0000   1.0000   1.0000   1.0000   1.0000   1.0000   1.0000
     1.0000   1.0000   1.0000   1.0000   1.0000   1.0000   1.0000   1.0000
     1.0000   1.0000   1.0000   1.0000   1.0000   1.0000   1.0000   1.0000
     0.0000   0.0000   0.0000   0.0000   0.0000   0.0000   0.0000   0.0000
     0.0000   0.0000

          k = 0.0000 0.0000 0.2337 ( 36493 PWs)   bands (ev):

   -85.2737 -85.2397 -85.2299 -84.8564 -51.3828 -51.3467 -51.3330 -51.2253
   -51.2047 -51.1955 -51.1759 -51.1600 -51.1428 -51.1273 -50.8033 -50.6097
   -45.0894 -17.1211 -17.0666 -17.0382 -16.2075 -16.0515 -15.8579 -15.7693
   -13.8583 -13.7900 -13.6883 -13.5850 -13.5416 -13.5061 -13.5010 -13.4194
   -13.4144 -13.3415 -13.3011 -13.2012  -4.1368  -3.6524  -3.5861  -3.1737
    -2.2446  -1.9134  -1.8706  -1.6742  -1.5106  -1.4313  -1.3073  -1.1668
    -1.1148  -0.9215  -0.7706  -0.4662  -0.3483  -0.3176   0.2107   0.2740
     0.2983   0.4308   0.5407   0.6800   0.7605   0.7960   0.9159   1.0071
     1.0874   1.2948   1.3023   1.4738   1.5478   1.5786   1.6298   1.6886
     1.9455   1.9905   2.0687   2.1317   2.2477   2.2886   2.3367   2.5165
     2.5461   2.6462   2.7081   2.8103   2.9581   2.9918   3.0578   3.1317
     3.2468   3.3300   3.3892   3.4141   3.4844   3.6940   3.7439   3.8269
     3.9689   4.0748   4.1457   4.1557   4.3678   4.4673   4.7267   4.8496
     9.1813  11.1391  11.6160  11.9411  12.2043  12.7661  13.1705  13.2762
    13.3527  13.5756

     occupation numbers 
     1.0000   1.0000   1.0000   1.0000   1.0000   1.0000   1.0000   1.0000
     1.0000   1.0000   1.0000   1.0000   1.0000   1.0000   1.0000   1.0000
     1.0000   1.0000   1.0000   1.0000   1.0000   1.0000   1.0000   1.0000
     1.0000   1.0000   1.0000   1.0000   1.0000   1.0000   1.0000   1.0000
     1.0000   1.0000   1.0000   1.0000   1.0000   1.0000   1.0000   1.0000
     1.0000   1.0000   1.0000   1.0000   1.0000   1.0000   1.0000   1.0000
     1.0000   1.0000   1.0000   1.0000   1.0000   1.0000   1.0000   1.0000
     1.0000   1.0000   1.0000   1.0000   1.0000   1.0000   1.0000   1.0000
     1.0000   1.0000   1.0000   1.0000   1.0000   1.0000   1.0000   1.0000
     1.0000   1.0000   1.0000   1.0000   1.0000   1.0000   1.0000   1.0000
     1.0000   1.0000   1.0000   1.0000   1.0000   1.0000   1.0000   1.0000
     1.0000   1.0000   1.0000   1.0000   1.0000   1.0000   1.0000   1.0000
     1.0000   1.0000   1.0000   1.0000   1.0000   1.0000   1.0000   1.0000
     0.0000   0.0000   0.0000   0.0000   0.0000   0.0000   0.0000   0.0000
     0.0000   0.0000

          k = 0.0000 0.0000 0.4675 ( 36542 PWs)   bands (ev):

   -85.2737 -85.2397 -85.2299 -84.8564 -51.3828 -51.3467 -51.3330 -51.2253
   -51.2047 -51.1955 -51.1759 -51.1600 -51.1428 -51.1273 -50.8033 -50.6097
   -45.0894 -17.1232 -17.0790 -17.0368 -16.1675 -16.0298 -15.8420 -15.7619
   -13.8814 -13.8096 -13.7163 -13.5994 -13.5557 -13.5137 -13.4901 -13.4284
   -13.4034 -13.3542 -13.3119 -13.2117  -4.0693  -3.6491  -3.5708  -3.2138
    -2.1219  -1.8820  -1.8297  -1.6616  -1.4902  -1.4503  -1.3063  -1.1009
    -1.0206  -0.8869  -0.8331  -0.4704  -0.3825  -0.2563   0.2512   0.2982
     0.3240   0.5016   0.5587   0.6810   0.7312   0.7708   0.8377   1.0441
     1.0811   1.2544   1.3180   1.3984   1.4516   1.4983   1.5815   1.6484
     1.7866   1.9124   2.0938   2.1260   2.2075   2.2207   2.4084   2.4432
     2.5845   2.6408   2.7681   2.8276   2.8544   2.9841   3.0674   3.0915
     3.1987   3.2826   3.4303   3.5006   3.5100   3.7093   3.8254   3.8312
     4.0376   4.0992   4.1260   4.2174   4.3536   4.4552   4.6499   4.7831
     9.5787  11.3329  11.7289  11.9905  12.3320  12.6407  12.9627  13.1709
    13.1969  13.2699

     occupation numbers 
     1.0000   1.0000   1.0000   1.0000   1.0000   1.0000   1.0000   1.0000
     1.0000   1.0000   1.0000   1.0000   1.0000   1.0000   1.0000   1.0000
     1.0000   1.0000   1.0000   1.0000   1.0000   1.0000   1.0000   1.0000
     1.0000   1.0000   1.0000   1.0000   1.0000   1.0000   1.0000   1.0000
     1.0000   1.0000   1.0000   1.0000   1.0000   1.0000   1.0000   1.0000
     1.0000   1.0000   1.0000   1.0000   1.0000   1.0000   1.0000   1.0000
     1.0000   1.0000   1.0000   1.0000   1.0000   1.0000   1.0000   1.0000
     1.0000   1.0000   1.0000   1.0000   1.0000   1.0000   1.0000   1.0000
     1.0000   1.0000   1.0000   1.0000   1.0000   1.0000   1.0000   1.0000
     1.0000   1.0000   1.0000   1.0000   1.0000   1.0000   1.0000   1.0000
     1.0000   1.0000   1.0000   1.0000   1.0000   1.0000   1.0000   1.0000
     1.0000   1.0000   1.0000   1.0000   1.0000   1.0000   1.0000   1.0000
     1.0000   1.0000   1.0000   1.0000   1.0000   1.0000   1.0000   1.0000
     0.0000   0.0000   0.0000   0.0000   0.0000   0.0000   0.0000   0.0000
     0.0000   0.0000

          k = 0.0000 0.0000 0.7012 ( 36506 PWs)   bands (ev):

   -85.2737 -85.2397 -85.2299 -84.8564 -51.3828 -51.3467 -51.3330 -51.2253
   -51.2047 -51.1955 -51.1759 -51.1600 -51.1428 -51.1273 -50.8033 -50.6097
   -45.0894 -17.1285 -17.0889 -17.0357 -16.1188 -16.0058 -15.8216 -15.7570
   -13.9106 -13.8379 -13.7429 -13.6204 -13.5770 -13.5198 -13.4745 -13.4326
   -13.3892 -13.3664 -13.3259 -13.2254  -3.9684  -3.6674  -3.5433  -3.2858
    -1.9794  -1.8571  -1.7553  -1.6628  -1.4623  -1.4374  -1.2886  -1.1054
    -0.9843  -0.8647  -0.7183  -0.6308  -0.2428  -0.1344   0.3042   0.3349
     0.3770   0.4867   0.6302   0.6666   0.6880   0.7216   0.8048   1.0369
     1.0990   1.1815   1.2549   1.3235   1.3792   1.4233   1.4902   1.5590
     1.6574   1.7698   2.0071   2.1091   2.1564   2.3298   2.3720   2.5347
     2.5961   2.6255   2.6742   2.7162   2.8746   2.8915   2.9808   3.1213
     3.1590   3.2944   3.5503   3.5677   3.6989   3.7683   3.8380   3.8617
     4.0854   4.1331   4.1603   4.2525   4.3518   4.4539   4.5193   4.6713
    10.1247  11.5688  11.7360  12.1159  12.3910  12.6048  12.7882  12.9674
    13.0409  13.0849

     occupation numbers 
     1.0000   1.0000   1.0000   1.0000   1.0000   1.0000   1.0000   1.0000
     1.0000   1.0000   1.0000   1.0000   1.0000   1.0000   1.0000   1.0000
     1.0000   1.0000   1.0000   1.0000   1.0000   1.0000   1.0000   1.0000
     1.0000   1.0000   1.0000   1.0000   1.0000   1.0000   1.0000   1.0000
     1.0000   1.0000   1.0000   1.0000   1.0000   1.0000   1.0000   1.0000
     1.0000   1.0000   1.0000   1.0000   1.0000   1.0000   1.0000   1.0000
     1.0000   1.0000   1.0000   1.0000   1.0000   1.0000   1.0000   1.0000
     1.0000   1.0000   1.0000   1.0000   1.0000   1.0000   1.0000   1.0000
     1.0000   1.0000   1.0000   1.0000   1.0000   1.0000   1.0000   1.0000
     1.0000   1.0000   1.0000   1.0000   1.0000   1.0000   1.0000   1.0000
     1.0000   1.0000   1.0000   1.0000   1.0000   1.0000   1.0000   1.0000
     1.0000   1.0000   1.0000   1.0000   1.0000   1.0000   1.0000   1.0000
     1.0000   1.0000   1.0000   1.0000   1.0000   1.0000   1.0000   1.0000
     0.0000   0.0000   0.0000   0.0000   0.0000   0.0000   0.0000   0.0000
     0.0000   0.0000

          k = 0.0000 0.0000 0.9349 ( 36496 PWs)   bands (ev):

   -85.2737 -85.2397 -85.2299 -84.8564 -51.3828 -51.3467 -51.3330 -51.2253
   -51.2047 -51.1955 -51.1759 -51.1600 -51.1428 -51.1273 -50.8033 -50.6097
   -45.0894 -17.1339 -17.0929 -17.0350 -16.0836 -15.9920 -15.8046 -15.7581
   -13.9309 -13.8590 -13.7581 -13.6395 -13.5902 -13.5213 -13.4622 -13.4330
   -13.3797 -13.3733 -13.3361 -13.2359  -3.8610  -3.7194  -3.5081  -3.3586
    -1.9068  -1.8348  -1.7005  -1.6470  -1.4492  -1.3599  -1.2911  -1.2229
    -0.9229  -0.7939  -0.7605  -0.6351  -0.0589   0.0686   0.2837   0.3376
     0.4179   0.4517   0.5751   0.5991   0.6404   0.7509   0.8724   0.9716
     1.1051   1.1253   1.1495   1.2322   1.2624   1.3840   1.4385   1.5584
     1.7019   1.7609   1.8625   2.0234   2.1554   2.2922   2.5005   2.5073
     2.5827   2.6171   2.6570   2.6889   2.7861   2.8221   2.9666   3.1148
     3.1665   3.2946   3.5970   3.6830   3.7383   3.8399   3.8708   4.0219
     4.0502   4.1573   4.2556   4.2724   4.3442   4.3821   4.4533   4.5351
    10.7188  11.3044  11.9032  12.2528  12.3564  12.5269  12.7509  12.8782
    13.0206  13.1080

     occupation numbers 
     1.0000   1.0000   1.0000   1.0000   1.0000   1.0000   1.0000   1.0000
     1.0000   1.0000   1.0000   1.0000   1.0000   1.0000   1.0000   1.0000
     1.0000   1.0000   1.0000   1.0000   1.0000   1.0000   1.0000   1.0000
     1.0000   1.0000   1.0000   1.0000   1.0000   1.0000   1.0000   1.0000
     1.0000   1.0000   1.0000   1.0000   1.0000   1.0000   1.0000   1.0000
     1.0000   1.0000   1.0000   1.0000   1.0000   1.0000   1.0000   1.0000
     1.0000   1.0000   1.0000   1.0000   1.0000   1.0000   1.0000   1.0000
     1.0000   1.0000   1.0000   1.0000   1.0000   1.0000   1.0000   1.0000
     1.0000   1.0000   1.0000   1.0000   1.0000   1.0000   1.0000   1.0000
     1.0000   1.0000   1.0000   1.0000   1.0000   1.0000   1.0000   1.0000
     1.0000   1.0000   1.0000   1.0000   1.0000   1.0000   1.0000   1.0000
     1.0000   1.0000   1.0000   1.0000   1.0000   1.0000   1.0000   1.0000
     1.0000   1.0000   1.0000   1.0000   1.0000   1.0000   1.0000   1.0000
     0.0000   0.0000   0.0000   0.0000   0.0000   0.0000   0.0000   0.0000
     0.0000   0.0000

          k = 0.0000 0.2391 0.0000 ( 36485 PWs)   bands (ev):

   -85.2737 -85.2397 -85.2299 -84.8564 -51.3828 -51.3467 -51.3330 -51.2253
   -51.2047 -51.1955 -51.1759 -51.1600 -51.1428 -51.1273 -50.8033 -50.6097
   -45.0894 -17.1205 -17.0607 -17.0398 -16.2074 -16.0572 -15.8627 -15.7880
   -13.8510 -13.7815 -13.6764 -13.5886 -13.5656 -13.5377 -13.4729 -13.4410
   -13.3674 -13.3316 -13.2939 -13.1999  -4.1347  -3.6782  -3.5654  -3.1715
    -2.2636  -1.9430  -1.8689  -1.6910  -1.4922  -1.4091  -1.2725  -1.2328
    -1.0705  -0.9577  -0.7051  -0.4709  -0.3865  -0.2665   0.2320   0.2727
     0.3213   0.3667   0.4465   0.5672   0.6685   0.9070   0.9646   1.0334
     1.1880   1.2998   1.3064   1.4508   1.5154   1.5322   1.6082   1.6593
     1.8553   2.0802   2.1459   2.2162   2.2672   2.3096   2.3863   2.4105
     2.6085   2.6198   2.6526   2.7212   2.8314   3.0566   3.1246   3.2022
     3.2155   3.2998   3.3286   3.4994   3.5627   3.6736   3.7145   3.8326
     3.9398   4.0287   4.1290   4.1766   4.3389   4.4624   4.7904   4.8634
     9.1892  11.1566  11.6390  11.8721  12.2112  12.9171  13.0936  13.3426
    13.4307  13.6201

     occupation numbers 
     1.0000   1.0000   1.0000   1.0000   1.0000   1.0000   1.0000   1.0000
     1.0000   1.0000   1.0000   1.0000   1.0000   1.0000   1.0000   1.0000
     1.0000   1.0000   1.0000   1.0000   1.0000   1.0000   1.0000   1.0000
     1.0000   1.0000   1.0000   1.0000   1.0000   1.0000   1.0000   1.0000
     1.0000   1.0000   1.0000   1.0000   1.0000   1.0000   1.0000   1.0000
     1.0000   1.0000   1.0000   1.0000   1.0000   1.0000   1.0000   1.0000
     1.0000   1.0000   1.0000   1.0000   1.0000   1.0000   1.0000   1.0000
     1.0000   1.0000   1.0000   1.0000   1.0000   1.0000   1.0000   1.0000
     1.0000   1.0000   1.0000   1.0000   1.0000   1.0000   1.0000   1.0000
     1.0000   1.0000   1.0000   1.0000   1.0000   1.0000   1.0000   1.0000
     1.0000   1.0000   1.0000   1.0000   1.0000   1.0000   1.0000   1.0000
     1.0000   1.0000   1.0000   1.0000   1.0000   1.0000   1.0000   1.0000
     1.0000   1.0000   1.0000   1.0000   1.0000   1.0000   1.0000   1.0000
     0.0000   0.0000   0.0000   0.0000   0.0000   0.0000   0.0000   0.0000
     0.0000   0.0000

          k = 0.0000 0.2391 0.2337 ( 36495 PWs)   bands (ev):

   -85.2737 -85.2397 -85.2299 -84.8564 -51.3828 -51.3467 -51.3330 -51.2253
   -51.2047 -51.1955 -51.1759 -51.1600 -51.1428 -51.1273 -50.8033 -50.6097
   -45.0894 -17.1208 -17.0664 -17.0388 -16.1936 -16.0488 -15.8566 -15.7832
   -13.8594 -13.7874 -13.6906 -13.5947 -13.5610 -13.5396 -13.4783 -13.4422
   -13.3665 -13.3358 -13.2991 -13.2031  -4.1116  -3.6714  -3.5619  -3.1819
    -2.2209  -1.9193  -1.8629  -1.6789  -1.4858  -1.4234  -1.2861  -1.1707
    -1.0601  -0.9274  -0.7489  -0.4776  -0.3835  -0.2646   0.2360   0.2657
     0.3347   0.3954   0.4531   0.5730   0.6595   0.8979   0.9624   1.0269
     1.1546   1.2801   1.3229   1.4106   1.4846   1.5167   1.5907   1.6493
     1.9592   2.0383   2.1174   2.1770   2.2545   2.2825   2.3407   2.4565
     2.5627   2.6320   2.6765   2.7769   2.8357   3.0185   3.0777   3.1850
     3.2067   3.2905   3.3618   3.4601   3.5481   3.6907   3.7605   3.8375
     3.9562   4.0333   4.1566   4.1737   4.3250   4.4663   4.7746   4.8489
     9.3322  11.2295  11.6886  11.9053  12.2437  12.8189  13.1517  13.2047
    13.4009  13.5638

     occupation numbers 
     1.0000   1.0000   1.0000   1.0000   1.0000   1.0000   1.0000   1.0000
     1.0000   1.0000   1.0000   1.0000   1.0000   1.0000   1.0000   1.0000
     1.0000   1.0000   1.0000   1.0000   1.0000   1.0000   1.0000   1.0000
     1.0000   1.0000   1.0000   1.0000   1.0000   1.0000   1.0000   1.0000
     1.0000   1.0000   1.0000   1.0000   1.0000   1.0000   1.0000   1.0000
     1.0000   1.0000   1.0000   1.0000   1.0000   1.0000   1.0000   1.0000
     1.0000   1.0000   1.0000   1.0000   1.0000   1.0000   1.0000   1.0000
     1.0000   1.0000   1.0000   1.0000   1.0000   1.0000   1.0000   1.0000
     1.0000   1.0000   1.0000   1.0000   1.0000   1.0000   1.0000   1.0000
     1.0000   1.0000   1.0000   1.0000   1.0000   1.0000   1.0000   1.0000
     1.0000   1.0000   1.0000   1.0000   1.0000   1.0000   1.0000   1.0000
     1.0000   1.0000   1.0000   1.0000   1.0000   1.0000   1.0000   1.0000
     1.0000   1.0000   1.0000   1.0000   1.0000   1.0000   1.0000   1.0000
     0.0000   0.0000   0.0000   0.0000   0.0000   0.0000   0.0000   0.0000
     0.0000   0.0000

          k = 0.0000 0.2391 0.4675 ( 36500 PWs)   bands (ev):

   -85.2737 -85.2397 -85.2299 -84.8564 -51.3828 -51.3467 -51.3330 -51.2253
   -51.2047 -51.1955 -51.1759 -51.1600 -51.1428 -51.1273 -50.8033 -50.6097
   -45.0894 -17.1227 -17.0787 -17.0373 -16.1557 -16.0273 -15.8406 -15.7730
   -13.8830 -13.8069 -13.7214 -13.6078 -13.5675 -13.5390 -13.4926 -13.4368
   -13.3684 -13.3422 -13.3093 -13.2117  -4.0457  -3.6615  -3.5501  -3.2202
    -2.1029  -1.8767  -1.8262  -1.6636  -1.4684  -1.4365  -1.2822  -1.0735
    -1.0103  -0.8687  -0.8318  -0.5388  -0.3404  -0.2404   0.2396   0.2882
     0.3620   0.3825   0.5384   0.5998   0.6665   0.8525   0.9381   1.0322
     1.0963   1.2678   1.3118   1.3453   1.4053   1.4923   1.5408   1.6475
     1.8331   1.9788   2.0927   2.1485   2.1960   2.2242   2.3907   2.4401
     2.5316   2.6759   2.7227   2.7771   2.8573   2.9076   3.0235   3.1159
     3.1930   3.2768   3.4165   3.4994   3.5542   3.7208   3.8108   3.8601
     4.0024   4.0717   4.1293   4.2229   4.3177   4.4696   4.7257   4.8010
     9.7165  11.4228  11.8043  11.9968  12.3454  12.6962  12.9649  13.1310
    13.2210  13.3408

     occupation numbers 
     1.0000   1.0000   1.0000   1.0000   1.0000   1.0000   1.0000   1.0000
     1.0000   1.0000   1.0000   1.0000   1.0000   1.0000   1.0000   1.0000
     1.0000   1.0000   1.0000   1.0000   1.0000   1.0000   1.0000   1.0000
     1.0000   1.0000   1.0000   1.0000   1.0000   1.0000   1.0000   1.0000
     1.0000   1.0000   1.0000   1.0000   1.0000   1.0000   1.0000   1.0000
     1.0000   1.0000   1.0000   1.0000   1.0000   1.0000   1.0000   1.0000
     1.0000   1.0000   1.0000   1.0000   1.0000   1.0000   1.0000   1.0000
     1.0000   1.0000   1.0000   1.0000   1.0000   1.0000   1.0000   1.0000
     1.0000   1.0000   1.0000   1.0000   1.0000   1.0000   1.0000   1.0000
     1.0000   1.0000   1.0000   1.0000   1.0000   1.0000   1.0000   1.0000
     1.0000   1.0000   1.0000   1.0000   1.0000   1.0000   1.0000   1.0000
     1.0000   1.0000   1.0000   1.0000   1.0000   1.0000   1.0000   1.0000
     1.0000   1.0000   1.0000   1.0000   1.0000   1.0000   1.0000   1.0000
     0.0000   0.0000   0.0000   0.0000   0.0000   0.0000   0.0000   0.0000
     0.0000   0.0000

          k = 0.0000 0.2391 0.7012 ( 36515 PWs)   bands (ev):

   -85.2737 -85.2397 -85.2299 -84.8564 -51.3828 -51.3467 -51.3330 -51.2253
   -51.2047 -51.1955 -51.1759 -51.1600 -51.1428 -51.1273 -50.8033 -50.6097
   -45.0894 -17.1278 -17.0887 -17.0361 -16.1094 -16.0028 -15.8210 -15.7643
   -13.9129 -13.8361 -13.7497 -13.6240 -13.5917 -13.5359 -13.4973 -13.4257
   -13.3750 -13.3440 -13.3195 -13.2228  -3.9482  -3.6703  -3.5280  -3.2885
    -1.9627  -1.8480  -1.7507  -1.6613  -1.4565  -1.4051  -1.2657  -1.0775
    -0.9630  -0.8700  -0.7192  -0.6566  -0.2396  -0.1608   0.2141   0.3207
     0.3491   0.4339   0.5866   0.6898   0.7234   0.8015   0.8660   1.0248
     1.0771   1.2061   1.2355   1.3255   1.3642   1.4424   1.4579   1.5603
     1.6575   1.8189   1.9725   2.1425   2.1611   2.3150   2.3510   2.5036
     2.5195   2.6699   2.6900   2.7693   2.7968   2.8579   2.9459   3.0941
     3.1699   3.2545   3.5259   3.5974   3.6586   3.7533   3.8268   3.8859
     4.0390   4.0904   4.1376   4.2387   4.3670   4.4714   4.6473   4.7222
    10.2493  11.6740  11.8079  12.1448  12.4440  12.6512  12.8096  12.9542
    13.0466  13.0931

     occupation numbers 
     1.0000   1.0000   1.0000   1.0000   1.0000   1.0000   1.0000   1.0000
     1.0000   1.0000   1.0000   1.0000   1.0000   1.0000   1.0000   1.0000
     1.0000   1.0000   1.0000   1.0000   1.0000   1.0000   1.0000   1.0000
     1.0000   1.0000   1.0000   1.0000   1.0000   1.0000   1.0000   1.0000
     1.0000   1.0000   1.0000   1.0000   1.0000   1.0000   1.0000   1.0000
     1.0000   1.0000   1.0000   1.0000   1.0000   1.0000   1.0000   1.0000
     1.0000   1.0000   1.0000   1.0000   1.0000   1.0000   1.0000   1.0000
     1.0000   1.0000   1.0000   1.0000   1.0000   1.0000   1.0000   1.0000
     1.0000   1.0000   1.0000   1.0000   1.0000   1.0000   1.0000   1.0000
     1.0000   1.0000   1.0000   1.0000   1.0000   1.0000   1.0000   1.0000
     1.0000   1.0000   1.0000   1.0000   1.0000   1.0000   1.0000   1.0000
     1.0000   1.0000   1.0000   1.0000   1.0000   1.0000   1.0000   1.0000
     1.0000   1.0000   1.0000   1.0000   1.0000   1.0000   1.0000   1.0000
     0.0000   0.0000   0.0000   0.0000   0.0000   0.0000   0.0000   0.0000
     0.0000   0.0000

          k = 0.0000 0.2391 0.9349 ( 36488 PWs)   bands (ev):

   -85.2737 -85.2397 -85.2299 -84.8564 -51.3828 -51.3467 -51.3330 -51.2253
   -51.2047 -51.1955 -51.1759 -51.1600 -51.1428 -51.1273 -50.8033 -50.6097
   -45.0894 -17.1332 -17.0928 -17.0354 -16.0766 -15.9865 -15.8071 -15.7616
   -13.9340 -13.8583 -13.7653 -13.6401 -13.6090 -13.5339 -13.4950 -13.4162
   -13.3811 -13.3465 -13.3218 -13.2312  -3.8474  -3.7102  -3.5016  -3.3548
    -1.8869  -1.8258  -1.6942  -1.6481  -1.4408  -1.3361  -1.2652  -1.1899
    -0.9130  -0.8190  -0.7516  -0.6254  -0.1121  -0.0013   0.1446   0.1972
     0.4408   0.5434   0.6058   0.6913   0.7291   0.7920   0.9002   0.9521
     1.0710   1.1083   1.1925   1.2557   1.2816   1.3581   1.4244   1.4969
     1.6862   1.7818   1.8515   2.0182   2.1777   2.2906   2.4155   2.4936
     2.5669   2.6171   2.6596   2.7322   2.7742   2.8276   2.9326   3.0810
     3.1619   3.2459   3.5750   3.7008   3.7504   3.8021   3.8438   3.9110
     4.0105   4.0738   4.1945   4.2786   4.4166   4.4642   4.5632   4.6430
    10.8349  11.4079  11.9844  12.3310  12.4120  12.5755  12.7806  12.9061
    12.9457  13.0842

     occupation numbers 
     1.0000   1.0000   1.0000   1.0000   1.0000   1.0000   1.0000   1.0000
     1.0000   1.0000   1.0000   1.0000   1.0000   1.0000   1.0000   1.0000
     1.0000   1.0000   1.0000   1.0000   1.0000   1.0000   1.0000   1.0000
     1.0000   1.0000   1.0000   1.0000   1.0000   1.0000   1.0000   1.0000
     1.0000   1.0000   1.0000   1.0000   1.0000   1.0000   1.0000   1.0000
     1.0000   1.0000   1.0000   1.0000   1.0000   1.0000   1.0000   1.0000
     1.0000   1.0000   1.0000   1.0000   1.0000   1.0000   1.0000   1.0000
     1.0000   1.0000   1.0000   1.0000   1.0000   1.0000   1.0000   1.0000
     1.0000   1.0000   1.0000   1.0000   1.0000   1.0000   1.0000   1.0000
     1.0000   1.0000   1.0000   1.0000   1.0000   1.0000   1.0000   1.0000
     1.0000   1.0000   1.0000   1.0000   1.0000   1.0000   1.0000   1.0000
     1.0000   1.0000   1.0000   1.0000   1.0000   1.0000   1.0000   1.0000
     1.0000   1.0000   1.0000   1.0000   1.0000   1.0000   1.0000   1.0000
     0.0000   0.0000   0.0000   0.0000   0.0000   0.0000   0.0000   0.0000
     0.0000   0.0000

          k = 0.0000 0.4781 0.0000 ( 36507 PWs)   bands (ev):

   -85.2737 -85.2397 -85.2299 -84.8564 -51.3828 -51.3467 -51.3330 -51.2253
   -51.2047 -51.1955 -51.1759 -51.1600 -51.1428 -51.1273 -50.8033 -50.6097
   -45.0894 -17.1200 -17.0606 -17.0414 -16.1674 -16.0501 -15.8692 -15.8196
   -13.8538 -13.7746 -13.6766 -13.6483 -13.5786 -13.5486 -13.4710 -13.4350
   -13.3513 -13.2995 -13.2897 -13.2025  -4.0648  -3.7387  -3.4982  -3.2024
    -2.1991  -1.9608  -1.8572  -1.6987  -1.4693  -1.3788  -1.2552  -1.1462
    -1.0125  -0.9096  -0.6908  -0.4937  -0.3831  -0.1824   0.1987   0.2672
     0.3352   0.3602   0.4018   0.4634   0.5194   0.8368   1.0735   1.1350
     1.1589   1.2177   1.2802   1.3069   1.3993   1.4770   1.5909   1.7236
     1.8960   2.0546   2.1490   2.1872   2.2800   2.3075   2.3498   2.4179
     2.5919   2.6302   2.6370   2.7278   2.8295   3.0062   3.0654   3.0977
     3.1537   3.2713   3.4982   3.5443   3.6314   3.6816   3.7491   3.8699
     3.9006   3.9814   4.1009   4.1459   4.2582   4.5702   4.8043   4.8545
     9.6119  11.3506  11.5458  11.8691  12.3666  12.8929  13.1277  13.2208
    13.5600  13.6491

     occupation numbers 
     1.0000   1.0000   1.0000   1.0000   1.0000   1.0000   1.0000   1.0000
     1.0000   1.0000   1.0000   1.0000   1.0000   1.0000   1.0000   1.0000
     1.0000   1.0000   1.0000   1.0000   1.0000   1.0000   1.0000   1.0000
     1.0000   1.0000   1.0000   1.0000   1.0000   1.0000   1.0000   1.0000
[...]
     atom   24 type  3   force =     0.00070632    0.00156167    0.00015198
     atom   25 type  3   force =    -0.00021834    0.00018540    0.00016191
     The non-local contrib.  to forces
     atom    1 type  2   force =     0.11009144   -0.03972092   -0.02142861
     atom    2 type  1   force =     0.06558298   -0.01588820    0.12556340
     atom    3 type  1   force =     0.03916716    0.00017066    0.10027950
     atom    4 type  1   force =    -0.20538739    0.04563670   -0.07430973
     atom    5 type  1   force =    -0.01964314   -0.00834932   -0.10535845
     atom    6 type  4   force =    -0.02727466   -0.00034533   -0.03846235
     atom    7 type  4   force =     0.04742412    0.00070000   -0.00961721
     atom    8 type  4   force =     0.00366766   -0.00478457    0.04042249
     atom    9 type  4   force =    -0.00181011    0.00115443    0.04529643
     atom   10 type  3   force =     0.30656178    0.01134040   -1.48875637
     atom   11 type  3   force =    -0.10252322    0.00858753   -1.41281541
     atom   12 type  3   force =    -0.39352572   -0.01506018    1.49049266
     atom   13 type  3   force =     0.23337196    0.01425761    1.49108466
     atom   14 type  3   force =     1.23698415    0.00826002   -0.60682621
     atom   15 type  3   force =    -1.21224505   -0.01115496   -0.77096412
     atom   16 type  3   force =    -1.21841928    0.02123329    0.30020224
     atom   17 type  3   force =     1.18541618    0.00539353    0.61685810
     atom   18 type  3   force =    -0.53152988   -1.10042952    0.77178039
     atom   19 type  3   force =     0.55526131    1.15190222    0.81632780
     atom   20 type  3   force =     0.58376947   -1.11676108   -0.69014879
     atom   21 type  3   force =    -0.60513972    1.06580687   -0.64265551
     atom   22 type  3   force =     0.53898434    1.10420772   -0.66516603
     atom   23 type  3   force =    -0.53455924   -1.07214466   -0.73128833
     atom   24 type  3   force =    -0.53420694    1.10640552    0.76663023
     atom   25 type  3   force =     0.52802404   -1.17670881    0.79527669
     The ionic contribution  to forces
     atom    1 type  2   force =    -3.36360116   -0.26260128    2.05251752
     atom    2 type  1   force =     0.03679503    0.09208524   -0.40082423
     atom    3 type  1   force =    -8.36559241   -0.33046433   -0.53260984
     atom    4 type  1   force =     3.56151385   -0.46041942   -0.20789370
     atom    5 type  1   force =     8.59625770    0.52659274    0.62996531
     atom    6 type  4   force =    -3.50486168    0.01818600    0.28408608
     atom    7 type  4   force =     0.70206605   -0.39948495    0.41915351
     atom    8 type  4   force =     5.16018462    0.02404540   -0.50459834
     atom    9 type  4   force =    -2.71647344    0.47043445   -0.69239543
     atom   10 type  3   force =   -10.22027836   -0.03952288    2.70360030
     atom   11 type  3   force =     3.89799312   -0.70844275    1.31179279
     atom   12 type  3   force =    12.19421236    0.15736619   -2.83068773
     atom   13 type  3   force =    -8.32490613    0.49675582   -2.22846835
     atom   14 type  3   force =     0.60025782    0.54574258    5.31197221
     atom   15 type  3   force =    -1.92971822    0.07547587    6.80832197
     atom   16 type  3   force =    -1.91334597   -0.93802191   -2.43782391
     atom   17 type  3   force =     3.56288313   -0.07277165   -5.98805052
     atom   18 type  3   force =    -4.09970490    2.68028070   -3.01792855
     atom   19 type  3   force =     1.10571177   -3.84483536   -2.81348629
     atom   20 type  3   force =     5.41563043    4.24617803    2.56453018
     atom   21 type  3   force =    -0.42982065   -1.10162337    0.60604588
     atom   22 type  3   force =     5.43240728   -4.16492342    2.25618843
     atom   23 type  3   force =    -1.94814114    1.57399946    2.06070076
     atom   24 type  3   force =    -4.21355837   -2.76521156   -2.97400455
     atom   25 type  3   force =     0.76408927    4.18118039   -2.38010352
     The local contribution  to forces
     atom    1 type  2   force =     3.25467250    0.30626324   -2.03119922
     atom    2 type  1   force =    -0.10426062   -0.07661597    0.27424589
     atom    3 type  1   force =     8.32608915    0.33014318    0.43210983
     atom    4 type  1   force =    -3.35649809    0.41443488    0.28529899
     atom    5 type  1   force =    -8.57580915   -0.51882132   -0.52477734
     atom    6 type  4   force =     3.53011943   -0.01803042   -0.24991665
     atom    7 type  4   force =    -0.74324805    0.39836358   -0.41067818
     atom    8 type  4   force =    -5.16712515   -0.02000841    0.46696800
     atom    9 type  4   force =     2.71892943   -0.47059697    0.65179058
     atom   10 type  3   force =     9.91792429    0.02799802   -1.22717403
     atom   11 type  3   force =    -3.79801039    0.69966550    0.09074663
     atom   12 type  3   force =   -11.80496000   -0.14287241    1.35308455
     atom   13 type  3   force =     8.09400323   -0.51073032    0.74976073
     atom   14 type  3   force =    -1.82787609   -0.55460415   -4.71005653
     atom   15 type  3   force =     3.13495657   -0.06428887   -6.04604258
     atom   16 type  3   force =     3.11805444    0.91687639    2.13980024
     atom   17 type  3   force =    -4.73871562    0.06726728    5.37685136
     atom   18 type  3   force =     4.62721525   -1.59098732    2.25351575
     atom   19 type  3   force =    -1.65660819    2.70185367    2.00501410
     atom   20 type  3   force =    -5.99406857   -3.13901217   -1.88243656
     atom   21 type  3   force =     1.02965046    0.04691480    0.03171868
     atom   22 type  3   force =    -5.96574735    3.06907884   -1.59892618
     atom   23 type  3   force =     2.47644768   -0.51123638   -1.33531502
     atom   24 type  3   force =     4.74383712    1.66996586    2.21449200
     atom   25 type  3   force =    -1.28781764   -3.01451504    1.59222146
     The core correction contribution to forces
     atom    1 type  2   force =     0.00000000    0.00000000    0.00000000
     atom    2 type  1   force =    -0.00090082    0.00014584   -0.00046188
     atom    3 type  1   force =     0.00003063   -0.00002352    0.00027375
     atom    4 type  1   force =     0.00385920   -0.00043992   -0.00080792
     atom    5 type  1   force =    -0.00006621    0.00008752    0.00032025
     atom    6 type  4   force =     0.00209932    0.00002889    0.00272900
     atom    7 type  4   force =    -0.00326776    0.00006280    0.00061437
     atom    8 type  4   force =    -0.00070134    0.00029525   -0.00271821
     atom    9 type  4   force =     0.00015247   -0.00035476   -0.00305190
     atom   10 type  3   force =    -0.00336224   -0.00010422    0.01300543
     atom   11 type  3   force =     0.00160592   -0.00006783    0.01219856
     atom   12 type  3   force =     0.00414726    0.00015398   -0.01297362
     atom   13 type  3   force =    -0.00272794   -0.00013285   -0.01298443
     atom   14 type  3   force =    -0.01044788   -0.00008353    0.00583650
     atom   15 type  3   force =     0.01024093    0.00010061    0.00727629
     atom   16 type  3   force =     0.01025112   -0.00016529   -0.00299507
     atom   17 type  3   force =    -0.01010433   -0.00004791   -0.00589327
     atom   18 type  3   force =     0.00460432    0.00953403   -0.00702407
     atom   19 type  3   force =    -0.00477420   -0.00994261   -0.00743603
     atom   20 type  3   force =    -0.00513085    0.00967864    0.00623934
     atom   21 type  3   force =     0.00525194   -0.00932070    0.00586025
     atom   22 type  3   force =    -0.00472356   -0.00956208    0.00600633
     atom   23 type  3   force =     0.00464719    0.00931486    0.00670119
     atom   24 type  3   force =     0.00463046   -0.00960049   -0.00696280
     atom   25 type  3   force =    -0.00451808    0.01022845   -0.00723402
     The Hubbard contrib.    to forces
     atom    1 type  2   force =     0.00000000    0.00000000    0.00000000
     atom    2 type  1   force =     0.00000000    0.00000000    0.00000000
     atom    3 type  1   force =     0.00000000    0.00000000    0.00000000
     atom    4 type  1   force =     0.00000000    0.00000000    0.00000000
     atom    5 type  1   force =     0.00000000    0.00000000    0.00000000
     atom    6 type  4   force =     0.00000000    0.00000000    0.00000000
     atom    7 type  4   force =     0.00000000    0.00000000    0.00000000
     atom    8 type  4   force =     0.00000000    0.00000000    0.00000000
     atom    9 type  4   force =     0.00000000    0.00000000    0.00000000
     atom   10 type  3   force =     0.00000000    0.00000000    0.00000000
     atom   11 type  3   force =     0.00000000    0.00000000    0.00000000
     atom   12 type  3   force =     0.00000000    0.00000000    0.00000000
     atom   13 type  3   force =     0.00000000    0.00000000    0.00000000
     atom   14 type  3   force =     0.00000000    0.00000000    0.00000000
     atom   15 type  3   force =     0.00000000    0.00000000    0.00000000
     atom   16 type  3   force =     0.00000000    0.00000000    0.00000000
     atom   17 type  3   force =     0.00000000    0.00000000    0.00000000
     atom   18 type  3   force =     0.00000000    0.00000000    0.00000000
     atom   19 type  3   force =     0.00000000    0.00000000    0.00000000
     atom   20 type  3   force =     0.00000000    0.00000000    0.00000000
     atom   21 type  3   force =     0.00000000    0.00000000    0.00000000
     atom   22 type  3   force =     0.00000000    0.00000000    0.00000000
     atom   23 type  3   force =     0.00000000    0.00000000    0.00000000
     atom   24 type  3   force =     0.00000000    0.00000000    0.00000000
     atom   25 type  3   force =     0.00000000    0.00000000    0.00000000
     The SCF correction term to forces
     atom    1 type  2   force =    -0.00000145   -0.00000048   -0.00000011
     atom    2 type  1   force =     0.00000993   -0.00000012    0.00000167
     atom    3 type  1   force =     0.00000900   -0.00000001    0.00000124
     atom    4 type  1   force =    -0.00001095    0.00000083   -0.00000068
     atom    5 type  1   force =    -0.00000987   -0.00000015   -0.00000134
     atom    6 type  4   force =     0.00000320   -0.00000003   -0.00000060
     atom    7 type  4   force =     0.00000156    0.00000001   -0.00000003
     atom    8 type  4   force =    -0.00000115    0.00000002    0.00000085
     atom    9 type  4   force =    -0.00000352   -0.00000000    0.00000001
     atom   10 type  3   force =     0.00000541    0.00000000    0.00000109
     atom   11 type  3   force =     0.00000339    0.00000001   -0.00000261
     atom   12 type  3   force =    -0.00000432   -0.00000007   -0.00000272
     atom   13 type  3   force =    -0.00000651   -0.00000015    0.00000299
     atom   14 type  3   force =    -0.00000189   -0.00000003   -0.00000119
     atom   15 type  3   force =    -0.00000034   -0.00000000    0.00000089
     atom   16 type  3   force =     0.00000085    0.00000009    0.00000092
     atom   17 type  3   force =     0.00000493    0.00000002   -0.00000089
     atom   18 type  3   force =     0.00000352   -0.00000237   -0.00000155
     atom   19 type  3   force =     0.00000354   -0.00000046    0.00000267
     atom   20 type  3   force =    -0.00000349   -0.00000559    0.00000345
     atom   21 type  3   force =    -0.00000532   -0.00000289   -0.00000350
     atom   22 type  3   force =    -0.00000335    0.00000576    0.00000350
     atom   23 type  3   force =    -0.00000518    0.00000307   -0.00000358
     atom   24 type  3   force =     0.00000355    0.00000233   -0.00000156
     atom   25 type  3   force =     0.00000356    0.00000040    0.00000264

     Total force =     0.011646     Total SCF correction =     0.000030


     Computing stress (Cartesian axis) and pressure


     negative rho (up, down):  0.000E+00 9.210E-04
          total   stress  (Ry/bohr**3)                   (kbar)     P=      -24.96
  -0.00030254   0.00000567  -0.00002258          -44.50        0.83       -3.32
   0.00000567  -0.00020409  -0.00001233            0.83      -30.02       -1.81
  -0.00002258  -0.00001233  -0.00000242           -3.32       -1.81       -0.36

     kinetic stress (kbar)  26381.44     -2.90    -10.46
                               -2.90  26616.38     -3.13
                              -10.46     -3.13  26429.50

     local   stress (kbar)  -4256.40   -943.33   1148.80
                             -943.33 -13805.09    347.22
                             1148.80    347.22  -8838.95

     nonloc. stress (kbar)  -6724.74     -1.19      0.11
                               -1.19  -6667.19      0.18
                                0.11      0.18  -6677.54

     hartree stress (kbar)  12381.90    380.18   -469.16
                              380.18  17704.14   -135.99
                             -469.16   -135.99  15051.50

     exc-cor stress (kbar)  -2797.60      0.59     -0.82
                                0.59  -2805.25     -0.27
                               -0.82     -0.27  -2802.31

     corecor stress (kbar)  -3115.12     -0.16      0.96
                               -0.16  -3114.44      0.04
                                0.96      0.04  -3115.94

     ewald   stress (kbar) -21913.98    567.64   -672.75
                              567.64 -17958.58   -209.85
                             -672.75   -209.85 -20046.62

     hubbard stress (kbar)      0.00      0.00      0.00
                                0.00      0.00      0.00
                                0.00      0.00      0.00

     DFT-D   stress (kbar)      0.00      0.00      0.00
                                0.00      0.00      0.00
                                0.00      0.00      0.00

     XDM     stress (kbar)      0.00      0.00      0.00
                                0.00      0.00      0.00
                                0.00      0.00      0.00

     dft-nl  stress (kbar)      0.00      0.00      0.00
                                0.00      0.00      0.00
                                0.00      0.00      0.00

     TS-vdW  stress (kbar)      0.00      0.00      0.00
                                0.00      0.00      0.00
                                0.00      0.00      0.00



     init_run     :    212.78s CPU    218.11s WALL (       1 calls)
     electrons    :  19247.46s CPU  19516.09s WALL (       1 calls)
     forces       :    132.07s CPU    134.79s WALL (       1 calls)
     stress       :   1103.43s CPU   1111.61s WALL (       1 calls)

     Called by init_run:
     wfcinit      :    201.69s CPU    206.05s WALL (       1 calls)
     wfcinit:atom :      3.86s CPU      3.96s WALL (     316 calls)
     wfcinit:wfcr :    186.90s CPU    190.93s WALL (     316 calls)
     potinit      :      4.14s CPU      4.28s WALL (       1 calls)
     hinit0       :      3.60s CPU      3.72s WALL (       1 calls)

     Called by electrons:
     c_bands      :  17296.69s CPU  17489.46s WALL (      32 calls)
     sum_band     :   1841.34s CPU   1892.49s WALL (      32 calls)
     v_of_rho     :     33.28s CPU     34.76s WALL (      33 calls)
     v_h          :      1.47s CPU      1.56s WALL (      33 calls)
     v_xc         :     33.70s CPU     35.16s WALL (      35 calls)
     newd         :     51.45s CPU     74.73s WALL (      33 calls)
     PAW_pot      :     15.54s CPU     15.60s WALL (      33 calls)
     mix_rho      :      8.99s CPU      9.29s WALL (      32 calls)

     Called by c_bands:
     init_us_2    :    308.75s CPU    316.34s WALL (   21172 calls)
     cegterg      :  16787.78s CPU  16968.32s WALL (   10112 calls)

     Called by sum_band:
     sum_band:wei :      0.57s CPU      0.57s WALL (      32 calls)
     sum_band:loo :   1687.17s CPU   1709.61s WALL (      32 calls)
     sum_band:buf :     74.10s CPU     75.76s WALL (   10112 calls)
     sum_band:ini :    148.82s CPU    152.07s WALL (   10112 calls)
     sum_band:cal :    771.88s CPU    781.46s WALL (   10112 calls)
     sum_band:bec :      8.66s CPU      8.82s WALL (   10112 calls)
     addusdens    :    147.72s CPU    176.15s WALL (      32 calls)
     addusd:skk   :      0.98s CPU      1.03s WALL (      96 calls)
     addusd:dgemm :     65.08s CPU     86.73s WALL (     192 calls)
     addusd:qvan2 :     79.64s CPU     80.60s WALL (     192 calls)

     Called by *egterg:
     cdiaghg      :    961.98s CPU    987.22s WALL (   40004 calls)
     cegterg:over :   1581.14s CPU   1609.12s WALL (   29892 calls)
     cegterg:upda :    834.88s CPU    840.08s WALL (   29892 calls)
     cegterg:last :   1788.92s CPU   1800.00s WALL (   17746 calls)
     h_psi        :   8719.74s CPU   8806.02s WALL (   40320 calls)
     s_psi        :   1930.57s CPU   1942.56s WALL (   40320 calls)
     g_psi        :     17.12s CPU     17.36s WALL (   29892 calls)

     Called by h_psi:
     h_psi:calbec :   2078.26s CPU   2104.38s WALL (   40320 calls)
     vloc_psi     :   4441.45s CPU   4483.56s WALL (   40320 calls)
     add_vuspsi   :   2024.19s CPU   2036.81s WALL (   40320 calls)

     General routines
     calbec       :   2965.75s CPU   3003.24s WALL (   52012 calls)
     fft          :     30.38s CPU     32.33s WALL (     863 calls)
     ffts         :      0.57s CPU      0.72s WALL (     130 calls)
     fftw         :   4862.54s CPU   4908.98s WALL ( 6309006 calls)
     interpolate  :      2.36s CPU      2.56s WALL (      66 calls)

     Parallel routines
     fft_scatt_xy :    298.86s CPU    302.11s WALL ( 6309999 calls)
     fft_scatt_yz :   2642.31s CPU   2667.56s WALL ( 6309999 calls)

     PAW routines
     PAW_pot      :     15.54s CPU     15.60s WALL (      33 calls)

     PWSCF        :      5h44m CPU      5h49m WALL


   This run was terminated on:  10:34:20  14Dec2022            

=------------------------------------------------------------------------------=
   JOB DONE.
=------------------------------------------------------------------------------=
Note: The following floating-point exceptions are signalling: IEEE_UNDERFLOW_FLAG IEEE_DENORMAL
Note: The following floating-point exceptions are signalling: IEEE_INVALID_FLAG IEEE_DENORMAL
Note: The following floating-point exceptions are signalling: IEEE_DENORMAL
Note: The following floating-point exceptions are signalling: IEEE_DENORMAL
Note: The following floating-point exceptions are signalling: IEEE_DENORMAL
Note: The following floating-point exceptions are signalling: IEEE_DENORMAL
Note: The following floating-point exceptions are signalling: IEEE_DENORMAL
Note: The following floating-point exceptions are signalling: IEEE_DENORMAL
Note: The following floating-point exceptions are signalling: IEEE_DENORMAL
Note: The following floating-point exceptions are signalling: IEEE_DENORMAL
Note: The following floating-point exceptions are signalling: IEEE_DENORMAL
Note: The following floating-point exceptions are signalling: IEEE_DENORMAL
Note: The following floating-point exceptions are signalling: IEEE_DENORMAL
Note: The following floating-point exceptions are signalling: IEEE_DENORMAL
Note: The following floating-point exceptions are signalling: IEEE_DENORMAL
Note: The following floating-point exceptions are signalling: IEEE_DENORMAL
Note: The following floating-point exceptions are signalling: IEEE_DENORMAL
Note: The following floating-point exceptions are signalling: IEEE_DENORMAL
Note: The following floating-point exceptions are signalling: IEEE_DENORMAL
Note: The following floating-point exceptions are signalling: IEEE_DENORMAL
Note: The following floating-point exceptions are signalling: IEEE_DENORMAL
Note: The following floating-point exceptions are signalling: IEEE_DENORMAL
Note: The following floating-point exceptions are signalling: IEEE_DENORMAL
Note: The following floating-point exceptions are signalling: IEEE_DENORMAL
