
     Program PWSCF v.6.7MaX starts on 18Dec2022 at 15: 0:54 

     This program is part of the open-source Quantum ESPRESSO suite
     for quantum simulation of materials; please cite
         "P. Giannozzi et al., J. Phys.:Condens. Matter 21 395502 (2009);
         "P. Giannozzi et al., J. Phys.:Condens. Matter 29 465901 (2017);
          URL http://www.quantum-espresso.org", 
     in publications or presentations arising from this work. More details at
     http://www.quantum-espresso.org/quote

     Parallel version (MPI), running on    24 processors

     MPI processes distributed on     1 nodes
     R & G space division:  proc/nbgrp/npool/nimage =      24
     Reading input from scale_2dab-01.in

     Current dimensions of program PWSCF are:
     Max number of different atomic species (ntypx) = 10
     Max number of k-points (npk) =  40000
     Max angular momentum in pseudopotentials (lmaxx) =  3
     Message from routine read_pp_mesh:
     mesh size missing, using the one in header
     file Fe.pbe-spn-kjpaw_psl.0.2.1.UPF: wavefunction(s)  3D renormalized
     file O.pbe-n-kjpaw_psl.0.1.UPF: wavefunction(s)  2P renormalized

     Subspace diagonalization in iterative solution of the eigenvalue problem:
     a serial algorithm will be used


     Parallelization info
     --------------------
     sticks:   dense  smooth     PW     G-vecs:    dense   smooth      PW
     Min         773     287     77                50417    11365    1601
     Max         774     288     78                50419    11367    1604
     Sum       18565    6893   1859              1210029   272791   38441



     bravais-lattice index     =            0
     lattice parameter (alat)  =      19.0096  a.u.
     unit-cell volume          =    2018.7343 (a.u.)^3
     number of atoms/cell      =           25
     number of atomic types    =            4
     number of electrons       =       189.00
     number of Kohn-Sham states=          114
     kinetic-energy cutoff     =     100.0000  Ry
     charge density cutoff     =    1080.0000  Ry
     scf convergence threshold =      2.0E-10
     mixing beta               =       0.4000
     number of iterations used =            8  plain     mixing
     Exchange-correlation= PBE
                           (   1   4   3   4   0   0   0)

     celldm(1)=  19.009555  celldm(2)=   0.000000  celldm(3)=   0.000000
     celldm(4)=   0.000000  celldm(5)=   0.000000  celldm(6)=   0.000000

     crystal axes: (cart. coord. in units of alat)
               a(1) = (   1.000000   0.000000   0.000000 )  
               a(2) = (   0.000000   0.597590   0.000000 )  
               a(3) = (   0.000000   0.000000   0.491768 )  

     reciprocal axes: (cart. coord. in units 2 pi/alat)
               b(1) = (  1.000000  0.000000  0.000000 )  
               b(2) = (  0.000000  1.673388  0.000000 )  
               b(3) = (  0.000000  0.000000  2.033480 )  


     PseudoPot. # 1 for Fe read from file:
     /opt/QEpot/SSSP_precision_pseudos/Fe.pbe-spn-kjpaw_psl.0.2.1.UPF
     MD5 check sum: e86618425769142926afa95317d90200
     Pseudo is Projector augmented-wave + core cor, Zval = 16.0
     Generated using "atomic" code by A. Dal Corso  v.5.0.99 svn rev. 10869
     Shape of augmentation charge: PSQ
     Using radial grid of 1191 points,  6 beta functions with: 
                l(1) =   0
                l(2) =   0
                l(3) =   1
                l(4) =   1
                l(5) =   2
                l(6) =   2
     Q(r) pseudized with 0 coefficients 


     PseudoPot. # 2 for Na read from file:
     /opt/QEpot/SSSP_precision_pseudos/Na_ONCV_PBE-1.0.oncvpsp.upf
     MD5 check sum: 24a298df0a6742ae313db96548fdb2a4
     Pseudo is Norm-conserving, Zval =  9.0
     Generated using ONCVPSP code by D. R. Hamann
     Using radial grid of 1992 points,  4 beta functions with: 
                l(1) =   0
                l(2) =   0
                l(3) =   1
                l(4) =   1

     PseudoPot. # 3 for O  read from file:
     /opt/QEpot/SSSP_precision_pseudos/O.pbe-n-kjpaw_psl.0.1.UPF
     MD5 check sum: 0234752ac141de4415c5fc33072bef88
     Pseudo is Projector augmented-wave + core cor, Zval =  6.0
     Generated using "atomic" code by A. Dal Corso  v.5.0.99 svn rev. 10869
     Shape of augmentation charge: BESSEL
     Using radial grid of 1095 points,  4 beta functions with: 
                l(1) =   0
                l(2) =   0
                l(3) =   1
                l(4) =   1
     Q(r) pseudized with 0 coefficients 


     PseudoPot. # 4 for P  read from file:
     /opt/QEpot/SSSP_precision_pseudos/P.pbe-n-rrkjus_psl.1.0.0.UPF
     MD5 check sum: 8b930f418f0a4573dca56cd030ffe088
     Pseudo is Ultrasoft + core correction, Zval =  5.0
     Generated using "atomic" code by A. Dal Corso  v.5.1
     Using radial grid of 1147 points,  6 beta functions with: 
                l(1) =   0
                l(2) =   0
                l(3) =   1
                l(4) =   1
                l(5) =   2
                l(6) =   2
     Q(r) pseudized with 0 coefficients 


     atomic species   valence    mass     pseudopotential
        Fe            16.00    55.84500     Fe( 1.00)
        Na             9.00    22.98977     Na( 1.00)
        O              6.00    15.99940     O ( 1.00)
        P              5.00    30.97376     P ( 1.00)

     Starting magnetic structure 
     atomic species   magnetization
        Fe           0.312
        Na           0.000
        O            0.000
        P            0.000

     No symmetry found


                                    s                        frac. trans.

      isym =  1     identity                                     

 cryst.   s( 1) = (     1          0          0      )
                  (     0          1          0      )
                  (     0          0          1      )

 cart.    s( 1) = (  1.0000000  0.0000000  0.0000000 )
                  (  0.0000000  1.0000000  0.0000000 )
                  (  0.0000000  0.0000000  1.0000000 )


   Cartesian axes

     site n.     atom                  positions (alat units)
         1           Na  tau(   1) = (   0.5528950   0.1816649   0.2223459  )
         2           Fe  tau(   2) = (   0.2772550   0.4474831   0.4876531  )
         3           Fe  tau(   3) = (   0.2104810   0.1484055   0.2412381  )
         4           Fe  tau(   4) = (   0.7295180   0.1450148   0.0008035  )
         5           Fe  tau(   5) = (   0.7815080   0.4486902   0.2525832  )
         6           P   tau(   6) = (   0.1053980   0.4473522   0.2183154  )
         7           P   tau(   7) = (   0.3872650   0.1471894   0.4633357  )
         8           P   tau(   8) = (   0.8920080   0.1491136   0.2738350  )
         9           P   tau(   9) = (   0.6044490   0.4481387   0.0314348  )
        10           O   tau(  10) = (   0.1314730   0.4467319   0.3692768  )
        11           O   tau(  11) = (   0.3628330   0.1487252   0.1229410  )
        12           O   tau(  12) = (   0.8713170   0.1488501   0.1222471  )
        13           O   tau(  13) = (   0.6316830   0.4463345   0.3724836  )
        14           O   tau(  14) = (   0.4581640   0.4466889   0.0590146  )
        15           O   tau(  15) = (   0.0360600   0.1496383   0.3083994  )
        16           O   tau(  16) = (   0.5359580   0.1477206   0.4409839  )
        17           O   tau(  17) = (   0.9586070   0.4472710   0.1922256  )
        18           O   tau(  18) = (   0.1741780   0.5643627   0.1477344  )
        19           O   tau(  19) = (   0.3202340   0.0308392   0.3923249  )
        20           O   tau(  20) = (   0.8164520   0.2635844   0.3420663  )
        21           O   tau(  21) = (   0.6734540   0.3313254   0.1038751  )
        22           O   tau(  22) = (   0.8184930   0.0329726   0.3422590  )
        23           O   tau(  23) = (   0.6734880   0.5654175   0.1027957  )
        24           O   tau(  24) = (   0.1746990   0.3310278   0.1470017  )
        25           O   tau(  25) = (   0.3222050   0.2638628   0.3899605  )

   Crystallographic axes

     site n.     atom                  positions (cryst. coord.)
         1           Na  tau(   1) = (  0.5528950  0.3039960  0.4521360  )
         2           Fe  tau(   2) = (  0.2772550  0.7488130  0.9916330  )
         3           Fe  tau(   3) = (  0.2104810  0.2483400  0.4905530  )
         4           Fe  tau(   4) = (  0.7295180  0.2426660  0.0016340  )
         5           Fe  tau(   5) = (  0.7815080  0.7508330  0.5136230  )
         6           P   tau(   6) = (  0.1053980  0.7485940  0.4439400  )
         7           P   tau(   7) = (  0.3872650  0.2463050  0.9421840  )
         8           P   tau(   8) = (  0.8920080  0.2495250  0.5568380  )
         9           P   tau(   9) = (  0.6044490  0.7499100  0.0639220  )
        10           O   tau(  10) = (  0.1314730  0.7475560  0.7509170  )
        11           O   tau(  11) = (  0.3628330  0.2488750  0.2499980  )
        12           O   tau(  12) = (  0.8713170  0.2490840  0.2485870  )
        13           O   tau(  13) = (  0.6316830  0.7468910  0.7574380  )
        14           O   tau(  14) = (  0.4581640  0.7474840  0.1200050  )
        15           O   tau(  15) = (  0.0360600  0.2504030  0.6271240  )
        16           O   tau(  16) = (  0.5359580  0.2471940  0.8967320  )
        17           O   tau(  17) = (  0.9586070  0.7484580  0.3908870  )
        18           O   tau(  18) = (  0.1741780  0.9443980  0.3004150  )
        19           O   tau(  19) = (  0.3202340  0.0516060  0.7977850  )
        20           O   tau(  20) = (  0.8164520  0.4410790  0.6955850  )
        21           O   tau(  21) = (  0.6734540  0.5544360  0.2112280  )
        22           O   tau(  22) = (  0.8184930  0.0551760  0.6959770  )
        23           O   tau(  23) = (  0.6734880  0.9461630  0.2090330  )
        24           O   tau(  24) = (  0.1746990  0.5539380  0.2989250  )
        25           O   tau(  25) = (  0.3222050  0.4415450  0.7929770  )

     number of k points=   158  Marzari-Vanderbilt smearing, width (Ry)=  0.0073
                       cart. coord. in units 2pi/alat
        k(    1) = (   0.0000000   0.0000000   0.0000000), wk =   0.0031746
        k(    2) = (   0.0000000   0.0000000   0.2259422), wk =   0.0063492
        k(    3) = (   0.0000000   0.0000000   0.4518845), wk =   0.0063492
        k(    4) = (   0.0000000   0.0000000   0.6778267), wk =   0.0063492
        k(    5) = (   0.0000000   0.0000000   0.9037690), wk =   0.0063492
        k(    6) = (   0.0000000   0.2390555   0.0000000), wk =   0.0063492
        k(    7) = (   0.0000000   0.2390555   0.2259422), wk =   0.0063492
        k(    8) = (   0.0000000   0.2390555   0.4518845), wk =   0.0063492
        k(    9) = (   0.0000000   0.2390555   0.6778267), wk =   0.0063492
        k(   10) = (   0.0000000   0.2390555   0.9037690), wk =   0.0063492
        k(   11) = (   0.0000000   0.4781110   0.0000000), wk =   0.0063492
        k(   12) = (   0.0000000   0.4781110   0.2259422), wk =   0.0063492
        k(   13) = (   0.0000000   0.4781110   0.4518845), wk =   0.0063492
        k(   14) = (   0.0000000   0.4781110   0.6778267), wk =   0.0063492
        k(   15) = (   0.0000000   0.4781110   0.9037690), wk =   0.0063492
        k(   16) = (   0.0000000   0.7171664   0.0000000), wk =   0.0063492
        k(   17) = (   0.0000000   0.7171664   0.2259422), wk =   0.0063492
        k(   18) = (   0.0000000   0.7171664   0.4518845), wk =   0.0063492
        k(   19) = (   0.0000000   0.7171664   0.6778267), wk =   0.0063492
        k(   20) = (   0.0000000   0.7171664   0.9037690), wk =   0.0063492
        k(   21) = (   0.2000000   0.0000000   0.0000000), wk =   0.0063492
        k(   22) = (   0.2000000   0.0000000   0.2259422), wk =   0.0063492
        k(   23) = (   0.2000000   0.0000000   0.4518845), wk =   0.0063492
        k(   24) = (   0.2000000   0.0000000   0.6778267), wk =   0.0063492
        k(   25) = (   0.2000000   0.0000000   0.9037690), wk =   0.0063492
        k(   26) = (   0.2000000   0.2390555   0.0000000), wk =   0.0063492
        k(   27) = (   0.2000000   0.2390555   0.2259422), wk =   0.0063492
        k(   28) = (   0.2000000   0.2390555   0.4518845), wk =   0.0063492
        k(   29) = (   0.2000000   0.2390555   0.6778267), wk =   0.0063492
        k(   30) = (   0.2000000   0.2390555   0.9037690), wk =   0.0063492
        k(   31) = (   0.2000000   0.4781110   0.0000000), wk =   0.0063492
        k(   32) = (   0.2000000   0.4781110   0.2259422), wk =   0.0063492
        k(   33) = (   0.2000000   0.4781110   0.4518845), wk =   0.0063492
        k(   34) = (   0.2000000   0.4781110   0.6778267), wk =   0.0063492
        k(   35) = (   0.2000000   0.4781110   0.9037690), wk =   0.0063492
        k(   36) = (   0.2000000   0.7171664   0.0000000), wk =   0.0063492
        k(   37) = (   0.2000000   0.7171664   0.2259422), wk =   0.0063492
        k(   38) = (   0.2000000   0.7171664   0.4518845), wk =   0.0063492
        k(   39) = (   0.2000000   0.7171664   0.6778267), wk =   0.0063492
        k(   40) = (   0.2000000   0.7171664   0.9037690), wk =   0.0063492
        k(   41) = (   0.4000000   0.0000000   0.0000000), wk =   0.0063492
        k(   42) = (   0.4000000   0.0000000   0.2259422), wk =   0.0063492
        k(   43) = (   0.4000000   0.0000000   0.4518845), wk =   0.0063492
        k(   44) = (   0.4000000   0.0000000   0.6778267), wk =   0.0063492
        k(   45) = (   0.4000000   0.0000000   0.9037690), wk =   0.0063492
        k(   46) = (   0.4000000   0.2390555   0.0000000), wk =   0.0063492
        k(   47) = (   0.4000000   0.2390555   0.2259422), wk =   0.0063492
        k(   48) = (   0.4000000   0.2390555   0.4518845), wk =   0.0063492
        k(   49) = (   0.4000000   0.2390555   0.6778267), wk =   0.0063492
        k(   50) = (   0.4000000   0.2390555   0.9037690), wk =   0.0063492
        k(   51) = (   0.4000000   0.4781110   0.0000000), wk =   0.0063492
        k(   52) = (   0.4000000   0.4781110   0.2259422), wk =   0.0063492
        k(   53) = (   0.4000000   0.4781110   0.4518845), wk =   0.0063492
        k(   54) = (   0.4000000   0.4781110   0.6778267), wk =   0.0063492
        k(   55) = (   0.4000000   0.4781110   0.9037690), wk =   0.0063492
        k(   56) = (   0.4000000   0.7171664   0.0000000), wk =   0.0063492
        k(   57) = (   0.4000000   0.7171664   0.2259422), wk =   0.0063492
        k(   58) = (   0.4000000   0.7171664   0.4518845), wk =   0.0063492
        k(   59) = (   0.4000000   0.7171664   0.6778267), wk =   0.0063492
        k(   60) = (   0.4000000   0.7171664   0.9037690), wk =   0.0063492
        k(   61) = (   0.0000000  -0.2390555   0.2259422), wk =   0.0063492
        k(   62) = (   0.0000000  -0.2390555   0.4518845), wk =   0.0063492
        k(   63) = (   0.0000000  -0.2390555   0.6778267), wk =   0.0063492
        k(   64) = (   0.0000000  -0.2390555   0.9037690), wk =   0.0063492
        k(   65) = (   0.0000000  -0.4781110   0.2259422), wk =   0.0063492
        k(   66) = (   0.0000000  -0.4781110   0.4518845), wk =   0.0063492
        k(   67) = (   0.0000000  -0.4781110   0.6778267), wk =   0.0063492
        k(   68) = (   0.0000000  -0.4781110   0.9037690), wk =   0.0063492
        k(   69) = (   0.0000000  -0.7171664   0.2259422), wk =   0.0063492
        k(   70) = (   0.0000000  -0.7171664   0.4518845), wk =   0.0063492
        k(   71) = (   0.0000000  -0.7171664   0.6778267), wk =   0.0063492
        k(   72) = (   0.0000000  -0.7171664   0.9037690), wk =   0.0063492
        k(   73) = (  -0.2000000   0.0000000   0.2259422), wk =   0.0063492
        k(   74) = (  -0.2000000   0.0000000   0.4518845), wk =   0.0063492
        k(   75) = (  -0.2000000   0.0000000   0.6778267), wk =   0.0063492
        k(   76) = (  -0.2000000   0.0000000   0.9037690), wk =   0.0063492
        k(   77) = (  -0.2000000   0.2390555   0.0000000), wk =   0.0063492
        k(   78) = (  -0.2000000  -0.2390555   0.2259422), wk =   0.0063492
        k(   79) = (  -0.2000000   0.2390555  -0.2259422), wk =   0.0063492
        k(   80) = (   0.2000000  -0.2390555  -0.2259422), wk =   0.0063492
        k(   81) = (  -0.2000000  -0.2390555   0.4518845), wk =   0.0063492
        k(   82) = (  -0.2000000   0.2390555  -0.4518845), wk =   0.0063492
        k(   83) = (   0.2000000  -0.2390555  -0.4518845), wk =   0.0063492
        k(   84) = (  -0.2000000  -0.2390555   0.6778267), wk =   0.0063492
        k(   85) = (  -0.2000000   0.2390555  -0.6778267), wk =   0.0063492
        k(   86) = (   0.2000000  -0.2390555  -0.6778267), wk =   0.0063492
        k(   87) = (  -0.2000000  -0.2390555   0.9037690), wk =   0.0063492
        k(   88) = (  -0.2000000   0.2390555  -0.9037690), wk =   0.0063492
        k(   89) = (   0.2000000  -0.2390555  -0.9037690), wk =   0.0063492
        k(   90) = (  -0.2000000   0.4781110   0.0000000), wk =   0.0063492
        k(   91) = (  -0.2000000  -0.4781110   0.2259422), wk =   0.0063492
        k(   92) = (  -0.2000000   0.4781110  -0.2259422), wk =   0.0063492
        k(   93) = (   0.2000000  -0.4781110  -0.2259422), wk =   0.0063492
        k(   94) = (  -0.2000000  -0.4781110   0.4518845), wk =   0.0063492
        k(   95) = (  -0.2000000   0.4781110  -0.4518845), wk =   0.0063492
        k(   96) = (   0.2000000  -0.4781110  -0.4518845), wk =   0.0063492
        k(   97) = (  -0.2000000  -0.4781110   0.6778267), wk =   0.0063492
        k(   98) = (  -0.2000000   0.4781110  -0.6778267), wk =   0.0063492
        k(   99) = (   0.2000000  -0.4781110  -0.6778267), wk =   0.0063492
        k(  100) = (  -0.2000000  -0.4781110   0.9037690), wk =   0.0063492
        k(  101) = (  -0.2000000   0.4781110  -0.9037690), wk =   0.0063492
        k(  102) = (   0.2000000  -0.4781110  -0.9037690), wk =   0.0063492
        k(  103) = (  -0.2000000   0.7171664   0.0000000), wk =   0.0063492
        k(  104) = (  -0.2000000  -0.7171664   0.2259422), wk =   0.0063492
        k(  105) = (  -0.2000000   0.7171664  -0.2259422), wk =   0.0063492
        k(  106) = (   0.2000000  -0.7171664  -0.2259422), wk =   0.0063492
        k(  107) = (  -0.2000000  -0.7171664   0.4518845), wk =   0.0063492
        k(  108) = (  -0.2000000   0.7171664  -0.4518845), wk =   0.0063492
        k(  109) = (   0.2000000  -0.7171664  -0.4518845), wk =   0.0063492
        k(  110) = (  -0.2000000  -0.7171664   0.6778267), wk =   0.0063492
        k(  111) = (  -0.2000000   0.7171664  -0.6778267), wk =   0.0063492
        k(  112) = (   0.2000000  -0.7171664  -0.6778267), wk =   0.0063492
        k(  113) = (  -0.2000000  -0.7171664   0.9037690), wk =   0.0063492
        k(  114) = (  -0.2000000   0.7171664  -0.9037690), wk =   0.0063492
        k(  115) = (   0.2000000  -0.7171664  -0.9037690), wk =   0.0063492
        k(  116) = (  -0.4000000   0.0000000   0.2259422), wk =   0.0063492
        k(  117) = (  -0.4000000   0.0000000   0.4518845), wk =   0.0063492
        k(  118) = (  -0.4000000   0.0000000   0.6778267), wk =   0.0063492
        k(  119) = (  -0.4000000   0.0000000   0.9037690), wk =   0.0063492
        k(  120) = (  -0.4000000   0.2390555   0.0000000), wk =   0.0063492
        k(  121) = (  -0.4000000  -0.2390555   0.2259422), wk =   0.0063492
        k(  122) = (  -0.4000000   0.2390555  -0.2259422), wk =   0.0063492
        k(  123) = (   0.4000000  -0.2390555  -0.2259422), wk =   0.0063492
        k(  124) = (  -0.4000000  -0.2390555   0.4518845), wk =   0.0063492
        k(  125) = (  -0.4000000   0.2390555  -0.4518845), wk =   0.0063492
        k(  126) = (   0.4000000  -0.2390555  -0.4518845), wk =   0.0063492
        k(  127) = (  -0.4000000  -0.2390555   0.6778267), wk =   0.0063492
        k(  128) = (  -0.4000000   0.2390555  -0.6778267), wk =   0.0063492
        k(  129) = (   0.4000000  -0.2390555  -0.6778267), wk =   0.0063492
        k(  130) = (  -0.4000000  -0.2390555   0.9037690), wk =   0.0063492
        k(  131) = (  -0.4000000   0.2390555  -0.9037690), wk =   0.0063492
        k(  132) = (   0.4000000  -0.2390555  -0.9037690), wk =   0.0063492
        k(  133) = (  -0.4000000   0.4781110   0.0000000), wk =   0.0063492
        k(  134) = (  -0.4000000  -0.4781110   0.2259422), wk =   0.0063492
        k(  135) = (  -0.4000000   0.4781110  -0.2259422), wk =   0.0063492
        k(  136) = (   0.4000000  -0.4781110  -0.2259422), wk =   0.0063492
        k(  137) = (  -0.4000000  -0.4781110   0.4518845), wk =   0.0063492
        k(  138) = (  -0.4000000   0.4781110  -0.4518845), wk =   0.0063492
        k(  139) = (   0.4000000  -0.4781110  -0.4518845), wk =   0.0063492
        k(  140) = (  -0.4000000  -0.4781110   0.6778267), wk =   0.0063492
        k(  141) = (  -0.4000000   0.4781110  -0.6778267), wk =   0.0063492
        k(  142) = (   0.4000000  -0.4781110  -0.6778267), wk =   0.0063492
        k(  143) = (  -0.4000000  -0.4781110   0.9037690), wk =   0.0063492
        k(  144) = (  -0.4000000   0.4781110  -0.9037690), wk =   0.0063492
        k(  145) = (   0.4000000  -0.4781110  -0.9037690), wk =   0.0063492
        k(  146) = (  -0.4000000   0.7171664   0.0000000), wk =   0.0063492
        k(  147) = (  -0.4000000  -0.7171664   0.2259422), wk =   0.0063492
        k(  148) = (  -0.4000000   0.7171664  -0.2259422), wk =   0.0063492
        k(  149) = (   0.4000000  -0.7171664  -0.2259422), wk =   0.0063492
        k(  150) = (  -0.4000000  -0.7171664   0.4518845), wk =   0.0063492
        k(  151) = (  -0.4000000   0.7171664  -0.4518845), wk =   0.0063492
        k(  152) = (   0.4000000  -0.7171664  -0.4518845), wk =   0.0063492
        k(  153) = (  -0.4000000  -0.7171664   0.6778267), wk =   0.0063492
        k(  154) = (  -0.4000000   0.7171664  -0.6778267), wk =   0.0063492
        k(  155) = (   0.4000000  -0.7171664  -0.6778267), wk =   0.0063492
        k(  156) = (  -0.4000000  -0.7171664   0.9037690), wk =   0.0063492
        k(  157) = (  -0.4000000   0.7171664  -0.9037690), wk =   0.0063492
        k(  158) = (   0.4000000  -0.7171664  -0.9037690), wk =   0.0063492

                       cryst. coord.
        k(    1) = (   0.0000000   0.0000000   0.0000000), wk =   0.0031746
        k(    2) = (   0.0000000   0.0000000   0.1111111), wk =   0.0063492
        k(    3) = (   0.0000000   0.0000000   0.2222222), wk =   0.0063492
        k(    4) = (   0.0000000   0.0000000   0.3333333), wk =   0.0063492
        k(    5) = (   0.0000000   0.0000000   0.4444444), wk =   0.0063492
        k(    6) = (   0.0000000   0.1428571   0.0000000), wk =   0.0063492
        k(    7) = (   0.0000000   0.1428571   0.1111111), wk =   0.0063492
        k(    8) = (   0.0000000   0.1428571   0.2222222), wk =   0.0063492
        k(    9) = (   0.0000000   0.1428571   0.3333333), wk =   0.0063492
        k(   10) = (   0.0000000   0.1428571   0.4444444), wk =   0.0063492
        k(   11) = (   0.0000000   0.2857143   0.0000000), wk =   0.0063492
        k(   12) = (   0.0000000   0.2857143   0.1111111), wk =   0.0063492
        k(   13) = (   0.0000000   0.2857143   0.2222222), wk =   0.0063492
        k(   14) = (   0.0000000   0.2857143   0.3333333), wk =   0.0063492
        k(   15) = (   0.0000000   0.2857143   0.4444444), wk =   0.0063492
        k(   16) = (   0.0000000   0.4285714   0.0000000), wk =   0.0063492
        k(   17) = (   0.0000000   0.4285714   0.1111111), wk =   0.0063492
        k(   18) = (   0.0000000   0.4285714   0.2222222), wk =   0.0063492
        k(   19) = (   0.0000000   0.4285714   0.3333333), wk =   0.0063492
        k(   20) = (   0.0000000   0.4285714   0.4444444), wk =   0.0063492
        k(   21) = (   0.2000000   0.0000000   0.0000000), wk =   0.0063492
        k(   22) = (   0.2000000   0.0000000   0.1111111), wk =   0.0063492
        k(   23) = (   0.2000000   0.0000000   0.2222222), wk =   0.0063492
        k(   24) = (   0.2000000   0.0000000   0.3333333), wk =   0.0063492
        k(   25) = (   0.2000000   0.0000000   0.4444444), wk =   0.0063492
        k(   26) = (   0.2000000   0.1428571   0.0000000), wk =   0.0063492
        k(   27) = (   0.2000000   0.1428571   0.1111111), wk =   0.0063492
        k(   28) = (   0.2000000   0.1428571   0.2222222), wk =   0.0063492
        k(   29) = (   0.2000000   0.1428571   0.3333333), wk =   0.0063492
        k(   30) = (   0.2000000   0.1428571   0.4444444), wk =   0.0063492
        k(   31) = (   0.2000000   0.2857143   0.0000000), wk =   0.0063492
        k(   32) = (   0.2000000   0.2857143   0.1111111), wk =   0.0063492
        k(   33) = (   0.2000000   0.2857143   0.2222222), wk =   0.0063492
        k(   34) = (   0.2000000   0.2857143   0.3333333), wk =   0.0063492
        k(   35) = (   0.2000000   0.2857143   0.4444444), wk =   0.0063492
        k(   36) = (   0.2000000   0.4285714   0.0000000), wk =   0.0063492
        k(   37) = (   0.2000000   0.4285714   0.1111111), wk =   0.0063492
        k(   38) = (   0.2000000   0.4285714   0.2222222), wk =   0.0063492
        k(   39) = (   0.2000000   0.4285714   0.3333333), wk =   0.0063492
        k(   40) = (   0.2000000   0.4285714   0.4444444), wk =   0.0063492
        k(   41) = (   0.4000000   0.0000000   0.0000000), wk =   0.0063492
        k(   42) = (   0.4000000   0.0000000   0.1111111), wk =   0.0063492
        k(   43) = (   0.4000000   0.0000000   0.2222222), wk =   0.0063492
        k(   44) = (   0.4000000   0.0000000   0.3333333), wk =   0.0063492
        k(   45) = (   0.4000000   0.0000000   0.4444444), wk =   0.0063492
        k(   46) = (   0.4000000   0.1428571   0.0000000), wk =   0.0063492
        k(   47) = (   0.4000000   0.1428571   0.1111111), wk =   0.0063492
        k(   48) = (   0.4000000   0.1428571   0.2222222), wk =   0.0063492
        k(   49) = (   0.4000000   0.1428571   0.3333333), wk =   0.0063492
        k(   50) = (   0.4000000   0.1428571   0.4444444), wk =   0.0063492
        k(   51) = (   0.4000000   0.2857143   0.0000000), wk =   0.0063492
        k(   52) = (   0.4000000   0.2857143   0.1111111), wk =   0.0063492
        k(   53) = (   0.4000000   0.2857143   0.2222222), wk =   0.0063492
        k(   54) = (   0.4000000   0.2857143   0.3333333), wk =   0.0063492
        k(   55) = (   0.4000000   0.2857143   0.4444444), wk =   0.0063492
        k(   56) = (   0.4000000   0.4285714   0.0000000), wk =   0.0063492
        k(   57) = (   0.4000000   0.4285714   0.1111111), wk =   0.0063492
        k(   58) = (   0.4000000   0.4285714   0.2222222), wk =   0.0063492
        k(   59) = (   0.4000000   0.4285714   0.3333333), wk =   0.0063492
        k(   60) = (   0.4000000   0.4285714   0.4444444), wk =   0.0063492
        k(   61) = (   0.0000000  -0.1428571   0.1111111), wk =   0.0063492
        k(   62) = (   0.0000000  -0.1428571   0.2222222), wk =   0.0063492
        k(   63) = (   0.0000000  -0.1428571   0.3333333), wk =   0.0063492
        k(   64) = (   0.0000000  -0.1428571   0.4444444), wk =   0.0063492
        k(   65) = (   0.0000000  -0.2857143   0.1111111), wk =   0.0063492
        k(   66) = (   0.0000000  -0.2857143   0.2222222), wk =   0.0063492
        k(   67) = (   0.0000000  -0.2857143   0.3333333), wk =   0.0063492
        k(   68) = (   0.0000000  -0.2857143   0.4444444), wk =   0.0063492
        k(   69) = (   0.0000000  -0.4285714   0.1111111), wk =   0.0063492
        k(   70) = (   0.0000000  -0.4285714   0.2222222), wk =   0.0063492
        k(   71) = (   0.0000000  -0.4285714   0.3333333), wk =   0.0063492
        k(   72) = (   0.0000000  -0.4285714   0.4444444), wk =   0.0063492
        k(   73) = (  -0.2000000   0.0000000   0.1111111), wk =   0.0063492
        k(   74) = (  -0.2000000   0.0000000   0.2222222), wk =   0.0063492
        k(   75) = (  -0.2000000   0.0000000   0.3333333), wk =   0.0063492
        k(   76) = (  -0.2000000   0.0000000   0.4444444), wk =   0.0063492
        k(   77) = (  -0.2000000   0.1428571   0.0000000), wk =   0.0063492
        k(   78) = (  -0.2000000  -0.1428571   0.1111111), wk =   0.0063492
        k(   79) = (  -0.2000000   0.1428571  -0.1111111), wk =   0.0063492
        k(   80) = (   0.2000000  -0.1428571  -0.1111111), wk =   0.0063492
        k(   81) = (  -0.2000000  -0.1428571   0.2222222), wk =   0.0063492
        k(   82) = (  -0.2000000   0.1428571  -0.2222222), wk =   0.0063492
        k(   83) = (   0.2000000  -0.1428571  -0.2222222), wk =   0.0063492
        k(   84) = (  -0.2000000  -0.1428571   0.3333333), wk =   0.0063492
        k(   85) = (  -0.2000000   0.1428571  -0.3333333), wk =   0.0063492
        k(   86) = (   0.2000000  -0.1428571  -0.3333333), wk =   0.0063492
        k(   87) = (  -0.2000000  -0.1428571   0.4444444), wk =   0.0063492
        k(   88) = (  -0.2000000   0.1428571  -0.4444444), wk =   0.0063492
        k(   89) = (   0.2000000  -0.1428571  -0.4444444), wk =   0.0063492
        k(   90) = (  -0.2000000   0.2857143   0.0000000), wk =   0.0063492
        k(   91) = (  -0.2000000  -0.2857143   0.1111111), wk =   0.0063492
        k(   92) = (  -0.2000000   0.2857143  -0.1111111), wk =   0.0063492
        k(   93) = (   0.2000000  -0.2857143  -0.1111111), wk =   0.0063492
        k(   94) = (  -0.2000000  -0.2857143   0.2222222), wk =   0.0063492
        k(   95) = (  -0.2000000   0.2857143  -0.2222222), wk =   0.0063492
        k(   96) = (   0.2000000  -0.2857143  -0.2222222), wk =   0.0063492
        k(   97) = (  -0.2000000  -0.2857143   0.3333333), wk =   0.0063492
        k(   98) = (  -0.2000000   0.2857143  -0.3333333), wk =   0.0063492
        k(   99) = (   0.2000000  -0.2857143  -0.3333333), wk =   0.0063492
        k(  100) = (  -0.2000000  -0.2857143   0.4444444), wk =   0.0063492
        k(  101) = (  -0.2000000   0.2857143  -0.4444444), wk =   0.0063492
        k(  102) = (   0.2000000  -0.2857143  -0.4444444), wk =   0.0063492
        k(  103) = (  -0.2000000   0.4285714   0.0000000), wk =   0.0063492
        k(  104) = (  -0.2000000  -0.4285714   0.1111111), wk =   0.0063492
        k(  105) = (  -0.2000000   0.4285714  -0.1111111), wk =   0.0063492
        k(  106) = (   0.2000000  -0.4285714  -0.1111111), wk =   0.0063492
        k(  107) = (  -0.2000000  -0.4285714   0.2222222), wk =   0.0063492
        k(  108) = (  -0.2000000   0.4285714  -0.2222222), wk =   0.0063492
        k(  109) = (   0.2000000  -0.4285714  -0.2222222), wk =   0.0063492
        k(  110) = (  -0.2000000  -0.4285714   0.3333333), wk =   0.0063492
        k(  111) = (  -0.2000000   0.4285714  -0.3333333), wk =   0.0063492
        k(  112) = (   0.2000000  -0.4285714  -0.3333333), wk =   0.0063492
        k(  113) = (  -0.2000000  -0.4285714   0.4444444), wk =   0.0063492
        k(  114) = (  -0.2000000   0.4285714  -0.4444444), wk =   0.0063492
        k(  115) = (   0.2000000  -0.4285714  -0.4444444), wk =   0.0063492
        k(  116) = (  -0.4000000   0.0000000   0.1111111), wk =   0.0063492
        k(  117) = (  -0.4000000   0.0000000   0.2222222), wk =   0.0063492
        k(  118) = (  -0.4000000   0.0000000   0.3333333), wk =   0.0063492
        k(  119) = (  -0.4000000   0.0000000   0.4444444), wk =   0.0063492
        k(  120) = (  -0.4000000   0.1428571   0.0000000), wk =   0.0063492
        k(  121) = (  -0.4000000  -0.1428571   0.1111111), wk =   0.0063492
        k(  122) = (  -0.4000000   0.1428571  -0.1111111), wk =   0.0063492
        k(  123) = (   0.4000000  -0.1428571  -0.1111111), wk =   0.0063492
        k(  124) = (  -0.4000000  -0.1428571   0.2222222), wk =   0.0063492
        k(  125) = (  -0.4000000   0.1428571  -0.2222222), wk =   0.0063492
        k(  126) = (   0.4000000  -0.1428571  -0.2222222), wk =   0.0063492
        k(  127) = (  -0.4000000  -0.1428571   0.3333333), wk =   0.0063492
        k(  128) = (  -0.4000000   0.1428571  -0.3333333), wk =   0.0063492
        k(  129) = (   0.4000000  -0.1428571  -0.3333333), wk =   0.0063492
        k(  130) = (  -0.4000000  -0.1428571   0.4444444), wk =   0.0063492
        k(  131) = (  -0.4000000   0.1428571  -0.4444444), wk =   0.0063492
        k(  132) = (   0.4000000  -0.1428571  -0.4444444), wk =   0.0063492
        k(  133) = (  -0.4000000   0.2857143   0.0000000), wk =   0.0063492
        k(  134) = (  -0.4000000  -0.2857143   0.1111111), wk =   0.0063492
        k(  135) = (  -0.4000000   0.2857143  -0.1111111), wk =   0.0063492
        k(  136) = (   0.4000000  -0.2857143  -0.1111111), wk =   0.0063492
        k(  137) = (  -0.4000000  -0.2857143   0.2222222), wk =   0.0063492
        k(  138) = (  -0.4000000   0.2857143  -0.2222222), wk =   0.0063492
        k(  139) = (   0.4000000  -0.2857143  -0.2222222), wk =   0.0063492
        k(  140) = (  -0.4000000  -0.2857143   0.3333333), wk =   0.0063492
        k(  141) = (  -0.4000000   0.2857143  -0.3333333), wk =   0.0063492
        k(  142) = (   0.4000000  -0.2857143  -0.3333333), wk =   0.0063492
        k(  143) = (  -0.4000000  -0.2857143   0.4444444), wk =   0.0063492
        k(  144) = (  -0.4000000   0.2857143  -0.4444444), wk =   0.0063492
        k(  145) = (   0.4000000  -0.2857143  -0.4444444), wk =   0.0063492
        k(  146) = (  -0.4000000   0.4285714   0.0000000), wk =   0.0063492
        k(  147) = (  -0.4000000  -0.4285714   0.1111111), wk =   0.0063492
        k(  148) = (  -0.4000000   0.4285714  -0.1111111), wk =   0.0063492
        k(  149) = (   0.4000000  -0.4285714  -0.1111111), wk =   0.0063492
        k(  150) = (  -0.4000000  -0.4285714   0.2222222), wk =   0.0063492
        k(  151) = (  -0.4000000   0.4285714  -0.2222222), wk =   0.0063492
        k(  152) = (   0.4000000  -0.4285714  -0.2222222), wk =   0.0063492
        k(  153) = (  -0.4000000  -0.4285714   0.3333333), wk =   0.0063492
        k(  154) = (  -0.4000000   0.4285714  -0.3333333), wk =   0.0063492
        k(  155) = (   0.4000000  -0.4285714  -0.3333333), wk =   0.0063492
        k(  156) = (  -0.4000000  -0.4285714   0.4444444), wk =   0.0063492
        k(  157) = (  -0.4000000   0.4285714  -0.4444444), wk =   0.0063492
        k(  158) = (   0.4000000  -0.4285714  -0.4444444), wk =   0.0063492

     Dense  grid:  1210029 G-vectors     FFT dimensions: ( 200, 120, 100)

     Smooth grid:   272791 G-vectors     FFT dimensions: ( 125,  75,  60)

     Dynamical RAM for                 wfc:       2.47 MB

     Dynamical RAM for     wfc (w. buffer):     783.02 MB

     Dynamical RAM for           str. fact:       3.08 MB

     Dynamical RAM for           local pot:       0.00 MB

     Dynamical RAM for          nlocal pot:       6.07 MB

     Dynamical RAM for                qrad:      10.54 MB

     Dynamical RAM for          rho,v,vnew:      10.11 MB

     Dynamical RAM for               rhoin:       3.37 MB

     Dynamical RAM for            rho*nmix:      24.62 MB

     Dynamical RAM for           G-vectors:       2.97 MB

     Dynamical RAM for          h,s,v(r/c):       2.38 MB

     Dynamical RAM for          <psi|beta>:       0.49 MB

     Dynamical RAM for                 psi:       4.94 MB

     Dynamical RAM for                hpsi:       4.94 MB

     Dynamical RAM for                spsi:       4.94 MB

     Dynamical RAM for      wfcinit/wfcrot:       6.37 MB

     Dynamical RAM for           addusdens:     156.17 MB

     Dynamical RAM for          addusforce:     179.38 MB

     Dynamical RAM for         addusstress:     155.79 MB

     Estimated static dynamical RAM per process >     853.12 MB

     Estimated max dynamical RAM per process >       1.01 GB

     Estimated total dynamical RAM >      24.20 GB

     Check: negative core charge=   -0.000003
     Generating pointlists ...
     new r_m :   0.0770 (alat units)  1.4643 (a.u.) for type    1
     new r_m :   0.0895 (alat units)  1.7016 (a.u.) for type    2
     new r_m :   0.0611 (alat units)  1.1616 (a.u.) for type    3
     new r_m :   0.0611 (alat units)  1.1616 (a.u.) for type    4

     Initial potential from superposition of free atoms

     starting charge  188.99132, renormalised to  189.00000
     Starting wfcs are  137 randomized atomic wfcs
     Checking if some PAW data can be deallocated... 
       PAW data deallocated on   20 nodes for type:  1
       PAW data deallocated on    8 nodes for type:  3

     total cpu time spent up to now is      174.3 secs

     Self-consistent Calculation

     iteration #  1     ecut=   100.00 Ry     beta= 0.40
     Davidson diagonalization with overlap
     ethr =  1.00E-02,  avg # of iterations =  3.2

     negative rho (up, down):  0.000E+00 1.203E-04

     total cpu time spent up to now is      751.2 secs

     total energy              =   -2123.93590329 Ry
     estimated scf accuracy    <       6.90638695 Ry

     total magnetization       =    19.00 Bohr mag/cell
     absolute magnetization    =    19.00 Bohr mag/cell

     iteration #  2     ecut=   100.00 Ry     beta= 0.40
     Davidson diagonalization with overlap
     ethr =  3.65E-03,  avg # of iterations =  2.0

     negative rho (up, down):  0.000E+00 7.659E-05

     total cpu time spent up to now is     1253.2 secs

     total energy              =   -2120.85417271 Ry
     estimated scf accuracy    <      43.75964744 Ry

     total magnetization       =     7.37 Bohr mag/cell
     absolute magnetization    =     8.75 Bohr mag/cell

     iteration #  3     ecut=   100.00 Ry     beta= 0.40
     Davidson diagonalization with overlap
     ethr =  3.65E-03,  avg # of iterations =  2.9

     negative rho (up, down):  0.000E+00 4.593E-05

     total cpu time spent up to now is     1701.0 secs

     total energy              =   -2123.53882865 Ry
     estimated scf accuracy    <      59.63749910 Ry

     total magnetization       =     3.23 Bohr mag/cell
     absolute magnetization    =     7.44 Bohr mag/cell

     iteration #  4     ecut=   100.00 Ry     beta= 0.40
     Davidson diagonalization with overlap
     ethr =  3.65E-03,  avg # of iterations =  1.6

     negative rho (up, down):  0.000E+00 4.118E-05

     total cpu time spent up to now is     2090.8 secs

     total energy              =   -2124.53199520 Ry
     estimated scf accuracy    <      29.66224895 Ry

     total magnetization       =     9.00 Bohr mag/cell
     absolute magnetization    =     9.41 Bohr mag/cell

     iteration #  5     ecut=   100.00 Ry     beta= 0.40
     Davidson diagonalization with overlap
     ethr =  3.65E-03,  avg # of iterations =  1.9

     negative rho (up, down):  0.000E+00 1.503E-04

     total cpu time spent up to now is     2504.7 secs

     total energy              =   -2125.96661230 Ry
     estimated scf accuracy    <       1.60001084 Ry

     total magnetization       =    19.03 Bohr mag/cell
     absolute magnetization    =    19.03 Bohr mag/cell

     iteration #  6     ecut=   100.00 Ry     beta= 0.40
     Davidson diagonalization with overlap
     ethr =  8.47E-04,  avg # of iterations =  2.0

     negative rho (up, down):  0.000E+00 2.601E-04

     total cpu time spent up to now is     2922.2 secs

     total energy              =   -2126.05634111 Ry
     estimated scf accuracy    <       0.45780392 Ry

     total magnetization       =    19.00 Bohr mag/cell
     absolute magnetization    =    19.00 Bohr mag/cell

     iteration #  7     ecut=   100.00 Ry     beta= 0.40
     Davidson diagonalization with overlap
     ethr =  2.42E-04,  avg # of iterations =  4.5

     negative rho (up, down):  0.000E+00 3.744E-04

     total cpu time spent up to now is     3375.7 secs

     total energy              =   -2126.06414045 Ry
     estimated scf accuracy    <       0.20776109 Ry

     total magnetization       =    19.00 Bohr mag/cell
     absolute magnetization    =    19.00 Bohr mag/cell

     iteration #  8     ecut=   100.00 Ry     beta= 0.40
     Davidson diagonalization with overlap
     c_bands:  1 eigenvalues not converged
     ethr =  1.10E-04,  avg # of iterations =  9.4

     negative rho (up, down):  0.000E+00 4.856E-04

     total cpu time spent up to now is     3954.9 secs

     total energy              =   -2126.06316433 Ry
     estimated scf accuracy    <       0.24519090 Ry

     total magnetization       =    19.00 Bohr mag/cell
     absolute magnetization    =    19.01 Bohr mag/cell

     iteration #  9     ecut=   100.00 Ry     beta= 0.40
     Davidson diagonalization with overlap
     ethr =  1.10E-04,  avg # of iterations =  1.9

     negative rho (up, down):  0.000E+00 6.787E-04

     total cpu time spent up to now is     4339.9 secs

     total energy              =   -2126.08476312 Ry
     estimated scf accuracy    <       0.07947060 Ry

     total magnetization       =    19.00 Bohr mag/cell
     absolute magnetization    =    19.01 Bohr mag/cell

     iteration # 10     ecut=   100.00 Ry     beta= 0.40
     Davidson diagonalization with overlap
     c_bands:  1 eigenvalues not converged
     c_bands:  1 eigenvalues not converged
     c_bands:  1 eigenvalues not converged
     c_bands:  1 eigenvalues not converged
     c_bands:  1 eigenvalues not converged
     c_bands:  1 eigenvalues not converged
     c_bands:  1 eigenvalues not converged
     c_bands:  2 eigenvalues not converged
     c_bands:  1 eigenvalues not converged
     ethr =  4.20E-05,  avg # of iterations =  6.4

     negative rho (up, down):  0.000E+00 8.796E-04

     total cpu time spent up to now is     4845.6 secs

     total energy              =   -2126.09042382 Ry
     estimated scf accuracy    <       0.00789455 Ry

     total magnetization       =    19.00 Bohr mag/cell
     absolute magnetization    =    19.02 Bohr mag/cell

     iteration # 11     ecut=   100.00 Ry     beta= 0.40
     Davidson diagonalization with overlap
     c_bands:  1 eigenvalues not converged
     c_bands:  1 eigenvalues not converged
     c_bands:  1 eigenvalues not converged
     c_bands:  1 eigenvalues not converged
     c_bands:  1 eigenvalues not converged
     c_bands:  1 eigenvalues not converged
     c_bands:  1 eigenvalues not converged
     c_bands:  1 eigenvalues not converged
     c_bands:  1 eigenvalues not converged
     c_bands:  1 eigenvalues not converged
     c_bands:  2 eigenvalues not converged
     c_bands:  1 eigenvalues not converged
     c_bands:  1 eigenvalues not converged
     c_bands:  1 eigenvalues not converged
     c_bands:  1 eigenvalues not converged
     c_bands:  1 eigenvalues not converged
     c_bands:  1 eigenvalues not converged
     c_bands:  1 eigenvalues not converged
     c_bands:  1 eigenvalues not converged
     c_bands:  1 eigenvalues not converged
     c_bands:  1 eigenvalues not converged
     c_bands:  1 eigenvalues not converged
     c_bands:  1 eigenvalues not converged
     c_bands:  1 eigenvalues not converged
     c_bands:  2 eigenvalues not converged
     c_bands:  1 eigenvalues not converged
     c_bands:  1 eigenvalues not converged
     c_bands:  1 eigenvalues not converged
     c_bands:  1 eigenvalues not converged
     c_bands:  1 eigenvalues not converged
     c_bands:  1 eigenvalues not converged
     ethr =  4.18E-06,  avg # of iterations = 14.8

     negative rho (up, down):  0.000E+00 9.095E-04

     total cpu time spent up to now is     5864.7 secs

     total energy              =   -2126.09307548 Ry
     estimated scf accuracy    <       0.02342992 Ry

     total magnetization       =    19.00 Bohr mag/cell
     absolute magnetization    =    19.03 Bohr mag/cell

     iteration # 12     ecut=   100.00 Ry     beta= 0.40
     Davidson diagonalization with overlap
     c_bands:  1 eigenvalues not converged
     ethr =  4.18E-06,  avg # of iterations =  1.4

     negative rho (up, down):  0.000E+00 9.031E-04

     total cpu time spent up to now is     6226.3 secs

     total energy              =   -2126.09314273 Ry
     estimated scf accuracy    <       0.00285332 Ry

     total magnetization       =    19.00 Bohr mag/cell
     absolute magnetization    =    19.04 Bohr mag/cell

     iteration # 13     ecut=   100.00 Ry     beta= 0.40
     Davidson diagonalization with overlap
     c_bands:  1 eigenvalues not converged
     c_bands:  1 eigenvalues not converged
     c_bands:  1 eigenvalues not converged
     c_bands:  1 eigenvalues not converged
     ethr =  1.51E-06,  avg # of iterations =  2.6

     negative rho (up, down):  0.000E+00 9.146E-04

     total cpu time spent up to now is     6647.7 secs

     total energy              =   -2126.09334146 Ry
     estimated scf accuracy    <       0.04329760 Ry

     total magnetization       =    19.00 Bohr mag/cell
     absolute magnetization    =    19.04 Bohr mag/cell

     iteration # 14     ecut=   100.00 Ry     beta= 0.40
     Davidson diagonalization with overlap
     ethr =  1.51E-06,  avg # of iterations =  1.0

     negative rho (up, down):  0.000E+00 9.173E-04

     total cpu time spent up to now is     7001.5 secs

     total energy              =   -2126.09357608 Ry
     estimated scf accuracy    <       0.00587576 Ry

     total magnetization       =    19.00 Bohr mag/cell
     absolute magnetization    =    19.04 Bohr mag/cell

     iteration # 15     ecut=   100.00 Ry     beta= 0.40
     Davidson diagonalization with overlap
     ethr =  1.51E-06,  avg # of iterations =  1.0

     negative rho (up, down):  0.000E+00 9.126E-04

     total cpu time spent up to now is     7356.3 secs

     total energy              =   -2126.09364303 Ry
     estimated scf accuracy    <       0.00058037 Ry

     total magnetization       =    19.00 Bohr mag/cell
     absolute magnetization    =    19.04 Bohr mag/cell

     iteration # 16     ecut=   100.00 Ry     beta= 0.40
     Davidson diagonalization with overlap
     ethr =  3.07E-07,  avg # of iterations =  1.0

     negative rho (up, down):  0.000E+00 9.108E-04

     total cpu time spent up to now is     7710.4 secs

     total energy              =   -2126.09365821 Ry
     estimated scf accuracy    <       0.00017690 Ry

     total magnetization       =    19.00 Bohr mag/cell
     absolute magnetization    =    19.04 Bohr mag/cell

     iteration # 17     ecut=   100.00 Ry     beta= 0.40
     Davidson diagonalization with overlap
     ethr =  9.36E-08,  avg # of iterations =  1.5

     negative rho (up, down):  0.000E+00 9.073E-04

     total cpu time spent up to now is     8089.2 secs

     total energy              =   -2126.09366486 Ry
     estimated scf accuracy    <       0.00009031 Ry

     total magnetization       =    19.00 Bohr mag/cell
     absolute magnetization    =    19.04 Bohr mag/cell

     iteration # 18     ecut=   100.00 Ry     beta= 0.40
     Davidson diagonalization with overlap
     ethr =  4.78E-08,  avg # of iterations =  1.3

     negative rho (up, down):  0.000E+00 9.077E-04

     total cpu time spent up to now is     8464.1 secs

     total energy              =   -2126.09366973 Ry
     estimated scf accuracy    <       0.00001050 Ry

     total magnetization       =    19.00 Bohr mag/cell
     absolute magnetization    =    19.04 Bohr mag/cell

     iteration # 19     ecut=   100.00 Ry     beta= 0.40
     Davidson diagonalization with overlap
     ethr =  5.56E-09,  avg # of iterations =  4.8

     negative rho (up, down):  0.000E+00 9.071E-04

     total cpu time spent up to now is     9178.4 secs

     total energy              =   -2126.09367540 Ry
     estimated scf accuracy    <       0.00000282 Ry

     total magnetization       =    19.00 Bohr mag/cell
     absolute magnetization    =    19.04 Bohr mag/cell

     iteration # 20     ecut=   100.00 Ry     beta= 0.40
     Davidson diagonalization with overlap
     ethr =  1.49E-09,  avg # of iterations =  1.2

     negative rho (up, down):  0.000E+00 9.068E-04

     total cpu time spent up to now is     9547.3 secs

     total energy              =   -2126.09367580 Ry
     estimated scf accuracy    <       0.00000130 Ry

     total magnetization       =    19.00 Bohr mag/cell
     absolute magnetization    =    19.04 Bohr mag/cell

     iteration # 21     ecut=   100.00 Ry     beta= 0.40
     Davidson diagonalization with overlap
     ethr =  6.90E-10,  avg # of iterations =  2.0

     negative rho (up, down):  0.000E+00 9.070E-04

     total cpu time spent up to now is     9967.1 secs

     total energy              =   -2126.09367604 Ry
     estimated scf accuracy    <       0.00000030 Ry

     total magnetization       =    19.00 Bohr mag/cell
     absolute magnetization    =    19.04 Bohr mag/cell

     iteration # 22     ecut=   100.00 Ry     beta= 0.40
     Davidson diagonalization with overlap
     ethr =  1.60E-10,  avg # of iterations =  2.7

     negative rho (up, down):  0.000E+00 9.070E-04

     total cpu time spent up to now is    10415.5 secs

     total energy              =   -2126.09367611 Ry
     estimated scf accuracy    <       0.00000016 Ry

     total magnetization       =    19.00 Bohr mag/cell
     absolute magnetization    =    19.04 Bohr mag/cell

     iteration # 23     ecut=   100.00 Ry     beta= 0.40
     Davidson diagonalization with overlap
     ethr =  8.24E-11,  avg # of iterations =  2.2

     negative rho (up, down):  0.000E+00 9.071E-04

     total cpu time spent up to now is    10866.6 secs

     total energy              =   -2126.09367617 Ry
     estimated scf accuracy    <       0.00000004 Ry

     total magnetization       =    19.00 Bohr mag/cell
     absolute magnetization    =    19.04 Bohr mag/cell

     iteration # 24     ecut=   100.00 Ry     beta= 0.40
     Davidson diagonalization with overlap
     ethr =  2.02E-11,  avg # of iterations =  4.0

     negative rho (up, down):  0.000E+00 9.070E-04

     total cpu time spent up to now is    11410.0 secs

     total energy              =   -2126.09367618 Ry
     estimated scf accuracy    <       0.00000003 Ry

     total magnetization       =    19.00 Bohr mag/cell
     absolute magnetization    =    19.04 Bohr mag/cell

     iteration # 25     ecut=   100.00 Ry     beta= 0.40
     Davidson diagonalization with overlap
     ethr =  1.75E-11,  avg # of iterations =  2.0

     negative rho (up, down):  0.000E+00 9.070E-04

     total cpu time spent up to now is    11840.7 secs

     total energy              =   -2126.09367619 Ry
     estimated scf accuracy    <       0.00000001 Ry

     total magnetization       =    19.00 Bohr mag/cell
     absolute magnetization    =    19.04 Bohr mag/cell

     iteration # 26     ecut=   100.00 Ry     beta= 0.40
     Davidson diagonalization with overlap
     ethr =  6.04E-12,  avg # of iterations =  2.1

     negative rho (up, down):  0.000E+00 9.070E-04

     total cpu time spent up to now is    12276.1 secs

     total energy              =   -2126.09367620 Ry
     estimated scf accuracy    <          8.6E-09 Ry

     total magnetization       =    19.00 Bohr mag/cell
     absolute magnetization    =    19.04 Bohr mag/cell

     iteration # 27     ecut=   100.00 Ry     beta= 0.40
     Davidson diagonalization with overlap
     ethr =  4.55E-12,  avg # of iterations =  2.0

     negative rho (up, down):  0.000E+00 9.070E-04

     total cpu time spent up to now is    12704.1 secs

     total energy              =   -2126.09367620 Ry
     estimated scf accuracy    <       0.00000003 Ry

     total magnetization       =    19.00 Bohr mag/cell
     absolute magnetization    =    19.04 Bohr mag/cell

     iteration # 28     ecut=   100.00 Ry     beta= 0.40
     Davidson diagonalization with overlap
     ethr =  4.55E-12,  avg # of iterations =  2.0

     negative rho (up, down):  0.000E+00 9.070E-04

     total cpu time spent up to now is    13135.5 secs

     total energy              =   -2126.09367620 Ry
     estimated scf accuracy    <          4.3E-09 Ry

     total magnetization       =    19.00 Bohr mag/cell
     absolute magnetization    =    19.04 Bohr mag/cell

     iteration # 29     ecut=   100.00 Ry     beta= 0.40
     Davidson diagonalization with overlap
     ethr =  2.27E-12,  avg # of iterations =  1.6

     negative rho (up, down):  0.000E+00 9.070E-04

     total cpu time spent up to now is    13523.1 secs

     total energy              =   -2126.09367620 Ry
     estimated scf accuracy    <          1.3E-09 Ry

     total magnetization       =    19.00 Bohr mag/cell
     absolute magnetization    =    19.04 Bohr mag/cell

     iteration # 30     ecut=   100.00 Ry     beta= 0.40
     Davidson diagonalization with overlap
     ethr =  6.98E-13,  avg # of iterations =  2.7

     negative rho (up, down):  0.000E+00 9.070E-04

     total cpu time spent up to now is    13971.1 secs

     total energy              =   -2126.09367620 Ry
     estimated scf accuracy    <          5.9E-10 Ry

     total magnetization       =    19.00 Bohr mag/cell
     absolute magnetization    =    19.04 Bohr mag/cell

     iteration # 31     ecut=   100.00 Ry     beta= 0.40
     Davidson diagonalization with overlap
     ethr =  3.10E-13,  avg # of iterations =  2.0

     negative rho (up, down):  0.000E+00 9.070E-04

     total cpu time spent up to now is    14386.6 secs

     total energy              =   -2126.09367620 Ry
     estimated scf accuracy    <          2.1E-10 Ry

     total magnetization       =    19.00 Bohr mag/cell
     absolute magnetization    =    19.04 Bohr mag/cell

     iteration # 32     ecut=   100.00 Ry     beta= 0.40
     Davidson diagonalization with overlap
     ethr =  1.11E-13,  avg # of iterations =  3.3

     negative rho (up, down):  0.000E+00 9.070E-04

     Magnetic moment per site:
     atom:    1    charge:    7.8771    magn:    0.0006    constr:    0.0000
     atom:    2    charge:   12.7578    magn:    3.6349    constr:    0.0000
     atom:    3    charge:   12.7631    magn:    3.6240    constr:    0.0000
     atom:    4    charge:   12.8008    magn:    3.5217    constr:    0.0000
     atom:    5    charge:   12.7650    magn:    3.6243    constr:    0.0000
     atom:    6    charge:    0.7818    magn:    0.0108    constr:    0.0000
     atom:    7    charge:    0.7847    magn:    0.0086    constr:    0.0000
     atom:    8    charge:    0.7845    magn:    0.0115    constr:    0.0000
     atom:    9    charge:    0.7796    magn:    0.0092    constr:    0.0000
     atom:   10    charge:    4.1059    magn:    0.1349    constr:    0.0000
     atom:   11    charge:    4.1225    magn:    0.0897    constr:    0.0000
     atom:   12    charge:    4.1081    magn:    0.1253    constr:    0.0000
     atom:   13    charge:    4.1044    magn:    0.1079    constr:    0.0000
     atom:   14    charge:    4.1332    magn:    0.1075    constr:    0.0000
     atom:   15    charge:    4.1409    magn:    0.1232    constr:    0.0000
     atom:   16    charge:    4.1346    magn:    0.0770    constr:    0.0000
     atom:   17    charge:    4.1357    magn:    0.1326    constr:    0.0000
     atom:   18    charge:    4.1052    magn:    0.1487    constr:    0.0000
     atom:   19    charge:    4.1103    magn:    0.1309    constr:    0.0000
     atom:   20    charge:    4.1109    magn:    0.1395    constr:    0.0000
     atom:   21    charge:    4.1087    magn:    0.1185    constr:    0.0000
     atom:   22    charge:    4.1124    magn:    0.1464    constr:    0.0000
     atom:   23    charge:    4.1025    magn:    0.1275    constr:    0.0000
     atom:   24    charge:    4.1045    magn:    0.1476    constr:    0.0000
     atom:   25    charge:    4.1062    magn:    0.1290    constr:    0.0000

     total cpu time spent up to now is    14863.5 secs

     End of self-consistent calculation

 ------ SPIN UP ------------


          k = 0.0000 0.0000 0.0000 ( 34089 PWs)   bands (ev):

   -84.2899 -84.2791 -84.2663 -83.8692 -50.4347 -50.3764 -50.3586 -50.2466
   -50.2360 -50.2358 -50.2208 -50.1896 -50.1862 -50.1648 -49.8187 -49.6408
   -44.2802 -16.3550 -16.2772 -16.2474 -15.9660 -15.7502 -15.5560 -15.4436
   -13.4904 -13.3626 -13.2000 -13.1731 -13.0248 -12.9875 -12.9561 -12.9288
   -12.8065 -12.7767 -12.6966 -12.6751  -3.5556  -3.0471  -2.9097  -2.4380
    -1.8290  -1.4280  -1.3383  -1.1538  -1.1016  -0.9215  -0.7706  -0.7310
    -0.6008  -0.4207  -0.2483   0.0181   0.2238   0.2775   0.8418   0.8887
     0.9261   1.0560   1.1681   1.2163   1.3618   1.3728   1.6280   1.6852
     1.8765   2.0604   2.1026   2.2000   2.2288   2.2474   2.2737   2.3674
     2.4596   2.7124   2.8652   2.9262   2.9551   3.0621   3.1326   3.2294
     3.3428   3.4318   3.5726   3.6702   3.7283   3.8759   3.9845   4.0290
     4.0538   4.2355   4.2615   4.2745   4.3708   4.4578   4.5475   4.6566
     4.7049   4.9795   5.0482   5.1956   5.4259   5.5887   5.7580   5.8821
    10.3355  12.4234  12.7000  13.2957  13.5555  13.8213  14.5123  14.6326
    14.6671  14.8407

     occupation numbers 
     1.0000   1.0000   1.0000   1.0000   1.0000   1.0000   1.0000   1.0000
     1.0000   1.0000   1.0000   1.0000   1.0000   1.0000   1.0000   1.0000
     1.0000   1.0000   1.0000   1.0000   1.0000   1.0000   1.0000   1.0000
     1.0000   1.0000   1.0000   1.0000   1.0000   1.0000   1.0000   1.0000
     1.0000   1.0000   1.0000   1.0000   1.0000   1.0000   1.0000   1.0000
     1.0000   1.0000   1.0000   1.0000   1.0000   1.0000   1.0000   1.0000
     1.0000   1.0000   1.0000   1.0000   1.0000   1.0000   1.0000   1.0000
     1.0000   1.0000   1.0000   1.0000   1.0000   1.0000   1.0000   1.0000
     1.0000   1.0000   1.0000   1.0000   1.0000   1.0000   1.0000   1.0000
     1.0000   1.0000   1.0000   1.0000   1.0000   1.0000   1.0000   1.0000
     1.0000   1.0000   1.0000   1.0000   1.0000   1.0000   1.0000   1.0000
     1.0000   1.0000   1.0000   1.0000   1.0000   1.0000   1.0000   1.0000
     1.0000   1.0000   1.0000   1.0000   1.0000   1.0000   1.0000   1.0000
     0.0000   0.0000   0.0000   0.0000   0.0000   0.0000   0.0000   0.0000
     0.0000   0.0000

          k = 0.0000 0.0000 0.2259 ( 34083 PWs)   bands (ev):

   -84.2899 -84.2791 -84.2663 -83.8692 -50.4347 -50.3764 -50.3586 -50.2466
   -50.2360 -50.2358 -50.2208 -50.1896 -50.1862 -50.1648 -49.8187 -49.6408
   -44.2802 -16.3581 -16.2872 -16.2466 -15.9462 -15.7415 -15.5502 -15.4424
   -13.4927 -13.3633 -13.2150 -13.1684 -13.0206 -12.9970 -12.9589 -12.9248
   -12.8105 -12.7882 -12.7005 -12.6845  -3.5281  -3.0364  -2.9062  -2.4545
    -1.7773  -1.4058  -1.3416  -1.1451  -1.0938  -0.9392  -0.7921  -0.6531
    -0.5925  -0.3884  -0.2952   0.0464   0.2337   0.2429   0.8515   0.8817
     0.9379   1.0755   1.1669   1.2403   1.3475   1.3620   1.5955   1.7228
     1.8562   2.0372   2.0667   2.1535   2.2055   2.2274   2.2690   2.3214
     2.5951   2.6921   2.7891   2.8781   2.9870   3.0468   3.1178   3.2148
     3.3233   3.4083   3.5996   3.6856   3.8281   3.8581   3.9033   4.0214
     4.0382   4.2075   4.2329   4.2833   4.3884   4.4546   4.6140   4.6590
     4.7532   4.9684   5.0827   5.1904   5.4215   5.5689   5.7297   5.8575
    10.4892  12.4994  12.7757  13.3074  13.5894  13.7998  14.4585  14.5232
    14.6274  14.7895

     occupation numbers 
     1.0000   1.0000   1.0000   1.0000   1.0000   1.0000   1.0000   1.0000
     1.0000   1.0000   1.0000   1.0000   1.0000   1.0000   1.0000   1.0000
     1.0000   1.0000   1.0000   1.0000   1.0000   1.0000   1.0000   1.0000
     1.0000   1.0000   1.0000   1.0000   1.0000   1.0000   1.0000   1.0000
     1.0000   1.0000   1.0000   1.0000   1.0000   1.0000   1.0000   1.0000
     1.0000   1.0000   1.0000   1.0000   1.0000   1.0000   1.0000   1.0000
     1.0000   1.0000   1.0000   1.0000   1.0000   1.0000   1.0000   1.0000
     1.0000   1.0000   1.0000   1.0000   1.0000   1.0000   1.0000   1.0000
     1.0000   1.0000   1.0000   1.0000   1.0000   1.0000   1.0000   1.0000
     1.0000   1.0000   1.0000   1.0000   1.0000   1.0000   1.0000   1.0000
     1.0000   1.0000   1.0000   1.0000   1.0000   1.0000   1.0000   1.0000
     1.0000   1.0000   1.0000   1.0000   1.0000   1.0000   1.0000   1.0000
     1.0000   1.0000   1.0000   1.0000   1.0000   1.0000   1.0000   1.0000
     0.0000   0.0000   0.0000   0.0000   0.0000   0.0000   0.0000   0.0000
     0.0000   0.0000

          k = 0.0000 0.0000 0.4519 ( 34060 PWs)   bands (ev):

   -84.2899 -84.2791 -84.2663 -83.8692 -50.4347 -50.3764 -50.3586 -50.2466
   -50.2360 -50.2358 -50.2208 -50.1896 -50.1862 -50.1648 -49.8187 -49.6408
   -44.2802 -16.3706 -16.3021 -16.2452 -15.9004 -15.7181 -15.5351 -15.4412
   -13.4998 -13.3654 -13.2450 -13.1662 -13.0172 -13.0096 -12.9679 -12.9141
   -12.8226 -12.8151 -12.7123 -12.7070  -3.4497  -3.0184  -2.8922  -2.5103
    -1.6341  -1.3747  -1.3218  -1.1404  -1.0663  -0.9618  -0.7905  -0.5775
    -0.4968  -0.4117  -0.3032   0.1094   0.1381   0.2972   0.8587   0.8967
     0.9696   1.0878   1.2174   1.2556   1.3423   1.3523   1.5017   1.7774
     1.8373   1.9742   2.0305   2.0671   2.1345   2.1689   2.2394   2.2822
     2.4825   2.6314   2.8344   2.8448   2.9790   2.9917   3.0989   3.2276
     3.2718   3.4162   3.6425   3.6977   3.7283   3.8722   3.8969   3.9438
     4.0804   4.0995   4.2388   4.3732   4.4408   4.4881   4.6575   4.7294
     4.8717   4.9359   5.1367   5.2069   5.4088   5.5227   5.6442   5.7831
    10.9031  12.7006  12.9785  13.3564  13.6529  13.7929  14.2247  14.3198
    14.4681  14.5854

     occupation numbers 
     1.0000   1.0000   1.0000   1.0000   1.0000   1.0000   1.0000   1.0000
     1.0000   1.0000   1.0000   1.0000   1.0000   1.0000   1.0000   1.0000
     1.0000   1.0000   1.0000   1.0000   1.0000   1.0000   1.0000   1.0000
     1.0000   1.0000   1.0000   1.0000   1.0000   1.0000   1.0000   1.0000
     1.0000   1.0000   1.0000   1.0000   1.0000   1.0000   1.0000   1.0000
     1.0000   1.0000   1.0000   1.0000   1.0000   1.0000   1.0000   1.0000
     1.0000   1.0000   1.0000   1.0000   1.0000   1.0000   1.0000   1.0000
     1.0000   1.0000   1.0000   1.0000   1.0000   1.0000   1.0000   1.0000
     1.0000   1.0000   1.0000   1.0000   1.0000   1.0000   1.0000   1.0000
     1.0000   1.0000   1.0000   1.0000   1.0000   1.0000   1.0000   1.0000
     1.0000   1.0000   1.0000   1.0000   1.0000   1.0000   1.0000   1.0000
     1.0000   1.0000   1.0000   1.0000   1.0000   1.0000   1.0000   1.0000
     1.0000   1.0000   1.0000   1.0000   1.0000   1.0000   1.0000   1.0000
     0.0000   0.0000   0.0000   0.0000   0.0000   0.0000   0.0000   0.0000
     0.0000   0.0000

          k = 0.0000 0.0000 0.6778 ( 34088 PWs)   bands (ev):

   -84.2899 -84.2791 -84.2663 -83.8692 -50.4347 -50.3764 -50.3586 -50.2466
   -50.2360 -50.2358 -50.2208 -50.1896 -50.1862 -50.1648 -49.8187 -49.6408
   -44.2802 -16.3905 -16.3079 -16.2437 -15.8527 -15.6884 -15.5160 -15.4444
   -13.5098 -13.3685 -13.2763 -13.1696 -13.0358 -12.9981 -12.9778 -12.9011
   -12.8474 -12.8331 -12.7356 -12.7236  -3.3342  -3.0230  -2.8645  -2.5997
    -1.4736  -1.3610  -1.2564  -1.1456  -1.0106  -0.9666  -0.7775  -0.6271
    -0.4617  -0.3314  -0.1933  -0.0535   0.2779   0.4132   0.8387   0.9614
     1.0258   1.0683   1.2253   1.2748   1.3065   1.3684   1.4268   1.7378
     1.8486   1.8839   1.9332   2.0210   2.1086   2.1262   2.1685   2.2337
     2.2804   2.4805   2.7720   2.8467   2.8788   3.0899   3.1420   3.2381
     3.3417   3.4346   3.4829   3.6088   3.7436   3.7686   3.8909   3.9311
     4.0544   4.1009   4.3190   4.4437   4.5073   4.6189   4.7212   4.8056
     4.8837   5.0310   5.1743   5.2498   5.3945   5.4774   5.5028   5.6596
    11.4774  12.9659  13.1567  13.4255  13.5933  13.9346  13.9953  14.1743
    14.2259  14.2893

     occupation numbers 
     1.0000   1.0000   1.0000   1.0000   1.0000   1.0000   1.0000   1.0000
     1.0000   1.0000   1.0000   1.0000   1.0000   1.0000   1.0000   1.0000
     1.0000   1.0000   1.0000   1.0000   1.0000   1.0000   1.0000   1.0000
     1.0000   1.0000   1.0000   1.0000   1.0000   1.0000   1.0000   1.0000
     1.0000   1.0000   1.0000   1.0000   1.0000   1.0000   1.0000   1.0000
     1.0000   1.0000   1.0000   1.0000   1.0000   1.0000   1.0000   1.0000
     1.0000   1.0000   1.0000   1.0000   1.0000   1.0000   1.0000   1.0000
     1.0000   1.0000   1.0000   1.0000   1.0000   1.0000   1.0000   1.0000
     1.0000   1.0000   1.0000   1.0000   1.0000   1.0000   1.0000   1.0000
     1.0000   1.0000   1.0000   1.0000   1.0000   1.0000   1.0000   1.0000
     1.0000   1.0000   1.0000   1.0000   1.0000   1.0000   1.0000   1.0000
     1.0000   1.0000   1.0000   1.0000   1.0000   1.0000   1.0000   1.0000
     1.0000   1.0000   1.0000   1.0000   1.0000   1.0000   1.0000   1.0000
     0.0000   0.0000   0.0000   0.0000   0.0000   0.0000   0.0000   0.0000
     0.0000   0.0000

          k = 0.0000 0.0000 0.9038 ( 34082 PWs)   bands (ev):

   -84.2899 -84.2791 -84.2663 -83.8692 -50.4347 -50.3764 -50.3586 -50.2466
   -50.2359 -50.2359 -50.2208 -50.1896 -50.1862 -50.1648 -49.8187 -49.6408
   -44.2802 -16.4045 -16.3086 -16.2428 -15.8230 -15.6665 -15.5000 -15.4523
   -13.5175 -13.3706 -13.2964 -13.1739 -13.0459 -12.9998 -12.9751 -12.8927
   -12.8637 -12.8427 -12.7522 -12.7341  -3.2119  -3.0703  -2.8289  -2.6842
    -1.4174  -1.3272  -1.1976  -1.1310  -0.9517  -0.9188  -0.7884  -0.7696
    -0.3715  -0.2324  -0.2197  -0.1141   0.4600   0.6186   0.8000   0.9015
     1.0488   1.1043   1.1934   1.2277   1.2366   1.3393   1.4756   1.6310
     1.8016   1.8807   1.8963   1.9386   1.9637   2.1117   2.1516   2.2503
     2.3335   2.4532   2.6011   2.6752   2.9259   3.0704   3.2354   3.3079
     3.3857   3.4365   3.4650   3.5251   3.6528   3.6741   3.8946   3.9400
     4.0471   4.1022   4.4104   4.4899   4.5434   4.6224   4.8245   4.8388
     4.9857   5.1884   5.2039   5.2698   5.3065   5.4016   5.4527   5.5125
    12.1174  12.7407  13.2444  13.5725  13.6916  13.8539  14.0041  14.0938
    14.1450  14.2660

     occupation numbers 
     1.0000   1.0000   1.0000   1.0000   1.0000   1.0000   1.0000   1.0000
     1.0000   1.0000   1.0000   1.0000   1.0000   1.0000   1.0000   1.0000
     1.0000   1.0000   1.0000   1.0000   1.0000   1.0000   1.0000   1.0000
     1.0000   1.0000   1.0000   1.0000   1.0000   1.0000   1.0000   1.0000
     1.0000   1.0000   1.0000   1.0000   1.0000   1.0000   1.0000   1.0000
     1.0000   1.0000   1.0000   1.0000   1.0000   1.0000   1.0000   1.0000
     1.0000   1.0000   1.0000   1.0000   1.0000   1.0000   1.0000   1.0000
     1.0000   1.0000   1.0000   1.0000   1.0000   1.0000   1.0000   1.0000
     1.0000   1.0000   1.0000   1.0000   1.0000   1.0000   1.0000   1.0000
     1.0000   1.0000   1.0000   1.0000   1.0000   1.0000   1.0000   1.0000
     1.0000   1.0000   1.0000   1.0000   1.0000   1.0000   1.0000   1.0000
     1.0000   1.0000   1.0000   1.0000   1.0000   1.0000   1.0000   1.0000
     1.0000   1.0000   1.0000   1.0000   1.0000   1.0000   1.0000   1.0000
     0.0000   0.0000   0.0000   0.0000   0.0000   0.0000   0.0000   0.0000
     0.0000   0.0000

          k = 0.0000 0.2391 0.0000 ( 34090 PWs)   bands (ev):

   -84.2899 -84.2791 -84.2663 -83.8692 -50.4347 -50.3764 -50.3586 -50.2466
   -50.2360 -50.2358 -50.2208 -50.1896 -50.1862 -50.1648 -49.8187 -49.6408
   -44.2802 -16.3546 -16.2771 -16.2499 -15.9464 -15.7459 -15.5529 -15.4634
   -13.4933 -13.3625 -13.2203 -13.1750 -13.0539 -12.9862 -12.9513 -12.9074
   -12.8110 -12.7594 -12.7071 -12.6644  -3.5299  -3.0690  -2.8802  -2.4442
    -1.8018  -1.4370  -1.3405  -1.1646  -1.0538  -0.9194  -0.7645  -0.7258
    -0.5375  -0.4248  -0.2113   0.0450   0.1663   0.3177   0.8498   0.8882
     0.9549   0.9911   1.0715   1.1760   1.2395   1.4843   1.6545   1.7390
     1.9231   2.0534   2.0864   2.1519   2.1799   2.2146   2.2624   2.2855
     2.5058   2.7120   2.8667   2.9475   2.9906   3.0803   3.1570   3.1752
     3.3863   3.4288   3.4934   3.6141   3.6911   3.8627   3.9767   3.9948
     4.0611   4.1415   4.2202   4.3672   4.4186   4.4714   4.5734   4.6672
     4.7164   4.9420   5.1159   5.1567   5.3989   5.5093   5.8446   5.9044
    10.4932  12.5096  12.7828  13.2331  13.6044  13.9105  14.4558  14.5363
    14.7236  14.7903

     occupation numbers 
     1.0000   1.0000   1.0000   1.0000   1.0000   1.0000   1.0000   1.0000
     1.0000   1.0000   1.0000   1.0000   1.0000   1.0000   1.0000   1.0000
     1.0000   1.0000   1.0000   1.0000   1.0000   1.0000   1.0000   1.0000
     1.0000   1.0000   1.0000   1.0000   1.0000   1.0000   1.0000   1.0000
     1.0000   1.0000   1.0000   1.0000   1.0000   1.0000   1.0000   1.0000
     1.0000   1.0000   1.0000   1.0000   1.0000   1.0000   1.0000   1.0000
     1.0000   1.0000   1.0000   1.0000   1.0000   1.0000   1.0000   1.0000
     1.0000   1.0000   1.0000   1.0000   1.0000   1.0000   1.0000   1.0000
     1.0000   1.0000   1.0000   1.0000   1.0000   1.0000   1.0000   1.0000
     1.0000   1.0000   1.0000   1.0000   1.0000   1.0000   1.0000   1.0000
     1.0000   1.0000   1.0000   1.0000   1.0000   1.0000   1.0000   1.0000
     1.0000   1.0000   1.0000   1.0000   1.0000   1.0000   1.0000   1.0000
     1.0000   1.0000   1.0000   1.0000   1.0000   1.0000   1.0000   1.0000
     0.0000   0.0000   0.0000   0.0000   0.0000   0.0000   0.0000   0.0000
     0.0000   0.0000

          k = 0.0000 0.2391 0.2259 ( 34083 PWs)   bands (ev):

   -84.2899 -84.2791 -84.2663 -83.8692 -50.4347 -50.3764 -50.3586 -50.2466
   -50.2359 -50.2359 -50.2208 -50.1896 -50.1862 -50.1648 -49.8187 -49.6408
   -44.2802 -16.3566 -16.2861 -16.2490 -15.9303 -15.7383 -15.5469 -15.4596
   -13.4954 -13.3633 -13.2296 -13.1721 -13.0595 -12.9897 -12.9537 -12.9083
   -12.8151 -12.7686 -12.7109 -12.6722  -3.5028  -3.0567  -2.8771  -2.4598
    -1.7528  -1.4149  -1.3392  -1.1552  -1.0452  -0.9359  -0.7772  -0.6592
    -0.5263  -0.3964  -0.2562   0.0458   0.1632   0.3177   0.8315   0.8939
     0.9662   0.9915   1.1074   1.1871   1.2308   1.4679   1.6732   1.7263
     1.8667   2.0281   2.0601   2.1218   2.1776   2.2049   2.2489   2.2827
     2.6223   2.6923   2.8059   2.9175   2.9931   3.0668   3.1100   3.1736
     3.3427   3.4481   3.5127   3.6734   3.6960   3.8451   3.9145   3.9968
     4.0236   4.1454   4.2373   4.3260   4.4456   4.4642   4.6260   4.6724
     4.7568   4.9368   5.1322   5.1546   5.3766   5.5108   5.8266   5.8875
    10.6421  12.5864  12.8556  13.2710  13.6166  13.8838  14.3651  14.5290
    14.6248  14.7266

     occupation numbers 
     1.0000   1.0000   1.0000   1.0000   1.0000   1.0000   1.0000   1.0000
     1.0000   1.0000   1.0000   1.0000   1.0000   1.0000   1.0000   1.0000
     1.0000   1.0000   1.0000   1.0000   1.0000   1.0000   1.0000   1.0000
     1.0000   1.0000   1.0000   1.0000   1.0000   1.0000   1.0000   1.0000
     1.0000   1.0000   1.0000   1.0000   1.0000   1.0000   1.0000   1.0000
     1.0000   1.0000   1.0000   1.0000   1.0000   1.0000   1.0000   1.0000
     1.0000   1.0000   1.0000   1.0000   1.0000   1.0000   1.0000   1.0000
     1.0000   1.0000   1.0000   1.0000   1.0000   1.0000   1.0000   1.0000
     1.0000   1.0000   1.0000   1.0000   1.0000   1.0000   1.0000   1.0000
     1.0000   1.0000   1.0000   1.0000   1.0000   1.0000   1.0000   1.0000
     1.0000   1.0000   1.0000   1.0000   1.0000   1.0000   1.0000   1.0000
     1.0000   1.0000   1.0000   1.0000   1.0000   1.0000   1.0000   1.0000
     1.0000   1.0000   1.0000   1.0000   1.0000   1.0000   1.0000   1.0000
     0.0000   0.0000   0.0000   0.0000   0.0000   0.0000   0.0000   0.0000
     0.0000   0.0000

          k = 0.0000 0.2391 0.4519 ( 34077 PWs)   bands (ev):

   -84.2899 -84.2791 -84.2663 -83.8692 -50.4347 -50.3764 -50.3586 -50.2466
   -50.2360 -50.2358 -50.2208 -50.1896 -50.1862 -50.1648 -49.8187 -49.6408
   -44.2802 -16.3678 -16.3013 -16.2472 -15.8877 -15.7162 -15.5316 -15.4545
   -13.5020 -13.3658 -13.2545 -13.1680 -13.0727 -12.9936 -12.9657 -12.9114
   -12.8252 -12.7865 -12.7220 -12.6894  -3.4259  -3.0331  -2.8668  -2.5135
    -1.6165  -1.3744  -1.3174  -1.1452  -1.0183  -0.9545  -0.7739  -0.5512
    -0.4799  -0.3743  -0.3069   0.0092   0.1910   0.3298   0.8019   0.9172
     0.9449   1.0173   1.1952   1.2079   1.2713   1.4282   1.6290   1.7507
     1.7970   1.9578   2.0084   2.0885   2.1300   2.1821   2.2223   2.2587
     2.5141   2.6417   2.8413   2.8846   2.9465   3.0035   3.0946   3.1999
     3.2507   3.4676   3.6076   3.6503   3.7085   3.7644   3.8895   3.9371
     4.0040   4.1436   4.2603   4.3438   4.4542   4.5185   4.6645   4.7371
     4.8499   4.9198   5.0995   5.2242   5.3343   5.5062   5.7705   5.8357
    11.0437  12.7861  13.0521  13.3867  13.6470  13.8618  14.1792  14.3421
    14.4425  14.5898

     occupation numbers 
     1.0000   1.0000   1.0000   1.0000   1.0000   1.0000   1.0000   1.0000
     1.0000   1.0000   1.0000   1.0000   1.0000   1.0000   1.0000   1.0000
     1.0000   1.0000   1.0000   1.0000   1.0000   1.0000   1.0000   1.0000
     1.0000   1.0000   1.0000   1.0000   1.0000   1.0000   1.0000   1.0000
     1.0000   1.0000   1.0000   1.0000   1.0000   1.0000   1.0000   1.0000
     1.0000   1.0000   1.0000   1.0000   1.0000   1.0000   1.0000   1.0000
     1.0000   1.0000   1.0000   1.0000   1.0000   1.0000   1.0000   1.0000
     1.0000   1.0000   1.0000   1.0000   1.0000   1.0000   1.0000   1.0000
     1.0000   1.0000   1.0000   1.0000   1.0000   1.0000   1.0000   1.0000
     1.0000   1.0000   1.0000   1.0000   1.0000   1.0000   1.0000   1.0000
     1.0000   1.0000   1.0000   1.0000   1.0000   1.0000   1.0000   1.0000
     1.0000   1.0000   1.0000   1.0000   1.0000   1.0000   1.0000   1.0000
     1.0000   1.0000   1.0000   1.0000   1.0000   1.0000   1.0000   1.0000
     0.0000   0.0000   0.0000   0.0000   0.0000   0.0000   0.0000   0.0000
     0.0000   0.0000

          k = 0.0000 0.2391 0.6778 ( 34083 PWs)   bands (ev):

   -84.2899 -84.2791 -84.2663 -83.8692 -50.4347 -50.3764 -50.3586 -50.2466
   -50.2360 -50.2358 -50.2208 -50.1896 -50.1862 -50.1648 -49.8187 -49.6408
   -44.2802 -16.3871 -16.3076 -16.2454 -15.8419 -15.6871 -15.5131 -15.4536
   -13.5120 -13.3694 -13.2834 -13.1680 -13.0846 -13.0001 -12.9825 -12.9118
   -12.8357 -12.8026 -12.7337 -12.7085  -3.3133  -3.0270  -2.8464  -2.6008
    -1.4591  -1.3518  -1.2496  -1.1463  -0.9735  -0.9458  -0.7611  -0.5919
    -0.4343  -0.3380  -0.1940  -0.0944   0.2868   0.3932   0.7496   0.8945
     0.9711   1.0861   1.2035   1.2785   1.3510   1.4267   1.5353   1.7082
     1.7814   1.8754   1.9524   2.0359   2.0876   2.1461   2.1812   2.2379
     2.2644   2.4846   2.7477   2.8532   2.9069   3.0864   3.1272   3.2291
     3.2511   3.4620   3.5301   3.6438   3.6743   3.7332   3.8049   3.9563
     4.0015   4.1086   4.3418   4.4430   4.4994   4.5852   4.6869   4.8062
     4.8754   4.9767   5.0824   5.2185   5.3647   5.5008   5.6829   5.7561
    11.6044  13.0468  13.2323  13.5215  13.6271  13.9332  14.0380  14.1229
    14.2238  14.2803

     occupation numbers 
     1.0000   1.0000   1.0000   1.0000   1.0000   1.0000   1.0000   1.0000
     1.0000   1.0000   1.0000   1.0000   1.0000   1.0000   1.0000   1.0000
     1.0000   1.0000   1.0000   1.0000   1.0000   1.0000   1.0000   1.0000
     1.0000   1.0000   1.0000   1.0000   1.0000   1.0000   1.0000   1.0000
     1.0000   1.0000   1.0000   1.0000   1.0000   1.0000   1.0000   1.0000
     1.0000   1.0000   1.0000   1.0000   1.0000   1.0000   1.0000   1.0000
     1.0000   1.0000   1.0000   1.0000   1.0000   1.0000   1.0000   1.0000
     1.0000   1.0000   1.0000   1.0000   1.0000   1.0000   1.0000   1.0000
     1.0000   1.0000   1.0000   1.0000   1.0000   1.0000   1.0000   1.0000
     1.0000   1.0000   1.0000   1.0000   1.0000   1.0000   1.0000   1.0000
     1.0000   1.0000   1.0000   1.0000   1.0000   1.0000   1.0000   1.0000
     1.0000   1.0000   1.0000   1.0000   1.0000   1.0000   1.0000   1.0000
     1.0000   1.0000   1.0000   1.0000   1.0000   1.0000   1.0000   1.0000
     0.0000   0.0000   0.0000   0.0000   0.0000   0.0000   0.0000   0.0000
     0.0000   0.0000

          k = 0.0000 0.2391 0.9038 ( 34099 PWs)   bands (ev):

   -84.2899 -84.2791 -84.2663 -83.8692 -50.4347 -50.3764 -50.3586 -50.2466
   -50.2361 -50.2357 -50.2208 -50.1896 -50.1862 -50.1648 -49.8187 -49.6408
   -44.2802 -16.4015 -16.3084 -16.2442 -15.8136 -15.6621 -15.5014 -15.4576
   -13.5199 -13.3718 -13.3029 -13.1712 -13.0894 -13.0158 -12.9861 -12.9100
   -12.8433 -12.8101 -12.7378 -12.7229  -3.1968  -3.0606  -2.8217  -2.6805
    -1.3965  -1.3164  -1.1904  -1.1337  -0.9411  -0.8742  -0.7721  -0.7263
    -0.3650  -0.2775  -0.2012  -0.0968   0.4115   0.5498   0.6744   0.7609
     1.0578   1.1819   1.2225   1.3027   1.3679   1.3903   1.5067   1.6150
     1.7491   1.8477   1.9172   1.9419   2.0096   2.0984   2.1202   2.2042
     2.3185   2.4454   2.5745   2.7068   2.9423   3.0698   3.2080   3.2425
     3.3540   3.4458   3.4809   3.5496   3.6607   3.6832   3.8003   3.9680
     4.0099   4.0870   4.4252   4.4768   4.5497   4.6287   4.7653   4.8339
     4.8543   5.0100   5.1148   5.2005   5.4194   5.4947   5.5935   5.6822
    12.2325  12.8368  13.3315  13.6560  13.7645  13.8830  14.0116  14.0655
    14.1174  14.2767

     occupation numbers 
     1.0000   1.0000   1.0000   1.0000   1.0000   1.0000   1.0000   1.0000
     1.0000   1.0000   1.0000   1.0000   1.0000   1.0000   1.0000   1.0000
     1.0000   1.0000   1.0000   1.0000   1.0000   1.0000   1.0000   1.0000
     1.0000   1.0000   1.0000   1.0000   1.0000   1.0000   1.0000   1.0000
     1.0000   1.0000   1.0000   1.0000   1.0000   1.0000   1.0000   1.0000
     1.0000   1.0000   1.0000   1.0000   1.0000   1.0000   1.0000   1.0000
     1.0000   1.0000   1.0000   1.0000   1.0000   1.0000   1.0000   1.0000
     1.0000   1.0000   1.0000   1.0000   1.0000   1.0000   1.0000   1.0000
     1.0000   1.0000   1.0000   1.0000   1.0000   1.0000   1.0000   1.0000
     1.0000   1.0000   1.0000   1.0000   1.0000   1.0000   1.0000   1.0000
     1.0000   1.0000   1.0000   1.0000   1.0000   1.0000   1.0000   1.0000
     1.0000   1.0000   1.0000   1.0000   1.0000   1.0000   1.0000   1.0000
     1.0000   1.0000   1.0000   1.0000   1.0000   1.0000   1.0000   1.0000
     0.0000   0.0000   0.0000   0.0000   0.0000   0.0000   0.0000   0.0000
     0.0000   0.0000

          k = 0.0000 0.4781 0.0000 ( 34064 PWs)   bands (ev):

   -84.2899 -84.2791 -84.2663 -83.8692 -50.4347 -50.3764 -50.3586 -50.2466
   -50.2360 -50.2358 -50.2208 -50.1896 -50.1862 -50.1648 -49.8187 -49.6408
   -44.2802 -16.3537 -16.2768 -16.2550 -15.8962 -15.7346 -15.5538 -15.5086
   -13.4987 -13.3595 -13.2765 -13.1793 -13.0717 -12.9824 -12.9476 -12.9057
   -12.8030 -12.7401 -12.7029 -12.6544  -3.4598  -3.1310  -2.8011  -2.4750
    -1.7293  -1.4612  -1.3419  -1.1839  -0.9820  -0.8928  -0.7399  -0.6599
    -0.4785  -0.3606  -0.1619   0.0473   0.1368   0.4021   0.7466   0.8172
     0.9728   0.9883   1.0180   1.0857   1.1683   1.5369   1.6270   1.8307
     1.8552   1.8923   1.9738   2.0584   2.1877   2.2183   2.3310   2.3585
     2.6079   2.6802   2.8724   2.9249   2.9735   3.0396   3.1097   3.1842
     3.3835   3.4043   3.4573   3.5602   3.6976   3.8001   3.8819   3.9297
     3.9791   4.0761   4.3623   4.4131   4.4689   4.5058   4.5898   4.7175
     4.7369   4.8878   4.9848   5.1457   5.3168   5.6402   5.8952   5.9319
    10.9211  12.7114  12.8749  13.0052  13.7864  14.1270  14.2852  14.3704
    14.6937  14.8778

     occupation numbers 
     1.0000   1.0000   1.0000   1.0000   1.0000   1.0000   1.0000   1.0000
     1.0000   1.0000   1.0000   1.0000   1.0000   1.0000   1.0000   1.0000
     1.0000   1.0000   1.0000   1.0000   1.0000   1.0000   1.0000   1.0000
     1.0000   1.0000   1.0000   1.0000   1.0000   1.0000   1.0000   1.0000
     1.0000   1.0000   1.0000   1.0000   1.0000   1.0000   1.0000   1.0000
     1.0000   1.0000   1.0000   1.0000   1.0000   1.0000   1.0000   1.0000
     1.0000   1.0000   1.0000   1.0000   1.0000   1.0000   1.0000   1.0000
     1.0000   1.0000   1.0000   1.0000   1.0000   1.0000   1.0000   1.0000
     1.0000   1.0000   1.0000   1.0000   1.0000   1.0000   1.0000   1.0000
     1.0000   1.0000   1.0000   1.0000   1.0000   1.0000   1.0000   1.0000
     1.0000   1.0000   1.0000   1.0000   1.0000   1.0000   1.0000   1.0000
     1.0000   1.0000   1.0000   1.0000   1.0000   1.0000   1.0000   1.0000
[...]
     atom   20 type  3   force =    -0.02510243    0.05426916    0.01570423
     atom   21 type  3   force =     0.02494224   -0.04914771    0.01736778
     atom   22 type  3   force =    -0.02230855   -0.05435146    0.01521205
     atom   23 type  3   force =     0.02019668    0.05191598    0.02097049
     atom   24 type  3   force =     0.02343184   -0.05139019   -0.02020451
     atom   25 type  3   force =    -0.02270249    0.05579229   -0.02191942
     The non-local contrib.  to forces
     atom    1 type  2   force =     0.11364495   -0.04259292    0.00487587
     atom    2 type  1   force =     0.04132714   -0.01516601    0.15332664
     atom    3 type  1   force =     0.06272120   -0.00002588    0.12823749
     atom    4 type  1   force =    -0.16731854    0.04291515   -0.10580444
     atom    5 type  1   force =    -0.04618422   -0.00862933   -0.13158753
     atom    6 type  4   force =     0.00080439   -0.00075561    0.02144330
     atom    7 type  4   force =     0.02223406    0.00258577    0.05098553
     atom    8 type  4   force =    -0.02142854   -0.00521517   -0.02292861
     atom    9 type  4   force =     0.02883928    0.00083481   -0.01446550
     atom   10 type  3   force =     0.29090746    0.01038703   -1.46158053
     atom   11 type  3   force =    -0.09825891    0.00887693   -1.38216084
     atom   12 type  3   force =    -0.37661952   -0.01451908    1.46537755
     atom   13 type  3   force =     0.21762841    0.01178892    1.46002336
     atom   14 type  3   force =     1.20638113    0.00829000   -0.62183480
     atom   15 type  3   force =    -1.18101931   -0.01035608   -0.78840218
     atom   16 type  3   force =    -1.19175045    0.01578480    0.32274665
     atom   17 type  3   force =     1.15722925    0.00481223    0.63159034
     atom   18 type  3   force =    -0.52983835   -1.05146173    0.81151758
     atom   19 type  3   force =     0.55386432    1.10619835    0.85119643
     atom   20 type  3   force =     0.57978782   -1.06866466   -0.73688590
     atom   21 type  3   force =    -0.59553221    1.02511822   -0.68189814
     atom   22 type  3   force =     0.53749352    1.05715699   -0.71059952
     atom   23 type  3   force =    -0.53382451   -1.02689461   -0.76483564
     atom   24 type  3   force =    -0.53277079    1.05657583    0.80712849
     atom   25 type  3   force =     0.52686118   -1.12866266    0.82924953
     The ionic contribution  to forces
     atom    1 type  2   force =    -3.39216961   -0.39991139    2.42736845
     atom    2 type  1   force =    -1.20268375    0.07159260   -0.33301204
     atom    3 type  1   force =    -7.50265055   -0.35567434   -0.45753514
     atom    4 type  1   force =     4.67108119   -0.41859129   -0.39001108
     atom    5 type  1   force =     7.68314983    0.59190772    0.59215415
     atom    6 type  4   force =    -3.10286862    0.01588343    0.76895889
     atom    7 type  4   force =     0.33897414   -0.37175529    0.91380478
     atom    8 type  4   force =     4.86729057    0.01620593   -1.01494979
     atom    9 type  4   force =    -2.29995544    0.45167977   -1.23316287
     atom   10 type  3   force =   -10.51092607   -0.03847517    2.55152879
     atom   11 type  3   force =     3.98090341   -0.74003963    0.95250422
     atom   12 type  3   force =    12.51138964    0.15696399   -2.72223772
     atom   13 type  3   force =    -8.57718388    0.50909477   -1.96586019
     atom   14 type  3   force =     0.61800394    0.54287810    5.83504406
     atom   15 type  3   force =    -1.98188584    0.07911294    7.50855751
     atom   16 type  3   force =    -1.93134115   -0.86747662   -2.91061692
     atom   17 type  3   force =     3.69463332   -0.07438595   -6.61631478
     atom   18 type  3   force =    -3.99274740    2.63712396   -3.44300250
     atom   19 type  3   force =     0.93617777   -3.84541172   -3.16589119
     atom   20 type  3   force =     5.33766638    4.21673079    3.01245654
     atom   21 type  3   force =    -0.21697545   -1.07238346    0.75842412
     atom   22 type  3   force =     5.34164510   -4.13109563    2.69333893
     atom   23 type  3   force =    -1.76364685    1.54863464    2.32870667
     atom   24 type  3   force =    -4.11804741   -2.72297308   -3.39632502
     atom   25 type  3   force =     0.61216674    4.20036492   -2.69392788
     The local contribution  to forces
     atom    1 type  2   force =     3.28427535    0.44408026   -2.42497736
     atom    2 type  1   force =     1.15005028   -0.05850351    0.17819887
     atom    3 type  1   force =     7.45509114    0.35565590    0.32610686
     atom    4 type  1   force =    -4.50658762    0.37856714    0.49976746
     atom    5 type  1   force =    -7.65121166   -0.58431248   -0.45927759
     atom    6 type  4   force =     3.13150394   -0.01599124   -0.73931661
     atom    7 type  4   force =    -0.37693270    0.37073099   -0.91024319
     atom    8 type  4   force =    -4.87809645   -0.01252984    0.98118106
     atom    9 type  4   force =     2.30571947   -0.45197663    1.19843095
     atom   10 type  3   force =    10.20593136    0.02763218   -1.11042215
     atom   11 type  3   force =    -3.87679362    0.72998396    0.41093438
     atom   12 type  3   force =   -12.12099687   -0.14258035    1.27926684
     atom   13 type  3   force =     8.34550891   -0.52071309    0.52364676
     atom   14 type  3   force =    -1.88801279   -0.55234420   -5.19759608
     atom   15 type  3   force =     3.22518547   -0.06815220   -6.70133584
     atom   16 type  3   force =     3.18347002    0.85147053    2.57589159
     atom   17 type  3   force =    -4.90909954    0.06914877    5.96888351
     atom   18 type  3   force =     4.54177095   -1.54260327    2.61809025
     atom   19 type  3   force =    -1.50996043    2.69176974    2.29947856
     atom   20 type  3   force =    -5.93787512   -3.10224919   -2.26616083
     atom   21 type  3   force =     0.83270199    0.00633532   -0.06503591
     atom   22 type  3   force =    -5.89712222    3.02794405   -1.97358045
     atom   23 type  3   force =     2.31338883   -0.47796664   -1.54950159
     atom   24 type  3   force =     4.67000027    1.62337843    2.57590995
     atom   25 type  3   force =    -1.15757479   -3.02489299    1.84987044
     The core correction contribution to forces
     atom    1 type  2   force =     0.00000000    0.00000000    0.00000000
     atom    2 type  1   force =    -0.00055846    0.00018453   -0.00026260
     atom    3 type  1   force =    -0.00018483   -0.00003166    0.00056628
     atom    4 type  1   force =     0.00347276   -0.00046569   -0.00083920
     atom    5 type  1   force =     0.00038561    0.00010324    0.00004572
     atom    6 type  4   force =    -0.00036647    0.00007148   -0.00326146
     atom    7 type  4   force =    -0.00085059   -0.00007497   -0.00543059
     atom    8 type  4   force =     0.00130533    0.00031573    0.00361756
     atom    9 type  4   force =    -0.00248582   -0.00033944    0.00296264
     atom   10 type  3   force =    -0.00298152   -0.00009167    0.01275759
     atom   11 type  3   force =     0.00144969   -0.00005843    0.01194246
     atom   12 type  3   force =     0.00376038    0.00014290   -0.01276490
     atom   13 type  3   force =    -0.00235995   -0.00010542   -0.01267972
     atom   14 type  3   force =    -0.00906287   -0.00007188    0.00558697
     atom   15 type  3   force =     0.00889196    0.00008357    0.00694210
     atom   16 type  3   force =     0.00890555   -0.00011319   -0.00297304
     atom   17 type  3   force =    -0.00879604   -0.00003704   -0.00562921
     atom   18 type  3   force =     0.00422158    0.00830903   -0.00696797
     atom   19 type  3   force =    -0.00438566   -0.00872452   -0.00730258
     atom   20 type  3   force =    -0.00467933    0.00845786    0.00629196
     atom   21 type  3   force =     0.00474695   -0.00821250    0.00588241
     atom   22 type  3   force =    -0.00432260   -0.00836270    0.00605043
     atom   23 type  3   force =     0.00427814    0.00813683    0.00660598
     atom   24 type  3   force =     0.00425119   -0.00836754   -0.00691897
     atom   25 type  3   force =    -0.00415696    0.00898720   -0.00710763
     The Hubbard contrib.    to forces
     atom    1 type  2   force =     0.00000000    0.00000000    0.00000000
     atom    2 type  1   force =     0.00000000    0.00000000    0.00000000
     atom    3 type  1   force =     0.00000000    0.00000000    0.00000000
     atom    4 type  1   force =     0.00000000    0.00000000    0.00000000
     atom    5 type  1   force =     0.00000000    0.00000000    0.00000000
     atom    6 type  4   force =     0.00000000    0.00000000    0.00000000
     atom    7 type  4   force =     0.00000000    0.00000000    0.00000000
     atom    8 type  4   force =     0.00000000    0.00000000    0.00000000
     atom    9 type  4   force =     0.00000000    0.00000000    0.00000000
     atom   10 type  3   force =     0.00000000    0.00000000    0.00000000
     atom   11 type  3   force =     0.00000000    0.00000000    0.00000000
     atom   12 type  3   force =     0.00000000    0.00000000    0.00000000
     atom   13 type  3   force =     0.00000000    0.00000000    0.00000000
     atom   14 type  3   force =     0.00000000    0.00000000    0.00000000
     atom   15 type  3   force =     0.00000000    0.00000000    0.00000000
     atom   16 type  3   force =     0.00000000    0.00000000    0.00000000
     atom   17 type  3   force =     0.00000000    0.00000000    0.00000000
     atom   18 type  3   force =     0.00000000    0.00000000    0.00000000
     atom   19 type  3   force =     0.00000000    0.00000000    0.00000000
     atom   20 type  3   force =     0.00000000    0.00000000    0.00000000
     atom   21 type  3   force =     0.00000000    0.00000000    0.00000000
     atom   22 type  3   force =     0.00000000    0.00000000    0.00000000
     atom   23 type  3   force =     0.00000000    0.00000000    0.00000000
     atom   24 type  3   force =     0.00000000    0.00000000    0.00000000
     atom   25 type  3   force =     0.00000000    0.00000000    0.00000000
     The SCF correction term to forces
     atom    1 type  2   force =     0.00000464   -0.00000135   -0.00000086
     atom    2 type  1   force =    -0.00000030    0.00000007   -0.00000024
     atom    3 type  1   force =    -0.00000115   -0.00000005   -0.00000038
     atom    4 type  1   force =    -0.00000162    0.00000010   -0.00000041
     atom    5 type  1   force =    -0.00000255    0.00000032   -0.00000026
     atom    6 type  4   force =    -0.00000129    0.00000002    0.00000038
     atom    7 type  4   force =     0.00000195    0.00000001   -0.00000010
     atom    8 type  4   force =    -0.00000234   -0.00000006    0.00000084
     atom    9 type  4   force =     0.00000191    0.00000013   -0.00000037
     atom   10 type  3   force =    -0.00000386    0.00000001   -0.00000251
     atom   11 type  3   force =     0.00000037   -0.00000004    0.00000158
     atom   12 type  3   force =    -0.00000559   -0.00000011   -0.00000356
     atom   13 type  3   force =    -0.00000049    0.00000005    0.00000225
     atom   14 type  3   force =     0.00000613    0.00000001    0.00000138
     atom   15 type  3   force =    -0.00000057   -0.00000005   -0.00000056
     atom   16 type  3   force =     0.00000716   -0.00000008    0.00000118
     atom   17 type  3   force =     0.00000059    0.00000004   -0.00000086
     atom   18 type  3   force =    -0.00000192    0.00000392    0.00000254
     atom   19 type  3   force =     0.00000085    0.00000438   -0.00000240
     atom   20 type  3   force =    -0.00000270   -0.00000572    0.00000402
     atom   21 type  3   force =     0.00000043   -0.00000535   -0.00000315
     atom   22 type  3   force =    -0.00000285    0.00000575    0.00000421
     atom   23 type  3   force =     0.00000056    0.00000569   -0.00000337
     atom   24 type  3   force =    -0.00000194   -0.00000391    0.00000259
     atom   25 type  3   force =     0.00000083   -0.00000426   -0.00000233

     Total force =     0.256614     Total SCF correction =     0.000023


     Computing stress (Cartesian axis) and pressure


     negative rho (up, down):  0.000E+00 9.070E-04
          total   stress  (Ry/bohr**3)                   (kbar)     P=       94.08
   0.00086540   0.00001911  -0.00002657          127.30        2.81       -3.91
   0.00001911   0.00069059  -0.00001911            2.81      101.59       -2.81
  -0.00002657  -0.00001911   0.00036255           -3.91       -2.81       53.33

     kinetic stress (kbar)  28534.39     -1.83    -11.28
                               -1.83  28760.77     -3.89
                              -11.28     -3.89  28475.49

     local   stress (kbar)  -3980.28  -1043.09   1241.02
                            -1043.09 -14368.43    374.08
                             1241.02    374.08  -8270.28

     nonloc. stress (kbar)  -7294.83     -1.51      2.67
                               -1.51  -7228.94      0.36
                                2.67      0.36  -7251.88

     hartree stress (kbar)  13055.30    417.26   -504.30
                              417.26  18817.64   -144.13
                             -504.30   -144.13  15684.93

     exc-cor stress (kbar)  -3015.99      0.68     -0.83
                                0.68  -3024.16     -0.31
                               -0.83     -0.31  -3021.29

     corecor stress (kbar)  -3337.51     -0.21      0.88
                               -0.21  -3335.70      0.04
                                0.88      0.04  -3336.15

     ewald   stress (kbar) -23833.77    631.49   -732.07
                              631.49 -19519.59   -228.96
                             -732.07   -228.96 -22227.49

     hubbard stress (kbar)      0.00      0.00      0.00
                                0.00      0.00      0.00
                                0.00      0.00      0.00

     DFT-D   stress (kbar)      0.00      0.00      0.00
                                0.00      0.00      0.00
                                0.00      0.00      0.00

     XDM     stress (kbar)      0.00      0.00      0.00
                                0.00      0.00      0.00
                                0.00      0.00      0.00

     dft-nl  stress (kbar)      0.00      0.00      0.00
                                0.00      0.00      0.00
                                0.00      0.00      0.00

     TS-vdW  stress (kbar)      0.00      0.00      0.00
                                0.00      0.00      0.00
                                0.00      0.00      0.00



     init_run     :    169.00s CPU    172.96s WALL (       1 calls)
     electrons    :  14497.31s CPU  14689.35s WALL (       1 calls)
     forces       :    106.67s CPU    108.70s WALL (       1 calls)
     stress       :    766.13s CPU    784.68s WALL (       1 calls)

     Called by init_run:
     wfcinit      :    161.02s CPU    163.85s WALL (       1 calls)
     wfcinit:atom :      2.48s CPU      2.53s WALL (     316 calls)
     wfcinit:wfcr :    150.48s CPU    153.12s WALL (     316 calls)
     potinit      :      2.77s CPU      3.07s WALL (       1 calls)
     hinit0       :      2.98s CPU      3.33s WALL (       1 calls)

     Called by electrons:
     c_bands      :  12933.94s CPU  13072.56s WALL (      32 calls)
     sum_band     :   1484.89s CPU   1521.62s WALL (      32 calls)
     v_of_rho     :     19.49s CPU     20.59s WALL (      33 calls)
     v_h          :      0.76s CPU      0.84s WALL (      33 calls)
     v_xc         :     19.88s CPU     20.97s WALL (      35 calls)
     newd         :     40.99s CPU     56.63s WALL (      33 calls)
     PAW_pot      :     13.80s CPU     13.90s WALL (      33 calls)
     mix_rho      :      4.29s CPU      4.53s WALL (      32 calls)

     Called by c_bands:
     init_us_2    :    217.93s CPU    222.18s WALL (   21172 calls)
     cegterg      :  12577.13s CPU  12709.37s WALL (   10112 calls)

     Called by sum_band:
     sum_band:wei :      0.50s CPU      0.50s WALL (      32 calls)
     sum_band:loo :   1374.85s CPU   1391.25s WALL (      32 calls)
     sum_band:buf :     56.21s CPU     57.22s WALL (   10112 calls)
     sum_band:ini :    105.04s CPU    106.74s WALL (   10112 calls)
     sum_band:cal :    629.42s CPU    636.66s WALL (   10112 calls)
     sum_band:bec :      6.60s CPU      6.71s WALL (   10112 calls)
     addusdens    :    106.37s CPU    126.54s WALL (      32 calls)
     addusd:skk   :      0.85s CPU      0.89s WALL (      96 calls)
     addusd:dgemm :     49.27s CPU     65.84s WALL (     192 calls)
     addusd:qvan2 :     54.61s CPU     55.04s WALL (     192 calls)

     Called by *egterg:
     cdiaghg      :    867.65s CPU    891.38s WALL (   40113 calls)
     cegterg:over :   1208.88s CPU   1229.56s WALL (   30001 calls)
     cegterg:upda :    706.61s CPU    710.44s WALL (   30001 calls)
     cegterg:last :   1575.14s CPU   1583.41s WALL (   18357 calls)
     h_psi        :   6033.52s CPU   6093.07s WALL (   40429 calls)
     s_psi        :   1549.12s CPU   1557.09s WALL (   40429 calls)
     g_psi        :     14.66s CPU     14.84s WALL (   30001 calls)

     Called by h_psi:
     h_psi:calbec :   1643.93s CPU   1663.59s WALL (   40429 calls)
     vloc_psi     :   2598.13s CPU   2626.11s WALL (   40429 calls)
     add_vuspsi   :   1673.49s CPU   1682.47s WALL (   40429 calls)

     General routines
     calbec       :   2399.07s CPU   2428.54s WALL (   52121 calls)
     fft          :     14.53s CPU     16.15s WALL (     863 calls)
     ffts         :      0.24s CPU      0.30s WALL (     130 calls)
     fftw         :   2951.45s CPU   2982.93s WALL ( 6321008 calls)
     interpolate  :      1.16s CPU      1.32s WALL (      66 calls)

     Parallel routines
     fft_scatt_xy :    271.45s CPU    274.05s WALL ( 6322001 calls)
     fft_scatt_yz :    889.93s CPU    902.96s WALL ( 6322001 calls)

     PAW routines
     PAW_pot      :     13.80s CPU     13.90s WALL (      33 calls)

     PWSCF        :      4h18m CPU      4h22m WALL


   This run was terminated on:  19:23:31  18Dec2022            

=------------------------------------------------------------------------------=
   JOB DONE.
=------------------------------------------------------------------------------=
Note: The following floating-point exceptions are signalling: IEEE_UNDERFLOW_FLAG IEEE_DENORMAL
Note: The following floating-point exceptions are signalling: IEEE_DENORMAL
Note: The following floating-point exceptions are signalling: IEEE_DENORMAL
Note: The following floating-point exceptions are signalling: IEEE_DENORMAL
Note: The following floating-point exceptions are signalling: IEEE_DENORMAL
Note: The following floating-point exceptions are signalling: IEEE_DENORMAL
Note: The following floating-point exceptions are signalling: IEEE_DENORMAL
Note: The following floating-point exceptions are signalling: IEEE_DENORMAL
Note: The following floating-point exceptions are signalling: IEEE_DENORMAL
Note: The following floating-point exceptions are signalling: IEEE_DENORMAL
Note: The following floating-point exceptions are signalling: IEEE_DENORMAL
Note: The following floating-point exceptions are signalling: IEEE_DENORMAL
Note: The following floating-point exceptions are signalling: IEEE_DENORMAL
Note: The following floating-point exceptions are signalling: IEEE_DENORMAL
Note: The following floating-point exceptions are signalling: IEEE_DENORMAL
Note: The following floating-point exceptions are signalling: IEEE_DENORMAL
Note: The following floating-point exceptions are signalling: IEEE_DENORMAL
Note: The following floating-point exceptions are signalling: IEEE_DENORMAL
Note: The following floating-point exceptions are signalling: IEEE_DENORMAL
Note: The following floating-point exceptions are signalling: IEEE_DENORMAL
Note: The following floating-point exceptions are signalling: IEEE_DENORMAL
