
     Program PWSCF v.6.7MaX starts on 18Dec2022 at  6:50:15 

     This program is part of the open-source Quantum ESPRESSO suite
     for quantum simulation of materials; please cite
         "P. Giannozzi et al., J. Phys.:Condens. Matter 21 395502 (2009);
         "P. Giannozzi et al., J. Phys.:Condens. Matter 29 465901 (2017);
          URL http://www.quantum-espresso.org", 
     in publications or presentations arising from this work. More details at
     http://www.quantum-espresso.org/quote

     Parallel version (MPI), running on    24 processors

     MPI processes distributed on     1 nodes
     R & G space division:  proc/nbgrp/npool/nimage =      24
     Reading input from scale_1da-00.in

     Current dimensions of program PWSCF are:
     Max number of different atomic species (ntypx) = 10
     Max number of k-points (npk) =  40000
     Max angular momentum in pseudopotentials (lmaxx) =  3
     Message from routine read_pp_mesh:
     mesh size missing, using the one in header
     file Fe.pbe-spn-kjpaw_psl.0.2.1.UPF: wavefunction(s)  3D renormalized
     file O.pbe-n-kjpaw_psl.0.1.UPF: wavefunction(s)  2P renormalized

     Subspace diagonalization in iterative solution of the eigenvalue problem:
     a serial algorithm will be used


     Parallelization info
     --------------------
     sticks:   dense  smooth     PW     G-vecs:    dense   smooth      PW
     Min         786     291     78                51256    11557    1624
     Max         787     292     79                51257    11560    1627
     Sum       18873    6997   1891              1230153   277403   39017



     bravais-lattice index     =            0
     lattice parameter (alat)  =      18.6818  a.u.
     unit-cell volume          =    2052.3399 (a.u.)^3
     number of atoms/cell      =           25
     number of atomic types    =            4
     number of electrons       =       189.00
     number of Kohn-Sham states=          114
     kinetic-energy cutoff     =     100.0000  Ry
     charge density cutoff     =    1080.0000  Ry
     scf convergence threshold =      2.0E-10
     mixing beta               =       0.4000
     number of iterations used =            8  plain     mixing
     Exchange-correlation= PBE
                           (   1   4   3   4   0   0   0)

     celldm(1)=  18.681804  celldm(2)=   0.000000  celldm(3)=   0.000000
     celldm(4)=   0.000000  celldm(5)=   0.000000  celldm(6)=   0.000000

     crystal axes: (cart. coord. in units of alat)
               a(1) = (   1.000000   0.000000   0.000000 )  
               a(2) = (   0.000000   0.629042   0.000000 )  
               a(3) = (   0.000000   0.000000   0.500395 )  

     reciprocal axes: (cart. coord. in units 2 pi/alat)
               b(1) = (  1.000000  0.000000  0.000000 )  
               b(2) = (  0.000000  1.589719  0.000000 )  
               b(3) = (  0.000000  0.000000  1.998420 )  


     PseudoPot. # 1 for Fe read from file:
     /opt/QEpot/SSSP_precision_pseudos/Fe.pbe-spn-kjpaw_psl.0.2.1.UPF
     MD5 check sum: e86618425769142926afa95317d90200
     Pseudo is Projector augmented-wave + core cor, Zval = 16.0
     Generated using "atomic" code by A. Dal Corso  v.5.0.99 svn rev. 10869
     Shape of augmentation charge: PSQ
     Using radial grid of 1191 points,  6 beta functions with: 
                l(1) =   0
                l(2) =   0
                l(3) =   1
                l(4) =   1
                l(5) =   2
                l(6) =   2
     Q(r) pseudized with 0 coefficients 


     PseudoPot. # 2 for Na read from file:
     /opt/QEpot/SSSP_precision_pseudos/Na_ONCV_PBE-1.0.oncvpsp.upf
     MD5 check sum: 24a298df0a6742ae313db96548fdb2a4
     Pseudo is Norm-conserving, Zval =  9.0
     Generated using ONCVPSP code by D. R. Hamann
     Using radial grid of 1992 points,  4 beta functions with: 
                l(1) =   0
                l(2) =   0
                l(3) =   1
                l(4) =   1

     PseudoPot. # 3 for O  read from file:
     /opt/QEpot/SSSP_precision_pseudos/O.pbe-n-kjpaw_psl.0.1.UPF
     MD5 check sum: 0234752ac141de4415c5fc33072bef88
     Pseudo is Projector augmented-wave + core cor, Zval =  6.0
     Generated using "atomic" code by A. Dal Corso  v.5.0.99 svn rev. 10869
     Shape of augmentation charge: BESSEL
     Using radial grid of 1095 points,  4 beta functions with: 
                l(1) =   0
                l(2) =   0
                l(3) =   1
                l(4) =   1
     Q(r) pseudized with 0 coefficients 


     PseudoPot. # 4 for P  read from file:
     /opt/QEpot/SSSP_precision_pseudos/P.pbe-n-rrkjus_psl.1.0.0.UPF
     MD5 check sum: 8b930f418f0a4573dca56cd030ffe088
     Pseudo is Ultrasoft + core correction, Zval =  5.0
     Generated using "atomic" code by A. Dal Corso  v.5.1
     Using radial grid of 1147 points,  6 beta functions with: 
                l(1) =   0
                l(2) =   0
                l(3) =   1
                l(4) =   1
                l(5) =   2
                l(6) =   2
     Q(r) pseudized with 0 coefficients 


     atomic species   valence    mass     pseudopotential
        Fe            16.00    55.84500     Fe( 1.00)
        Na             9.00    22.98977     Na( 1.00)
        O              6.00    15.99940     O ( 1.00)
        P              5.00    30.97376     P ( 1.00)

     Starting magnetic structure 
     atomic species   magnetization
        Fe           0.312
        Na           0.000
        O            0.000
        P            0.000

     No symmetry found


                                    s                        frac. trans.

      isym =  1     identity                                     

 cryst.   s( 1) = (     1          0          0      )
                  (     0          1          0      )
                  (     0          0          1      )

 cart.    s( 1) = (  1.0000000  0.0000000  0.0000000 )
                  (  0.0000000  1.0000000  0.0000000 )
                  (  0.0000000  0.0000000  1.0000000 )


   Cartesian axes

     site n.     atom                  positions (alat units)
         1           Na  tau(   1) = (   0.5528950   0.1912263   0.2262467  )
         2           Fe  tau(   2) = (   0.2772550   0.4710348   0.4962084  )
         3           Fe  tau(   3) = (   0.2104810   0.1562163   0.2454704  )
         4           Fe  tau(   4) = (   0.7295180   0.1526471   0.0008176  )
         5           Fe  tau(   5) = (   0.7815080   0.4723055   0.2570145  )
         6           P   tau(   6) = (   0.1053980   0.4708971   0.2221455  )
         7           P   tau(   7) = (   0.3872650   0.1549362   0.4714644  )
         8           P   tau(   8) = (   0.8920080   0.1569617   0.2786391  )
         9           P   tau(   9) = (   0.6044490   0.4717249   0.0319863  )
        10           O   tau(  10) = (   0.1314730   0.4702441   0.3757553  )
        11           O   tau(  11) = (   0.3628330   0.1565528   0.1250978  )
        12           O   tau(  12) = (   0.8713170   0.1566843   0.1243918  )
        13           O   tau(  13) = (   0.6316830   0.4698258   0.3790184  )
        14           O   tau(  14) = (   0.4581640   0.4701988   0.0600499  )
        15           O   tau(  15) = (   0.0360600   0.1575140   0.3138099  )
        16           O   tau(  16) = (   0.5359580   0.1554954   0.4487204  )
        17           O   tau(  17) = (   0.9586070   0.4708115   0.1955980  )
        18           O   tau(  18) = (   0.1741780   0.5940660   0.1503262  )
        19           O   tau(  19) = (   0.3202340   0.0324623   0.3992078  )
        20           O   tau(  20) = (   0.8164520   0.2774572   0.3480674  )
        21           O   tau(  21) = (   0.6734540   0.3487635   0.1056975  )
        22           O   tau(  22) = (   0.8184930   0.0347080   0.3482636  )
        23           O   tau(  23) = (   0.6734880   0.5951763   0.1045991  )
        24           O   tau(  24) = (   0.1746990   0.3484503   0.1495807  )
        25           O   tau(  25) = (   0.3222050   0.2777504   0.3968019  )

   Crystallographic axes

     site n.     atom                  positions (cryst. coord.)
         1           Na  tau(   1) = (  0.5528950  0.3039960  0.4521360  )
         2           Fe  tau(   2) = (  0.2772550  0.7488130  0.9916330  )
         3           Fe  tau(   3) = (  0.2104810  0.2483400  0.4905530  )
         4           Fe  tau(   4) = (  0.7295180  0.2426660  0.0016340  )
         5           Fe  tau(   5) = (  0.7815080  0.7508330  0.5136230  )
         6           P   tau(   6) = (  0.1053980  0.7485940  0.4439400  )
         7           P   tau(   7) = (  0.3872650  0.2463050  0.9421840  )
         8           P   tau(   8) = (  0.8920080  0.2495250  0.5568380  )
         9           P   tau(   9) = (  0.6044490  0.7499100  0.0639220  )
        10           O   tau(  10) = (  0.1314730  0.7475560  0.7509170  )
        11           O   tau(  11) = (  0.3628330  0.2488750  0.2499980  )
        12           O   tau(  12) = (  0.8713170  0.2490840  0.2485870  )
        13           O   tau(  13) = (  0.6316830  0.7468910  0.7574380  )
        14           O   tau(  14) = (  0.4581640  0.7474840  0.1200050  )
        15           O   tau(  15) = (  0.0360600  0.2504030  0.6271240  )
        16           O   tau(  16) = (  0.5359580  0.2471940  0.8967320  )
        17           O   tau(  17) = (  0.9586070  0.7484580  0.3908870  )
        18           O   tau(  18) = (  0.1741780  0.9443980  0.3004150  )
        19           O   tau(  19) = (  0.3202340  0.0516060  0.7977850  )
        20           O   tau(  20) = (  0.8164520  0.4410790  0.6955850  )
        21           O   tau(  21) = (  0.6734540  0.5544360  0.2112280  )
        22           O   tau(  22) = (  0.8184930  0.0551760  0.6959770  )
        23           O   tau(  23) = (  0.6734880  0.9461630  0.2090330  )
        24           O   tau(  24) = (  0.1746990  0.5539380  0.2989250  )
        25           O   tau(  25) = (  0.3222050  0.4415450  0.7929770  )

     number of k points=   158  Marzari-Vanderbilt smearing, width (Ry)=  0.0073
                       cart. coord. in units 2pi/alat
        k(    1) = (   0.0000000   0.0000000   0.0000000), wk =   0.0031746
        k(    2) = (   0.0000000   0.0000000   0.2220467), wk =   0.0063492
        k(    3) = (   0.0000000   0.0000000   0.4440934), wk =   0.0063492
        k(    4) = (   0.0000000   0.0000000   0.6661401), wk =   0.0063492
        k(    5) = (   0.0000000   0.0000000   0.8881868), wk =   0.0063492
        k(    6) = (   0.0000000   0.2271027   0.0000000), wk =   0.0063492
        k(    7) = (   0.0000000   0.2271027   0.2220467), wk =   0.0063492
        k(    8) = (   0.0000000   0.2271027   0.4440934), wk =   0.0063492
        k(    9) = (   0.0000000   0.2271027   0.6661401), wk =   0.0063492
        k(   10) = (   0.0000000   0.2271027   0.8881868), wk =   0.0063492
        k(   11) = (   0.0000000   0.4542054   0.0000000), wk =   0.0063492
        k(   12) = (   0.0000000   0.4542054   0.2220467), wk =   0.0063492
        k(   13) = (   0.0000000   0.4542054   0.4440934), wk =   0.0063492
        k(   14) = (   0.0000000   0.4542054   0.6661401), wk =   0.0063492
        k(   15) = (   0.0000000   0.4542054   0.8881868), wk =   0.0063492
        k(   16) = (   0.0000000   0.6813081   0.0000000), wk =   0.0063492
        k(   17) = (   0.0000000   0.6813081   0.2220467), wk =   0.0063492
        k(   18) = (   0.0000000   0.6813081   0.4440934), wk =   0.0063492
        k(   19) = (   0.0000000   0.6813081   0.6661401), wk =   0.0063492
        k(   20) = (   0.0000000   0.6813081   0.8881868), wk =   0.0063492
        k(   21) = (   0.2000000   0.0000000   0.0000000), wk =   0.0063492
        k(   22) = (   0.2000000   0.0000000   0.2220467), wk =   0.0063492
        k(   23) = (   0.2000000   0.0000000   0.4440934), wk =   0.0063492
        k(   24) = (   0.2000000   0.0000000   0.6661401), wk =   0.0063492
        k(   25) = (   0.2000000   0.0000000   0.8881868), wk =   0.0063492
        k(   26) = (   0.2000000   0.2271027   0.0000000), wk =   0.0063492
        k(   27) = (   0.2000000   0.2271027   0.2220467), wk =   0.0063492
        k(   28) = (   0.2000000   0.2271027   0.4440934), wk =   0.0063492
        k(   29) = (   0.2000000   0.2271027   0.6661401), wk =   0.0063492
        k(   30) = (   0.2000000   0.2271027   0.8881868), wk =   0.0063492
        k(   31) = (   0.2000000   0.4542054   0.0000000), wk =   0.0063492
        k(   32) = (   0.2000000   0.4542054   0.2220467), wk =   0.0063492
        k(   33) = (   0.2000000   0.4542054   0.4440934), wk =   0.0063492
        k(   34) = (   0.2000000   0.4542054   0.6661401), wk =   0.0063492
        k(   35) = (   0.2000000   0.4542054   0.8881868), wk =   0.0063492
        k(   36) = (   0.2000000   0.6813081   0.0000000), wk =   0.0063492
        k(   37) = (   0.2000000   0.6813081   0.2220467), wk =   0.0063492
        k(   38) = (   0.2000000   0.6813081   0.4440934), wk =   0.0063492
        k(   39) = (   0.2000000   0.6813081   0.6661401), wk =   0.0063492
        k(   40) = (   0.2000000   0.6813081   0.8881868), wk =   0.0063492
        k(   41) = (   0.4000000   0.0000000   0.0000000), wk =   0.0063492
        k(   42) = (   0.4000000   0.0000000   0.2220467), wk =   0.0063492
        k(   43) = (   0.4000000   0.0000000   0.4440934), wk =   0.0063492
        k(   44) = (   0.4000000   0.0000000   0.6661401), wk =   0.0063492
        k(   45) = (   0.4000000   0.0000000   0.8881868), wk =   0.0063492
        k(   46) = (   0.4000000   0.2271027   0.0000000), wk =   0.0063492
        k(   47) = (   0.4000000   0.2271027   0.2220467), wk =   0.0063492
        k(   48) = (   0.4000000   0.2271027   0.4440934), wk =   0.0063492
        k(   49) = (   0.4000000   0.2271027   0.6661401), wk =   0.0063492
        k(   50) = (   0.4000000   0.2271027   0.8881868), wk =   0.0063492
        k(   51) = (   0.4000000   0.4542054   0.0000000), wk =   0.0063492
        k(   52) = (   0.4000000   0.4542054   0.2220467), wk =   0.0063492
        k(   53) = (   0.4000000   0.4542054   0.4440934), wk =   0.0063492
        k(   54) = (   0.4000000   0.4542054   0.6661401), wk =   0.0063492
        k(   55) = (   0.4000000   0.4542054   0.8881868), wk =   0.0063492
        k(   56) = (   0.4000000   0.6813081   0.0000000), wk =   0.0063492
        k(   57) = (   0.4000000   0.6813081   0.2220467), wk =   0.0063492
        k(   58) = (   0.4000000   0.6813081   0.4440934), wk =   0.0063492
        k(   59) = (   0.4000000   0.6813081   0.6661401), wk =   0.0063492
        k(   60) = (   0.4000000   0.6813081   0.8881868), wk =   0.0063492
        k(   61) = (   0.0000000  -0.2271027   0.2220467), wk =   0.0063492
        k(   62) = (   0.0000000  -0.2271027   0.4440934), wk =   0.0063492
        k(   63) = (   0.0000000  -0.2271027   0.6661401), wk =   0.0063492
        k(   64) = (   0.0000000  -0.2271027   0.8881868), wk =   0.0063492
        k(   65) = (   0.0000000  -0.4542054   0.2220467), wk =   0.0063492
        k(   66) = (   0.0000000  -0.4542054   0.4440934), wk =   0.0063492
        k(   67) = (   0.0000000  -0.4542054   0.6661401), wk =   0.0063492
        k(   68) = (   0.0000000  -0.4542054   0.8881868), wk =   0.0063492
        k(   69) = (   0.0000000  -0.6813081   0.2220467), wk =   0.0063492
        k(   70) = (   0.0000000  -0.6813081   0.4440934), wk =   0.0063492
        k(   71) = (   0.0000000  -0.6813081   0.6661401), wk =   0.0063492
        k(   72) = (   0.0000000  -0.6813081   0.8881868), wk =   0.0063492
        k(   73) = (  -0.2000000   0.0000000   0.2220467), wk =   0.0063492
        k(   74) = (  -0.2000000   0.0000000   0.4440934), wk =   0.0063492
        k(   75) = (  -0.2000000   0.0000000   0.6661401), wk =   0.0063492
        k(   76) = (  -0.2000000   0.0000000   0.8881868), wk =   0.0063492
        k(   77) = (  -0.2000000   0.2271027   0.0000000), wk =   0.0063492
        k(   78) = (  -0.2000000  -0.2271027   0.2220467), wk =   0.0063492
        k(   79) = (  -0.2000000   0.2271027  -0.2220467), wk =   0.0063492
        k(   80) = (   0.2000000  -0.2271027  -0.2220467), wk =   0.0063492
        k(   81) = (  -0.2000000  -0.2271027   0.4440934), wk =   0.0063492
        k(   82) = (  -0.2000000   0.2271027  -0.4440934), wk =   0.0063492
        k(   83) = (   0.2000000  -0.2271027  -0.4440934), wk =   0.0063492
        k(   84) = (  -0.2000000  -0.2271027   0.6661401), wk =   0.0063492
        k(   85) = (  -0.2000000   0.2271027  -0.6661401), wk =   0.0063492
        k(   86) = (   0.2000000  -0.2271027  -0.6661401), wk =   0.0063492
        k(   87) = (  -0.2000000  -0.2271027   0.8881868), wk =   0.0063492
        k(   88) = (  -0.2000000   0.2271027  -0.8881868), wk =   0.0063492
        k(   89) = (   0.2000000  -0.2271027  -0.8881868), wk =   0.0063492
        k(   90) = (  -0.2000000   0.4542054   0.0000000), wk =   0.0063492
        k(   91) = (  -0.2000000  -0.4542054   0.2220467), wk =   0.0063492
        k(   92) = (  -0.2000000   0.4542054  -0.2220467), wk =   0.0063492
        k(   93) = (   0.2000000  -0.4542054  -0.2220467), wk =   0.0063492
        k(   94) = (  -0.2000000  -0.4542054   0.4440934), wk =   0.0063492
        k(   95) = (  -0.2000000   0.4542054  -0.4440934), wk =   0.0063492
        k(   96) = (   0.2000000  -0.4542054  -0.4440934), wk =   0.0063492
        k(   97) = (  -0.2000000  -0.4542054   0.6661401), wk =   0.0063492
        k(   98) = (  -0.2000000   0.4542054  -0.6661401), wk =   0.0063492
        k(   99) = (   0.2000000  -0.4542054  -0.6661401), wk =   0.0063492
        k(  100) = (  -0.2000000  -0.4542054   0.8881868), wk =   0.0063492
        k(  101) = (  -0.2000000   0.4542054  -0.8881868), wk =   0.0063492
        k(  102) = (   0.2000000  -0.4542054  -0.8881868), wk =   0.0063492
        k(  103) = (  -0.2000000   0.6813081   0.0000000), wk =   0.0063492
        k(  104) = (  -0.2000000  -0.6813081   0.2220467), wk =   0.0063492
        k(  105) = (  -0.2000000   0.6813081  -0.2220467), wk =   0.0063492
        k(  106) = (   0.2000000  -0.6813081  -0.2220467), wk =   0.0063492
        k(  107) = (  -0.2000000  -0.6813081   0.4440934), wk =   0.0063492
        k(  108) = (  -0.2000000   0.6813081  -0.4440934), wk =   0.0063492
        k(  109) = (   0.2000000  -0.6813081  -0.4440934), wk =   0.0063492
        k(  110) = (  -0.2000000  -0.6813081   0.6661401), wk =   0.0063492
        k(  111) = (  -0.2000000   0.6813081  -0.6661401), wk =   0.0063492
        k(  112) = (   0.2000000  -0.6813081  -0.6661401), wk =   0.0063492
        k(  113) = (  -0.2000000  -0.6813081   0.8881868), wk =   0.0063492
        k(  114) = (  -0.2000000   0.6813081  -0.8881868), wk =   0.0063492
        k(  115) = (   0.2000000  -0.6813081  -0.8881868), wk =   0.0063492
        k(  116) = (  -0.4000000   0.0000000   0.2220467), wk =   0.0063492
        k(  117) = (  -0.4000000   0.0000000   0.4440934), wk =   0.0063492
        k(  118) = (  -0.4000000   0.0000000   0.6661401), wk =   0.0063492
        k(  119) = (  -0.4000000   0.0000000   0.8881868), wk =   0.0063492
        k(  120) = (  -0.4000000   0.2271027   0.0000000), wk =   0.0063492
        k(  121) = (  -0.4000000  -0.2271027   0.2220467), wk =   0.0063492
        k(  122) = (  -0.4000000   0.2271027  -0.2220467), wk =   0.0063492
        k(  123) = (   0.4000000  -0.2271027  -0.2220467), wk =   0.0063492
        k(  124) = (  -0.4000000  -0.2271027   0.4440934), wk =   0.0063492
        k(  125) = (  -0.4000000   0.2271027  -0.4440934), wk =   0.0063492
        k(  126) = (   0.4000000  -0.2271027  -0.4440934), wk =   0.0063492
        k(  127) = (  -0.4000000  -0.2271027   0.6661401), wk =   0.0063492
        k(  128) = (  -0.4000000   0.2271027  -0.6661401), wk =   0.0063492
        k(  129) = (   0.4000000  -0.2271027  -0.6661401), wk =   0.0063492
        k(  130) = (  -0.4000000  -0.2271027   0.8881868), wk =   0.0063492
        k(  131) = (  -0.4000000   0.2271027  -0.8881868), wk =   0.0063492
        k(  132) = (   0.4000000  -0.2271027  -0.8881868), wk =   0.0063492
        k(  133) = (  -0.4000000   0.4542054   0.0000000), wk =   0.0063492
        k(  134) = (  -0.4000000  -0.4542054   0.2220467), wk =   0.0063492
        k(  135) = (  -0.4000000   0.4542054  -0.2220467), wk =   0.0063492
        k(  136) = (   0.4000000  -0.4542054  -0.2220467), wk =   0.0063492
        k(  137) = (  -0.4000000  -0.4542054   0.4440934), wk =   0.0063492
        k(  138) = (  -0.4000000   0.4542054  -0.4440934), wk =   0.0063492
        k(  139) = (   0.4000000  -0.4542054  -0.4440934), wk =   0.0063492
        k(  140) = (  -0.4000000  -0.4542054   0.6661401), wk =   0.0063492
        k(  141) = (  -0.4000000   0.4542054  -0.6661401), wk =   0.0063492
        k(  142) = (   0.4000000  -0.4542054  -0.6661401), wk =   0.0063492
        k(  143) = (  -0.4000000  -0.4542054   0.8881868), wk =   0.0063492
        k(  144) = (  -0.4000000   0.4542054  -0.8881868), wk =   0.0063492
        k(  145) = (   0.4000000  -0.4542054  -0.8881868), wk =   0.0063492
        k(  146) = (  -0.4000000   0.6813081   0.0000000), wk =   0.0063492
        k(  147) = (  -0.4000000  -0.6813081   0.2220467), wk =   0.0063492
        k(  148) = (  -0.4000000   0.6813081  -0.2220467), wk =   0.0063492
        k(  149) = (   0.4000000  -0.6813081  -0.2220467), wk =   0.0063492
        k(  150) = (  -0.4000000  -0.6813081   0.4440934), wk =   0.0063492
        k(  151) = (  -0.4000000   0.6813081  -0.4440934), wk =   0.0063492
        k(  152) = (   0.4000000  -0.6813081  -0.4440934), wk =   0.0063492
        k(  153) = (  -0.4000000  -0.6813081   0.6661401), wk =   0.0063492
        k(  154) = (  -0.4000000   0.6813081  -0.6661401), wk =   0.0063492
        k(  155) = (   0.4000000  -0.6813081  -0.6661401), wk =   0.0063492
        k(  156) = (  -0.4000000  -0.6813081   0.8881868), wk =   0.0063492
        k(  157) = (  -0.4000000   0.6813081  -0.8881868), wk =   0.0063492
        k(  158) = (   0.4000000  -0.6813081  -0.8881868), wk =   0.0063492

                       cryst. coord.
        k(    1) = (   0.0000000   0.0000000   0.0000000), wk =   0.0031746
        k(    2) = (   0.0000000   0.0000000   0.1111111), wk =   0.0063492
        k(    3) = (   0.0000000   0.0000000   0.2222222), wk =   0.0063492
        k(    4) = (   0.0000000   0.0000000   0.3333333), wk =   0.0063492
        k(    5) = (   0.0000000   0.0000000   0.4444444), wk =   0.0063492
        k(    6) = (   0.0000000   0.1428571   0.0000000), wk =   0.0063492
        k(    7) = (   0.0000000   0.1428571   0.1111111), wk =   0.0063492
        k(    8) = (   0.0000000   0.1428571   0.2222222), wk =   0.0063492
        k(    9) = (   0.0000000   0.1428571   0.3333333), wk =   0.0063492
        k(   10) = (   0.0000000   0.1428571   0.4444444), wk =   0.0063492
        k(   11) = (   0.0000000   0.2857143   0.0000000), wk =   0.0063492
        k(   12) = (   0.0000000   0.2857143   0.1111111), wk =   0.0063492
        k(   13) = (   0.0000000   0.2857143   0.2222222), wk =   0.0063492
        k(   14) = (   0.0000000   0.2857143   0.3333333), wk =   0.0063492
        k(   15) = (   0.0000000   0.2857143   0.4444444), wk =   0.0063492
        k(   16) = (   0.0000000   0.4285714   0.0000000), wk =   0.0063492
        k(   17) = (   0.0000000   0.4285714   0.1111111), wk =   0.0063492
        k(   18) = (   0.0000000   0.4285714   0.2222222), wk =   0.0063492
        k(   19) = (   0.0000000   0.4285714   0.3333333), wk =   0.0063492
        k(   20) = (   0.0000000   0.4285714   0.4444444), wk =   0.0063492
        k(   21) = (   0.2000000   0.0000000   0.0000000), wk =   0.0063492
        k(   22) = (   0.2000000   0.0000000   0.1111111), wk =   0.0063492
        k(   23) = (   0.2000000   0.0000000   0.2222222), wk =   0.0063492
        k(   24) = (   0.2000000   0.0000000   0.3333333), wk =   0.0063492
        k(   25) = (   0.2000000   0.0000000   0.4444444), wk =   0.0063492
        k(   26) = (   0.2000000   0.1428571   0.0000000), wk =   0.0063492
        k(   27) = (   0.2000000   0.1428571   0.1111111), wk =   0.0063492
        k(   28) = (   0.2000000   0.1428571   0.2222222), wk =   0.0063492
        k(   29) = (   0.2000000   0.1428571   0.3333333), wk =   0.0063492
        k(   30) = (   0.2000000   0.1428571   0.4444444), wk =   0.0063492
        k(   31) = (   0.2000000   0.2857143   0.0000000), wk =   0.0063492
        k(   32) = (   0.2000000   0.2857143   0.1111111), wk =   0.0063492
        k(   33) = (   0.2000000   0.2857143   0.2222222), wk =   0.0063492
        k(   34) = (   0.2000000   0.2857143   0.3333333), wk =   0.0063492
        k(   35) = (   0.2000000   0.2857143   0.4444444), wk =   0.0063492
        k(   36) = (   0.2000000   0.4285714   0.0000000), wk =   0.0063492
        k(   37) = (   0.2000000   0.4285714   0.1111111), wk =   0.0063492
        k(   38) = (   0.2000000   0.4285714   0.2222222), wk =   0.0063492
        k(   39) = (   0.2000000   0.4285714   0.3333333), wk =   0.0063492
        k(   40) = (   0.2000000   0.4285714   0.4444444), wk =   0.0063492
        k(   41) = (   0.4000000   0.0000000   0.0000000), wk =   0.0063492
        k(   42) = (   0.4000000   0.0000000   0.1111111), wk =   0.0063492
        k(   43) = (   0.4000000   0.0000000   0.2222222), wk =   0.0063492
        k(   44) = (   0.4000000   0.0000000   0.3333333), wk =   0.0063492
        k(   45) = (   0.4000000   0.0000000   0.4444444), wk =   0.0063492
        k(   46) = (   0.4000000   0.1428571   0.0000000), wk =   0.0063492
        k(   47) = (   0.4000000   0.1428571   0.1111111), wk =   0.0063492
        k(   48) = (   0.4000000   0.1428571   0.2222222), wk =   0.0063492
        k(   49) = (   0.4000000   0.1428571   0.3333333), wk =   0.0063492
        k(   50) = (   0.4000000   0.1428571   0.4444444), wk =   0.0063492
        k(   51) = (   0.4000000   0.2857143   0.0000000), wk =   0.0063492
        k(   52) = (   0.4000000   0.2857143   0.1111111), wk =   0.0063492
        k(   53) = (   0.4000000   0.2857143   0.2222222), wk =   0.0063492
        k(   54) = (   0.4000000   0.2857143   0.3333333), wk =   0.0063492
        k(   55) = (   0.4000000   0.2857143   0.4444444), wk =   0.0063492
        k(   56) = (   0.4000000   0.4285714   0.0000000), wk =   0.0063492
        k(   57) = (   0.4000000   0.4285714   0.1111111), wk =   0.0063492
        k(   58) = (   0.4000000   0.4285714   0.2222222), wk =   0.0063492
        k(   59) = (   0.4000000   0.4285714   0.3333333), wk =   0.0063492
        k(   60) = (   0.4000000   0.4285714   0.4444444), wk =   0.0063492
        k(   61) = (   0.0000000  -0.1428571   0.1111111), wk =   0.0063492
        k(   62) = (   0.0000000  -0.1428571   0.2222222), wk =   0.0063492
        k(   63) = (   0.0000000  -0.1428571   0.3333333), wk =   0.0063492
        k(   64) = (   0.0000000  -0.1428571   0.4444444), wk =   0.0063492
        k(   65) = (   0.0000000  -0.2857143   0.1111111), wk =   0.0063492
        k(   66) = (   0.0000000  -0.2857143   0.2222222), wk =   0.0063492
        k(   67) = (   0.0000000  -0.2857143   0.3333333), wk =   0.0063492
        k(   68) = (   0.0000000  -0.2857143   0.4444444), wk =   0.0063492
        k(   69) = (   0.0000000  -0.4285714   0.1111111), wk =   0.0063492
        k(   70) = (   0.0000000  -0.4285714   0.2222222), wk =   0.0063492
        k(   71) = (   0.0000000  -0.4285714   0.3333333), wk =   0.0063492
        k(   72) = (   0.0000000  -0.4285714   0.4444444), wk =   0.0063492
        k(   73) = (  -0.2000000   0.0000000   0.1111111), wk =   0.0063492
        k(   74) = (  -0.2000000   0.0000000   0.2222222), wk =   0.0063492
        k(   75) = (  -0.2000000   0.0000000   0.3333333), wk =   0.0063492
        k(   76) = (  -0.2000000   0.0000000   0.4444444), wk =   0.0063492
        k(   77) = (  -0.2000000   0.1428571   0.0000000), wk =   0.0063492
        k(   78) = (  -0.2000000  -0.1428571   0.1111111), wk =   0.0063492
        k(   79) = (  -0.2000000   0.1428571  -0.1111111), wk =   0.0063492
        k(   80) = (   0.2000000  -0.1428571  -0.1111111), wk =   0.0063492
        k(   81) = (  -0.2000000  -0.1428571   0.2222222), wk =   0.0063492
        k(   82) = (  -0.2000000   0.1428571  -0.2222222), wk =   0.0063492
        k(   83) = (   0.2000000  -0.1428571  -0.2222222), wk =   0.0063492
        k(   84) = (  -0.2000000  -0.1428571   0.3333333), wk =   0.0063492
        k(   85) = (  -0.2000000   0.1428571  -0.3333333), wk =   0.0063492
        k(   86) = (   0.2000000  -0.1428571  -0.3333333), wk =   0.0063492
        k(   87) = (  -0.2000000  -0.1428571   0.4444444), wk =   0.0063492
        k(   88) = (  -0.2000000   0.1428571  -0.4444444), wk =   0.0063492
        k(   89) = (   0.2000000  -0.1428571  -0.4444444), wk =   0.0063492
        k(   90) = (  -0.2000000   0.2857143   0.0000000), wk =   0.0063492
        k(   91) = (  -0.2000000  -0.2857143   0.1111111), wk =   0.0063492
        k(   92) = (  -0.2000000   0.2857143  -0.1111111), wk =   0.0063492
        k(   93) = (   0.2000000  -0.2857143  -0.1111111), wk =   0.0063492
        k(   94) = (  -0.2000000  -0.2857143   0.2222222), wk =   0.0063492
        k(   95) = (  -0.2000000   0.2857143  -0.2222222), wk =   0.0063492
        k(   96) = (   0.2000000  -0.2857143  -0.2222222), wk =   0.0063492
        k(   97) = (  -0.2000000  -0.2857143   0.3333333), wk =   0.0063492
        k(   98) = (  -0.2000000   0.2857143  -0.3333333), wk =   0.0063492
        k(   99) = (   0.2000000  -0.2857143  -0.3333333), wk =   0.0063492
        k(  100) = (  -0.2000000  -0.2857143   0.4444444), wk =   0.0063492
        k(  101) = (  -0.2000000   0.2857143  -0.4444444), wk =   0.0063492
        k(  102) = (   0.2000000  -0.2857143  -0.4444444), wk =   0.0063492
        k(  103) = (  -0.2000000   0.4285714   0.0000000), wk =   0.0063492
        k(  104) = (  -0.2000000  -0.4285714   0.1111111), wk =   0.0063492
        k(  105) = (  -0.2000000   0.4285714  -0.1111111), wk =   0.0063492
        k(  106) = (   0.2000000  -0.4285714  -0.1111111), wk =   0.0063492
        k(  107) = (  -0.2000000  -0.4285714   0.2222222), wk =   0.0063492
        k(  108) = (  -0.2000000   0.4285714  -0.2222222), wk =   0.0063492
        k(  109) = (   0.2000000  -0.4285714  -0.2222222), wk =   0.0063492
        k(  110) = (  -0.2000000  -0.4285714   0.3333333), wk =   0.0063492
        k(  111) = (  -0.2000000   0.4285714  -0.3333333), wk =   0.0063492
        k(  112) = (   0.2000000  -0.4285714  -0.3333333), wk =   0.0063492
        k(  113) = (  -0.2000000  -0.4285714   0.4444444), wk =   0.0063492
        k(  114) = (  -0.2000000   0.4285714  -0.4444444), wk =   0.0063492
        k(  115) = (   0.2000000  -0.4285714  -0.4444444), wk =   0.0063492
        k(  116) = (  -0.4000000   0.0000000   0.1111111), wk =   0.0063492
        k(  117) = (  -0.4000000   0.0000000   0.2222222), wk =   0.0063492
        k(  118) = (  -0.4000000   0.0000000   0.3333333), wk =   0.0063492
        k(  119) = (  -0.4000000   0.0000000   0.4444444), wk =   0.0063492
        k(  120) = (  -0.4000000   0.1428571   0.0000000), wk =   0.0063492
        k(  121) = (  -0.4000000  -0.1428571   0.1111111), wk =   0.0063492
        k(  122) = (  -0.4000000   0.1428571  -0.1111111), wk =   0.0063492
        k(  123) = (   0.4000000  -0.1428571  -0.1111111), wk =   0.0063492
        k(  124) = (  -0.4000000  -0.1428571   0.2222222), wk =   0.0063492
        k(  125) = (  -0.4000000   0.1428571  -0.2222222), wk =   0.0063492
        k(  126) = (   0.4000000  -0.1428571  -0.2222222), wk =   0.0063492
        k(  127) = (  -0.4000000  -0.1428571   0.3333333), wk =   0.0063492
        k(  128) = (  -0.4000000   0.1428571  -0.3333333), wk =   0.0063492
        k(  129) = (   0.4000000  -0.1428571  -0.3333333), wk =   0.0063492
        k(  130) = (  -0.4000000  -0.1428571   0.4444444), wk =   0.0063492
        k(  131) = (  -0.4000000   0.1428571  -0.4444444), wk =   0.0063492
        k(  132) = (   0.4000000  -0.1428571  -0.4444444), wk =   0.0063492
        k(  133) = (  -0.4000000   0.2857143   0.0000000), wk =   0.0063492
        k(  134) = (  -0.4000000  -0.2857143   0.1111111), wk =   0.0063492
        k(  135) = (  -0.4000000   0.2857143  -0.1111111), wk =   0.0063492
        k(  136) = (   0.4000000  -0.2857143  -0.1111111), wk =   0.0063492
        k(  137) = (  -0.4000000  -0.2857143   0.2222222), wk =   0.0063492
        k(  138) = (  -0.4000000   0.2857143  -0.2222222), wk =   0.0063492
        k(  139) = (   0.4000000  -0.2857143  -0.2222222), wk =   0.0063492
        k(  140) = (  -0.4000000  -0.2857143   0.3333333), wk =   0.0063492
        k(  141) = (  -0.4000000   0.2857143  -0.3333333), wk =   0.0063492
        k(  142) = (   0.4000000  -0.2857143  -0.3333333), wk =   0.0063492
        k(  143) = (  -0.4000000  -0.2857143   0.4444444), wk =   0.0063492
        k(  144) = (  -0.4000000   0.2857143  -0.4444444), wk =   0.0063492
        k(  145) = (   0.4000000  -0.2857143  -0.4444444), wk =   0.0063492
        k(  146) = (  -0.4000000   0.4285714   0.0000000), wk =   0.0063492
        k(  147) = (  -0.4000000  -0.4285714   0.1111111), wk =   0.0063492
        k(  148) = (  -0.4000000   0.4285714  -0.1111111), wk =   0.0063492
        k(  149) = (   0.4000000  -0.4285714  -0.1111111), wk =   0.0063492
        k(  150) = (  -0.4000000  -0.4285714   0.2222222), wk =   0.0063492
        k(  151) = (  -0.4000000   0.4285714  -0.2222222), wk =   0.0063492
        k(  152) = (   0.4000000  -0.4285714  -0.2222222), wk =   0.0063492
        k(  153) = (  -0.4000000  -0.4285714   0.3333333), wk =   0.0063492
        k(  154) = (  -0.4000000   0.4285714  -0.3333333), wk =   0.0063492
        k(  155) = (   0.4000000  -0.4285714  -0.3333333), wk =   0.0063492
        k(  156) = (  -0.4000000  -0.4285714   0.4444444), wk =   0.0063492
        k(  157) = (  -0.4000000   0.4285714  -0.4444444), wk =   0.0063492
        k(  158) = (   0.4000000  -0.4285714  -0.4444444), wk =   0.0063492

     Dense  grid:  1230153 G-vectors     FFT dimensions: ( 200, 125, 100)

     Smooth grid:   277403 G-vectors     FFT dimensions: ( 120,  75,  60)

     Dynamical RAM for                 wfc:       2.51 MB

     Dynamical RAM for     wfc (w. buffer):     796.25 MB

     Dynamical RAM for           str. fact:       3.13 MB

     Dynamical RAM for           local pot:       0.00 MB

     Dynamical RAM for          nlocal pot:       6.17 MB

     Dynamical RAM for                qrad:      10.54 MB

     Dynamical RAM for          rho,v,vnew:      10.41 MB

     Dynamical RAM for               rhoin:       3.47 MB

     Dynamical RAM for            rho*nmix:      25.03 MB

     Dynamical RAM for           G-vectors:       3.02 MB

     Dynamical RAM for          h,s,v(r/c):       2.38 MB

     Dynamical RAM for          <psi|beta>:       0.49 MB

     Dynamical RAM for                 psi:       5.02 MB

     Dynamical RAM for                hpsi:       5.02 MB

     Dynamical RAM for                spsi:       5.02 MB

     Dynamical RAM for      wfcinit/wfcrot:       6.47 MB

     Dynamical RAM for           addusdens:     158.77 MB

     Dynamical RAM for          addusforce:     182.36 MB

     Dynamical RAM for         addusstress:     158.38 MB

     Estimated static dynamical RAM per process >     867.66 MB

     Estimated max dynamical RAM per process >       1.03 GB

     Estimated total dynamical RAM >      24.61 GB

     Check: negative core charge=   -0.000003
     Generating pointlists ...
     new r_m :   0.0773 (alat units)  1.4437 (a.u.) for type    1
     new r_m :   0.0900 (alat units)  1.6805 (a.u.) for type    2
     new r_m :   0.0612 (alat units)  1.1427 (a.u.) for type    3
     new r_m :   0.0612 (alat units)  1.1427 (a.u.) for type    4

     Initial potential from superposition of free atoms

     starting charge  188.99132, renormalised to  189.00000
     Starting wfcs are  137 randomized atomic wfcs
     Checking if some PAW data can be deallocated... 
       PAW data deallocated on   20 nodes for type:  1
       PAW data deallocated on    8 nodes for type:  3

     total cpu time spent up to now is      166.3 secs

     Self-consistent Calculation

     iteration #  1     ecut=   100.00 Ry     beta= 0.40
     Davidson diagonalization with overlap
     ethr =  1.00E-02,  avg # of iterations =  3.1

     negative rho (up, down):  0.000E+00 8.547E-05

     total cpu time spent up to now is      712.6 secs

     total energy              =   -2123.89813678 Ry
     estimated scf accuracy    <       6.95293957 Ry

     total magnetization       =    19.00 Bohr mag/cell
     absolute magnetization    =    19.01 Bohr mag/cell

     iteration #  2     ecut=   100.00 Ry     beta= 0.40
     Davidson diagonalization with overlap
     ethr =  3.68E-03,  avg # of iterations =  2.0

     negative rho (up, down):  0.000E+00 6.227E-05

     total cpu time spent up to now is     1193.9 secs

     total energy              =   -2120.78852824 Ry
     estimated scf accuracy    <      44.41368220 Ry

     total magnetization       =     7.23 Bohr mag/cell
     absolute magnetization    =     8.54 Bohr mag/cell

     iteration #  3     ecut=   100.00 Ry     beta= 0.40
     Davidson diagonalization with overlap
     ethr =  3.68E-03,  avg # of iterations =  2.8

     negative rho (up, down):  0.000E+00 3.522E-05

     total cpu time spent up to now is     1618.2 secs

     total energy              =   -2123.48783210 Ry
     estimated scf accuracy    <      55.67416334 Ry

     total magnetization       =     3.80 Bohr mag/cell
     absolute magnetization    =     7.72 Bohr mag/cell

     iteration #  4     ecut=   100.00 Ry     beta= 0.40
     Davidson diagonalization with overlap
     ethr =  3.68E-03,  avg # of iterations =  1.7

     negative rho (up, down):  0.000E+00 3.170E-05

     total cpu time spent up to now is     1993.5 secs

     total energy              =   -2124.56036082 Ry
     estimated scf accuracy    <      29.69030319 Ry

     total magnetization       =     9.00 Bohr mag/cell
     absolute magnetization    =     9.37 Bohr mag/cell

     iteration #  5     ecut=   100.00 Ry     beta= 0.40
     Davidson diagonalization with overlap
     ethr =  3.68E-03,  avg # of iterations =  2.0

     negative rho (up, down):  0.000E+00 1.085E-04

     total cpu time spent up to now is     2390.3 secs

     total energy              =   -2125.95157500 Ry
     estimated scf accuracy    <       1.67741174 Ry

     total magnetization       =    19.00 Bohr mag/cell
     absolute magnetization    =    19.00 Bohr mag/cell

     iteration #  6     ecut=   100.00 Ry     beta= 0.40
     Davidson diagonalization with overlap
     ethr =  8.88E-04,  avg # of iterations =  2.0

     negative rho (up, down):  0.000E+00 2.252E-04

     total cpu time spent up to now is     2786.7 secs

     total energy              =   -2126.04792586 Ry
     estimated scf accuracy    <       0.53210912 Ry

     total magnetization       =    19.00 Bohr mag/cell
     absolute magnetization    =    19.00 Bohr mag/cell

     iteration #  7     ecut=   100.00 Ry     beta= 0.40
     Davidson diagonalization with overlap
     c_bands:  1 eigenvalues not converged
     ethr =  2.82E-04,  avg # of iterations =  3.2

     negative rho (up, down):  0.000E+00 3.685E-04

     total cpu time spent up to now is     3189.3 secs

     total energy              =   -2126.05585968 Ry
     estimated scf accuracy    <       0.17751381 Ry

     total magnetization       =    19.00 Bohr mag/cell
     absolute magnetization    =    19.00 Bohr mag/cell

     iteration #  8     ecut=   100.00 Ry     beta= 0.40
     Davidson diagonalization with overlap
     c_bands:  1 eigenvalues not converged
     c_bands:  1 eigenvalues not converged
     c_bands:  1 eigenvalues not converged
     c_bands:  1 eigenvalues not converged
     c_bands:  1 eigenvalues not converged
     ethr =  9.39E-05,  avg # of iterations = 12.2

     negative rho (up, down):  0.000E+00 4.838E-04

     total cpu time spent up to now is     3854.4 secs

     total energy              =   -2126.05080256 Ry
     estimated scf accuracy    <       0.41696427 Ry

     total magnetization       =    19.00 Bohr mag/cell
     absolute magnetization    =    19.01 Bohr mag/cell

     iteration #  9     ecut=   100.00 Ry     beta= 0.40
     Davidson diagonalization with overlap
     ethr =  9.39E-05,  avg # of iterations =  1.1

     negative rho (up, down):  0.000E+00 7.195E-04

     total cpu time spent up to now is     4199.5 secs

     total energy              =   -2126.07415113 Ry
     estimated scf accuracy    <       0.08751879 Ry

     total magnetization       =    19.00 Bohr mag/cell
     absolute magnetization    =    19.01 Bohr mag/cell

     iteration # 10     ecut=   100.00 Ry     beta= 0.40
     Davidson diagonalization with overlap
     c_bands:  1 eigenvalues not converged
     c_bands:  1 eigenvalues not converged
     ethr =  4.63E-05,  avg # of iterations =  1.5

     negative rho (up, down):  0.000E+00 7.847E-04

     total cpu time spent up to now is     4556.1 secs

     total energy              =   -2126.07868131 Ry
     estimated scf accuracy    <       0.06522314 Ry

     total magnetization       =    19.00 Bohr mag/cell
     absolute magnetization    =    19.02 Bohr mag/cell

     iteration # 11     ecut=   100.00 Ry     beta= 0.40
     Davidson diagonalization with overlap
     c_bands:  1 eigenvalues not converged
     c_bands:  1 eigenvalues not converged
     c_bands:  2 eigenvalues not converged
     ethr =  3.45E-05,  avg # of iterations =  1.5

     negative rho (up, down):  0.000E+00 9.112E-04

     total cpu time spent up to now is     4906.3 secs

     total energy              =   -2126.08137744 Ry
     estimated scf accuracy    <       0.05193418 Ry

     total magnetization       =    19.00 Bohr mag/cell
     absolute magnetization    =    19.02 Bohr mag/cell

     iteration # 12     ecut=   100.00 Ry     beta= 0.40
     Davidson diagonalization with overlap
     ethr =  2.75E-05,  avg # of iterations =  1.2

     negative rho (up, down):  0.000E+00 9.211E-04

     total cpu time spent up to now is     5252.6 secs

     total energy              =   -2126.08207142 Ry
     estimated scf accuracy    <       0.01133745 Ry

     total magnetization       =    19.00 Bohr mag/cell
     absolute magnetization    =    19.03 Bohr mag/cell

     iteration # 13     ecut=   100.00 Ry     beta= 0.40
     Davidson diagonalization with overlap
     c_bands:  1 eigenvalues not converged
     c_bands:  1 eigenvalues not converged
     c_bands:  1 eigenvalues not converged
     c_bands:  1 eigenvalues not converged
     c_bands:  1 eigenvalues not converged
     c_bands:  1 eigenvalues not converged
     c_bands:  1 eigenvalues not converged
     c_bands:  1 eigenvalues not converged
     c_bands:  1 eigenvalues not converged
     c_bands:  1 eigenvalues not converged
     c_bands:  1 eigenvalues not converged
     c_bands:  1 eigenvalues not converged
     c_bands:  1 eigenvalues not converged
     c_bands:  1 eigenvalues not converged
     c_bands:  1 eigenvalues not converged
     c_bands:  1 eigenvalues not converged
     c_bands:  1 eigenvalues not converged
     c_bands:  1 eigenvalues not converged
     c_bands:  1 eigenvalues not converged
     c_bands:  1 eigenvalues not converged
     c_bands:  1 eigenvalues not converged
     c_bands:  1 eigenvalues not converged
     c_bands:  1 eigenvalues not converged
     c_bands:  1 eigenvalues not converged
     c_bands:  1 eigenvalues not converged
     c_bands:  1 eigenvalues not converged
     c_bands:  1 eigenvalues not converged
     c_bands:  1 eigenvalues not converged
     ethr =  6.00E-06,  avg # of iterations = 13.3

     negative rho (up, down):  0.000E+00 9.230E-04

     total cpu time spent up to now is     5901.0 secs

     total energy              =   -2126.08306173 Ry
     estimated scf accuracy    <       0.00954353 Ry

     total magnetization       =    19.00 Bohr mag/cell
     absolute magnetization    =    19.04 Bohr mag/cell

     iteration # 14     ecut=   100.00 Ry     beta= 0.40
     Davidson diagonalization with overlap
     c_bands:  1 eigenvalues not converged
     ethr =  5.05E-06,  avg # of iterations =  1.3

     negative rho (up, down):  0.000E+00 9.329E-04

     total cpu time spent up to now is     6248.4 secs

     total energy              =   -2126.08328267 Ry
     estimated scf accuracy    <       0.00349273 Ry

     total magnetization       =    19.00 Bohr mag/cell
     absolute magnetization    =    19.04 Bohr mag/cell

     iteration # 15     ecut=   100.00 Ry     beta= 0.40
     Davidson diagonalization with overlap
     c_bands:  1 eigenvalues not converged
     c_bands:  1 eigenvalues not converged
     c_bands:  1 eigenvalues not converged
     c_bands:  1 eigenvalues not converged
     ethr =  1.85E-06,  avg # of iterations =  4.8

     negative rho (up, down):  0.000E+00 9.297E-04

     total cpu time spent up to now is     6700.7 secs

     total energy              =   -2126.08354128 Ry
     estimated scf accuracy    <       0.00074415 Ry

     total magnetization       =    19.00 Bohr mag/cell
     absolute magnetization    =    19.04 Bohr mag/cell

     iteration # 16     ecut=   100.00 Ry     beta= 0.40
     Davidson diagonalization with overlap
     ethr =  3.94E-07,  avg # of iterations =  4.8

     negative rho (up, down):  0.000E+00 9.219E-04

     total cpu time spent up to now is     7274.6 secs

     total energy              =   -2126.08375802 Ry
     estimated scf accuracy    <       0.00046099 Ry

     total magnetization       =    19.00 Bohr mag/cell
     absolute magnetization    =    19.04 Bohr mag/cell

     iteration # 17     ecut=   100.00 Ry     beta= 0.40
     Davidson diagonalization with overlap
     ethr =  2.44E-07,  avg # of iterations =  1.1

     negative rho (up, down):  0.000E+00 9.119E-04

     total cpu time spent up to now is     7618.8 secs

     total energy              =   -2126.08376598 Ry
     estimated scf accuracy    <       0.00007595 Ry

     total magnetization       =    19.00 Bohr mag/cell
     absolute magnetization    =    19.04 Bohr mag/cell

     iteration # 18     ecut=   100.00 Ry     beta= 0.40
     Davidson diagonalization with overlap
     ethr =  4.02E-08,  avg # of iterations =  1.2

     negative rho (up, down):  0.000E+00 9.093E-04

     total cpu time spent up to now is     7966.4 secs

     total energy              =   -2126.08377082 Ry
     estimated scf accuracy    <       0.00001843 Ry

     total magnetization       =    19.00 Bohr mag/cell
     absolute magnetization    =    19.04 Bohr mag/cell

     iteration # 19     ecut=   100.00 Ry     beta= 0.40
     Davidson diagonalization with overlap
     ethr =  9.75E-09,  avg # of iterations =  2.0

     negative rho (up, down):  0.000E+00 9.062E-04

     total cpu time spent up to now is     8342.1 secs

     total energy              =   -2126.08377243 Ry
     estimated scf accuracy    <       0.00000664 Ry

     total magnetization       =    19.00 Bohr mag/cell
     absolute magnetization    =    19.04 Bohr mag/cell

     iteration # 20     ecut=   100.00 Ry     beta= 0.40
     Davidson diagonalization with overlap
     ethr =  3.51E-09,  avg # of iterations =  1.6

     negative rho (up, down):  0.000E+00 9.058E-04

     total cpu time spent up to now is     8743.9 secs

     total energy              =   -2126.08377284 Ry
     estimated scf accuracy    <       0.00000285 Ry

     total magnetization       =    19.00 Bohr mag/cell
     absolute magnetization    =    19.04 Bohr mag/cell

     iteration # 21     ecut=   100.00 Ry     beta= 0.40
     Davidson diagonalization with overlap
     ethr =  1.51E-09,  avg # of iterations =  1.4

     negative rho (up, down):  0.000E+00 9.058E-04

     total cpu time spent up to now is     9097.0 secs

     total energy              =   -2126.08377303 Ry
     estimated scf accuracy    <       0.00000028 Ry

     total magnetization       =    19.00 Bohr mag/cell
     absolute magnetization    =    19.04 Bohr mag/cell

     iteration # 22     ecut=   100.00 Ry     beta= 0.40
     Davidson diagonalization with overlap
     ethr =  1.50E-10,  avg # of iterations =  4.6

     negative rho (up, down):  0.000E+00 9.064E-04

     total cpu time spent up to now is     9663.7 secs

     total energy              =   -2126.08377314 Ry
     estimated scf accuracy    <       0.00000007 Ry

     total magnetization       =    19.00 Bohr mag/cell
     absolute magnetization    =    19.04 Bohr mag/cell

     iteration # 23     ecut=   100.00 Ry     beta= 0.40
     Davidson diagonalization with overlap
     ethr =  3.97E-11,  avg # of iterations =  3.1

     negative rho (up, down):  0.000E+00 9.066E-04

     total cpu time spent up to now is    10131.2 secs

     total energy              =   -2126.08377315 Ry
     estimated scf accuracy    <       0.00000020 Ry

     total magnetization       =    19.00 Bohr mag/cell
     absolute magnetization    =    19.04 Bohr mag/cell

     iteration # 24     ecut=   100.00 Ry     beta= 0.40
     Davidson diagonalization with overlap
     ethr =  3.97E-11,  avg # of iterations =  2.0

     negative rho (up, down):  0.000E+00 9.068E-04

     total cpu time spent up to now is    10536.5 secs

     total energy              =   -2126.08377317 Ry
     estimated scf accuracy    <       0.00000002 Ry

     total magnetization       =    19.00 Bohr mag/cell
     absolute magnetization    =    19.04 Bohr mag/cell

     iteration # 25     ecut=   100.00 Ry     beta= 0.40
     Davidson diagonalization with overlap
     ethr =  8.41E-12,  avg # of iterations =  2.4

     negative rho (up, down):  0.000E+00 9.068E-04

     total cpu time spent up to now is    10934.1 secs

     total energy              =   -2126.08377317 Ry
     estimated scf accuracy    <       0.00000002 Ry

     total magnetization       =    19.00 Bohr mag/cell
     absolute magnetization    =    19.04 Bohr mag/cell

     iteration # 26     ecut=   100.00 Ry     beta= 0.40
     Davidson diagonalization with overlap
     ethr =  8.08E-12,  avg # of iterations =  1.0

     negative rho (up, down):  0.000E+00 9.069E-04

     total cpu time spent up to now is    11270.7 secs

     total energy              =   -2126.08377317 Ry
     estimated scf accuracy    <          3.8E-09 Ry

     total magnetization       =    19.00 Bohr mag/cell
     absolute magnetization    =    19.04 Bohr mag/cell

     iteration # 27     ecut=   100.00 Ry     beta= 0.40
     Davidson diagonalization with overlap
     ethr =  2.03E-12,  avg # of iterations =  3.3

     negative rho (up, down):  0.000E+00 9.069E-04

     total cpu time spent up to now is    11703.7 secs

     total energy              =   -2126.08377317 Ry
     estimated scf accuracy    <          6.6E-10 Ry

     total magnetization       =    19.00 Bohr mag/cell
     absolute magnetization    =    19.04 Bohr mag/cell

     iteration # 28     ecut=   100.00 Ry     beta= 0.40
     Davidson diagonalization with overlap
     ethr =  3.51E-13,  avg # of iterations =  4.4

     negative rho (up, down):  0.000E+00 9.069E-04

     total cpu time spent up to now is    12322.8 secs

     total energy              =   -2126.08377317 Ry
     estimated scf accuracy    <          7.2E-10 Ry

     total magnetization       =    19.00 Bohr mag/cell
     absolute magnetization    =    19.04 Bohr mag/cell

     iteration # 29     ecut=   100.00 Ry     beta= 0.40
     Davidson diagonalization with overlap
     ethr =  3.51E-13,  avg # of iterations =  1.1

     negative rho (up, down):  0.000E+00 9.069E-04

     total cpu time spent up to now is    12663.1 secs

     total energy              =   -2126.08377317 Ry
     estimated scf accuracy    <          3.5E-10 Ry

     total magnetization       =    19.00 Bohr mag/cell
     absolute magnetization    =    19.04 Bohr mag/cell

     iteration # 30     ecut=   100.00 Ry     beta= 0.40
     Davidson diagonalization with overlap
     ethr =  1.85E-13,  avg # of iterations =  2.0

     negative rho (up, down):  0.000E+00 9.069E-04

     total cpu time spent up to now is    13073.3 secs

     total energy              =   -2126.08377317 Ry
     estimated scf accuracy    <          2.6E-10 Ry

     total magnetization       =    19.00 Bohr mag/cell
     absolute magnetization    =    19.04 Bohr mag/cell

     iteration # 31     ecut=   100.00 Ry     beta= 0.40
     Davidson diagonalization with overlap
     ethr =  1.37E-13,  avg # of iterations =  1.0

     negative rho (up, down):  0.000E+00 9.069E-04

     Magnetic moment per site:
     atom:    1    charge:    7.8598    magn:    0.0007    constr:    0.0000
     atom:    2    charge:   12.6853    magn:    3.6035    constr:    0.0000
     atom:    3    charge:   12.6923    magn:    3.5877    constr:    0.0000
     atom:    4    charge:   12.7281    magn:    3.4875    constr:    0.0000
     atom:    5    charge:   12.6918    magn:    3.5931    constr:    0.0000
     atom:    6    charge:    0.7302    magn:    0.0100    constr:    0.0000
     atom:    7    charge:    0.7323    magn:    0.0078    constr:    0.0000
     atom:    8    charge:    0.7340    magn:    0.0107    constr:    0.0000
     atom:    9    charge:    0.7285    magn:    0.0086    constr:    0.0000
     atom:   10    charge:    4.0190    magn:    0.1330    constr:    0.0000
     atom:   11    charge:    4.0363    magn:    0.0884    constr:    0.0000
     atom:   12    charge:    4.0211    magn:    0.1227    constr:    0.0000
     atom:   13    charge:    4.0167    magn:    0.1079    constr:    0.0000
     atom:   14    charge:    4.0642    magn:    0.1046    constr:    0.0000
     atom:   15    charge:    4.0726    magn:    0.1179    constr:    0.0000
     atom:   16    charge:    4.0644    magn:    0.0750    constr:    0.0000
     atom:   17    charge:    4.0676    magn:    0.1272    constr:    0.0000
     atom:   18    charge:    3.9934    magn:    0.1482    constr:    0.0000
     atom:   19    charge:    3.9968    magn:    0.1296    constr:    0.0000
     atom:   20    charge:    3.9992    magn:    0.1372    constr:    0.0000
     atom:   21    charge:    3.9976    magn:    0.1195    constr:    0.0000
     atom:   22    charge:    3.9999    magn:    0.1447    constr:    0.0000
     atom:   23    charge:    3.9909    magn:    0.1287    constr:    0.0000
     atom:   24    charge:    3.9930    magn:    0.1470    constr:    0.0000
     atom:   25    charge:    3.9939    magn:    0.1279    constr:    0.0000

     total cpu time spent up to now is    13412.4 secs

     End of self-consistent calculation

 ------ SPIN UP ------------


          k = 0.0000 0.0000 0.0000 ( 34615 PWs)   bands (ev):

   -84.4948 -84.4883 -84.4791 -84.0712 -50.6582 -50.5926 -50.5693 -50.4670
   -50.4574 -50.4348 -50.4288 -50.3892 -50.3674 -50.3652 -50.0163 -49.8498
   -44.5363 -16.6101 -16.5405 -16.4955 -16.0745 -15.8762 -15.6610 -15.6012
   -13.7811 -13.5565 -13.3785 -13.3675 -13.2768 -13.2256 -13.0222 -12.9834
   -12.9242 -12.9081 -12.7850 -12.6687  -3.7957  -3.3492  -3.0464  -2.6633
    -2.0643  -1.7692  -1.3810  -1.2296  -1.1785  -1.0721  -0.9342  -0.8009
    -0.6474  -0.6380  -0.3437  -0.0424   0.1598   0.1692   0.6634   0.7522
     0.8486   0.8708   1.0812   1.1545   1.1931   1.2462   1.3274   1.4143
     1.5276   1.8853   1.9185   1.9794   2.0227   2.0450   2.1511   2.2550
     2.3059   2.3981   2.7436   2.7909   2.8081   2.8540   2.9564   3.0266
     3.0640   3.2319   3.2977   3.4016   3.4574   3.6554   3.7793   3.7903
     3.8661   3.9611   4.0137   4.1290   4.2131   4.3047   4.3721   4.4906
     4.5734   4.7940   4.8077   5.0056   5.1831   5.3888   5.4607   5.5758
    10.0773  12.1183  12.5073  12.9947  13.2933  13.5922  14.2491  14.3442
    14.4270  14.6659

     occupation numbers 
     1.0000   1.0000   1.0000   1.0000   1.0000   1.0000   1.0000   1.0000
     1.0000   1.0000   1.0000   1.0000   1.0000   1.0000   1.0000   1.0000
     1.0000   1.0000   1.0000   1.0000   1.0000   1.0000   1.0000   1.0000
     1.0000   1.0000   1.0000   1.0000   1.0000   1.0000   1.0000   1.0000
     1.0000   1.0000   1.0000   1.0000   1.0000   1.0000   1.0000   1.0000
     1.0000   1.0000   1.0000   1.0000   1.0000   1.0000   1.0000   1.0000
     1.0000   1.0000   1.0000   1.0000   1.0000   1.0000   1.0000   1.0000
     1.0000   1.0000   1.0000   1.0000   1.0000   1.0000   1.0000   1.0000
     1.0000   1.0000   1.0000   1.0000   1.0000   1.0000   1.0000   1.0000
     1.0000   1.0000   1.0000   1.0000   1.0000   1.0000   1.0000   1.0000
     1.0000   1.0000   1.0000   1.0000   1.0000   1.0000   1.0000   1.0000
     1.0000   1.0000   1.0000   1.0000   1.0000   1.0000   1.0000   1.0000
     1.0000   1.0000   1.0000   1.0000   1.0000   1.0000   1.0000   1.0000
     0.0000   0.0000   0.0000   0.0000   0.0000   0.0000   0.0000   0.0000
     0.0000   0.0000

          k = 0.0000 0.0000 0.2220 ( 34593 PWs)   bands (ev):

   -84.4948 -84.4883 -84.4791 -84.0712 -50.6582 -50.5926 -50.5693 -50.4670
   -50.4574 -50.4348 -50.4288 -50.3892 -50.3674 -50.3652 -50.0163 -49.8498
   -44.5363 -16.6144 -16.5490 -16.4943 -16.0563 -15.8678 -15.6559 -15.5974
   -13.7768 -13.5567 -13.3849 -13.3683 -13.2872 -13.2313 -13.0182 -12.9973
   -12.9209 -12.9198 -12.7894 -12.6729  -3.7697  -3.3401  -3.0475  -2.6787
    -2.0190  -1.7475  -1.3825  -1.2214  -1.1714  -1.0879  -0.9126  -0.7834
    -0.6352  -0.6067  -0.3885  -0.0133   0.1372   0.1806   0.6613   0.7617
     0.8601   0.9003   1.0817   1.1575   1.1916   1.2191   1.3173   1.4625
     1.5071   1.8714   1.8788   1.9418   2.0067   2.0197   2.1140   2.1588
     2.4028   2.4576   2.6627   2.7547   2.8024   2.8480   2.8995   3.0672
     3.0835   3.1750   3.3128   3.4833   3.5316   3.6513   3.7184   3.7859
     3.8091   3.9652   4.0313   4.0699   4.2313   4.3063   4.4339   4.4902
     4.6023   4.7821   4.8467   4.9989   5.1828   5.3659   5.4348   5.5543
    10.2288  12.1872  12.5801  12.9886  13.3455  13.5624  14.1218  14.3082
    14.3605  14.5716

     occupation numbers 
     1.0000   1.0000   1.0000   1.0000   1.0000   1.0000   1.0000   1.0000
     1.0000   1.0000   1.0000   1.0000   1.0000   1.0000   1.0000   1.0000
     1.0000   1.0000   1.0000   1.0000   1.0000   1.0000   1.0000   1.0000
     1.0000   1.0000   1.0000   1.0000   1.0000   1.0000   1.0000   1.0000
     1.0000   1.0000   1.0000   1.0000   1.0000   1.0000   1.0000   1.0000
     1.0000   1.0000   1.0000   1.0000   1.0000   1.0000   1.0000   1.0000
     1.0000   1.0000   1.0000   1.0000   1.0000   1.0000   1.0000   1.0000
     1.0000   1.0000   1.0000   1.0000   1.0000   1.0000   1.0000   1.0000
     1.0000   1.0000   1.0000   1.0000   1.0000   1.0000   1.0000   1.0000
     1.0000   1.0000   1.0000   1.0000   1.0000   1.0000   1.0000   1.0000
     1.0000   1.0000   1.0000   1.0000   1.0000   1.0000   1.0000   1.0000
     1.0000   1.0000   1.0000   1.0000   1.0000   1.0000   1.0000   1.0000
     1.0000   1.0000   1.0000   1.0000   1.0000   1.0000   1.0000   1.0000
     0.0000   0.0000   0.0000   0.0000   0.0000   0.0000   0.0000   0.0000
     0.0000   0.0000

          k = 0.0000 0.0000 0.4441 ( 34664 PWs)   bands (ev):

   -84.4948 -84.4883 -84.4791 -84.0712 -50.6582 -50.5926 -50.5693 -50.4670
   -50.4574 -50.4348 -50.4288 -50.3892 -50.3674 -50.3652 -50.0163 -49.8498
   -44.5363 -16.6302 -16.5617 -16.4923 -16.0131 -15.8454 -15.6427 -15.5887
   -13.7647 -13.5599 -13.4086 -13.3674 -13.3102 -13.2415 -13.0393 -13.0018
   -12.9539 -12.9081 -12.8014 -12.6844  -3.6966  -3.3234  -3.0472  -2.7278
    -1.8994  -1.6915  -1.3890  -1.2198  -1.1452  -1.0987  -0.8862  -0.6913
    -0.6237  -0.5311  -0.4923   0.0356   0.0791   0.2500   0.6639   0.7920
     0.8787   0.9803   1.0782   1.1653   1.1813   1.2188   1.2809   1.4785
     1.5330   1.7681   1.8619   1.8891   1.9503   1.9914   1.9954   2.0634
     2.3433   2.4363   2.6306   2.6794   2.7670   2.7710   2.9629   3.0237
     3.1300   3.1556   3.4419   3.4778   3.5174   3.6345   3.6749   3.7404
     3.8183   3.9421   3.9943   4.1451   4.2744   4.3201   4.4823   4.5491
     4.6838   4.7473   4.9099   5.0049   5.1806   5.3104   5.3559   5.4884
    10.6372  12.3680  12.7704  13.0126  13.4386  13.5333  13.8416  14.1012
    14.2323  14.3494

     occupation numbers 
     1.0000   1.0000   1.0000   1.0000   1.0000   1.0000   1.0000   1.0000
     1.0000   1.0000   1.0000   1.0000   1.0000   1.0000   1.0000   1.0000
     1.0000   1.0000   1.0000   1.0000   1.0000   1.0000   1.0000   1.0000
     1.0000   1.0000   1.0000   1.0000   1.0000   1.0000   1.0000   1.0000
     1.0000   1.0000   1.0000   1.0000   1.0000   1.0000   1.0000   1.0000
     1.0000   1.0000   1.0000   1.0000   1.0000   1.0000   1.0000   1.0000
     1.0000   1.0000   1.0000   1.0000   1.0000   1.0000   1.0000   1.0000
     1.0000   1.0000   1.0000   1.0000   1.0000   1.0000   1.0000   1.0000
     1.0000   1.0000   1.0000   1.0000   1.0000   1.0000   1.0000   1.0000
     1.0000   1.0000   1.0000   1.0000   1.0000   1.0000   1.0000   1.0000
     1.0000   1.0000   1.0000   1.0000   1.0000   1.0000   1.0000   1.0000
     1.0000   1.0000   1.0000   1.0000   1.0000   1.0000   1.0000   1.0000
     1.0000   1.0000   1.0000   1.0000   1.0000   1.0000   1.0000   1.0000
     0.0000   0.0000   0.0000   0.0000   0.0000   0.0000   0.0000   0.0000
     0.0000   0.0000

          k = 0.0000 0.0000 0.6661 ( 34722 PWs)   bands (ev):

   -84.4948 -84.4883 -84.4791 -84.0712 -50.6582 -50.5926 -50.5693 -50.4670
   -50.4574 -50.4348 -50.4288 -50.3892 -50.3674 -50.3652 -50.0163 -49.8498
   -44.5363 -16.6528 -16.5667 -16.4907 -15.9675 -15.8176 -15.6264 -15.5812
   -13.7474 -13.5715 -13.4385 -13.3752 -13.3222 -13.2484 -13.0855 -12.9940
   -12.9834 -12.8936 -12.8169 -12.6992  -3.5914  -3.3234  -3.0388  -2.8025
    -1.7657  -1.6275  -1.3906  -1.2385  -1.0913  -1.0771  -0.8609  -0.7108
    -0.5757  -0.5091  -0.4410  -0.1125   0.2279   0.3921   0.6816   0.8456
     0.9267   1.0123   1.0666   1.1283   1.2024   1.2137   1.2737   1.4901
     1.5498   1.6395   1.7497   1.7893   1.9125   1.9570   2.0025   2.0327
     2.0779   2.2855   2.5442   2.6136   2.6726   2.9055   2.9371   3.1103
     3.1757   3.2191   3.2732   3.4062   3.5554   3.5649   3.6666   3.7254
     3.8411   3.8981   4.0919   4.2855   4.3334   4.4194   4.4856   4.6212
     4.6946   4.8076   4.9556   5.0338   5.1718   5.2239   5.2591   5.3776
    11.2042  12.5902  12.8876  13.1608  13.3274  13.5997  13.6975  13.9546
    13.9913  14.0475

     occupation numbers 
     1.0000   1.0000   1.0000   1.0000   1.0000   1.0000   1.0000   1.0000
     1.0000   1.0000   1.0000   1.0000   1.0000   1.0000   1.0000   1.0000
     1.0000   1.0000   1.0000   1.0000   1.0000   1.0000   1.0000   1.0000
     1.0000   1.0000   1.0000   1.0000   1.0000   1.0000   1.0000   1.0000
     1.0000   1.0000   1.0000   1.0000   1.0000   1.0000   1.0000   1.0000
     1.0000   1.0000   1.0000   1.0000   1.0000   1.0000   1.0000   1.0000
     1.0000   1.0000   1.0000   1.0000   1.0000   1.0000   1.0000   1.0000
     1.0000   1.0000   1.0000   1.0000   1.0000   1.0000   1.0000   1.0000
     1.0000   1.0000   1.0000   1.0000   1.0000   1.0000   1.0000   1.0000
     1.0000   1.0000   1.0000   1.0000   1.0000   1.0000   1.0000   1.0000
     1.0000   1.0000   1.0000   1.0000   1.0000   1.0000   1.0000   1.0000
     1.0000   1.0000   1.0000   1.0000   1.0000   1.0000   1.0000   1.0000
     1.0000   1.0000   1.0000   1.0000   1.0000   1.0000   1.0000   1.0000
     0.0000   0.0000   0.0000   0.0000   0.0000   0.0000   0.0000   0.0000
     0.0000   0.0000

          k = 0.0000 0.0000 0.8882 ( 34692 PWs)   bands (ev):

   -84.4948 -84.4883 -84.4791 -84.0712 -50.6582 -50.5926 -50.5693 -50.4670
   -50.4574 -50.4348 -50.4288 -50.3892 -50.3674 -50.3652 -50.0163 -49.8498
   -44.5363 -16.6681 -16.5676 -16.4898 -15.9393 -15.7979 -15.6140 -15.5789
   -13.7321 -13.5874 -13.4572 -13.3873 -13.3169 -13.2537 -13.1169 -13.0201
   -12.9701 -12.8841 -12.8281 -12.7103  -3.4861  -3.3567  -3.0232  -2.8682
    -1.6891  -1.5887  -1.3835  -1.2515  -1.0349  -0.9988  -0.8671  -0.8574
    -0.5045  -0.4176  -0.3804  -0.2760   0.4060   0.6051   0.7231   0.8898
     0.9263   0.9986   1.0390   1.0528   1.1214   1.1948   1.3077   1.4838
     1.5398   1.5871   1.6530   1.7146   1.8103   1.9159   1.9567   2.0109
     2.1255   2.2985   2.3750   2.4955   2.6619   2.8159   3.0704   3.1629
     3.1979   3.2253   3.2773   3.3278   3.4497   3.5191   3.6803   3.7369
     3.8507   3.8931   4.2212   4.3082   4.3655   4.4307   4.6422   4.6512
     4.7138   4.9442   4.9775   5.0355   5.0573   5.1709   5.2231   5.2600
    11.8312  12.4353  12.9067  13.1820  13.4756  13.5532  13.7525  13.8358
    13.9281  14.0034

     occupation numbers 
     1.0000   1.0000   1.0000   1.0000   1.0000   1.0000   1.0000   1.0000
     1.0000   1.0000   1.0000   1.0000   1.0000   1.0000   1.0000   1.0000
     1.0000   1.0000   1.0000   1.0000   1.0000   1.0000   1.0000   1.0000
     1.0000   1.0000   1.0000   1.0000   1.0000   1.0000   1.0000   1.0000
     1.0000   1.0000   1.0000   1.0000   1.0000   1.0000   1.0000   1.0000
     1.0000   1.0000   1.0000   1.0000   1.0000   1.0000   1.0000   1.0000
     1.0000   1.0000   1.0000   1.0000   1.0000   1.0000   1.0000   1.0000
     1.0000   1.0000   1.0000   1.0000   1.0000   1.0000   1.0000   1.0000
     1.0000   1.0000   1.0000   1.0000   1.0000   1.0000   1.0000   1.0000
     1.0000   1.0000   1.0000   1.0000   1.0000   1.0000   1.0000   1.0000
     1.0000   1.0000   1.0000   1.0000   1.0000   1.0000   1.0000   1.0000
     1.0000   1.0000   1.0000   1.0000   1.0000   1.0000   1.0000   1.0000
     1.0000   1.0000   1.0000   1.0000   1.0000   1.0000   1.0000   1.0000
     0.0000   0.0000   0.0000   0.0000   0.0000   0.0000   0.0000   0.0000
     0.0000   0.0000

          k = 0.0000 0.2271 0.0000 ( 34607 PWs)   bands (ev):

   -84.4948 -84.4883 -84.4791 -84.0712 -50.6582 -50.5926 -50.5693 -50.4670
   -50.4574 -50.4348 -50.4288 -50.3892 -50.3674 -50.3652 -50.0163 -49.8498
   -44.5363 -16.6100 -16.5404 -16.4968 -16.0582 -15.8725 -15.6620 -15.6174
   -13.7768 -13.5548 -13.4051 -13.3717 -13.2750 -13.2232 -13.0198 -12.9774
   -12.9321 -12.8880 -12.7870 -12.6738  -3.7738  -3.3683  -3.0232  -2.6676
    -2.0481  -1.7751  -1.3882  -1.2378  -1.1334  -1.0608  -0.9372  -0.7950
    -0.6647  -0.5657  -0.3013  -0.0126   0.0678   0.2451   0.6649   0.7695
     0.7794   0.8945   0.9720   1.0583   1.1071   1.2816   1.3923   1.4693
     1.6136   1.8672   1.9300   1.9592   2.0045   2.0609   2.0960   2.1593
     2.3330   2.4179   2.6703   2.7559   2.7978   2.8734   2.9851   3.0236
     3.1593   3.1886   3.2695   3.3242   3.4705   3.6466   3.7492   3.7853
     3.8645   3.9227   3.9851   4.1917   4.2525   4.3031   4.4021   4.5047
     4.5732   4.7614   4.8734   4.9538   5.1748   5.2613   5.5728   5.6320
    10.2266  12.2035  12.5813  12.9774  13.2881  13.6777  14.2081  14.3107
    14.3491  14.6130

     occupation numbers 
     1.0000   1.0000   1.0000   1.0000   1.0000   1.0000   1.0000   1.0000
     1.0000   1.0000   1.0000   1.0000   1.0000   1.0000   1.0000   1.0000
     1.0000   1.0000   1.0000   1.0000   1.0000   1.0000   1.0000   1.0000
     1.0000   1.0000   1.0000   1.0000   1.0000   1.0000   1.0000   1.0000
     1.0000   1.0000   1.0000   1.0000   1.0000   1.0000   1.0000   1.0000
     1.0000   1.0000   1.0000   1.0000   1.0000   1.0000   1.0000   1.0000
     1.0000   1.0000   1.0000   1.0000   1.0000   1.0000   1.0000   1.0000
     1.0000   1.0000   1.0000   1.0000   1.0000   1.0000   1.0000   1.0000
     1.0000   1.0000   1.0000   1.0000   1.0000   1.0000   1.0000   1.0000
     1.0000   1.0000   1.0000   1.0000   1.0000   1.0000   1.0000   1.0000
     1.0000   1.0000   1.0000   1.0000   1.0000   1.0000   1.0000   1.0000
     1.0000   1.0000   1.0000   1.0000   1.0000   1.0000   1.0000   1.0000
     1.0000   1.0000   1.0000   1.0000   1.0000   1.0000   1.0000   1.0000
     0.0000   0.0000   0.0000   0.0000   0.0000   0.0000   0.0000   0.0000
     0.0000   0.0000

          k = 0.0000 0.2271 0.2220 ( 34613 PWs)   bands (ev):

   -84.4948 -84.4883 -84.4791 -84.0712 -50.6582 -50.5926 -50.5693 -50.4670
   -50.4574 -50.4348 -50.4288 -50.3892 -50.3674 -50.3652 -50.0163 -49.8498
   -44.5363 -16.6137 -16.5486 -16.4954 -16.0426 -15.8650 -15.6559 -15.6121
   -13.7723 -13.5551 -13.4010 -13.3797 -13.2860 -13.2316 -13.0260 -12.9821
   -12.9415 -12.8875 -12.7915 -12.6771  -3.7484  -3.3577  -3.0246  -2.6828
    -2.0050  -1.7528  -1.3859  -1.2297  -1.1264  -1.0719  -0.9118  -0.7825
    -0.6286  -0.5621  -0.3452  -0.0264   0.0888   0.2494   0.6454   0.7740
     0.8324   0.8933   0.9706   1.0566   1.1121   1.2659   1.4151   1.4763
     1.5718   1.8683   1.8941   1.9198   1.9928   2.0191   2.0703   2.1191
     2.4109   2.4746   2.6277   2.7386   2.7881   2.8857   2.9255   2.9908
     3.1438   3.2116   3.2565   3.4007   3.4916   3.6456   3.7099   3.7601
     3.8106   3.9473   4.0026   4.1311   4.2762   4.3113   4.4509   4.5046
     4.5969   4.7556   4.9141   4.9318   5.1498   5.2656   5.5569   5.6174
    10.3740  12.2739  12.6541  12.9972  13.3146  13.6395  14.0739  14.2886
    14.3370  14.4978

     occupation numbers 
     1.0000   1.0000   1.0000   1.0000   1.0000   1.0000   1.0000   1.0000
     1.0000   1.0000   1.0000   1.0000   1.0000   1.0000   1.0000   1.0000
     1.0000   1.0000   1.0000   1.0000   1.0000   1.0000   1.0000   1.0000
     1.0000   1.0000   1.0000   1.0000   1.0000   1.0000   1.0000   1.0000
     1.0000   1.0000   1.0000   1.0000   1.0000   1.0000   1.0000   1.0000
     1.0000   1.0000   1.0000   1.0000   1.0000   1.0000   1.0000   1.0000
     1.0000   1.0000   1.0000   1.0000   1.0000   1.0000   1.0000   1.0000
     1.0000   1.0000   1.0000   1.0000   1.0000   1.0000   1.0000   1.0000
     1.0000   1.0000   1.0000   1.0000   1.0000   1.0000   1.0000   1.0000
     1.0000   1.0000   1.0000   1.0000   1.0000   1.0000   1.0000   1.0000
     1.0000   1.0000   1.0000   1.0000   1.0000   1.0000   1.0000   1.0000
     1.0000   1.0000   1.0000   1.0000   1.0000   1.0000   1.0000   1.0000
     1.0000   1.0000   1.0000   1.0000   1.0000   1.0000   1.0000   1.0000
     0.0000   0.0000   0.0000   0.0000   0.0000   0.0000   0.0000   0.0000
     0.0000   0.0000

          k = 0.0000 0.2271 0.4441 ( 34660 PWs)   bands (ev):

   -84.4948 -84.4883 -84.4791 -84.0712 -50.6582 -50.5926 -50.5693 -50.4670
   -50.4574 -50.4348 -50.4288 -50.3892 -50.3674 -50.3652 -50.0163 -49.8498
   -44.5363 -16.6287 -16.5613 -16.4932 -16.0019 -15.8434 -15.6423 -15.6008
   -13.7598 -13.5573 -13.4047 -13.3911 -13.3122 -13.2473 -13.0602 -12.9847
   -12.9629 -12.8810 -12.8018 -12.6861  -3.6768  -3.3363  -3.0274  -2.7311
    -1.8907  -1.6942  -1.3839  -1.2234  -1.1043  -1.0747  -0.8767  -0.7083
    -0.5672  -0.5392  -0.4507  -0.0704   0.1484   0.2749   0.6320   0.7844
     0.8565   0.9216   1.0230   1.0974   1.1319   1.2236   1.4242   1.4771
     1.5483   1.7739   1.8640   1.8956   1.9188   1.9524   2.0073   2.0838
     2.3522   2.4514   2.6314   2.6960   2.7563   2.8035   2.9184   3.0214
     3.0479   3.2357   3.3764   3.4395   3.5032   3.5455   3.6885   3.7200
     3.7739   3.9706   4.0328   4.1135   4.2973   4.3484   4.4930   4.5569
     4.6583   4.7366   4.8872   5.0021   5.0988   5.2664   5.5066   5.5719
    10.7717  12.4563  12.8499  13.0647  13.3775  13.5963  13.8472  14.0917
    14.1975  14.3806

     occupation numbers 
     1.0000   1.0000   1.0000   1.0000   1.0000   1.0000   1.0000   1.0000
     1.0000   1.0000   1.0000   1.0000   1.0000   1.0000   1.0000   1.0000
     1.0000   1.0000   1.0000   1.0000   1.0000   1.0000   1.0000   1.0000
     1.0000   1.0000   1.0000   1.0000   1.0000   1.0000   1.0000   1.0000
     1.0000   1.0000   1.0000   1.0000   1.0000   1.0000   1.0000   1.0000
     1.0000   1.0000   1.0000   1.0000   1.0000   1.0000   1.0000   1.0000
     1.0000   1.0000   1.0000   1.0000   1.0000   1.0000   1.0000   1.0000
     1.0000   1.0000   1.0000   1.0000   1.0000   1.0000   1.0000   1.0000
     1.0000   1.0000   1.0000   1.0000   1.0000   1.0000   1.0000   1.0000
     1.0000   1.0000   1.0000   1.0000   1.0000   1.0000   1.0000   1.0000
     1.0000   1.0000   1.0000   1.0000   1.0000   1.0000   1.0000   1.0000
     1.0000   1.0000   1.0000   1.0000   1.0000   1.0000   1.0000   1.0000
     1.0000   1.0000   1.0000   1.0000   1.0000   1.0000   1.0000   1.0000
     0.0000   0.0000   0.0000   0.0000   0.0000   0.0000   0.0000   0.0000
     0.0000   0.0000

          k = 0.0000 0.2271 0.6661 ( 34677 PWs)   bands (ev):

   -84.4948 -84.4883 -84.4791 -84.0712 -50.6582 -50.5926 -50.5693 -50.4670
   -50.4574 -50.4348 -50.4288 -50.3892 -50.3674 -50.3652 -50.0163 -49.8498
   -44.5363 -16.6510 -16.5666 -16.4915 -15.9580 -15.8155 -15.6269 -15.5905
   -13.7422 -13.5669 -13.4352 -13.3839 -13.3354 -13.2587 -13.1076 -13.0156
   -12.9558 -12.8705 -12.8144 -12.6979  -3.5746  -3.3276  -3.0257  -2.8043
    -1.7607  -1.6250  -1.3796  -1.2335  -1.0679  -1.0364  -0.8486  -0.6873
    -0.5717  -0.4924  -0.4336  -0.1620   0.2547   0.3611   0.6346   0.7965
     0.8245   0.9825   1.0721   1.1442   1.1783   1.2452   1.4063   1.4329
     1.5816   1.6529   1.7629   1.7916   1.8860   1.9528   1.9961   2.0408
     2.1344   2.2792   2.5326   2.6368   2.6883   2.8839   2.9377   3.0549
     3.0827   3.2344   3.3182   3.4443   3.4749   3.5342   3.5912   3.7541
     3.7802   3.9215   4.1293   4.2562   4.3192   4.3962   4.4958   4.6162
     4.6880   4.7662   4.8577   4.9952   5.1341   5.2641   5.4282   5.5011
    11.3277  12.6844  12.9896  13.2069  13.3680  13.6203  13.7161  13.8962
    13.9711  14.0729

     occupation numbers 
     1.0000   1.0000   1.0000   1.0000   1.0000   1.0000   1.0000   1.0000
     1.0000   1.0000   1.0000   1.0000   1.0000   1.0000   1.0000   1.0000
     1.0000   1.0000   1.0000   1.0000   1.0000   1.0000   1.0000   1.0000
     1.0000   1.0000   1.0000   1.0000   1.0000   1.0000   1.0000   1.0000
     1.0000   1.0000   1.0000   1.0000   1.0000   1.0000   1.0000   1.0000
     1.0000   1.0000   1.0000   1.0000   1.0000   1.0000   1.0000   1.0000
     1.0000   1.0000   1.0000   1.0000   1.0000   1.0000   1.0000   1.0000
     1.0000   1.0000   1.0000   1.0000   1.0000   1.0000   1.0000   1.0000
     1.0000   1.0000   1.0000   1.0000   1.0000   1.0000   1.0000   1.0000
     1.0000   1.0000   1.0000   1.0000   1.0000   1.0000   1.0000   1.0000
     1.0000   1.0000   1.0000   1.0000   1.0000   1.0000   1.0000   1.0000
     1.0000   1.0000   1.0000   1.0000   1.0000   1.0000   1.0000   1.0000
     1.0000   1.0000   1.0000   1.0000   1.0000   1.0000   1.0000   1.0000
     0.0000   0.0000   0.0000   0.0000   0.0000   0.0000   0.0000   0.0000
     0.0000   0.0000

          k = 0.0000 0.2271 0.8882 ( 34672 PWs)   bands (ev):

   -84.4948 -84.4883 -84.4791 -84.0712 -50.6582 -50.5926 -50.5693 -50.4670
   -50.4574 -50.4348 -50.4288 -50.3892 -50.3674 -50.3652 -50.0163 -49.8498
   -44.5363 -16.6665 -16.5675 -16.4905 -15.9310 -15.7926 -15.6184 -15.5855
   -13.7266 -13.5812 -13.4542 -13.3881 -13.3354 -13.2681 -13.1396 -13.0422
   -12.9447 -12.8635 -12.8225 -12.7068  -3.4750  -3.3498  -3.0191  -2.8662
    -1.6837  -1.5802  -1.3734  -1.2416  -1.0205  -0.9544  -0.8535  -0.8186
    -0.5203  -0.4324  -0.3642  -0.2741   0.3789   0.5198   0.6424   0.6924
     0.8628   1.0113   1.1082   1.1624   1.2493   1.2826   1.3237   1.4087
     1.5549   1.5755   1.6788   1.7632   1.8264   1.8958   1.9402   2.0094
     2.1212   2.2504   2.3877   2.5182   2.6830   2.8142   3.0174   3.0850
     3.1595   3.2440   3.2687   3.3540   3.4572   3.5160   3.5874   3.7675
     3.7996   3.9001   4.2367   4.3082   4.3617   4.4329   4.5508   4.6298
     4.6622   4.7846   4.8792   4.9777   5.1974   5.2487   5.3553   5.4331
    11.9480  12.5371  12.9972  13.2696  13.5358  13.5778  13.7561  13.8253
    13.8803  14.0226

     occupation numbers 
     1.0000   1.0000   1.0000   1.0000   1.0000   1.0000   1.0000   1.0000
     1.0000   1.0000   1.0000   1.0000   1.0000   1.0000   1.0000   1.0000
     1.0000   1.0000   1.0000   1.0000   1.0000   1.0000   1.0000   1.0000
     1.0000   1.0000   1.0000   1.0000   1.0000   1.0000   1.0000   1.0000
     1.0000   1.0000   1.0000   1.0000   1.0000   1.0000   1.0000   1.0000
     1.0000   1.0000   1.0000   1.0000   1.0000   1.0000   1.0000   1.0000
     1.0000   1.0000   1.0000   1.0000   1.0000   1.0000   1.0000   1.0000
     1.0000   1.0000   1.0000   1.0000   1.0000   1.0000   1.0000   1.0000
     1.0000   1.0000   1.0000   1.0000   1.0000   1.0000   1.0000   1.0000
     1.0000   1.0000   1.0000   1.0000   1.0000   1.0000   1.0000   1.0000
     1.0000   1.0000   1.0000   1.0000   1.0000   1.0000   1.0000   1.0000
     1.0000   1.0000   1.0000   1.0000   1.0000   1.0000   1.0000   1.0000
     1.0000   1.0000   1.0000   1.0000   1.0000   1.0000   1.0000   1.0000
     0.0000   0.0000   0.0000   0.0000   0.0000   0.0000   0.0000   0.0000
     0.0000   0.0000

          k = 0.0000 0.4542 0.0000 ( 34657 PWs)   bands (ev):

   -84.4948 -84.4883 -84.4791 -84.0712 -50.6582 -50.5926 -50.5693 -50.4670
   -50.4574 -50.4348 -50.4288 -50.3892 -50.3674 -50.3652 -50.0163 -49.8498
   -44.5363 -16.6097 -16.5402 -16.4997 -16.0161 -15.8630 -15.6833 -15.6416
   -13.7633 -13.5517 -13.4751 -13.3657 -13.2703 -13.2158 -13.0333 -12.9641
   -12.9298 -12.8505 -12.7957 -12.6857  -3.7144  -3.4216  -2.9622  -2.6886
    -2.0055  -1.7913  -1.4014  -1.2533  -1.0752  -0.9832  -0.9314  -0.7544
    -0.6863  -0.4242  -0.2470  -0.0727   0.0895   0.3576   0.6311   0.6994
     0.7514   0.8217   0.8780   0.9618   1.0686   1.3089   1.3709   1.5803
     1.6863   1.7141   1.8109   1.8960   1.9474   2.0580   2.1737   2.2041
     2.3622   2.4432   2.6259   2.6878   2.7611   2.8385   2.8849   3.0244
     3.1654   3.2063   3.2588   3.3549   3.4834   3.6021   3.6636   3.7216
     3.8088   3.8672   4.1437   4.2256   4.2834   4.3419   4.4304   4.5455
     4.5733   4.7121   4.7730   4.9279   5.0786   5.4029   5.6451   5.6795
    10.6366  12.4115  12.5937  12.7823  13.4702  13.8988  14.0316  14.1198
    14.5224  14.5846

     occupation numbers 
     1.0000   1.0000   1.0000   1.0000   1.0000   1.0000   1.0000   1.0000
     1.0000   1.0000   1.0000   1.0000   1.0000   1.0000   1.0000   1.0000
     1.0000   1.0000   1.0000   1.0000   1.0000   1.0000   1.0000   1.0000
     1.0000   1.0000   1.0000   1.0000   1.0000   1.0000   1.0000   1.0000
     1.0000   1.0000   1.0000   1.0000   1.0000   1.0000   1.0000   1.0000
     1.0000   1.0000   1.0000   1.0000   1.0000   1.0000   1.0000   1.0000
     1.0000   1.0000   1.0000   1.0000   1.0000   1.0000   1.0000   1.0000
     1.0000   1.0000   1.0000   1.0000   1.0000   1.0000   1.0000   1.0000
     1.0000   1.0000   1.0000   1.0000   1.0000   1.0000   1.0000   1.0000
     1.0000   1.0000   1.0000   1.0000   1.0000   1.0000   1.0000   1.0000
     1.0000   1.0000   1.0000   1.0000   1.0000   1.0000   1.0000   1.0000
     1.0000   1.0000   1.0000   1.0000   1.0000   1.0000   1.0000   1.0000
     1.0000   1.0000   1.0000   1.0000   1.0000   1.0000   1.0000   1.0000
     0.0000   0.0000   0.0000   0.0000   0.0000   0.0000   0.0000   0.0000
     0.0000   0.0000

          k = 0.0000 0.4542 0.2220 ( 34661 PWs)   bands (ev):

   -84.4948 -84.4883 -84.4791 -84.0712 -50.6582 -50.5926 -50.5693 -50.4670
   -50.4574 -50.4348 -50.4288 -50.3892 -50.3674 -50.3652 -50.0163 -49.8498
   -44.5363 -16.6131 -16.5480 -16.4981 -16.0036 -15.8554 -15.6740 -15.6370
   -13.7584 -13.5512 -13.4693 -13.3706 -13.2837 -13.2281 -13.0493 -12.9745
   -12.9302 -12.8474 -12.7979 -12.6870  -3.6905  -3.4074  -2.9659  -2.7025
[...]
     atom   24 type  3   force =     0.01183395   -0.00590316   -0.00427590
     atom   25 type  3   force =    -0.01040061    0.00691398   -0.00473095
     The non-local contrib.  to forces
     atom    1 type  2   force =     0.12147274   -0.04621657    0.00681915
     atom    2 type  1   force =     0.04965649   -0.01444973    0.11672819
     atom    3 type  1   force =     0.05375504    0.00002898    0.08697030
     atom    4 type  1   force =    -0.17438731    0.04496062   -0.07818900
     atom    5 type  1   force =    -0.03351450   -0.00922614   -0.09594750
     atom    6 type  4   force =     0.07021158   -0.00016250    0.00330051
     atom    7 type  4   force =    -0.04617712    0.00244743    0.02950446
     atom    8 type  4   force =    -0.08973128   -0.00636570   -0.01143736
     atom    9 type  4   force =     0.09734442    0.00115512    0.00370152
     atom   10 type  3   force =     0.31544528    0.01067333   -1.43741449
     atom   11 type  3   force =    -0.12767969    0.01076199   -1.35741150
     atom   12 type  3   force =    -0.39610410   -0.01480364    1.44239200
     atom   13 type  3   force =     0.25165219    0.01539545    1.44395087
     atom   14 type  3   force =     1.17632575    0.01156410   -0.64689932
     atom   15 type  3   force =    -1.15246218   -0.01124293   -0.80503275
     atom   16 type  3   force =    -1.16158999    0.01720498    0.34586923
     atom   17 type  3   force =     1.13111244    0.00548132    0.64686059
     atom   18 type  3   force =    -0.49558026   -1.14854704    0.77465070
     atom   19 type  3   force =     0.52343423    1.20479332    0.81470265
     atom   20 type  3   force =     0.54086822   -1.17309792   -0.71040692
     atom   21 type  3   force =    -0.56585289    1.11258745   -0.64755836
     atom   22 type  3   force =     0.50201722    1.15756125   -0.68016329
     atom   23 type  3   force =    -0.50024097   -1.11974164   -0.73463134
     atom   24 type  3   force =    -0.49761276    1.15458947    0.77035094
     atom   25 type  3   force =     0.49983232   -1.22485197    0.78759438
     The ionic contribution  to forces
     atom    1 type  2   force =    -2.73395849   -0.18159392    2.31916289
     atom    2 type  1   force =    -1.12872284    0.15424895   -0.72233179
     atom    3 type  1   force =    -7.23370267   -0.43659147   -0.95475346
     atom    4 type  1   force =     4.65648009   -0.58540663   -0.25901430
     atom    5 type  1   force =     6.91520291    0.66811871    1.07399012
     atom    6 type  4   force =    -2.10252237    0.02715729    0.62791265
     atom    7 type  4   force =    -0.57553268   -0.41291521    0.75514898
     atom    8 type  4   force =     3.88177582   -0.00897777   -0.92115301
     atom    9 type  4   force =    -1.38296544    0.47285483   -1.04759422
     atom   10 type  3   force =   -10.24977988   -0.03730587    2.09159365
     atom   11 type  3   force =     3.70978495   -0.81433650    0.41113872
     atom   12 type  3   force =    12.26496647    0.15268986   -2.28160692
     atom   13 type  3   force =    -8.43643343    0.49300585   -1.62403032
     atom   14 type  3   force =     0.70789555    0.53387094    6.03710871
     atom   15 type  3   force =    -1.94139065    0.08778990    7.67275096
     atom   16 type  3   force =    -1.85577798   -0.90705222   -2.98154347
     atom   17 type  3   force =     3.60344829   -0.07614331   -6.75452756
     atom   18 type  3   force =    -3.62725212    2.84283632   -2.96730547
     atom   19 type  3   force =     0.71957269   -4.14722705   -2.68186428
     atom   20 type  3   force =     4.99419906    4.57477122    2.65429672
     atom   21 type  3   force =    -0.06875613   -1.13666336    0.42681011
     atom   22 type  3   force =     4.92392650   -4.49998104    2.27477557
     atom   23 type  3   force =    -1.59324764    1.67237291    1.96390674
     atom   24 type  3   force =    -3.78125825   -2.91916572   -2.93234480
     atom   25 type  3   force =     0.33404822    4.48364329   -2.18052622
     The local contribution  to forces
     atom    1 type  2   force =     2.62452857    0.23304723   -2.31690968
     atom    2 type  1   force =     1.06114403   -0.14001571    0.60835593
     atom    3 type  1   force =     7.20609751    0.43564321    0.86328878
     atom    4 type  1   force =    -4.48113660    0.53953924    0.33241883
     atom    5 type  1   force =    -6.90904211   -0.65838497   -0.97504275
     atom    6 type  4   force =     2.15096928   -0.02697336   -0.60915912
     atom    7 type  4   force =     0.51879804    0.40983048   -0.76416465
     atom    8 type  4   force =    -3.91455889    0.01258902    0.89810079
     atom    9 type  4   force =     1.40622013   -0.47216917    1.02201084
     atom   10 type  3   force =     9.92114527    0.02613419   -0.67506183
     atom   11 type  3   force =    -3.58230924    0.80190720    0.92671301
     atom   12 type  3   force =   -11.85427973   -0.13780660    0.86321372
     atom   13 type  3   force =     8.17414000   -0.50806518    0.19807258
     atom   14 type  3   force =    -1.99814256   -0.54674885   -5.36536839
     atom   15 type  3   force =     3.20379695   -0.07561138   -6.83371578
     atom   16 type  3   force =     3.12890216    0.89001366    2.61770224
     atom   17 type  3   force =    -4.83805973    0.07012512    6.08068922
     atom   18 type  3   force =     4.13031984   -1.69849429    2.19547841
     atom   19 type  3   force =    -1.25001026    2.94526714    1.86990774
     atom   20 type  3   force =    -5.54503162   -3.40174747   -1.94899162
     atom   21 type  3   force =     0.64255116    0.02958584    0.21817346
     atom   22 type  3   force =    -5.43364628    3.34198494   -1.60023391
     atom   23 type  3   force =     2.09837717   -0.55602986   -1.23142308
     atom   24 type  3   force =     4.28662107    1.76853584    2.16457534
     atom   25 type  3   force =    -0.84020145   -3.26237701    1.39521557
     The core correction contribution to forces
     atom    1 type  2   force =     0.00000000    0.00000000    0.00000000
     atom    2 type  1   force =    -0.00020040    0.00012596   -0.00006186
     atom    3 type  1   force =    -0.00008414   -0.00002083    0.00085674
     atom    4 type  1   force =     0.00324524   -0.00038979   -0.00118161
     atom    5 type  1   force =     0.00048057    0.00005194   -0.00019663
     atom    6 type  4   force =    -0.00715724    0.00000990   -0.00122065
     atom    7 type  4   force =     0.00590212   -0.00005902   -0.00307096
     atom    8 type  4   force =     0.00796057    0.00044322    0.00220381
     atom    9 type  4   force =    -0.00917561   -0.00039745    0.00090697
     atom   10 type  3   force =    -0.00320864   -0.00009402    0.01253132
     atom   11 type  3   force =     0.00177611   -0.00006993    0.01172260
     atom   12 type  3   force =     0.00393214    0.00014252   -0.01255621
     atom   13 type  3   force =    -0.00270324   -0.00014004   -0.01253248
     atom   14 type  3   force =    -0.00814739   -0.00009814    0.00562966
     atom   15 type  3   force =     0.00801303    0.00008736    0.00683568
     atom   16 type  3   force =     0.00796990   -0.00013038   -0.00308298
     atom   17 type  3   force =    -0.00794451   -0.00004171   -0.00556250
     atom   18 type  3   force =     0.00406806    0.00979793   -0.00691222
     atom   19 type  3   force =    -0.00428638   -0.01025789   -0.00726812
     atom   20 type  3   force =    -0.00447899    0.00998352    0.00629900
     atom   21 type  3   force =     0.00466494   -0.00959915    0.00579355
     atom   22 type  3   force =    -0.00414937   -0.00984991    0.00602926
     atom   23 type  3   force =     0.00413152    0.00958584    0.00659509
     atom   24 type  3   force =     0.00408605   -0.00986053   -0.00685758
     atom   25 type  3   force =    -0.00408039    0.01050188   -0.00701182
     The Hubbard contrib.    to forces
     atom    1 type  2   force =     0.00000000    0.00000000    0.00000000
     atom    2 type  1   force =     0.00000000    0.00000000    0.00000000
     atom    3 type  1   force =     0.00000000    0.00000000    0.00000000
     atom    4 type  1   force =     0.00000000    0.00000000    0.00000000
     atom    5 type  1   force =     0.00000000    0.00000000    0.00000000
     atom    6 type  4   force =     0.00000000    0.00000000    0.00000000
     atom    7 type  4   force =     0.00000000    0.00000000    0.00000000
     atom    8 type  4   force =     0.00000000    0.00000000    0.00000000
     atom    9 type  4   force =     0.00000000    0.00000000    0.00000000
     atom   10 type  3   force =     0.00000000    0.00000000    0.00000000
     atom   11 type  3   force =     0.00000000    0.00000000    0.00000000
     atom   12 type  3   force =     0.00000000    0.00000000    0.00000000
     atom   13 type  3   force =     0.00000000    0.00000000    0.00000000
     atom   14 type  3   force =     0.00000000    0.00000000    0.00000000
     atom   15 type  3   force =     0.00000000    0.00000000    0.00000000
     atom   16 type  3   force =     0.00000000    0.00000000    0.00000000
     atom   17 type  3   force =     0.00000000    0.00000000    0.00000000
     atom   18 type  3   force =     0.00000000    0.00000000    0.00000000
     atom   19 type  3   force =     0.00000000    0.00000000    0.00000000
     atom   20 type  3   force =     0.00000000    0.00000000    0.00000000
     atom   21 type  3   force =     0.00000000    0.00000000    0.00000000
     atom   22 type  3   force =     0.00000000    0.00000000    0.00000000
     atom   23 type  3   force =     0.00000000    0.00000000    0.00000000
     atom   24 type  3   force =     0.00000000    0.00000000    0.00000000
     atom   25 type  3   force =     0.00000000    0.00000000    0.00000000
     The SCF correction term to forces
     atom    1 type  2   force =     0.00000319    0.00000009    0.00000003
     atom    2 type  1   force =     0.00000027    0.00000002   -0.00000093
     atom    3 type  1   force =    -0.00000143   -0.00000003    0.00000023
     atom    4 type  1   force =     0.00000046   -0.00000010    0.00000011
     atom    5 type  1   force =    -0.00000048   -0.00000007   -0.00000069
     atom    6 type  4   force =    -0.00000244    0.00000000    0.00000068
     atom    7 type  4   force =     0.00000110    0.00000002   -0.00000014
     atom    8 type  4   force =    -0.00000146   -0.00000000   -0.00000001
     atom    9 type  4   force =     0.00000271    0.00000000    0.00000039
     atom   10 type  3   force =    -0.00000393   -0.00000000   -0.00000157
     atom   11 type  3   force =     0.00000065   -0.00000001    0.00000081
     atom   12 type  3   force =    -0.00000167   -0.00000003   -0.00000025
     atom   13 type  3   force =     0.00000411    0.00000001   -0.00000164
     atom   14 type  3   force =     0.00000470   -0.00000002    0.00000124
     atom   15 type  3   force =    -0.00000090   -0.00000000   -0.00000024
     atom   16 type  3   force =     0.00000256    0.00000001    0.00000007
     atom   17 type  3   force =    -0.00000536    0.00000002    0.00000135
     atom   18 type  3   force =    -0.00000202    0.00000228    0.00000171
     atom   19 type  3   force =     0.00000078    0.00000230   -0.00000139
     atom   20 type  3   force =    -0.00000116    0.00000209   -0.00000085
     atom   21 type  3   force =     0.00000218    0.00000122    0.00000128
     atom   22 type  3   force =    -0.00000124   -0.00000216   -0.00000085
     atom   23 type  3   force =     0.00000218   -0.00000112    0.00000133
     atom   24 type  3   force =    -0.00000205   -0.00000225    0.00000174
     atom   25 type  3   force =     0.00000081   -0.00000223   -0.00000132

     Total force =     0.337668     Total SCF correction =     0.000014


     Computing stress (Cartesian axis) and pressure


     negative rho (up, down):  0.000E+00 9.069E-04
          total   stress  (Ry/bohr**3)                   (kbar)     P=       77.83
   0.00118925   0.00001294  -0.00001677          174.94        1.90       -2.47
   0.00001294   0.00008351  -0.00001274            1.90       12.29       -1.87
  -0.00001677  -0.00001274   0.00031444           -2.47       -1.87       46.26

     kinetic stress (kbar)  28098.87     -2.81     -9.31
                               -2.81  28205.80     -3.30
                               -9.31     -3.30  28004.15

     local   stress (kbar)  -6060.07  -1011.70   1147.57
                            -1011.70 -12152.95    344.46
                             1147.57    344.46  -8326.76

     nonloc. stress (kbar)  -7185.74     -1.13      4.91
                               -1.13  -7099.99     -0.10
                                4.91     -0.10  -7142.01

     hartree stress (kbar)  13689.24    406.53   -467.86
                              406.53  17724.78   -135.15
                             -467.86   -135.15  15456.06

     exc-cor stress (kbar)  -2962.00      0.64     -0.66
                                0.64  -2971.79     -0.26
                               -0.66     -0.26  -2967.81

     corecor stress (kbar)  -3283.36     -0.17      0.61
                               -0.17  -3280.20      0.03
                                0.61      0.03  -3280.88

     ewald   stress (kbar) -22122.01    610.55   -677.73
                              610.55 -20413.36   -207.55
                             -677.73   -207.55 -21696.48

     hubbard stress (kbar)      0.00      0.00      0.00
                                0.00      0.00      0.00
                                0.00      0.00      0.00

     DFT-D   stress (kbar)      0.00      0.00      0.00
                                0.00      0.00      0.00
                                0.00      0.00      0.00

     XDM     stress (kbar)      0.00      0.00      0.00
                                0.00      0.00      0.00
                                0.00      0.00      0.00

     dft-nl  stress (kbar)      0.00      0.00      0.00
                                0.00      0.00      0.00
                                0.00      0.00      0.00

     TS-vdW  stress (kbar)      0.00      0.00      0.00
                                0.00      0.00      0.00
                                0.00      0.00      0.00



     init_run     :    162.17s CPU    165.48s WALL (       1 calls)
     electrons    :  13091.57s CPU  13246.17s WALL (       1 calls)
     forces       :    102.59s CPU    104.45s WALL (       1 calls)
     stress       :    712.23s CPU    716.88s WALL (       1 calls)

     Called by init_run:
     wfcinit      :    152.72s CPU    155.33s WALL (       1 calls)
     wfcinit:atom :      2.35s CPU      2.39s WALL (     316 calls)
     wfcinit:wfcr :    142.41s CPU    144.86s WALL (     316 calls)
     potinit      :      4.25s CPU      4.35s WALL (       1 calls)
     hinit0       :      3.07s CPU      3.23s WALL (       1 calls)

     Called by electrons:
     c_bands      :  11679.89s CPU  11788.76s WALL (      31 calls)
     sum_band     :   1335.53s CPU   1365.96s WALL (      31 calls)
     v_of_rho     :     21.56s CPU     22.69s WALL (      32 calls)
     v_h          :      0.88s CPU      0.96s WALL (      32 calls)
     v_xc         :     21.82s CPU     22.93s WALL (      34 calls)
     newd         :     37.95s CPU     52.06s WALL (      32 calls)
     PAW_pot      :     13.48s CPU     13.65s WALL (      32 calls)
     mix_rho      :      4.45s CPU      4.64s WALL (      31 calls)

     Called by c_bands:
     init_us_2    :    204.09s CPU    207.50s WALL (   20540 calls)
     cegterg      :  11327.43s CPU  11430.84s WALL (    9796 calls)

     Called by sum_band:
     sum_band:wei :      0.47s CPU      0.47s WALL (      31 calls)
     sum_band:loo :   1233.88s CPU   1247.02s WALL (      31 calls)
     sum_band:buf :     51.25s CPU     52.09s WALL (    9796 calls)
     sum_band:ini :     98.14s CPU     99.60s WALL (    9796 calls)
     sum_band:cal :    594.70s CPU    600.28s WALL (    9796 calls)
     sum_band:bec :      4.75s CPU      4.81s WALL (    9796 calls)
     addusdens    :     97.07s CPU    114.20s WALL (      31 calls)
     addusd:skk   :      0.67s CPU      0.69s WALL (      93 calls)
     addusd:dgemm :     44.72s CPU     59.09s WALL (     186 calls)
     addusd:qvan2 :     49.97s CPU     50.24s WALL (     186 calls)

     Called by *egterg:
     cdiaghg      :    796.89s CPU    816.77s WALL (   38481 calls)
     cegterg:over :   1159.96s CPU   1176.07s WALL (   28685 calls)
     cegterg:upda :    643.55s CPU    646.35s WALL (   28685 calls)
     cegterg:last :   1266.79s CPU   1272.03s WALL (   16332 calls)
     h_psi        :   5347.37s CPU   5394.86s WALL (   38797 calls)
     s_psi        :   1450.09s CPU   1456.14s WALL (   38797 calls)
     g_psi        :     12.38s CPU     12.53s WALL (   28685 calls)

     Called by h_psi:
     h_psi:calbec :   1527.44s CPU   1542.20s WALL (   38797 calls)
     vloc_psi     :   2202.14s CPU   2226.11s WALL (   38797 calls)
     add_vuspsi   :   1504.61s CPU   1510.67s WALL (   38797 calls)

     General routines
     calbec       :   2220.15s CPU   2241.90s WALL (   50173 calls)
     fft          :     18.46s CPU     19.89s WALL (     838 calls)
     ffts         :      0.27s CPU      0.32s WALL (     126 calls)
     fftw         :   2483.10s CPU   2509.94s WALL ( 6102502 calls)
     interpolate  :      1.37s CPU      1.49s WALL (      64 calls)

     Parallel routines
     fft_scatt_xy :    250.86s CPU    253.39s WALL ( 6103466 calls)
     fft_scatt_yz :    763.88s CPU    775.14s WALL ( 6103466 calls)

     PAW routines
     PAW_pot      :     13.48s CPU     13.65s WALL (      32 calls)

     PWSCF        :      3h54m CPU      3h57m WALL


   This run was terminated on:  10:47:29  18Dec2022            

=------------------------------------------------------------------------------=
   JOB DONE.
=------------------------------------------------------------------------------=
Note: The following floating-point exceptions are signalling: IEEE_DENORMAL
Note: The following floating-point exceptions are signalling: IEEE_DENORMAL
Note: The following floating-point exceptions are signalling: IEEE_DENORMAL
Note: The following floating-point exceptions are signalling: IEEE_DENORMAL
Note: The following floating-point exceptions are signalling: IEEE_UNDERFLOW_FLAG IEEE_DENORMAL
Note: The following floating-point exceptions are signalling: IEEE_DENORMAL
Note: The following floating-point exceptions are signalling: IEEE_DENORMAL
Note: The following floating-point exceptions are signalling: IEEE_DENORMAL
Note: The following floating-point exceptions are signalling: IEEE_DENORMAL
Note: The following floating-point exceptions are signalling: IEEE_DENORMAL
Note: The following floating-point exceptions are signalling: IEEE_DENORMAL
Note: The following floating-point exceptions are signalling: IEEE_INVALID_FLAG IEEE_DENORMAL
Note: The following floating-point exceptions are signalling: IEEE_DENORMAL
Note: The following floating-point exceptions are signalling: IEEE_DENORMAL
Note: The following floating-point exceptions are signalling: IEEE_DENORMAL
Note: The following floating-point exceptions are signalling: IEEE_DENORMAL
Note: The following floating-point exceptions are signalling: IEEE_DENORMAL
Note: The following floating-point exceptions are signalling: IEEE_DENORMAL
Note: The following floating-point exceptions are signalling: IEEE_DENORMAL
Note: The following floating-point exceptions are signalling: IEEE_DENORMAL
Note: The following floating-point exceptions are signalling: IEEE_DENORMAL
Note: The following floating-point exceptions are signalling: IEEE_INVALID_FLAG IEEE_DENORMAL
Note: The following floating-point exceptions are signalling: IEEE_DENORMAL
Note: The following floating-point exceptions are signalling: IEEE_DENORMAL
