
     Program PWSCF v.6.7MaX starts on 18Dec2022 at 18:31: 5 

     This program is part of the open-source Quantum ESPRESSO suite
     for quantum simulation of materials; please cite
         "P. Giannozzi et al., J. Phys.:Condens. Matter 21 395502 (2009);
         "P. Giannozzi et al., J. Phys.:Condens. Matter 29 465901 (2017);
          URL http://www.quantum-espresso.org", 
     in publications or presentations arising from this work. More details at
     http://www.quantum-espresso.org/quote

     Parallel version (MPI), running on    24 processors

     MPI processes distributed on     1 nodes
     R & G space division:  proc/nbgrp/npool/nimage =      24
     Reading input from scale_2dab-03.in

     Current dimensions of program PWSCF are:
     Max number of different atomic species (ntypx) = 10
     Max number of k-points (npk) =  40000
     Max angular momentum in pseudopotentials (lmaxx) =  3
     Message from routine read_pp_mesh:
     mesh size missing, using the one in header
     file Fe.pbe-spn-kjpaw_psl.0.2.1.UPF: wavefunction(s)  3D renormalized
     file O.pbe-n-kjpaw_psl.0.1.UPF: wavefunction(s)  2P renormalized

     Subspace diagonalization in iterative solution of the eigenvalue problem:
     a serial algorithm will be used


     Parallelization info
     --------------------
     sticks:   dense  smooth     PW     G-vecs:    dense   smooth      PW
     Min         855     316     85                55763    12569    1765
     Max         856     318     86                55765    12571    1768
     Sum       20521    7599   2049              1338317   301689   42399



     bravais-lattice index     =            0
     lattice parameter (alat)  =      19.9928  a.u.
     unit-cell volume          =    2232.9698 (a.u.)^3
     number of atoms/cell      =           25
     number of atomic types    =            4
     number of electrons       =       189.00
     number of Kohn-Sham states=          114
     kinetic-energy cutoff     =     100.0000  Ry
     charge density cutoff     =    1080.0000  Ry
     scf convergence threshold =      2.0E-10
     mixing beta               =       0.4000
     number of iterations used =            8  plain     mixing
     Exchange-correlation= PBE
                           (   1   4   3   4   0   0   0)

     celldm(1)=  19.992808  celldm(2)=   0.000000  celldm(3)=   0.000000
     celldm(4)=   0.000000  celldm(5)=   0.000000  celldm(6)=   0.000000

     crystal axes: (cart. coord. in units of alat)
               a(1) = (   1.000000   0.000000   0.000000 )  
               a(2) = (   0.000000   0.597590   0.000000 )  
               a(3) = (   0.000000   0.000000   0.467582 )  

     reciprocal axes: (cart. coord. in units 2 pi/alat)
               b(1) = (  1.000000  0.000000  0.000000 )  
               b(2) = (  0.000000  1.673388  0.000000 )  
               b(3) = (  0.000000  0.000000  2.138660 )  


     PseudoPot. # 1 for Fe read from file:
     /opt/QEpot/SSSP_precision_pseudos/Fe.pbe-spn-kjpaw_psl.0.2.1.UPF
     MD5 check sum: e86618425769142926afa95317d90200
     Pseudo is Projector augmented-wave + core cor, Zval = 16.0
     Generated using "atomic" code by A. Dal Corso  v.5.0.99 svn rev. 10869
     Shape of augmentation charge: PSQ
     Using radial grid of 1191 points,  6 beta functions with: 
                l(1) =   0
                l(2) =   0
                l(3) =   1
                l(4) =   1
                l(5) =   2
                l(6) =   2
     Q(r) pseudized with 0 coefficients 


     PseudoPot. # 2 for Na read from file:
     /opt/QEpot/SSSP_precision_pseudos/Na_ONCV_PBE-1.0.oncvpsp.upf
     MD5 check sum: 24a298df0a6742ae313db96548fdb2a4
     Pseudo is Norm-conserving, Zval =  9.0
     Generated using ONCVPSP code by D. R. Hamann
     Using radial grid of 1992 points,  4 beta functions with: 
                l(1) =   0
                l(2) =   0
                l(3) =   1
                l(4) =   1

     PseudoPot. # 3 for O  read from file:
     /opt/QEpot/SSSP_precision_pseudos/O.pbe-n-kjpaw_psl.0.1.UPF
     MD5 check sum: 0234752ac141de4415c5fc33072bef88
     Pseudo is Projector augmented-wave + core cor, Zval =  6.0
     Generated using "atomic" code by A. Dal Corso  v.5.0.99 svn rev. 10869
     Shape of augmentation charge: BESSEL
     Using radial grid of 1095 points,  4 beta functions with: 
                l(1) =   0
                l(2) =   0
                l(3) =   1
                l(4) =   1
     Q(r) pseudized with 0 coefficients 


     PseudoPot. # 4 for P  read from file:
     /opt/QEpot/SSSP_precision_pseudos/P.pbe-n-rrkjus_psl.1.0.0.UPF
     MD5 check sum: 8b930f418f0a4573dca56cd030ffe088
     Pseudo is Ultrasoft + core correction, Zval =  5.0
     Generated using "atomic" code by A. Dal Corso  v.5.1
     Using radial grid of 1147 points,  6 beta functions with: 
                l(1) =   0
                l(2) =   0
                l(3) =   1
                l(4) =   1
                l(5) =   2
                l(6) =   2
     Q(r) pseudized with 0 coefficients 


     atomic species   valence    mass     pseudopotential
        Fe            16.00    55.84500     Fe( 1.00)
        Na             9.00    22.98977     Na( 1.00)
        O              6.00    15.99940     O ( 1.00)
        P              5.00    30.97376     P ( 1.00)

     Starting magnetic structure 
     atomic species   magnetization
        Fe           0.312
        Na           0.000
        O            0.000
        P            0.000

     No symmetry found


                                    s                        frac. trans.

      isym =  1     identity                                     

 cryst.   s( 1) = (     1          0          0      )
                  (     0          1          0      )
                  (     0          0          1      )

 cart.    s( 1) = (  1.0000000  0.0000000  0.0000000 )
                  (  0.0000000  1.0000000  0.0000000 )
                  (  0.0000000  0.0000000  1.0000000 )


   Cartesian axes

     site n.     atom                  positions (alat units)
         1           Na  tau(   1) = (   0.5528950   0.1816649   0.2114109  )
         2           Fe  tau(   2) = (   0.2772550   0.4474831   0.4636702  )
         3           Fe  tau(   3) = (   0.2104810   0.1484055   0.2293740  )
         4           Fe  tau(   4) = (   0.7295180   0.1450148   0.0007640  )
         5           Fe  tau(   5) = (   0.7815080   0.4486902   0.2401611  )
         6           P   tau(   6) = (   0.1053980   0.4473522   0.2075786  )
         7           P   tau(   7) = (   0.3872650   0.1471894   0.4405487  )
         8           P   tau(   8) = (   0.8920080   0.1491136   0.2603677  )
         9           P   tau(   9) = (   0.6044490   0.4481387   0.0298888  )
        10           O   tau(  10) = (   0.1314730   0.4467319   0.3511156  )
        11           O   tau(  11) = (   0.3628330   0.1487252   0.1168947  )
        12           O   tau(  12) = (   0.8713170   0.1488501   0.1162349  )
        13           O   tau(  13) = (   0.6316830   0.4463345   0.3541647  )
        14           O   tau(  14) = (   0.4581640   0.4466889   0.0561122  )
        15           O   tau(  15) = (   0.0360600   0.1496383   0.2932322  )
        16           O   tau(  16) = (   0.5359580   0.1477206   0.4192961  )
        17           O   tau(  17) = (   0.9586070   0.4472710   0.1827719  )
        18           O   tau(  18) = (   0.1741780   0.5643627   0.1404688  )
        19           O   tau(  19) = (   0.3202340   0.0308392   0.3730303  )
        20           O   tau(  20) = (   0.8164520   0.2635844   0.3252433  )
        21           O   tau(  21) = (   0.6734540   0.3313254   0.0987665  )
        22           O   tau(  22) = (   0.8184930   0.0329726   0.3254266  )
        23           O   tau(  23) = (   0.6734880   0.5654175   0.0977402  )
        24           O   tau(  24) = (   0.1746990   0.3310278   0.1397721  )
        25           O   tau(  25) = (   0.3222050   0.2638628   0.3707821  )

   Crystallographic axes

     site n.     atom                  positions (cryst. coord.)
         1           Na  tau(   1) = (  0.5528950  0.3039960  0.4521360  )
         2           Fe  tau(   2) = (  0.2772550  0.7488130  0.9916330  )
         3           Fe  tau(   3) = (  0.2104810  0.2483400  0.4905530  )
         4           Fe  tau(   4) = (  0.7295180  0.2426660  0.0016340  )
         5           Fe  tau(   5) = (  0.7815080  0.7508330  0.5136230  )
         6           P   tau(   6) = (  0.1053980  0.7485940  0.4439400  )
         7           P   tau(   7) = (  0.3872650  0.2463050  0.9421840  )
         8           P   tau(   8) = (  0.8920080  0.2495250  0.5568380  )
         9           P   tau(   9) = (  0.6044490  0.7499100  0.0639220  )
        10           O   tau(  10) = (  0.1314730  0.7475560  0.7509170  )
        11           O   tau(  11) = (  0.3628330  0.2488750  0.2499980  )
        12           O   tau(  12) = (  0.8713170  0.2490840  0.2485870  )
        13           O   tau(  13) = (  0.6316830  0.7468910  0.7574380  )
        14           O   tau(  14) = (  0.4581640  0.7474840  0.1200050  )
        15           O   tau(  15) = (  0.0360600  0.2504030  0.6271240  )
        16           O   tau(  16) = (  0.5359580  0.2471940  0.8967320  )
        17           O   tau(  17) = (  0.9586070  0.7484580  0.3908870  )
        18           O   tau(  18) = (  0.1741780  0.9443980  0.3004150  )
        19           O   tau(  19) = (  0.3202340  0.0516060  0.7977850  )
        20           O   tau(  20) = (  0.8164520  0.4410790  0.6955850  )
        21           O   tau(  21) = (  0.6734540  0.5544360  0.2112280  )
        22           O   tau(  22) = (  0.8184930  0.0551760  0.6959770  )
        23           O   tau(  23) = (  0.6734880  0.9461630  0.2090330  )
        24           O   tau(  24) = (  0.1746990  0.5539380  0.2989250  )
        25           O   tau(  25) = (  0.3222050  0.4415450  0.7929770  )

     number of k points=   158  Marzari-Vanderbilt smearing, width (Ry)=  0.0073
                       cart. coord. in units 2pi/alat
        k(    1) = (   0.0000000   0.0000000   0.0000000), wk =   0.0031746
        k(    2) = (   0.0000000   0.0000000   0.2376289), wk =   0.0063492
        k(    3) = (   0.0000000   0.0000000   0.4752578), wk =   0.0063492
        k(    4) = (   0.0000000   0.0000000   0.7128867), wk =   0.0063492
        k(    5) = (   0.0000000   0.0000000   0.9505157), wk =   0.0063492
        k(    6) = (   0.0000000   0.2390555   0.0000000), wk =   0.0063492
        k(    7) = (   0.0000000   0.2390555   0.2376289), wk =   0.0063492
        k(    8) = (   0.0000000   0.2390555   0.4752578), wk =   0.0063492
        k(    9) = (   0.0000000   0.2390555   0.7128867), wk =   0.0063492
        k(   10) = (   0.0000000   0.2390555   0.9505157), wk =   0.0063492
        k(   11) = (   0.0000000   0.4781110   0.0000000), wk =   0.0063492
        k(   12) = (   0.0000000   0.4781110   0.2376289), wk =   0.0063492
        k(   13) = (   0.0000000   0.4781110   0.4752578), wk =   0.0063492
        k(   14) = (   0.0000000   0.4781110   0.7128867), wk =   0.0063492
        k(   15) = (   0.0000000   0.4781110   0.9505157), wk =   0.0063492
        k(   16) = (   0.0000000   0.7171664   0.0000000), wk =   0.0063492
        k(   17) = (   0.0000000   0.7171664   0.2376289), wk =   0.0063492
        k(   18) = (   0.0000000   0.7171664   0.4752578), wk =   0.0063492
        k(   19) = (   0.0000000   0.7171664   0.7128867), wk =   0.0063492
        k(   20) = (   0.0000000   0.7171664   0.9505157), wk =   0.0063492
        k(   21) = (   0.2000000   0.0000000   0.0000000), wk =   0.0063492
        k(   22) = (   0.2000000   0.0000000   0.2376289), wk =   0.0063492
        k(   23) = (   0.2000000   0.0000000   0.4752578), wk =   0.0063492
        k(   24) = (   0.2000000   0.0000000   0.7128867), wk =   0.0063492
        k(   25) = (   0.2000000   0.0000000   0.9505157), wk =   0.0063492
        k(   26) = (   0.2000000   0.2390555   0.0000000), wk =   0.0063492
        k(   27) = (   0.2000000   0.2390555   0.2376289), wk =   0.0063492
        k(   28) = (   0.2000000   0.2390555   0.4752578), wk =   0.0063492
        k(   29) = (   0.2000000   0.2390555   0.7128867), wk =   0.0063492
        k(   30) = (   0.2000000   0.2390555   0.9505157), wk =   0.0063492
        k(   31) = (   0.2000000   0.4781110   0.0000000), wk =   0.0063492
        k(   32) = (   0.2000000   0.4781110   0.2376289), wk =   0.0063492
        k(   33) = (   0.2000000   0.4781110   0.4752578), wk =   0.0063492
        k(   34) = (   0.2000000   0.4781110   0.7128867), wk =   0.0063492
        k(   35) = (   0.2000000   0.4781110   0.9505157), wk =   0.0063492
        k(   36) = (   0.2000000   0.7171664   0.0000000), wk =   0.0063492
        k(   37) = (   0.2000000   0.7171664   0.2376289), wk =   0.0063492
        k(   38) = (   0.2000000   0.7171664   0.4752578), wk =   0.0063492
        k(   39) = (   0.2000000   0.7171664   0.7128867), wk =   0.0063492
        k(   40) = (   0.2000000   0.7171664   0.9505157), wk =   0.0063492
        k(   41) = (   0.4000000   0.0000000   0.0000000), wk =   0.0063492
        k(   42) = (   0.4000000   0.0000000   0.2376289), wk =   0.0063492
        k(   43) = (   0.4000000   0.0000000   0.4752578), wk =   0.0063492
        k(   44) = (   0.4000000   0.0000000   0.7128867), wk =   0.0063492
        k(   45) = (   0.4000000   0.0000000   0.9505157), wk =   0.0063492
        k(   46) = (   0.4000000   0.2390555   0.0000000), wk =   0.0063492
        k(   47) = (   0.4000000   0.2390555   0.2376289), wk =   0.0063492
        k(   48) = (   0.4000000   0.2390555   0.4752578), wk =   0.0063492
        k(   49) = (   0.4000000   0.2390555   0.7128867), wk =   0.0063492
        k(   50) = (   0.4000000   0.2390555   0.9505157), wk =   0.0063492
        k(   51) = (   0.4000000   0.4781110   0.0000000), wk =   0.0063492
        k(   52) = (   0.4000000   0.4781110   0.2376289), wk =   0.0063492
        k(   53) = (   0.4000000   0.4781110   0.4752578), wk =   0.0063492
        k(   54) = (   0.4000000   0.4781110   0.7128867), wk =   0.0063492
        k(   55) = (   0.4000000   0.4781110   0.9505157), wk =   0.0063492
        k(   56) = (   0.4000000   0.7171664   0.0000000), wk =   0.0063492
        k(   57) = (   0.4000000   0.7171664   0.2376289), wk =   0.0063492
        k(   58) = (   0.4000000   0.7171664   0.4752578), wk =   0.0063492
        k(   59) = (   0.4000000   0.7171664   0.7128867), wk =   0.0063492
        k(   60) = (   0.4000000   0.7171664   0.9505157), wk =   0.0063492
        k(   61) = (   0.0000000  -0.2390555   0.2376289), wk =   0.0063492
        k(   62) = (   0.0000000  -0.2390555   0.4752578), wk =   0.0063492
        k(   63) = (   0.0000000  -0.2390555   0.7128867), wk =   0.0063492
        k(   64) = (   0.0000000  -0.2390555   0.9505157), wk =   0.0063492
        k(   65) = (   0.0000000  -0.4781110   0.2376289), wk =   0.0063492
        k(   66) = (   0.0000000  -0.4781110   0.4752578), wk =   0.0063492
        k(   67) = (   0.0000000  -0.4781110   0.7128867), wk =   0.0063492
        k(   68) = (   0.0000000  -0.4781110   0.9505157), wk =   0.0063492
        k(   69) = (   0.0000000  -0.7171664   0.2376289), wk =   0.0063492
        k(   70) = (   0.0000000  -0.7171664   0.4752578), wk =   0.0063492
        k(   71) = (   0.0000000  -0.7171664   0.7128867), wk =   0.0063492
        k(   72) = (   0.0000000  -0.7171664   0.9505157), wk =   0.0063492
        k(   73) = (  -0.2000000   0.0000000   0.2376289), wk =   0.0063492
        k(   74) = (  -0.2000000   0.0000000   0.4752578), wk =   0.0063492
        k(   75) = (  -0.2000000   0.0000000   0.7128867), wk =   0.0063492
        k(   76) = (  -0.2000000   0.0000000   0.9505157), wk =   0.0063492
        k(   77) = (  -0.2000000   0.2390555   0.0000000), wk =   0.0063492
        k(   78) = (  -0.2000000  -0.2390555   0.2376289), wk =   0.0063492
        k(   79) = (  -0.2000000   0.2390555  -0.2376289), wk =   0.0063492
        k(   80) = (   0.2000000  -0.2390555  -0.2376289), wk =   0.0063492
        k(   81) = (  -0.2000000  -0.2390555   0.4752578), wk =   0.0063492
        k(   82) = (  -0.2000000   0.2390555  -0.4752578), wk =   0.0063492
        k(   83) = (   0.2000000  -0.2390555  -0.4752578), wk =   0.0063492
        k(   84) = (  -0.2000000  -0.2390555   0.7128867), wk =   0.0063492
        k(   85) = (  -0.2000000   0.2390555  -0.7128867), wk =   0.0063492
        k(   86) = (   0.2000000  -0.2390555  -0.7128867), wk =   0.0063492
        k(   87) = (  -0.2000000  -0.2390555   0.9505157), wk =   0.0063492
        k(   88) = (  -0.2000000   0.2390555  -0.9505157), wk =   0.0063492
        k(   89) = (   0.2000000  -0.2390555  -0.9505157), wk =   0.0063492
        k(   90) = (  -0.2000000   0.4781110   0.0000000), wk =   0.0063492
        k(   91) = (  -0.2000000  -0.4781110   0.2376289), wk =   0.0063492
        k(   92) = (  -0.2000000   0.4781110  -0.2376289), wk =   0.0063492
        k(   93) = (   0.2000000  -0.4781110  -0.2376289), wk =   0.0063492
        k(   94) = (  -0.2000000  -0.4781110   0.4752578), wk =   0.0063492
        k(   95) = (  -0.2000000   0.4781110  -0.4752578), wk =   0.0063492
        k(   96) = (   0.2000000  -0.4781110  -0.4752578), wk =   0.0063492
        k(   97) = (  -0.2000000  -0.4781110   0.7128867), wk =   0.0063492
        k(   98) = (  -0.2000000   0.4781110  -0.7128867), wk =   0.0063492
        k(   99) = (   0.2000000  -0.4781110  -0.7128867), wk =   0.0063492
        k(  100) = (  -0.2000000  -0.4781110   0.9505157), wk =   0.0063492
        k(  101) = (  -0.2000000   0.4781110  -0.9505157), wk =   0.0063492
        k(  102) = (   0.2000000  -0.4781110  -0.9505157), wk =   0.0063492
        k(  103) = (  -0.2000000   0.7171664   0.0000000), wk =   0.0063492
        k(  104) = (  -0.2000000  -0.7171664   0.2376289), wk =   0.0063492
        k(  105) = (  -0.2000000   0.7171664  -0.2376289), wk =   0.0063492
        k(  106) = (   0.2000000  -0.7171664  -0.2376289), wk =   0.0063492
        k(  107) = (  -0.2000000  -0.7171664   0.4752578), wk =   0.0063492
        k(  108) = (  -0.2000000   0.7171664  -0.4752578), wk =   0.0063492
        k(  109) = (   0.2000000  -0.7171664  -0.4752578), wk =   0.0063492
        k(  110) = (  -0.2000000  -0.7171664   0.7128867), wk =   0.0063492
        k(  111) = (  -0.2000000   0.7171664  -0.7128867), wk =   0.0063492
        k(  112) = (   0.2000000  -0.7171664  -0.7128867), wk =   0.0063492
        k(  113) = (  -0.2000000  -0.7171664   0.9505157), wk =   0.0063492
        k(  114) = (  -0.2000000   0.7171664  -0.9505157), wk =   0.0063492
        k(  115) = (   0.2000000  -0.7171664  -0.9505157), wk =   0.0063492
        k(  116) = (  -0.4000000   0.0000000   0.2376289), wk =   0.0063492
        k(  117) = (  -0.4000000   0.0000000   0.4752578), wk =   0.0063492
        k(  118) = (  -0.4000000   0.0000000   0.7128867), wk =   0.0063492
        k(  119) = (  -0.4000000   0.0000000   0.9505157), wk =   0.0063492
        k(  120) = (  -0.4000000   0.2390555   0.0000000), wk =   0.0063492
        k(  121) = (  -0.4000000  -0.2390555   0.2376289), wk =   0.0063492
        k(  122) = (  -0.4000000   0.2390555  -0.2376289), wk =   0.0063492
        k(  123) = (   0.4000000  -0.2390555  -0.2376289), wk =   0.0063492
        k(  124) = (  -0.4000000  -0.2390555   0.4752578), wk =   0.0063492
        k(  125) = (  -0.4000000   0.2390555  -0.4752578), wk =   0.0063492
        k(  126) = (   0.4000000  -0.2390555  -0.4752578), wk =   0.0063492
        k(  127) = (  -0.4000000  -0.2390555   0.7128867), wk =   0.0063492
        k(  128) = (  -0.4000000   0.2390555  -0.7128867), wk =   0.0063492
        k(  129) = (   0.4000000  -0.2390555  -0.7128867), wk =   0.0063492
        k(  130) = (  -0.4000000  -0.2390555   0.9505157), wk =   0.0063492
        k(  131) = (  -0.4000000   0.2390555  -0.9505157), wk =   0.0063492
        k(  132) = (   0.4000000  -0.2390555  -0.9505157), wk =   0.0063492
        k(  133) = (  -0.4000000   0.4781110   0.0000000), wk =   0.0063492
        k(  134) = (  -0.4000000  -0.4781110   0.2376289), wk =   0.0063492
        k(  135) = (  -0.4000000   0.4781110  -0.2376289), wk =   0.0063492
        k(  136) = (   0.4000000  -0.4781110  -0.2376289), wk =   0.0063492
        k(  137) = (  -0.4000000  -0.4781110   0.4752578), wk =   0.0063492
        k(  138) = (  -0.4000000   0.4781110  -0.4752578), wk =   0.0063492
        k(  139) = (   0.4000000  -0.4781110  -0.4752578), wk =   0.0063492
        k(  140) = (  -0.4000000  -0.4781110   0.7128867), wk =   0.0063492
        k(  141) = (  -0.4000000   0.4781110  -0.7128867), wk =   0.0063492
        k(  142) = (   0.4000000  -0.4781110  -0.7128867), wk =   0.0063492
        k(  143) = (  -0.4000000  -0.4781110   0.9505157), wk =   0.0063492
        k(  144) = (  -0.4000000   0.4781110  -0.9505157), wk =   0.0063492
        k(  145) = (   0.4000000  -0.4781110  -0.9505157), wk =   0.0063492
        k(  146) = (  -0.4000000   0.7171664   0.0000000), wk =   0.0063492
        k(  147) = (  -0.4000000  -0.7171664   0.2376289), wk =   0.0063492
        k(  148) = (  -0.4000000   0.7171664  -0.2376289), wk =   0.0063492
        k(  149) = (   0.4000000  -0.7171664  -0.2376289), wk =   0.0063492
        k(  150) = (  -0.4000000  -0.7171664   0.4752578), wk =   0.0063492
        k(  151) = (  -0.4000000   0.7171664  -0.4752578), wk =   0.0063492
        k(  152) = (   0.4000000  -0.7171664  -0.4752578), wk =   0.0063492
        k(  153) = (  -0.4000000  -0.7171664   0.7128867), wk =   0.0063492
        k(  154) = (  -0.4000000   0.7171664  -0.7128867), wk =   0.0063492
        k(  155) = (   0.4000000  -0.7171664  -0.7128867), wk =   0.0063492
        k(  156) = (  -0.4000000  -0.7171664   0.9505157), wk =   0.0063492
        k(  157) = (  -0.4000000   0.7171664  -0.9505157), wk =   0.0063492
        k(  158) = (   0.4000000  -0.7171664  -0.9505157), wk =   0.0063492

                       cryst. coord.
        k(    1) = (   0.0000000   0.0000000   0.0000000), wk =   0.0031746
        k(    2) = (   0.0000000   0.0000000   0.1111111), wk =   0.0063492
        k(    3) = (   0.0000000   0.0000000   0.2222222), wk =   0.0063492
        k(    4) = (   0.0000000   0.0000000   0.3333333), wk =   0.0063492
        k(    5) = (   0.0000000   0.0000000   0.4444444), wk =   0.0063492
        k(    6) = (   0.0000000   0.1428571   0.0000000), wk =   0.0063492
        k(    7) = (   0.0000000   0.1428571   0.1111111), wk =   0.0063492
        k(    8) = (   0.0000000   0.1428571   0.2222222), wk =   0.0063492
        k(    9) = (   0.0000000   0.1428571   0.3333333), wk =   0.0063492
        k(   10) = (   0.0000000   0.1428571   0.4444444), wk =   0.0063492
        k(   11) = (   0.0000000   0.2857143   0.0000000), wk =   0.0063492
        k(   12) = (   0.0000000   0.2857143   0.1111111), wk =   0.0063492
        k(   13) = (   0.0000000   0.2857143   0.2222222), wk =   0.0063492
        k(   14) = (   0.0000000   0.2857143   0.3333333), wk =   0.0063492
        k(   15) = (   0.0000000   0.2857143   0.4444444), wk =   0.0063492
        k(   16) = (   0.0000000   0.4285714   0.0000000), wk =   0.0063492
        k(   17) = (   0.0000000   0.4285714   0.1111111), wk =   0.0063492
        k(   18) = (   0.0000000   0.4285714   0.2222222), wk =   0.0063492
        k(   19) = (   0.0000000   0.4285714   0.3333333), wk =   0.0063492
        k(   20) = (   0.0000000   0.4285714   0.4444444), wk =   0.0063492
        k(   21) = (   0.2000000   0.0000000   0.0000000), wk =   0.0063492
        k(   22) = (   0.2000000   0.0000000   0.1111111), wk =   0.0063492
        k(   23) = (   0.2000000   0.0000000   0.2222222), wk =   0.0063492
        k(   24) = (   0.2000000   0.0000000   0.3333333), wk =   0.0063492
        k(   25) = (   0.2000000   0.0000000   0.4444444), wk =   0.0063492
        k(   26) = (   0.2000000   0.1428571   0.0000000), wk =   0.0063492
        k(   27) = (   0.2000000   0.1428571   0.1111111), wk =   0.0063492
        k(   28) = (   0.2000000   0.1428571   0.2222222), wk =   0.0063492
        k(   29) = (   0.2000000   0.1428571   0.3333333), wk =   0.0063492
        k(   30) = (   0.2000000   0.1428571   0.4444444), wk =   0.0063492
        k(   31) = (   0.2000000   0.2857143   0.0000000), wk =   0.0063492
        k(   32) = (   0.2000000   0.2857143   0.1111111), wk =   0.0063492
        k(   33) = (   0.2000000   0.2857143   0.2222222), wk =   0.0063492
        k(   34) = (   0.2000000   0.2857143   0.3333333), wk =   0.0063492
        k(   35) = (   0.2000000   0.2857143   0.4444444), wk =   0.0063492
        k(   36) = (   0.2000000   0.4285714   0.0000000), wk =   0.0063492
        k(   37) = (   0.2000000   0.4285714   0.1111111), wk =   0.0063492
        k(   38) = (   0.2000000   0.4285714   0.2222222), wk =   0.0063492
        k(   39) = (   0.2000000   0.4285714   0.3333333), wk =   0.0063492
        k(   40) = (   0.2000000   0.4285714   0.4444444), wk =   0.0063492
        k(   41) = (   0.4000000   0.0000000   0.0000000), wk =   0.0063492
        k(   42) = (   0.4000000   0.0000000   0.1111111), wk =   0.0063492
        k(   43) = (   0.4000000   0.0000000   0.2222222), wk =   0.0063492
        k(   44) = (   0.4000000   0.0000000   0.3333333), wk =   0.0063492
        k(   45) = (   0.4000000   0.0000000   0.4444444), wk =   0.0063492
        k(   46) = (   0.4000000   0.1428571   0.0000000), wk =   0.0063492
        k(   47) = (   0.4000000   0.1428571   0.1111111), wk =   0.0063492
        k(   48) = (   0.4000000   0.1428571   0.2222222), wk =   0.0063492
        k(   49) = (   0.4000000   0.1428571   0.3333333), wk =   0.0063492
        k(   50) = (   0.4000000   0.1428571   0.4444444), wk =   0.0063492
        k(   51) = (   0.4000000   0.2857143   0.0000000), wk =   0.0063492
        k(   52) = (   0.4000000   0.2857143   0.1111111), wk =   0.0063492
        k(   53) = (   0.4000000   0.2857143   0.2222222), wk =   0.0063492
        k(   54) = (   0.4000000   0.2857143   0.3333333), wk =   0.0063492
        k(   55) = (   0.4000000   0.2857143   0.4444444), wk =   0.0063492
        k(   56) = (   0.4000000   0.4285714   0.0000000), wk =   0.0063492
        k(   57) = (   0.4000000   0.4285714   0.1111111), wk =   0.0063492
        k(   58) = (   0.4000000   0.4285714   0.2222222), wk =   0.0063492
        k(   59) = (   0.4000000   0.4285714   0.3333333), wk =   0.0063492
        k(   60) = (   0.4000000   0.4285714   0.4444444), wk =   0.0063492
        k(   61) = (   0.0000000  -0.1428571   0.1111111), wk =   0.0063492
        k(   62) = (   0.0000000  -0.1428571   0.2222222), wk =   0.0063492
        k(   63) = (   0.0000000  -0.1428571   0.3333333), wk =   0.0063492
        k(   64) = (   0.0000000  -0.1428571   0.4444444), wk =   0.0063492
        k(   65) = (   0.0000000  -0.2857143   0.1111111), wk =   0.0063492
        k(   66) = (   0.0000000  -0.2857143   0.2222222), wk =   0.0063492
        k(   67) = (   0.0000000  -0.2857143   0.3333333), wk =   0.0063492
        k(   68) = (   0.0000000  -0.2857143   0.4444444), wk =   0.0063492
        k(   69) = (   0.0000000  -0.4285714   0.1111111), wk =   0.0063492
        k(   70) = (   0.0000000  -0.4285714   0.2222222), wk =   0.0063492
        k(   71) = (   0.0000000  -0.4285714   0.3333333), wk =   0.0063492
        k(   72) = (   0.0000000  -0.4285714   0.4444444), wk =   0.0063492
        k(   73) = (  -0.2000000   0.0000000   0.1111111), wk =   0.0063492
        k(   74) = (  -0.2000000   0.0000000   0.2222222), wk =   0.0063492
        k(   75) = (  -0.2000000   0.0000000   0.3333333), wk =   0.0063492
        k(   76) = (  -0.2000000   0.0000000   0.4444444), wk =   0.0063492
        k(   77) = (  -0.2000000   0.1428571   0.0000000), wk =   0.0063492
        k(   78) = (  -0.2000000  -0.1428571   0.1111111), wk =   0.0063492
        k(   79) = (  -0.2000000   0.1428571  -0.1111111), wk =   0.0063492
        k(   80) = (   0.2000000  -0.1428571  -0.1111111), wk =   0.0063492
        k(   81) = (  -0.2000000  -0.1428571   0.2222222), wk =   0.0063492
        k(   82) = (  -0.2000000   0.1428571  -0.2222222), wk =   0.0063492
        k(   83) = (   0.2000000  -0.1428571  -0.2222222), wk =   0.0063492
        k(   84) = (  -0.2000000  -0.1428571   0.3333333), wk =   0.0063492
        k(   85) = (  -0.2000000   0.1428571  -0.3333333), wk =   0.0063492
        k(   86) = (   0.2000000  -0.1428571  -0.3333333), wk =   0.0063492
        k(   87) = (  -0.2000000  -0.1428571   0.4444444), wk =   0.0063492
        k(   88) = (  -0.2000000   0.1428571  -0.4444444), wk =   0.0063492
        k(   89) = (   0.2000000  -0.1428571  -0.4444444), wk =   0.0063492
        k(   90) = (  -0.2000000   0.2857143   0.0000000), wk =   0.0063492
        k(   91) = (  -0.2000000  -0.2857143   0.1111111), wk =   0.0063492
        k(   92) = (  -0.2000000   0.2857143  -0.1111111), wk =   0.0063492
        k(   93) = (   0.2000000  -0.2857143  -0.1111111), wk =   0.0063492
        k(   94) = (  -0.2000000  -0.2857143   0.2222222), wk =   0.0063492
        k(   95) = (  -0.2000000   0.2857143  -0.2222222), wk =   0.0063492
        k(   96) = (   0.2000000  -0.2857143  -0.2222222), wk =   0.0063492
        k(   97) = (  -0.2000000  -0.2857143   0.3333333), wk =   0.0063492
        k(   98) = (  -0.2000000   0.2857143  -0.3333333), wk =   0.0063492
        k(   99) = (   0.2000000  -0.2857143  -0.3333333), wk =   0.0063492
        k(  100) = (  -0.2000000  -0.2857143   0.4444444), wk =   0.0063492
        k(  101) = (  -0.2000000   0.2857143  -0.4444444), wk =   0.0063492
        k(  102) = (   0.2000000  -0.2857143  -0.4444444), wk =   0.0063492
        k(  103) = (  -0.2000000   0.4285714   0.0000000), wk =   0.0063492
        k(  104) = (  -0.2000000  -0.4285714   0.1111111), wk =   0.0063492
        k(  105) = (  -0.2000000   0.4285714  -0.1111111), wk =   0.0063492
        k(  106) = (   0.2000000  -0.4285714  -0.1111111), wk =   0.0063492
        k(  107) = (  -0.2000000  -0.4285714   0.2222222), wk =   0.0063492
        k(  108) = (  -0.2000000   0.4285714  -0.2222222), wk =   0.0063492
        k(  109) = (   0.2000000  -0.4285714  -0.2222222), wk =   0.0063492
        k(  110) = (  -0.2000000  -0.4285714   0.3333333), wk =   0.0063492
        k(  111) = (  -0.2000000   0.4285714  -0.3333333), wk =   0.0063492
        k(  112) = (   0.2000000  -0.4285714  -0.3333333), wk =   0.0063492
        k(  113) = (  -0.2000000  -0.4285714   0.4444444), wk =   0.0063492
        k(  114) = (  -0.2000000   0.4285714  -0.4444444), wk =   0.0063492
        k(  115) = (   0.2000000  -0.4285714  -0.4444444), wk =   0.0063492
        k(  116) = (  -0.4000000   0.0000000   0.1111111), wk =   0.0063492
        k(  117) = (  -0.4000000   0.0000000   0.2222222), wk =   0.0063492
        k(  118) = (  -0.4000000   0.0000000   0.3333333), wk =   0.0063492
        k(  119) = (  -0.4000000   0.0000000   0.4444444), wk =   0.0063492
        k(  120) = (  -0.4000000   0.1428571   0.0000000), wk =   0.0063492
        k(  121) = (  -0.4000000  -0.1428571   0.1111111), wk =   0.0063492
        k(  122) = (  -0.4000000   0.1428571  -0.1111111), wk =   0.0063492
        k(  123) = (   0.4000000  -0.1428571  -0.1111111), wk =   0.0063492
        k(  124) = (  -0.4000000  -0.1428571   0.2222222), wk =   0.0063492
        k(  125) = (  -0.4000000   0.1428571  -0.2222222), wk =   0.0063492
        k(  126) = (   0.4000000  -0.1428571  -0.2222222), wk =   0.0063492
        k(  127) = (  -0.4000000  -0.1428571   0.3333333), wk =   0.0063492
        k(  128) = (  -0.4000000   0.1428571  -0.3333333), wk =   0.0063492
        k(  129) = (   0.4000000  -0.1428571  -0.3333333), wk =   0.0063492
        k(  130) = (  -0.4000000  -0.1428571   0.4444444), wk =   0.0063492
        k(  131) = (  -0.4000000   0.1428571  -0.4444444), wk =   0.0063492
        k(  132) = (   0.4000000  -0.1428571  -0.4444444), wk =   0.0063492
        k(  133) = (  -0.4000000   0.2857143   0.0000000), wk =   0.0063492
        k(  134) = (  -0.4000000  -0.2857143   0.1111111), wk =   0.0063492
        k(  135) = (  -0.4000000   0.2857143  -0.1111111), wk =   0.0063492
        k(  136) = (   0.4000000  -0.2857143  -0.1111111), wk =   0.0063492
        k(  137) = (  -0.4000000  -0.2857143   0.2222222), wk =   0.0063492
        k(  138) = (  -0.4000000   0.2857143  -0.2222222), wk =   0.0063492
        k(  139) = (   0.4000000  -0.2857143  -0.2222222), wk =   0.0063492
        k(  140) = (  -0.4000000  -0.2857143   0.3333333), wk =   0.0063492
        k(  141) = (  -0.4000000   0.2857143  -0.3333333), wk =   0.0063492
        k(  142) = (   0.4000000  -0.2857143  -0.3333333), wk =   0.0063492
        k(  143) = (  -0.4000000  -0.2857143   0.4444444), wk =   0.0063492
        k(  144) = (  -0.4000000   0.2857143  -0.4444444), wk =   0.0063492
        k(  145) = (   0.4000000  -0.2857143  -0.4444444), wk =   0.0063492
        k(  146) = (  -0.4000000   0.4285714   0.0000000), wk =   0.0063492
        k(  147) = (  -0.4000000  -0.4285714   0.1111111), wk =   0.0063492
        k(  148) = (  -0.4000000   0.4285714  -0.1111111), wk =   0.0063492
        k(  149) = (   0.4000000  -0.4285714  -0.1111111), wk =   0.0063492
        k(  150) = (  -0.4000000  -0.4285714   0.2222222), wk =   0.0063492
        k(  151) = (  -0.4000000   0.4285714  -0.2222222), wk =   0.0063492
        k(  152) = (   0.4000000  -0.4285714  -0.2222222), wk =   0.0063492
        k(  153) = (  -0.4000000  -0.4285714   0.3333333), wk =   0.0063492
        k(  154) = (  -0.4000000   0.4285714  -0.3333333), wk =   0.0063492
        k(  155) = (   0.4000000  -0.4285714  -0.3333333), wk =   0.0063492
        k(  156) = (  -0.4000000  -0.4285714   0.4444444), wk =   0.0063492
        k(  157) = (  -0.4000000   0.4285714  -0.4444444), wk =   0.0063492
        k(  158) = (   0.4000000  -0.4285714  -0.4444444), wk =   0.0063492

     Dense  grid:  1338317 G-vectors     FFT dimensions: ( 216, 125, 100)

     Smooth grid:   301689 G-vectors     FFT dimensions: ( 128,  80,  60)

     Dynamical RAM for                 wfc:       2.73 MB

     Dynamical RAM for     wfc (w. buffer):     866.28 MB

     Dynamical RAM for           str. fact:       3.40 MB

     Dynamical RAM for           local pot:       0.00 MB

     Dynamical RAM for          nlocal pot:       6.71 MB

     Dynamical RAM for                qrad:      10.54 MB

     Dynamical RAM for          rho,v,vnew:      11.29 MB

     Dynamical RAM for               rhoin:       3.76 MB

     Dynamical RAM for            rho*nmix:      27.23 MB

     Dynamical RAM for           G-vectors:       3.29 MB

     Dynamical RAM for          h,s,v(r/c):       2.38 MB

     Dynamical RAM for          <psi|beta>:       0.49 MB

     Dynamical RAM for                 psi:       5.47 MB

     Dynamical RAM for                hpsi:       5.47 MB

     Dynamical RAM for                spsi:       5.47 MB

     Dynamical RAM for      wfcinit/wfcrot:       7.00 MB

     Dynamical RAM for           addusdens:     172.73 MB

     Dynamical RAM for          addusforce:     198.39 MB

     Dynamical RAM for         addusstress:     172.31 MB

     Estimated static dynamical RAM per process >     942.94 MB

     Estimated max dynamical RAM per process >       1.11 GB

     Estimated total dynamical RAM >      26.75 GB

     Check: negative core charge=   -0.000003
     Generating pointlists ...
     new r_m :   0.0754 (alat units)  1.5084 (a.u.) for type    1
     new r_m :   0.0872 (alat units)  1.7427 (a.u.) for type    2
     new r_m :   0.0601 (alat units)  1.2009 (a.u.) for type    3
     new r_m :   0.0601 (alat units)  1.2009 (a.u.) for type    4

     Initial potential from superposition of free atoms

     starting charge  188.99132, renormalised to  189.00000
     Starting wfcs are  137 randomized atomic wfcs
     Checking if some PAW data can be deallocated... 
       PAW data deallocated on   20 nodes for type:  1
       PAW data deallocated on    8 nodes for type:  3

     total cpu time spent up to now is      177.3 secs

     Self-consistent Calculation

     iteration #  1     ecut=   100.00 Ry     beta= 0.40
     Davidson diagonalization with overlap
     ethr =  1.00E-02,  avg # of iterations =  3.0

     negative rho (up, down):  0.000E+00 1.150E-04

     total cpu time spent up to now is      729.4 secs

     total energy              =   -2123.77871222 Ry
     estimated scf accuracy    <       7.13417949 Ry

     total magnetization       =    19.00 Bohr mag/cell
     absolute magnetization    =    19.00 Bohr mag/cell

     iteration #  2     ecut=   100.00 Ry     beta= 0.40
     Davidson diagonalization with overlap
     ethr =  3.77E-03,  avg # of iterations =  2.0

     negative rho (up, down):  0.000E+00 3.447E-05

     total cpu time spent up to now is     1244.6 secs

     total energy              =   -2120.26131242 Ry
     estimated scf accuracy    <      52.21607610 Ry

     total magnetization       =     6.30 Bohr mag/cell
     absolute magnetization    =     7.86 Bohr mag/cell

     iteration #  3     ecut=   100.00 Ry     beta= 0.40
     Davidson diagonalization with overlap
     ethr =  3.77E-03,  avg # of iterations =  2.9

     negative rho (up, down):  0.000E+00 1.737E-05

     total cpu time spent up to now is     1702.2 secs

     total energy              =   -2123.29119138 Ry
     estimated scf accuracy    <      57.33448685 Ry

     total magnetization       =     4.26 Bohr mag/cell
     absolute magnetization    =     8.19 Bohr mag/cell

     iteration #  4     ecut=   100.00 Ry     beta= 0.40
     Davidson diagonalization with overlap
     ethr =  3.77E-03,  avg # of iterations =  1.5

     negative rho (up, down):  0.000E+00 2.597E-05

     total cpu time spent up to now is     2094.7 secs

     total energy              =   -2124.50326742 Ry
     estimated scf accuracy    <      30.85596471 Ry

     total magnetization       =     9.00 Bohr mag/cell
     absolute magnetization    =     9.36 Bohr mag/cell

     iteration #  5     ecut=   100.00 Ry     beta= 0.40
     Davidson diagonalization with overlap
     ethr =  3.77E-03,  avg # of iterations =  1.9

     negative rho (up, down):  0.000E+00 1.168E-04

     total cpu time spent up to now is     2518.7 secs

     total energy              =   -2125.99580526 Ry
     estimated scf accuracy    <       1.86351039 Ry

     total magnetization       =    19.11 Bohr mag/cell
     absolute magnetization    =    19.12 Bohr mag/cell

     iteration #  6     ecut=   100.00 Ry     beta= 0.40
     Davidson diagonalization with overlap
     ethr =  9.86E-04,  avg # of iterations =  2.0

     negative rho (up, down):  0.000E+00 2.346E-04

     total cpu time spent up to now is     2957.3 secs

     total energy              =   -2126.02189219 Ry
     estimated scf accuracy    <       0.71375666 Ry

     total magnetization       =    19.00 Bohr mag/cell
     absolute magnetization    =    19.00 Bohr mag/cell

     iteration #  7     ecut=   100.00 Ry     beta= 0.40
     Davidson diagonalization with overlap
     ethr =  3.78E-04,  avg # of iterations =  1.9

     negative rho (up, down):  0.000E+00 3.750E-04

     total cpu time spent up to now is     3373.9 secs

     total energy              =   -2126.04472539 Ry
     estimated scf accuracy    <       0.59331982 Ry

     total magnetization       =    19.08 Bohr mag/cell
     absolute magnetization    =    19.08 Bohr mag/cell

     iteration #  8     ecut=   100.00 Ry     beta= 0.40
     Davidson diagonalization with overlap
     ethr =  3.14E-04,  avg # of iterations =  1.2

     negative rho (up, down):  0.000E+00 3.887E-04

     total cpu time spent up to now is     3747.1 secs

     total energy              =   -2126.08526934 Ry
     estimated scf accuracy    <       0.52462996 Ry

     total magnetization       =    19.00 Bohr mag/cell
     absolute magnetization    =    19.01 Bohr mag/cell

     iteration #  9     ecut=   100.00 Ry     beta= 0.40
     Davidson diagonalization with overlap
     ethr =  2.78E-04,  avg # of iterations =  1.0

     negative rho (up, down):  0.000E+00 6.329E-04

     total cpu time spent up to now is     4110.8 secs

     total energy              =   -2126.05723713 Ry
     estimated scf accuracy    <       0.41077763 Ry

     total magnetization       =    19.00 Bohr mag/cell
     absolute magnetization    =    19.01 Bohr mag/cell

     iteration # 10     ecut=   100.00 Ry     beta= 0.40
     Davidson diagonalization with overlap
     ethr =  2.17E-04,  avg # of iterations =  2.6

     negative rho (up, down):  0.000E+00 7.178E-04

     total cpu time spent up to now is     4528.9 secs

     total energy              =   -2126.09548341 Ry
     estimated scf accuracy    <       0.49975569 Ry

     total magnetization       =    19.00 Bohr mag/cell
     absolute magnetization    =    19.02 Bohr mag/cell

     iteration # 11     ecut=   100.00 Ry     beta= 0.40
     Davidson diagonalization with overlap
     ethr =  2.17E-04,  avg # of iterations =  1.2

     negative rho (up, down):  0.000E+00 9.302E-04

     total cpu time spent up to now is     4898.0 secs

     total energy              =   -2126.09707233 Ry
     estimated scf accuracy    <       0.39174563 Ry

     total magnetization       =    19.00 Bohr mag/cell
     absolute magnetization    =    19.02 Bohr mag/cell

     iteration # 12     ecut=   100.00 Ry     beta= 0.40
     Davidson diagonalization with overlap
     ethr =  2.07E-04,  avg # of iterations =  1.0

     negative rho (up, down):  0.000E+00 9.337E-04

     total cpu time spent up to now is     5261.7 secs

     total energy              =   -2126.08848225 Ry
     estimated scf accuracy    <       0.31128662 Ry

     total magnetization       =    19.00 Bohr mag/cell
     absolute magnetization    =    19.03 Bohr mag/cell

     iteration # 13     ecut=   100.00 Ry     beta= 0.40
     Davidson diagonalization with overlap
     ethr =  1.65E-04,  avg # of iterations =  1.5

     negative rho (up, down):  0.000E+00 9.239E-04

     total cpu time spent up to now is     5641.4 secs

     total energy              =   -2126.08987711 Ry
     estimated scf accuracy    <       0.21690055 Ry

     total magnetization       =    19.00 Bohr mag/cell
     absolute magnetization    =    19.04 Bohr mag/cell

     iteration # 14     ecut=   100.00 Ry     beta= 0.40
     Davidson diagonalization with overlap
     ethr =  1.15E-04,  avg # of iterations =  2.2

     negative rho (up, down):  0.000E+00 9.129E-04

     total cpu time spent up to now is     6050.3 secs

     total energy              =   -2126.09199810 Ry
     estimated scf accuracy    <       0.10340887 Ry

     total magnetization       =    19.00 Bohr mag/cell
     absolute magnetization    =    19.04 Bohr mag/cell

     iteration # 15     ecut=   100.00 Ry     beta= 0.40
     Davidson diagonalization with overlap
     c_bands:  1 eigenvalues not converged
     c_bands:  1 eigenvalues not converged
     c_bands:  1 eigenvalues not converged
     c_bands:  1 eigenvalues not converged
     c_bands:  1 eigenvalues not converged
     c_bands:  1 eigenvalues not converged
     c_bands:  3 eigenvalues not converged
     c_bands:  1 eigenvalues not converged
     c_bands:  1 eigenvalues not converged
     c_bands:  1 eigenvalues not converged
     c_bands:  2 eigenvalues not converged
     c_bands:  1 eigenvalues not converged
     c_bands:  1 eigenvalues not converged
     c_bands:  1 eigenvalues not converged
     c_bands:  1 eigenvalues not converged
     c_bands:  1 eigenvalues not converged
     c_bands:  1 eigenvalues not converged
     c_bands:  2 eigenvalues not converged
     c_bands:  1 eigenvalues not converged
     c_bands:  1 eigenvalues not converged
     c_bands:  1 eigenvalues not converged
     c_bands:  1 eigenvalues not converged
     ethr =  5.47E-05,  avg # of iterations = 10.2

     negative rho (up, down):  0.000E+00 9.213E-04

     total cpu time spent up to now is     6625.7 secs

     total energy              =   -2126.09134851 Ry
     estimated scf accuracy    <       0.03935075 Ry

     total magnetization       =    19.00 Bohr mag/cell
     absolute magnetization    =    19.04 Bohr mag/cell

     iteration # 16     ecut=   100.00 Ry     beta= 0.40
     Davidson diagonalization with overlap
     c_bands:  1 eigenvalues not converged
     c_bands:  1 eigenvalues not converged
     c_bands:  1 eigenvalues not converged
     c_bands:  1 eigenvalues not converged
     c_bands:  1 eigenvalues not converged
     c_bands:  1 eigenvalues not converged
     c_bands:  1 eigenvalues not converged
     c_bands:  1 eigenvalues not converged
     c_bands:  1 eigenvalues not converged
     c_bands:  1 eigenvalues not converged
     c_bands:  2 eigenvalues not converged
     c_bands:  1 eigenvalues not converged
     c_bands:  1 eigenvalues not converged
     c_bands:  1 eigenvalues not converged
     c_bands:  1 eigenvalues not converged
     c_bands:  1 eigenvalues not converged
     c_bands:  1 eigenvalues not converged
     c_bands:  1 eigenvalues not converged
     ethr =  2.08E-05,  avg # of iterations =  8.6

     negative rho (up, down):  0.000E+00 9.421E-04

     total cpu time spent up to now is     7195.0 secs

     total energy              =   -2126.09247228 Ry
     estimated scf accuracy    <       0.01722054 Ry

     total magnetization       =    19.00 Bohr mag/cell
     absolute magnetization    =    19.04 Bohr mag/cell

     iteration # 17     ecut=   100.00 Ry     beta= 0.40
     Davidson diagonalization with overlap
     c_bands:  1 eigenvalues not converged
     c_bands:  1 eigenvalues not converged
     c_bands:  1 eigenvalues not converged
     c_bands:  1 eigenvalues not converged
     c_bands:  1 eigenvalues not converged
     c_bands:  1 eigenvalues not converged
     c_bands:  1 eigenvalues not converged
     c_bands:  1 eigenvalues not converged
     ethr =  9.11E-06,  avg # of iterations =  4.8

     negative rho (up, down):  0.000E+00 9.412E-04

     total cpu time spent up to now is     7656.8 secs

     total energy              =   -2126.09306295 Ry
     estimated scf accuracy    <       0.00947075 Ry

     total magnetization       =    19.00 Bohr mag/cell
     absolute magnetization    =    19.05 Bohr mag/cell

     iteration # 18     ecut=   100.00 Ry     beta= 0.40
     Davidson diagonalization with overlap
     c_bands:  1 eigenvalues not converged
     c_bands:  1 eigenvalues not converged
     c_bands:  1 eigenvalues not converged
     c_bands:  1 eigenvalues not converged
     c_bands:  1 eigenvalues not converged
     c_bands:  1 eigenvalues not converged
     ethr =  5.01E-06,  avg # of iterations =  3.8

     negative rho (up, down):  0.000E+00 9.401E-04

     total cpu time spent up to now is     8092.2 secs

     total energy              =   -2126.09328398 Ry
     estimated scf accuracy    <       0.00075903 Ry

     total magnetization       =    19.00 Bohr mag/cell
     absolute magnetization    =    19.05 Bohr mag/cell

     iteration # 19     ecut=   100.00 Ry     beta= 0.40
     Davidson diagonalization with overlap
     c_bands:  1 eigenvalues not converged
     c_bands:  1 eigenvalues not converged
     c_bands:  1 eigenvalues not converged
     c_bands:  1 eigenvalues not converged
     c_bands:  1 eigenvalues not converged
     c_bands:  1 eigenvalues not converged
     c_bands:  1 eigenvalues not converged
     c_bands:  1 eigenvalues not converged
     c_bands:  1 eigenvalues not converged
     c_bands:  1 eigenvalues not converged
     c_bands:  1 eigenvalues not converged
     ethr =  4.02E-07,  avg # of iterations =  9.4

     negative rho (up, down):  0.000E+00 9.308E-04

     total cpu time spent up to now is     8745.7 secs

     total energy              =   -2126.09340346 Ry
     estimated scf accuracy    <       0.00026931 Ry

     total magnetization       =    19.00 Bohr mag/cell
     absolute magnetization    =    19.05 Bohr mag/cell

     iteration # 20     ecut=   100.00 Ry     beta= 0.40
     Davidson diagonalization with overlap
     ethr =  1.42E-07,  avg # of iterations =  2.1

     negative rho (up, down):  0.000E+00 9.290E-04

     total cpu time spent up to now is     9168.7 secs

     total energy              =   -2126.09342971 Ry
     estimated scf accuracy    <       0.00024881 Ry

     total magnetization       =    19.00 Bohr mag/cell
     absolute magnetization    =    19.05 Bohr mag/cell

     iteration # 21     ecut=   100.00 Ry     beta= 0.40
     Davidson diagonalization with overlap
     ethr =  1.32E-07,  avg # of iterations =  1.0

     negative rho (up, down):  0.000E+00 9.269E-04

     total cpu time spent up to now is     9532.0 secs

     total energy              =   -2126.09343884 Ry
     estimated scf accuracy    <       0.00004840 Ry

     total magnetization       =    19.00 Bohr mag/cell
     absolute magnetization    =    19.05 Bohr mag/cell

     iteration # 22     ecut=   100.00 Ry     beta= 0.40
     Davidson diagonalization with overlap
     ethr =  2.56E-08,  avg # of iterations =  2.9

     negative rho (up, down):  0.000E+00 9.259E-04

     total cpu time spent up to now is    10048.6 secs

     total energy              =   -2126.09345072 Ry
     estimated scf accuracy    <       0.00001038 Ry

     total magnetization       =    19.00 Bohr mag/cell
     absolute magnetization    =    19.05 Bohr mag/cell

     iteration # 23     ecut=   100.00 Ry     beta= 0.40
     Davidson diagonalization with overlap
     ethr =  5.49E-09,  avg # of iterations =  2.2

     negative rho (up, down):  0.000E+00 9.267E-04

     total cpu time spent up to now is    10494.2 secs

     total energy              =   -2126.09345306 Ry
     estimated scf accuracy    <       0.00000472 Ry

     total magnetization       =    19.00 Bohr mag/cell
     absolute magnetization    =    19.05 Bohr mag/cell

     iteration # 24     ecut=   100.00 Ry     beta= 0.40
     Davidson diagonalization with overlap
     ethr =  2.50E-09,  avg # of iterations =  2.0

     negative rho (up, down):  0.000E+00 9.277E-04

     total cpu time spent up to now is    10917.7 secs

     total energy              =   -2126.09345386 Ry
     estimated scf accuracy    <       0.00000073 Ry

     total magnetization       =    19.00 Bohr mag/cell
     absolute magnetization    =    19.05 Bohr mag/cell

     iteration # 25     ecut=   100.00 Ry     beta= 0.40
     Davidson diagonalization with overlap
     ethr =  3.85E-10,  avg # of iterations =  3.9

     negative rho (up, down):  0.000E+00 9.279E-04

     total cpu time spent up to now is    11453.3 secs

     total energy              =   -2126.09345407 Ry
     estimated scf accuracy    <       0.00000173 Ry

     total magnetization       =    19.00 Bohr mag/cell
     absolute magnetization    =    19.05 Bohr mag/cell

     iteration # 26     ecut=   100.00 Ry     beta= 0.40
     Davidson diagonalization with overlap
     ethr =  3.85E-10,  avg # of iterations =  2.0

     negative rho (up, down):  0.000E+00 9.285E-04

     total cpu time spent up to now is    11891.4 secs

     total energy              =   -2126.09345437 Ry
     estimated scf accuracy    <       0.00000020 Ry

     total magnetization       =    19.00 Bohr mag/cell
     absolute magnetization    =    19.05 Bohr mag/cell

     iteration # 27     ecut=   100.00 Ry     beta= 0.40
     Davidson diagonalization with overlap
     ethr =  1.07E-10,  avg # of iterations =  2.3

     negative rho (up, down):  0.000E+00 9.283E-04

     total cpu time spent up to now is    12371.4 secs

     total energy              =   -2126.09345445 Ry
     estimated scf accuracy    <       0.00000038 Ry

     total magnetization       =    19.00 Bohr mag/cell
     absolute magnetization    =    19.05 Bohr mag/cell

     iteration # 28     ecut=   100.00 Ry     beta= 0.40
     Davidson diagonalization with overlap
     ethr =  1.07E-10,  avg # of iterations =  2.0

     negative rho (up, down):  0.000E+00 9.283E-04

     total cpu time spent up to now is    12806.7 secs

     total energy              =   -2126.09345448 Ry
     estimated scf accuracy    <       0.00000009 Ry

     total magnetization       =    19.00 Bohr mag/cell
     absolute magnetization    =    19.05 Bohr mag/cell

     iteration # 29     ecut=   100.00 Ry     beta= 0.40
     Davidson diagonalization with overlap
     ethr =  4.91E-11,  avg # of iterations =  2.0

     negative rho (up, down):  0.000E+00 9.283E-04

     total cpu time spent up to now is    13240.9 secs

     total energy              =   -2126.09345449 Ry
     estimated scf accuracy    <       0.00000034 Ry

     total magnetization       =    19.00 Bohr mag/cell
     absolute magnetization    =    19.05 Bohr mag/cell

     iteration # 30     ecut=   100.00 Ry     beta= 0.40
     Davidson diagonalization with overlap
     ethr =  4.91E-11,  avg # of iterations =  2.0

     negative rho (up, down):  0.000E+00 9.281E-04

     total cpu time spent up to now is    13681.9 secs

     total energy              =   -2126.09345452 Ry
     estimated scf accuracy    <       0.00000007 Ry

     total magnetization       =    19.00 Bohr mag/cell
     absolute magnetization    =    19.05 Bohr mag/cell

     iteration # 31     ecut=   100.00 Ry     beta= 0.40
     Davidson diagonalization with overlap
     ethr =  3.85E-11,  avg # of iterations =  2.0

     negative rho (up, down):  0.000E+00 9.281E-04

     total cpu time spent up to now is    14123.4 secs

     total energy              =   -2126.09345454 Ry
     estimated scf accuracy    <       0.00000002 Ry

     total magnetization       =    19.00 Bohr mag/cell
     absolute magnetization    =    19.05 Bohr mag/cell

     iteration # 32     ecut=   100.00 Ry     beta= 0.40
     Davidson diagonalization with overlap
     ethr =  1.31E-11,  avg # of iterations =  2.1

     negative rho (up, down):  0.000E+00 9.281E-04

     total cpu time spent up to now is    14563.5 secs

     total energy              =   -2126.09345454 Ry
     estimated scf accuracy    <       0.00000001 Ry

     total magnetization       =    19.00 Bohr mag/cell
     absolute magnetization    =    19.05 Bohr mag/cell

     iteration # 33     ecut=   100.00 Ry     beta= 0.40
     Davidson diagonalization with overlap
     ethr =  5.45E-12,  avg # of iterations =  2.0

     negative rho (up, down):  0.000E+00 9.282E-04

     total cpu time spent up to now is    14978.0 secs

     total energy              =   -2126.09345454 Ry
     estimated scf accuracy    <       0.00000001 Ry

     total magnetization       =    19.00 Bohr mag/cell
     absolute magnetization    =    19.05 Bohr mag/cell

     iteration # 34     ecut=   100.00 Ry     beta= 0.40
     Davidson diagonalization with overlap
     ethr =  5.45E-12,  avg # of iterations =  1.6

     negative rho (up, down):  0.000E+00 9.282E-04

     total cpu time spent up to now is    15373.4 secs

     total energy              =   -2126.09345454 Ry
     estimated scf accuracy    <          2.0E-09 Ry

     total magnetization       =    19.00 Bohr mag/cell
     absolute magnetization    =    19.05 Bohr mag/cell

     iteration # 35     ecut=   100.00 Ry     beta= 0.40
     Davidson diagonalization with overlap
     ethr =  1.08E-12,  avg # of iterations =  4.4

     negative rho (up, down):  0.000E+00 9.282E-04

     total cpu time spent up to now is    15956.4 secs

     total energy              =   -2126.09345454 Ry
     estimated scf accuracy    <          7.6E-10 Ry

     total magnetization       =    19.00 Bohr mag/cell
     absolute magnetization    =    19.05 Bohr mag/cell

     iteration # 36     ecut=   100.00 Ry     beta= 0.40
     Davidson diagonalization with overlap
     ethr =  4.01E-13,  avg # of iterations =  2.6

     negative rho (up, down):  0.000E+00 9.282E-04

     Magnetic moment per site:
     atom:    1    charge:    7.8975    magn:    0.0004    constr:    0.0000
     atom:    2    charge:   12.8803    magn:    3.6812    constr:    0.0000
     atom:    3    charge:   12.8875    magn:    3.6636    constr:    0.0000
     atom:    4    charge:   12.9267    magn:    3.5670    constr:    0.0000
     atom:    5    charge:   12.8878    magn:    3.6664    constr:    0.0000
     atom:    6    charge:    0.8361    magn:    0.0099    constr:    0.0000
     atom:    7    charge:    0.8402    magn:    0.0079    constr:    0.0000
     atom:    8    charge:    0.8388    magn:    0.0107    constr:    0.0000
     atom:    9    charge:    0.8344    magn:    0.0085    constr:    0.0000
     atom:   10    charge:    4.2664    magn:    0.1359    constr:    0.0000
     atom:   11    charge:    4.2818    magn:    0.0864    constr:    0.0000
     atom:   12    charge:    4.2699    magn:    0.1247    constr:    0.0000
     atom:   13    charge:    4.2656    magn:    0.1075    constr:    0.0000
     atom:   14    charge:    4.2409    magn:    0.1159    constr:    0.0000
     atom:   15    charge:    4.2483    magn:    0.1310    constr:    0.0000
     atom:   16    charge:    4.2485    magn:    0.0760    constr:    0.0000
     atom:   17    charge:    4.2421    magn:    0.1427    constr:    0.0000
     atom:   18    charge:    4.2247    magn:    0.1533    constr:    0.0000
     atom:   19    charge:    4.2299    magn:    0.1333    constr:    0.0000
     atom:   20    charge:    4.2304    magn:    0.1418    constr:    0.0000
     atom:   21    charge:    4.2299    magn:    0.1206    constr:    0.0000
     atom:   22    charge:    4.2319    magn:    0.1493    constr:    0.0000
     atom:   23    charge:    4.2234    magn:    0.1310    constr:    0.0000
     atom:   24    charge:    4.2247    magn:    0.1520    constr:    0.0000
     atom:   25    charge:    4.2274    magn:    0.1311    constr:    0.0000

     total cpu time spent up to now is    16417.4 secs

     End of self-consistent calculation

 ------ SPIN UP ------------


          k = 0.0000 0.0000 0.0000 ( 37649 PWs)   bands (ev):

   -85.7320 -85.6757 -85.6729 -85.3138 -51.8173 -51.8029 -51.7735 -51.6811
   -51.6597 -51.6337 -51.6318 -51.5876 -51.5819 -51.5721 -51.2603 -51.0594
   -45.4697 -17.4896 -17.4309 -17.4118 -16.3506 -16.2102 -16.0123 -15.9343
   -14.0455 -14.0108 -13.9145 -13.7883 -13.7718 -13.7277 -13.7176 -13.6562
   -13.6404 -13.5948 -13.5204 -13.4266  -4.4434  -3.9503  -3.9100  -3.5084
    -2.5025  -2.1740  -2.1219  -1.9356  -1.7128  -1.6467  -1.5178  -1.4775
    -1.3617  -1.2008  -0.9522  -0.7327  -0.5985  -0.5741  -0.1031  -0.0502
     0.0093   0.0669   0.2455   0.4266   0.4714   0.5520   0.6066   0.6487
     0.7233   0.9011   0.9435   1.1523   1.2653   1.3211   1.4097   1.4492
     1.5362   1.6477   1.7659   1.8405   1.9220   1.9668   1.9776   2.0932
     2.2466   2.2780   2.3107   2.4320   2.5254   2.5877   2.6666   2.8181
     2.8868   2.9800   2.9964   3.0138   3.1114   3.2951   3.3473   3.4595
     3.5965   3.6042   3.7023   3.7755   3.8965   3.9822   4.2934   4.4102
     8.3964  10.4077  10.9094  11.3154  11.5303  12.3415  12.4159  12.6303
    12.8803  13.0926

     occupation numbers 
     1.0000   1.0000   1.0000   1.0000   1.0000   1.0000   1.0000   1.0000
     1.0000   1.0000   1.0000   1.0000   1.0000   1.0000   1.0000   1.0000
     1.0000   1.0000   1.0000   1.0000   1.0000   1.0000   1.0000   1.0000
     1.0000   1.0000   1.0000   1.0000   1.0000   1.0000   1.0000   1.0000
     1.0000   1.0000   1.0000   1.0000   1.0000   1.0000   1.0000   1.0000
     1.0000   1.0000   1.0000   1.0000   1.0000   1.0000   1.0000   1.0000
     1.0000   1.0000   1.0000   1.0000   1.0000   1.0000   1.0000   1.0000
     1.0000   1.0000   1.0000   1.0000   1.0000   1.0000   1.0000   1.0000
     1.0000   1.0000   1.0000   1.0000   1.0000   1.0000   1.0000   1.0000
     1.0000   1.0000   1.0000   1.0000   1.0000   1.0000   1.0000   1.0000
     1.0000   1.0000   1.0000   1.0000   1.0000   1.0000   1.0000   1.0000
     1.0000   1.0000   1.0000   1.0000   1.0000   1.0000   1.0000   1.0000
     1.0000   1.0000   1.0000   1.0000   1.0000   1.0000   1.0000   1.0000
     0.0000   0.0000   0.0000   0.0000   0.0000   0.0000   0.0000   0.0000
     0.0000   0.0000

          k = 0.0000 0.0000 0.2376 ( 37659 PWs)   bands (ev):

   -85.7320 -85.6757 -85.6729 -85.3138 -51.8173 -51.8029 -51.7735 -51.6811
   -51.6597 -51.6337 -51.6318 -51.5876 -51.5819 -51.5721 -51.2603 -51.0594
   -45.4697 -17.4897 -17.4357 -17.4111 -16.3360 -16.2012 -16.0060 -15.9300
   -14.0591 -14.0234 -13.9202 -13.7939 -13.7835 -13.7273 -13.7204 -13.6516
   -13.6362 -13.5963 -13.5243 -13.4305  -4.4220  -3.9491  -3.9051  -3.5173
    -2.4605  -2.1496  -2.1154  -1.9215  -1.7088  -1.6583  -1.5433  -1.4058
    -1.3560  -1.1675  -0.9964  -0.7069  -0.6190  -0.5775  -0.0910  -0.0340
     0.0108   0.1083   0.2489   0.4188   0.4615   0.5315   0.5850   0.6719
     0.7178   0.9002   0.9346   1.1381   1.2380   1.2678   1.3454   1.4113
     1.6185   1.6422   1.7011   1.8135   1.8898   1.9143   2.0169   2.1818
     2.2094   2.3022   2.3170   2.4222   2.5639   2.5982   2.6392   2.7659
     2.8936   2.9346   3.0087   3.0191   3.0795   3.3466   3.3560   3.4620
     3.5971   3.6225   3.7329   3.7714   3.8888   3.9845   4.2700   4.3900
     8.5418  10.4780  10.9457  11.3167  11.5983  12.1961  12.4562  12.6201
    12.7932  12.9979

     occupation numbers 
     1.0000   1.0000   1.0000   1.0000   1.0000   1.0000   1.0000   1.0000
     1.0000   1.0000   1.0000   1.0000   1.0000   1.0000   1.0000   1.0000
     1.0000   1.0000   1.0000   1.0000   1.0000   1.0000   1.0000   1.0000
     1.0000   1.0000   1.0000   1.0000   1.0000   1.0000   1.0000   1.0000
     1.0000   1.0000   1.0000   1.0000   1.0000   1.0000   1.0000   1.0000
     1.0000   1.0000   1.0000   1.0000   1.0000   1.0000   1.0000   1.0000
     1.0000   1.0000   1.0000   1.0000   1.0000   1.0000   1.0000   1.0000
     1.0000   1.0000   1.0000   1.0000   1.0000   1.0000   1.0000   1.0000
     1.0000   1.0000   1.0000   1.0000   1.0000   1.0000   1.0000   1.0000
     1.0000   1.0000   1.0000   1.0000   1.0000   1.0000   1.0000   1.0000
     1.0000   1.0000   1.0000   1.0000   1.0000   1.0000   1.0000   1.0000
     1.0000   1.0000   1.0000   1.0000   1.0000   1.0000   1.0000   1.0000
     1.0000   1.0000   1.0000   1.0000   1.0000   1.0000   1.0000   1.0000
     0.0000   0.0000   0.0000   0.0000   0.0000   0.0000   0.0000   0.0000
     0.0000   0.0000

          k = 0.0000 0.0000 0.4753 ( 37654 PWs)   bands (ev):

   -85.7320 -85.6757 -85.6729 -85.3138 -51.8173 -51.8029 -51.7735 -51.6811
   -51.6597 -51.6337 -51.6318 -51.5876 -51.5819 -51.5721 -51.2603 -51.0594
   -45.4697 -17.4904 -17.4465 -17.4100 -16.2974 -16.1783 -15.9895 -15.9199
   -14.0934 -14.0572 -13.9373 -13.8197 -13.8041 -13.7341 -13.7101 -13.6425
   -13.6247 -13.5999 -13.5350 -13.4410  -4.3601  -3.9524  -3.8903  -3.5520
    -2.3452  -2.1167  -2.0659  -1.9045  -1.6940  -1.6731  -1.5436  -1.3437
    -1.2649  -1.1115  -1.0781  -0.7402  -0.6250  -0.5133  -0.0488   0.0024
     0.0346   0.1993   0.2606   0.4094   0.4265   0.5025   0.5159   0.6998
     0.7186   0.8993   0.9228   1.0842   1.1186   1.1794   1.2953   1.3658
     1.4428   1.5510   1.7628   1.7805   1.8485   1.8725   2.0830   2.1238
     2.2746   2.2935   2.3718   2.4160   2.4563   2.5811   2.6765   2.7212
     2.8013   2.9289   3.0554   3.0804   3.1090   3.3682   3.4088   3.4689
     3.6329   3.6783   3.7578   3.7812   3.8726   3.9965   4.1984   4.3280
     8.9296  10.6642  11.0160  11.3611  11.7519  12.0363  12.2853  12.5803
    12.6241  12.7270

     occupation numbers 
     1.0000   1.0000   1.0000   1.0000   1.0000   1.0000   1.0000   1.0000
     1.0000   1.0000   1.0000   1.0000   1.0000   1.0000   1.0000   1.0000
     1.0000   1.0000   1.0000   1.0000   1.0000   1.0000   1.0000   1.0000
     1.0000   1.0000   1.0000   1.0000   1.0000   1.0000   1.0000   1.0000
     1.0000   1.0000   1.0000   1.0000   1.0000   1.0000   1.0000   1.0000
     1.0000   1.0000   1.0000   1.0000   1.0000   1.0000   1.0000   1.0000
     1.0000   1.0000   1.0000   1.0000   1.0000   1.0000   1.0000   1.0000
     1.0000   1.0000   1.0000   1.0000   1.0000   1.0000   1.0000   1.0000
     1.0000   1.0000   1.0000   1.0000   1.0000   1.0000   1.0000   1.0000
     1.0000   1.0000   1.0000   1.0000   1.0000   1.0000   1.0000   1.0000
     1.0000   1.0000   1.0000   1.0000   1.0000   1.0000   1.0000   1.0000
     1.0000   1.0000   1.0000   1.0000   1.0000   1.0000   1.0000   1.0000
     1.0000   1.0000   1.0000   1.0000   1.0000   1.0000   1.0000   1.0000
     0.0000   0.0000   0.0000   0.0000   0.0000   0.0000   0.0000   0.0000
     0.0000   0.0000

          k = 0.0000 0.0000 0.7129 ( 37702 PWs)   bands (ev):

   -85.7320 -85.6757 -85.6729 -85.3138 -51.8173 -51.8029 -51.7735 -51.6811
   -51.6597 -51.6337 -51.6318 -51.5876 -51.5819 -51.5721 -51.2603 -51.0594
   -45.4697 -17.4926 -17.4566 -17.4091 -16.2494 -16.1533 -15.9685 -15.9115
   -14.1328 -14.0971 -13.9625 -13.8612 -13.8173 -13.7340 -13.6943 -13.6342
   -13.6103 -13.6038 -13.5492 -13.4548  -4.2671  -3.9752  -3.8653  -3.6166
    -2.2100  -2.0862  -1.9881  -1.9029  -1.6881  -1.6428  -1.5255  -1.3359
    -1.2214  -1.1134  -0.9635  -0.8973  -0.4871  -0.3883   0.0201   0.0506
     0.0782   0.2118   0.3303   0.3563   0.4067   0.4246   0.5042   0.7010
     0.7368   0.8364   0.9557   0.9716   0.9862   1.0921   1.1580   1.2361
     1.3919   1.4219   1.6855   1.7498   1.8220   1.9878   2.0301   2.2095
     2.2161   2.2906   2.3053   2.3251   2.4744   2.4980   2.5718   2.7197
     2.7881   2.9390   3.1298   3.2092   3.3179   3.3949   3.4227   3.4789
     3.6790   3.7214   3.7670   3.8059   3.8894   4.0116   4.0753   4.2232
     9.4583  10.8460  11.0462  11.4711  11.7959  11.9651  12.1662  12.3989
    12.4998  12.5582

     occupation numbers 
     1.0000   1.0000   1.0000   1.0000   1.0000   1.0000   1.0000   1.0000
     1.0000   1.0000   1.0000   1.0000   1.0000   1.0000   1.0000   1.0000
     1.0000   1.0000   1.0000   1.0000   1.0000   1.0000   1.0000   1.0000
     1.0000   1.0000   1.0000   1.0000   1.0000   1.0000   1.0000   1.0000
     1.0000   1.0000   1.0000   1.0000   1.0000   1.0000   1.0000   1.0000
     1.0000   1.0000   1.0000   1.0000   1.0000   1.0000   1.0000   1.0000
     1.0000   1.0000   1.0000   1.0000   1.0000   1.0000   1.0000   1.0000
     1.0000   1.0000   1.0000   1.0000   1.0000   1.0000   1.0000   1.0000
     1.0000   1.0000   1.0000   1.0000   1.0000   1.0000   1.0000   1.0000
     1.0000   1.0000   1.0000   1.0000   1.0000   1.0000   1.0000   1.0000
     1.0000   1.0000   1.0000   1.0000   1.0000   1.0000   1.0000   1.0000
     1.0000   1.0000   1.0000   1.0000   1.0000   1.0000   1.0000   1.0000
     1.0000   1.0000   1.0000   1.0000   1.0000   1.0000   1.0000   1.0000
     0.0000   0.0000   0.0000   0.0000   0.0000   0.0000   0.0000   0.0000
     0.0000   0.0000

          k = 0.0000 0.0000 0.9505 ( 37742 PWs)   bands (ev):

   -85.7320 -85.6757 -85.6729 -85.3138 -51.8173 -51.8029 -51.7735 -51.6811
   -51.6597 -51.6337 -51.6318 -51.5876 -51.5820 -51.5721 -51.2603 -51.0594
   -45.4697 -17.4952 -17.4617 -17.4085 -16.2139 -16.1393 -15.9515 -15.9098
   -14.1590 -14.1234 -13.9820 -13.8908 -13.8231 -13.7312 -13.6818 -13.6292
   -13.6070 -13.5996 -13.5597 -13.4656  -4.1677  -4.0276  -3.8321  -3.6835
    -2.1323  -2.0667  -1.9351  -1.8862  -1.6793  -1.5687  -1.5251  -1.4378
    -1.1770  -1.0545  -1.0108  -0.8801  -0.3036  -0.1869   0.0323   0.0752
     0.1192   0.1432   0.2644   0.2945   0.3649   0.4724   0.5767   0.6499
     0.7674   0.7800   0.7940   0.8825   0.9341   1.0360   1.0473   1.2002
     1.4155   1.4453   1.5793   1.6934   1.8212   1.9496   2.1072   2.1483
     2.2097   2.2562   2.2757   2.3413   2.3976   2.4402   2.5494   2.6982
     2.8131   2.9366   3.1761   3.3436   3.3923   3.4215   3.4877   3.6012
     3.6843   3.6906   3.8139   3.8489   3.9130   3.9373   4.0161   4.0953
    10.0220  10.5852  11.2560  11.5847  11.6914  11.8711  12.1534  12.3515
    12.4833  12.5742

     occupation numbers 
     1.0000   1.0000   1.0000   1.0000   1.0000   1.0000   1.0000   1.0000
     1.0000   1.0000   1.0000   1.0000   1.0000   1.0000   1.0000   1.0000
     1.0000   1.0000   1.0000   1.0000   1.0000   1.0000   1.0000   1.0000
     1.0000   1.0000   1.0000   1.0000   1.0000   1.0000   1.0000   1.0000
     1.0000   1.0000   1.0000   1.0000   1.0000   1.0000   1.0000   1.0000
     1.0000   1.0000   1.0000   1.0000   1.0000   1.0000   1.0000   1.0000
     1.0000   1.0000   1.0000   1.0000   1.0000   1.0000   1.0000   1.0000
     1.0000   1.0000   1.0000   1.0000   1.0000   1.0000   1.0000   1.0000
     1.0000   1.0000   1.0000   1.0000   1.0000   1.0000   1.0000   1.0000
     1.0000   1.0000   1.0000   1.0000   1.0000   1.0000   1.0000   1.0000
     1.0000   1.0000   1.0000   1.0000   1.0000   1.0000   1.0000   1.0000
     1.0000   1.0000   1.0000   1.0000   1.0000   1.0000   1.0000   1.0000
     1.0000   1.0000   1.0000   1.0000   1.0000   1.0000   1.0000   1.0000
     0.0000   0.0000   0.0000   0.0000   0.0000   0.0000   0.0000   0.0000
     0.0000   0.0000

          k = 0.0000 0.2391 0.0000 ( 37676 PWs)   bands (ev):

   -85.7320 -85.6757 -85.6729 -85.3138 -51.8173 -51.8029 -51.7735 -51.6811
   -51.6597 -51.6337 -51.6318 -51.5876 -51.5819 -51.5721 -51.2603 -51.0594
   -45.4697 -17.4895 -17.4309 -17.4122 -16.3370 -16.2078 -16.0118 -15.9477
   -14.0436 -14.0078 -13.9186 -13.7904 -13.7793 -13.7626 -13.7181 -13.6762
   -13.5963 -13.5821 -13.5183 -13.4298  -4.4181  -3.9700  -3.8880  -3.5168
    -2.4786  -2.1789  -2.1148  -1.9378  -1.7020  -1.6330  -1.5069  -1.4666
    -1.3161  -1.2031  -0.9386  -0.7127  -0.6432  -0.5390  -0.0679  -0.0264
     0.0222   0.0583   0.1536   0.2918   0.3918   0.5809   0.6670   0.6959
     0.8296   0.9051   0.9369   1.1151   1.1979   1.2187   1.2980   1.3891
     1.5396   1.7495   1.8087   1.8542   1.9059   1.9660   2.0123   2.0470
     2.2554   2.2690   2.3046   2.3819   2.4560   2.6556   2.7627   2.8017
     2.8585   2.9094   2.9432   3.0974   3.1743   3.2999   3.3484   3.4650
     3.5425   3.6136   3.7096   3.7818   3.8549   4.0004   4.3136   4.3938
     8.5516  10.4991  10.9865  11.2312  11.6036  12.3089  12.4620  12.6939
    12.7891  13.0551

     occupation numbers 
     1.0000   1.0000   1.0000   1.0000   1.0000   1.0000   1.0000   1.0000
     1.0000   1.0000   1.0000   1.0000   1.0000   1.0000   1.0000   1.0000
     1.0000   1.0000   1.0000   1.0000   1.0000   1.0000   1.0000   1.0000
     1.0000   1.0000   1.0000   1.0000   1.0000   1.0000   1.0000   1.0000
     1.0000   1.0000   1.0000   1.0000   1.0000   1.0000   1.0000   1.0000
     1.0000   1.0000   1.0000   1.0000   1.0000   1.0000   1.0000   1.0000
     1.0000   1.0000   1.0000   1.0000   1.0000   1.0000   1.0000   1.0000
     1.0000   1.0000   1.0000   1.0000   1.0000   1.0000   1.0000   1.0000
     1.0000   1.0000   1.0000   1.0000   1.0000   1.0000   1.0000   1.0000
     1.0000   1.0000   1.0000   1.0000   1.0000   1.0000   1.0000   1.0000
     1.0000   1.0000   1.0000   1.0000   1.0000   1.0000   1.0000   1.0000
     1.0000   1.0000   1.0000   1.0000   1.0000   1.0000   1.0000   1.0000
     1.0000   1.0000   1.0000   1.0000   1.0000   1.0000   1.0000   1.0000
     0.0000   0.0000   0.0000   0.0000   0.0000   0.0000   0.0000   0.0000
     0.0000   0.0000

          k = 0.0000 0.2391 0.2376 ( 37671 PWs)   bands (ev):

   -85.7320 -85.6757 -85.6729 -85.3138 -51.8173 -51.8029 -51.7735 -51.6811
   -51.6597 -51.6337 -51.6318 -51.5876 -51.5819 -51.5721 -51.2603 -51.0594
   -45.4697 -17.4896 -17.4356 -17.4115 -16.3235 -16.1988 -16.0054 -15.9422
   -14.0580 -14.0204 -13.9240 -13.8015 -13.7880 -13.7559 -13.7227 -13.6708
   -13.5971 -13.5802 -13.5234 -13.4331  -4.3972  -3.9660  -3.8844  -3.5257
    -2.4379  -2.1541  -2.1063  -1.9243  -1.6974  -1.6458  -1.5193  -1.4082
    -1.3063  -1.1723  -0.9816  -0.7243  -0.6371  -0.5345  -0.0597  -0.0305
     0.0327   0.0996   0.1505   0.2924   0.3828   0.5895   0.6361   0.6991
     0.8057   0.8963   0.9454   1.0888   1.1600   1.1910   1.2814   1.3679
     1.6351   1.6991   1.7924   1.8424   1.8884   1.9054   1.9963   2.1156
     2.2098   2.2823   2.3297   2.3989   2.4620   2.6147   2.7190   2.7968
     2.8527   2.8982   2.9648   3.0666   3.1461   3.3360   3.3751   3.4713
     3.5439   3.6343   3.7328   3.7767   3.8487   4.0064   4.2990   4.3805
     8.6913  10.5697  11.0246  11.2539  11.6522  12.2066  12.4778  12.6221
    12.7771  12.9988

     occupation numbers 
     1.0000   1.0000   1.0000   1.0000   1.0000   1.0000   1.0000   1.0000
     1.0000   1.0000   1.0000   1.0000   1.0000   1.0000   1.0000   1.0000
     1.0000   1.0000   1.0000   1.0000   1.0000   1.0000   1.0000   1.0000
     1.0000   1.0000   1.0000   1.0000   1.0000   1.0000   1.0000   1.0000
     1.0000   1.0000   1.0000   1.0000   1.0000   1.0000   1.0000   1.0000
     1.0000   1.0000   1.0000   1.0000   1.0000   1.0000   1.0000   1.0000
     1.0000   1.0000   1.0000   1.0000   1.0000   1.0000   1.0000   1.0000
     1.0000   1.0000   1.0000   1.0000   1.0000   1.0000   1.0000   1.0000
     1.0000   1.0000   1.0000   1.0000   1.0000   1.0000   1.0000   1.0000
     1.0000   1.0000   1.0000   1.0000   1.0000   1.0000   1.0000   1.0000
     1.0000   1.0000   1.0000   1.0000   1.0000   1.0000   1.0000   1.0000
     1.0000   1.0000   1.0000   1.0000   1.0000   1.0000   1.0000   1.0000
     1.0000   1.0000   1.0000   1.0000   1.0000   1.0000   1.0000   1.0000
     0.0000   0.0000   0.0000   0.0000   0.0000   0.0000   0.0000   0.0000
     0.0000   0.0000

          k = 0.0000 0.2391 0.4753 ( 37686 PWs)   bands (ev):

   -85.7320 -85.6757 -85.6729 -85.3138 -51.8173 -51.8029 -51.7735 -51.6811
   -51.6597 -51.6337 -51.6318 -51.5876 -51.5819 -51.5721 -51.2603 -51.0594
   -45.4697 -17.4902 -17.4463 -17.4103 -16.2867 -16.1761 -15.9887 -15.9297
   -14.0936 -14.0554 -13.9410 -13.8275 -13.8107 -13.7509 -13.7198 -13.6581
   -13.6002 -13.5754 -13.5337 -13.4418  -4.3370  -3.9628  -3.8728  -3.5589
    -2.3264  -2.1095  -2.0632  -1.9054  -1.6881  -1.6528  -1.5155  -1.3166
    -1.2562  -1.1021  -1.0738  -0.7959  -0.5886  -0.5027  -0.0394  -0.0105
     0.0618   0.1080   0.2193   0.3058   0.3873   0.5595   0.6065   0.6965
     0.7559   0.8997   0.9376   1.0197   1.0705   1.1617   1.2317   1.3661
     1.4907   1.6617   1.7290   1.8130   1.8512   1.8709   2.0567   2.1054
     2.2059   2.3108   2.3518   2.3865   2.4610   2.5332   2.6363   2.7404
     2.8211   2.8906   3.0254   3.1139   3.1437   3.3725   3.4083   3.4867
     3.5885   3.6758   3.7341   3.7875   3.8654   4.0155   4.2542   4.3353
     9.0659  10.7563  11.1049  11.3259  11.7865  12.0765  12.3124  12.5364
    12.6642  12.7820

     occupation numbers 
     1.0000   1.0000   1.0000   1.0000   1.0000   1.0000   1.0000   1.0000
     1.0000   1.0000   1.0000   1.0000   1.0000   1.0000   1.0000   1.0000
     1.0000   1.0000   1.0000   1.0000   1.0000   1.0000   1.0000   1.0000
     1.0000   1.0000   1.0000   1.0000   1.0000   1.0000   1.0000   1.0000
     1.0000   1.0000   1.0000   1.0000   1.0000   1.0000   1.0000   1.0000
     1.0000   1.0000   1.0000   1.0000   1.0000   1.0000   1.0000   1.0000
     1.0000   1.0000   1.0000   1.0000   1.0000   1.0000   1.0000   1.0000
     1.0000   1.0000   1.0000   1.0000   1.0000   1.0000   1.0000   1.0000
     1.0000   1.0000   1.0000   1.0000   1.0000   1.0000   1.0000   1.0000
     1.0000   1.0000   1.0000   1.0000   1.0000   1.0000   1.0000   1.0000
     1.0000   1.0000   1.0000   1.0000   1.0000   1.0000   1.0000   1.0000
     1.0000   1.0000   1.0000   1.0000   1.0000   1.0000   1.0000   1.0000
     1.0000   1.0000   1.0000   1.0000   1.0000   1.0000   1.0000   1.0000
     0.0000   0.0000   0.0000   0.0000   0.0000   0.0000   0.0000   0.0000
     0.0000   0.0000

          k = 0.0000 0.2391 0.7129 ( 37698 PWs)   bands (ev):

   -85.7320 -85.6757 -85.6729 -85.3138 -51.8173 -51.8029 -51.7735 -51.6811
   -51.6597 -51.6337 -51.6318 -51.5876 -51.5819 -51.5721 -51.2603 -51.0594
   -45.4697 -17.4923 -17.4564 -17.4093 -16.2410 -16.1506 -15.9682 -15.9179
   -14.1343 -14.0968 -13.9674 -13.8652 -13.8279 -13.7467 -13.7065 -13.6448
   -13.6036 -13.5709 -13.5446 -13.4533  -4.2476  -3.9774  -3.8516  -3.6197
    -2.1931  -2.0770  -1.9847  -1.9005  -1.6840  -1.6188  -1.4983  -1.3097
    -1.2036  -1.1179  -0.9646  -0.9175  -0.4866  -0.4161  -0.0476   0.0412
     0.0603   0.1289   0.2822   0.4025   0.4222   0.4957   0.5516   0.6936
     0.7345   0.8675   0.9074   0.9571   1.0071   1.1031   1.1407   1.2253
     1.3773   1.4984   1.6373   1.7928   1.8316   1.9726   1.9937   2.1567
     2.1787   2.3043   2.3223   2.3770   2.4118   2.4677   2.5550   2.6948
     2.7981   2.8816   3.1214   3.2112   3.2766   3.3962   3.4256   3.4993
     3.6122   3.6961   3.7590   3.8046   3.9209   4.0217   4.1816   4.2587
     9.5815  10.9581  11.1173  11.4720  11.8522  12.0312  12.1767  12.3960
    12.4991  12.5646

     occupation numbers 
     1.0000   1.0000   1.0000   1.0000   1.0000   1.0000   1.0000   1.0000
     1.0000   1.0000   1.0000   1.0000   1.0000   1.0000   1.0000   1.0000
     1.0000   1.0000   1.0000   1.0000   1.0000   1.0000   1.0000   1.0000
     1.0000   1.0000   1.0000   1.0000   1.0000   1.0000   1.0000   1.0000
     1.0000   1.0000   1.0000   1.0000   1.0000   1.0000   1.0000   1.0000
     1.0000   1.0000   1.0000   1.0000   1.0000   1.0000   1.0000   1.0000
     1.0000   1.0000   1.0000   1.0000   1.0000   1.0000   1.0000   1.0000
     1.0000   1.0000   1.0000   1.0000   1.0000   1.0000   1.0000   1.0000
     1.0000   1.0000   1.0000   1.0000   1.0000   1.0000   1.0000   1.0000
     1.0000   1.0000   1.0000   1.0000   1.0000   1.0000   1.0000   1.0000
     1.0000   1.0000   1.0000   1.0000   1.0000   1.0000   1.0000   1.0000
     1.0000   1.0000   1.0000   1.0000   1.0000   1.0000   1.0000   1.0000
     1.0000   1.0000   1.0000   1.0000   1.0000   1.0000   1.0000   1.0000
     0.0000   0.0000   0.0000   0.0000   0.0000   0.0000   0.0000   0.0000
     0.0000   0.0000

          k = 0.0000 0.2391 0.9505 ( 37713 PWs)   bands (ev):

   -85.7320 -85.6757 -85.6729 -85.3138 -51.8173 -51.8029 -51.7735 -51.6811
   -51.6597 -51.6337 -51.6318 -51.5876 -51.5820 -51.5721 -51.2603 -51.0594
   -45.4697 -17.4949 -17.4616 -17.4088 -16.2079 -16.1344 -15.9536 -15.9126
   -14.1613 -14.1242 -13.9875 -13.8948 -13.8335 -13.7433 -13.6965 -13.6370
   -13.6040 -13.5724 -13.5475 -13.4620  -4.1549  -4.0186  -3.8262  -3.6797
    -2.1132  -2.0585  -1.9296  -1.8863  -1.6723  -1.5578  -1.4912  -1.4086
    -1.1660  -1.0718  -1.0059  -0.8727  -0.3589  -0.2575  -0.1096  -0.0673
     0.1430   0.2386   0.3061   0.3925   0.4224   0.5147   0.5962   0.6321
     0.7478   0.7621   0.8459   0.9150   0.9518   0.9834   1.0645   1.1434
     1.3962   1.4688   1.5584   1.7006   1.8344   1.9461   2.0339   2.1136
     2.2177   2.2391   2.2903   2.3620   2.3919   2.4459   2.5325   2.6714
     2.7946   2.8763   3.1636   3.3426   3.3756   3.4083   3.4568   3.5105
     3.5981   3.6922   3.7882   3.8658   3.9683   4.0105   4.1039   4.1786
    10.1378  10.6905  11.3349  11.6405  11.7553  11.9137  12.1869  12.3840
    12.4117  12.5381

     occupation numbers 
     1.0000   1.0000   1.0000   1.0000   1.0000   1.0000   1.0000   1.0000
     1.0000   1.0000   1.0000   1.0000   1.0000   1.0000   1.0000   1.0000
     1.0000   1.0000   1.0000   1.0000   1.0000   1.0000   1.0000   1.0000
     1.0000   1.0000   1.0000   1.0000   1.0000   1.0000   1.0000   1.0000
     1.0000   1.0000   1.0000   1.0000   1.0000   1.0000   1.0000   1.0000
[...]
     atom   24 type  3   force =    -0.00857679    0.02385427    0.00749913
     atom   25 type  3   force =     0.00901844   -0.02321256    0.00830099
     The non-local contrib.  to forces
     atom    1 type  2   force =     0.10879600   -0.03801319   -0.03318460
     atom    2 type  1   force =     0.07835653   -0.01611980    0.11161557
     atom    3 type  1   force =     0.02653209    0.00027936    0.08636665
     atom    4 type  1   force =    -0.22388303    0.04667678   -0.05829295
     atom    5 type  1   force =    -0.00550983   -0.00823089   -0.09235456
     atom    6 type  4   force =    -0.03809306   -0.00018813   -0.06302364
     atom    7 type  4   force =     0.05670185   -0.00009355   -0.03472888
     atom    8 type  4   force =     0.01357445   -0.00460341    0.06637813
     atom    9 type  4   force =    -0.01384789    0.00129088    0.06979847
     atom   10 type  3   force =     0.31082792    0.01178914   -1.50309056
     atom   11 type  3   force =    -0.10240218    0.00826169   -1.42916429
     atom   12 type  3   force =    -0.39892645   -0.01528357    1.50385071
     atom   13 type  3   force =     0.23754405    0.01551627    1.50708378
     atom   14 type  3   force =     1.24615144    0.00825949   -0.59927326
     atom   15 type  3   force =    -1.22218709   -0.01156907   -0.76191489
     atom   16 type  3   force =    -1.22507665    0.02409410    0.28933829
     atom   17 type  3   force =     1.19390290    0.00567737    0.60935416
     atom   18 type  3   force =    -0.53029886   -1.11948485    0.75141300
     atom   19 type  3   force =     0.55386270    1.16912710    0.79809101
     atom   20 type  3   force =     0.58312315   -1.13533308   -0.66653486
     atom   21 type  3   force =    -0.60757909    1.08071788   -0.62252749
     atom   22 type  3   force =     0.53726976    1.12233030   -0.64216603
     atom   23 type  3   force =    -0.53300971   -1.08910269   -0.71371588
     atom   24 type  3   force =    -0.53284645    1.12586797    0.74587679
     atom   25 type  3   force =     0.52659881   -1.19490092    0.77736142
     The ionic contribution  to forces
     atom    1 type  2   force =    -3.35045749   -0.19526971    1.87689591
     atom    2 type  1   force =     0.59279891    0.10109815   -0.42834507
     atom    3 type  1   force =    -8.74478735   -0.31862990   -0.56182658
     atom    4 type  1   force =     3.06545567   -0.47973193   -0.12777856
     atom    5 type  1   force =     8.99738783    0.49693599    0.64365570
     atom    6 type  4   force =    -3.68564371    0.01924514    0.05808727
     atom    7 type  4   force =     0.86548848   -0.41215644    0.18829181
     atom    8 type  4   force =     5.29101860    0.02757062   -0.26625680
     atom    9 type  4   force =    -2.90444871    0.47865219   -0.44121110
     atom   10 type  3   force =   -10.07596096   -0.04002295    2.77939045
     atom   11 type  3   force =     3.85414118   -0.69331435    1.48116596
     atom   12 type  3   force =    12.03762670    0.15734297   -2.88793655
     atom   13 type  3   force =    -8.19980617    0.49055715   -2.35260446
     atom   14 type  3   force =     0.58853022    0.54645861    5.06957602
     atom   15 type  3   force =    -1.90020526    0.07375657    6.48566867
     atom   16 type  3   force =    -1.90301608   -0.97257625   -2.22033532
     atom   17 type  3   force =     3.49705537   -0.07192441   -5.69894333
     atom   18 type  3   force =    -4.14569033    2.70087366   -2.82718894
     atom   19 type  3   force =     1.18251809   -3.84434105   -2.65421812
     atom   20 type  3   force =     5.44688374    4.25955047    2.36521125
     atom   21 type  3   force =    -0.52686303   -1.11749093    0.54026891
     atom   22 type  3   force =     5.46964675   -4.18065924    2.06226176
     atom   23 type  3   force =    -2.03050731    1.58762646    1.93980334
     atom   24 type  3   force =    -4.25424279   -2.78535358   -2.78448607
     atom   25 type  3   force =     0.83307767    4.17180275   -2.23914614
     The local contribution  to forces
     atom    1 type  2   force =     3.24086700    0.23822108   -1.84670605
     atom    2 type  1   force =    -0.67044300   -0.08470539    0.31649198
     atom    3 type  1   force =     8.71288449    0.31814891    0.47692136
     atom    4 type  1   force =    -2.83912145    0.43130099    0.18804919
     atom    5 type  1   force =    -8.98633306   -0.48906931   -0.55253239
     atom    6 type  4   force =     3.71096419   -0.01899335   -0.01985655
     atom    7 type  4   force =    -0.90941930    0.41108190   -0.17553150
     atom    8 type  4   force =    -5.29748821   -0.02337930    0.22480903
     atom    9 type  4   force =     2.90722909   -0.47881462    0.39595383
     atom   10 type  3   force =     9.77657014    0.02816792   -1.28600030
     atom   11 type  3   force =    -3.75741532    0.68523503   -0.05975056
     atom   12 type  3   force =   -11.65029474   -0.14280709    1.39360665
     atom   13 type  3   force =     7.97115310   -0.50571256    0.85648705
     atom   14 type  3   force =    -1.79661460   -0.55510996   -4.48272100
     atom   15 type  3   force =     3.08776465   -0.06238737   -5.74251976
     atom   16 type  3   force =     3.08524951    0.94876651    1.93844538
     atom   17 type  3   force =    -4.65505663    0.06626143    5.10306862
     atom   18 type  3   force =     4.66250029   -1.61534071    2.09059023
     atom   19 type  3   force =    -1.72206955    2.70779698    1.87244471
     atom   20 type  3   force =    -6.01431394   -3.15714346   -1.71275028
     atom   21 type  3   force =     1.11870172    0.06963770    0.07147959
     atom   22 type  3   force =    -5.99183086    3.08957911   -1.43380490
     atom   23 type  3   force =     2.54825807   -0.53011558   -1.23936173
     atom   24 type  3   force =     4.77373067    1.69347721    2.05305115
     atom   25 type  3   force =    -1.34599244   -3.01086567    1.47734444
     The core correction contribution to forces
     atom    1 type  2   force =     0.00000000    0.00000000    0.00000000
     atom    2 type  1   force =    -0.00102202    0.00012782   -0.00054524
     atom    3 type  1   force =     0.00011261   -0.00002584    0.00015280
     atom    4 type  1   force =     0.00399090   -0.00043442   -0.00079982
     atom    5 type  1   force =    -0.00024412    0.00009179    0.00042532
     atom    6 type  4   force =     0.00310725    0.00001124    0.00528553
     atom    7 type  4   force =    -0.00423117    0.00012233    0.00321368
     atom    8 type  4   force =    -0.00153324    0.00028624   -0.00542096
     atom    9 type  4   force =     0.00124641   -0.00036098   -0.00561727
     atom   10 type  3   force =    -0.00350464   -0.00011031    0.01314530
     atom   11 type  3   force =     0.00165376   -0.00006976    0.01234908
     atom   12 type  3   force =     0.00429905    0.00015849   -0.01309327
     atom   13 type  3   force =    -0.00286078   -0.00014716   -0.01315030
     atom   14 type  3   force =    -0.01101508   -0.00008879    0.00593164
     atom   15 type  3   force =     0.01079837    0.00010896    0.00740643
     atom   16 type  3   force =     0.01079129   -0.00019355   -0.00298838
     atom   17 type  3   force =    -0.01064035   -0.00005288   -0.00599390
     atom   18 type  3   force =     0.00475452    0.01005994   -0.00701279
     atom   19 type  3   force =    -0.00492836   -0.01046186   -0.00745977
     atom   20 type  3   force =    -0.00530714    0.01020102    0.00617529
     atom   21 type  3   force =     0.00545999   -0.00978831    0.00581360
     atom   22 type  3   force =    -0.00487646   -0.01007451    0.00594733
     atom   23 type  3   force =     0.00479322    0.00981401    0.00670745
     atom   24 type  3   force =     0.00477913   -0.01013016   -0.00694520
     atom   25 type  3   force =    -0.00466049    0.01075742   -0.00725377
     The Hubbard contrib.    to forces
     atom    1 type  2   force =     0.00000000    0.00000000    0.00000000
     atom    2 type  1   force =     0.00000000    0.00000000    0.00000000
     atom    3 type  1   force =     0.00000000    0.00000000    0.00000000
     atom    4 type  1   force =     0.00000000    0.00000000    0.00000000
     atom    5 type  1   force =     0.00000000    0.00000000    0.00000000
     atom    6 type  4   force =     0.00000000    0.00000000    0.00000000
     atom    7 type  4   force =     0.00000000    0.00000000    0.00000000
     atom    8 type  4   force =     0.00000000    0.00000000    0.00000000
     atom    9 type  4   force =     0.00000000    0.00000000    0.00000000
     atom   10 type  3   force =     0.00000000    0.00000000    0.00000000
     atom   11 type  3   force =     0.00000000    0.00000000    0.00000000
     atom   12 type  3   force =     0.00000000    0.00000000    0.00000000
     atom   13 type  3   force =     0.00000000    0.00000000    0.00000000
     atom   14 type  3   force =     0.00000000    0.00000000    0.00000000
     atom   15 type  3   force =     0.00000000    0.00000000    0.00000000
     atom   16 type  3   force =     0.00000000    0.00000000    0.00000000
     atom   17 type  3   force =     0.00000000    0.00000000    0.00000000
     atom   18 type  3   force =     0.00000000    0.00000000    0.00000000
     atom   19 type  3   force =     0.00000000    0.00000000    0.00000000
     atom   20 type  3   force =     0.00000000    0.00000000    0.00000000
     atom   21 type  3   force =     0.00000000    0.00000000    0.00000000
     atom   22 type  3   force =     0.00000000    0.00000000    0.00000000
     atom   23 type  3   force =     0.00000000    0.00000000    0.00000000
     atom   24 type  3   force =     0.00000000    0.00000000    0.00000000
     atom   25 type  3   force =     0.00000000    0.00000000    0.00000000
     The SCF correction term to forces
     atom    1 type  2   force =    -0.00000839   -0.00000008    0.00000132
     atom    2 type  1   force =     0.00000214   -0.00000026    0.00000088
     atom    3 type  1   force =     0.00000694   -0.00000004    0.00000079
     atom    4 type  1   force =    -0.00001032    0.00000085    0.00000075
     atom    5 type  1   force =    -0.00000095   -0.00000034   -0.00000039
     atom    6 type  4   force =     0.00000386    0.00000000    0.00000048
     atom    7 type  4   force =    -0.00000477    0.00000007   -0.00000068
     atom    8 type  4   force =     0.00000408    0.00000005   -0.00000063
     atom    9 type  4   force =    -0.00000339   -0.00000011    0.00000002
     atom   10 type  3   force =     0.00000263   -0.00000003   -0.00000267
     atom   11 type  3   force =    -0.00000916    0.00000005    0.00000319
     atom   12 type  3   force =     0.00000323   -0.00000003    0.00000075
     atom   13 type  3   force =    -0.00000402   -0.00000005    0.00000091
     atom   14 type  3   force =    -0.00000164   -0.00000009    0.00000097
     atom   15 type  3   force =     0.00001218   -0.00000009   -0.00000271
     atom   16 type  3   force =    -0.00000548    0.00000011   -0.00000097
     atom   17 type  3   force =     0.00000542    0.00000000   -0.00000044
     atom   18 type  3   force =     0.00000297    0.00000736    0.00000399
     atom   19 type  3   force =    -0.00000465    0.00000635   -0.00000337
     atom   20 type  3   force =     0.00000117   -0.00000028   -0.00000039
     atom   21 type  3   force =    -0.00000354    0.00000100   -0.00000066
     atom   22 type  3   force =     0.00000135    0.00000033   -0.00000027
     atom   23 type  3   force =    -0.00000345   -0.00000119   -0.00000079
     atom   24 type  3   force =     0.00000297   -0.00000731    0.00000398
     atom   25 type  3   force =    -0.00000477   -0.00000630   -0.00000346

     Total force =     0.103350     Total SCF correction =     0.000032


     Computing stress (Cartesian axis) and pressure


     negative rho (up, down):  0.000E+00 9.282E-04
          total   stress  (Ry/bohr**3)                   (kbar)     P=      -70.12
  -0.00074528   0.00000046  -0.00002096         -109.63        0.07       -3.08
   0.00000046  -0.00054821  -0.00000956            0.07      -80.64       -1.41
  -0.00002096  -0.00000956  -0.00013657           -3.08       -1.41      -20.09

     kinetic stress (kbar)  25399.09     -3.36    -10.19
                               -3.36  25636.56     -2.85
                              -10.19     -2.85  25491.11

     local   stress (kbar)  -4362.59   -897.94   1104.59
                             -897.94 -13525.99    334.65
                             1104.59    334.65  -9085.11

     nonloc. stress (kbar)  -6464.03     -1.09     -0.89
                               -1.09  -6410.48      0.11
                               -0.89      0.11  -6415.35

     hartree stress (kbar)  12065.42    363.22   -452.13
                              363.22  17183.78   -132.08
                             -452.13   -132.08  14754.95

     exc-cor stress (kbar)  -2697.33      0.55     -0.81
                                0.55  -2704.71     -0.26
                               -0.81     -0.26  -2701.73

     corecor stress (kbar)  -3012.33     -0.13      1.00
                               -0.13  -3012.06      0.04
                                1.00      0.04  -3014.06

     ewald   stress (kbar) -21037.86    538.82   -644.64
                              538.82 -17247.74   -201.01
                             -644.64   -201.01 -19049.90

     hubbard stress (kbar)      0.00      0.00      0.00
                                0.00      0.00      0.00
                                0.00      0.00      0.00

     DFT-D   stress (kbar)      0.00      0.00      0.00
                                0.00      0.00      0.00
                                0.00      0.00      0.00

     XDM     stress (kbar)      0.00      0.00      0.00
                                0.00      0.00      0.00
                                0.00      0.00      0.00

     dft-nl  stress (kbar)      0.00      0.00      0.00
                                0.00      0.00      0.00
                                0.00      0.00      0.00

     TS-vdW  stress (kbar)      0.00      0.00      0.00
                                0.00      0.00      0.00
                                0.00      0.00      0.00



     init_run     :    172.98s CPU    176.66s WALL (       1 calls)
     electrons    :  16051.32s CPU  16240.14s WALL (       1 calls)
     forces       :    111.10s CPU    112.80s WALL (       1 calls)
     stress       :    775.43s CPU    779.49s WALL (       1 calls)

     Called by init_run:
     wfcinit      :    163.99s CPU    166.92s WALL (       1 calls)
     wfcinit:atom :      2.92s CPU      2.97s WALL (     316 calls)
     wfcinit:wfcr :    152.29s CPU    155.02s WALL (     316 calls)
     potinit      :      3.02s CPU      3.18s WALL (       1 calls)
     hinit0       :      3.41s CPU      3.53s WALL (       1 calls)

     Called by electrons:
     c_bands      :  14288.62s CPU  14418.42s WALL (      36 calls)
     sum_band     :   1668.06s CPU   1707.06s WALL (      36 calls)
     v_of_rho     :     26.54s CPU     27.64s WALL (      37 calls)
     v_h          :      1.16s CPU      1.25s WALL (      37 calls)
     v_xc         :     26.68s CPU     27.75s WALL (      39 calls)
     newd         :     46.43s CPU     65.22s WALL (      37 calls)
     PAW_pot      :     15.64s CPU     15.78s WALL (      37 calls)
     mix_rho      :      5.68s CPU      5.92s WALL (      36 calls)

     Called by c_bands:
     init_us_2    :    251.15s CPU    255.26s WALL (   23700 calls)
     cegterg      :  13853.38s CPU  13976.81s WALL (   11376 calls)

     Called by sum_band:
     sum_band:wei :      0.57s CPU      0.57s WALL (      36 calls)
     sum_band:loo :   1532.15s CPU   1548.99s WALL (      36 calls)
     sum_band:buf :     64.65s CPU     65.67s WALL (   11376 calls)
     sum_band:ini :    122.75s CPU    124.60s WALL (   11376 calls)
     sum_band:cal :    753.90s CPU    760.94s WALL (   11376 calls)
     sum_band:bec :      5.11s CPU      5.18s WALL (   11376 calls)
     addusdens    :    128.43s CPU    150.39s WALL (      36 calls)
     addusd:skk   :      0.57s CPU      0.59s WALL (     108 calls)
     addusd:dgemm :     55.35s CPU     73.08s WALL (     216 calls)
     addusd:qvan2 :     71.03s CPU     71.51s WALL (     216 calls)

     Called by *egterg:
     cdiaghg      :    879.71s CPU    905.18s WALL (   43647 calls)
     cegterg:over :   1383.58s CPU   1402.06s WALL (   32271 calls)
     cegterg:upda :    772.42s CPU    775.66s WALL (   32271 calls)
     cegterg:last :   1774.94s CPU   1781.64s WALL (   20273 calls)
     h_psi        :   6397.25s CPU   6452.78s WALL (   43963 calls)
     s_psi        :   1792.24s CPU   1799.19s WALL (   43963 calls)
     g_psi        :     17.92s CPU     18.13s WALL (   32271 calls)

     Called by h_psi:
     h_psi:calbec :   1870.13s CPU   1887.77s WALL (   43963 calls)
     vloc_psi     :   2546.42s CPU   2574.29s WALL (   43963 calls)
     add_vuspsi   :   1837.83s CPU   1844.79s WALL (   43963 calls)

     General routines
     calbec       :   2727.24s CPU   2753.07s WALL (   56919 calls)
     fft          :     24.11s CPU     25.71s WALL (     963 calls)
     ffts         :      0.31s CPU      0.42s WALL (     146 calls)
     fftw         :   2861.88s CPU   2893.42s WALL ( 6946748 calls)
     interpolate  :      1.65s CPU      1.91s WALL (      74 calls)

     Parallel routines
     fft_scatt_xy :    379.16s CPU    383.21s WALL ( 6947857 calls)
     fft_scatt_yz :    898.75s CPU    910.97s WALL ( 6947857 calls)

     PAW routines
     PAW_pot      :     15.64s CPU     15.78s WALL (      37 calls)

     PWSCF        :      4h45m CPU      4h48m WALL


   This run was terminated on:  23:19:35  18Dec2022            

=------------------------------------------------------------------------------=
   JOB DONE.
=------------------------------------------------------------------------------=
Note: The following floating-point exceptions are signalling: IEEE_UNDERFLOW_FLAG IEEE_DENORMAL
Note: The following floating-point exceptions are signalling: IEEE_DENORMAL
Note: The following floating-point exceptions are signalling: IEEE_DENORMAL
Note: The following floating-point exceptions are signalling: IEEE_DENORMAL
Note: The following floating-point exceptions are signalling: IEEE_DENORMAL
Note: The following floating-point exceptions are signalling: IEEE_DENORMAL
Note: The following floating-point exceptions are signalling: IEEE_DENORMAL
Note: The following floating-point exceptions are signalling: IEEE_DENORMAL
Note: The following floating-point exceptions are signalling: IEEE_DENORMAL
Note: The following floating-point exceptions are signalling: IEEE_DENORMAL
Note: The following floating-point exceptions are signalling: IEEE_DENORMAL
Note: The following floating-point exceptions are signalling: IEEE_DENORMAL
Note: The following floating-point exceptions are signalling: IEEE_DENORMAL
Note: The following floating-point exceptions are signalling: IEEE_DENORMAL
Note: The following floating-point exceptions are signalling: IEEE_DENORMAL
Note: The following floating-point exceptions are signalling: IEEE_INVALID_FLAG IEEE_DENORMAL
Note: The following floating-point exceptions are signalling: IEEE_DENORMAL
Note: The following floating-point exceptions are signalling: IEEE_DENORMAL
Note: The following floating-point exceptions are signalling: IEEE_DENORMAL
Note: The following floating-point exceptions are signalling: IEEE_DENORMAL
Note: The following floating-point exceptions are signalling: IEEE_DENORMAL
Note: The following floating-point exceptions are signalling: IEEE_DENORMAL
Note: The following floating-point exceptions are signalling: IEEE_DENORMAL
Note: The following floating-point exceptions are signalling: IEEE_DENORMAL
