
     Program PWSCF v.6.7MaX starts on 18Dec2022 at 13:56:26 

     This program is part of the open-source Quantum ESPRESSO suite
     for quantum simulation of materials; please cite
         "P. Giannozzi et al., J. Phys.:Condens. Matter 21 395502 (2009);
         "P. Giannozzi et al., J. Phys.:Condens. Matter 29 465901 (2017);
          URL http://www.quantum-espresso.org", 
     in publications or presentations arising from this work. More details at
     http://www.quantum-espresso.org/quote

     Parallel version (MPI), running on    24 processors

     MPI processes distributed on     1 nodes
     R & G space division:  proc/nbgrp/npool/nimage =      24
     Reading input from scale_1da-05.in

     Current dimensions of program PWSCF are:
     Max number of different atomic species (ntypx) = 10
     Max number of k-points (npk) =  40000
     Max angular momentum in pseudopotentials (lmaxx) =  3
     Message from routine read_pp_mesh:
     mesh size missing, using the one in header
     file Fe.pbe-spn-kjpaw_psl.0.2.1.UPF: wavefunction(s)  3D renormalized
     file O.pbe-n-kjpaw_psl.0.1.UPF: wavefunction(s)  2P renormalized

     Subspace diagonalization in iterative solution of the eigenvalue problem:
     a serial algorithm will be used


     Parallelization info
     --------------------
     sticks:   dense  smooth     PW     G-vecs:    dense   smooth      PW
     Min         869     321     87                56651    12765    1791
     Max         870     322     88                56653    12768    1793
     Sum       20861    7725   2091              1359665   306383   43025



     bravais-lattice index     =            0
     lattice parameter (alat)  =      20.6483  a.u.
     unit-cell volume          =    2268.3757 (a.u.)^3
     number of atoms/cell      =           25
     number of atomic types    =            4
     number of electrons       =       189.00
     number of Kohn-Sham states=          114
     kinetic-energy cutoff     =     100.0000  Ry
     charge density cutoff     =    1080.0000  Ry
     scf convergence threshold =      2.0E-10
     mixing beta               =       0.4000
     number of iterations used =            8  plain     mixing
     Exchange-correlation= PBE
                           (   1   4   3   4   0   0   0)

     celldm(1)=  20.648310  celldm(2)=   0.000000  celldm(3)=   0.000000
     celldm(4)=   0.000000  celldm(5)=   0.000000  celldm(6)=   0.000000

     crystal axes: (cart. coord. in units of alat)
               a(1) = (   1.000000   0.000000   0.000000 )  
               a(2) = (   0.000000   0.569133   0.000000 )  
               a(3) = (   0.000000   0.000000   0.452739 )  

     reciprocal axes: (cart. coord. in units 2 pi/alat)
               b(1) = (  1.000000  0.000000  0.000000 )  
               b(2) = (  0.000000  1.757058  0.000000 )  
               b(3) = (  0.000000  0.000000  2.208780 )  


     PseudoPot. # 1 for Fe read from file:
     /opt/QEpot/SSSP_precision_pseudos/Fe.pbe-spn-kjpaw_psl.0.2.1.UPF
     MD5 check sum: e86618425769142926afa95317d90200
     Pseudo is Projector augmented-wave + core cor, Zval = 16.0
     Generated using "atomic" code by A. Dal Corso  v.5.0.99 svn rev. 10869
     Shape of augmentation charge: PSQ
     Using radial grid of 1191 points,  6 beta functions with: 
                l(1) =   0
                l(2) =   0
                l(3) =   1
                l(4) =   1
                l(5) =   2
                l(6) =   2
     Q(r) pseudized with 0 coefficients 


     PseudoPot. # 2 for Na read from file:
     /opt/QEpot/SSSP_precision_pseudos/Na_ONCV_PBE-1.0.oncvpsp.upf
     MD5 check sum: 24a298df0a6742ae313db96548fdb2a4
     Pseudo is Norm-conserving, Zval =  9.0
     Generated using ONCVPSP code by D. R. Hamann
     Using radial grid of 1992 points,  4 beta functions with: 
                l(1) =   0
                l(2) =   0
                l(3) =   1
                l(4) =   1

     PseudoPot. # 3 for O  read from file:
     /opt/QEpot/SSSP_precision_pseudos/O.pbe-n-kjpaw_psl.0.1.UPF
     MD5 check sum: 0234752ac141de4415c5fc33072bef88
     Pseudo is Projector augmented-wave + core cor, Zval =  6.0
     Generated using "atomic" code by A. Dal Corso  v.5.0.99 svn rev. 10869
     Shape of augmentation charge: BESSEL
     Using radial grid of 1095 points,  4 beta functions with: 
                l(1) =   0
                l(2) =   0
                l(3) =   1
                l(4) =   1
     Q(r) pseudized with 0 coefficients 


     PseudoPot. # 4 for P  read from file:
     /opt/QEpot/SSSP_precision_pseudos/P.pbe-n-rrkjus_psl.1.0.0.UPF
     MD5 check sum: 8b930f418f0a4573dca56cd030ffe088
     Pseudo is Ultrasoft + core correction, Zval =  5.0
     Generated using "atomic" code by A. Dal Corso  v.5.1
     Using radial grid of 1147 points,  6 beta functions with: 
                l(1) =   0
                l(2) =   0
                l(3) =   1
                l(4) =   1
                l(5) =   2
                l(6) =   2
     Q(r) pseudized with 0 coefficients 


     atomic species   valence    mass     pseudopotential
        Fe            16.00    55.84500     Fe( 1.00)
        Na             9.00    22.98977     Na( 1.00)
        O              6.00    15.99940     O ( 1.00)
        P              5.00    30.97376     P ( 1.00)

     Starting magnetic structure 
     atomic species   magnetization
        Fe           0.312
        Na           0.000
        O            0.000
        P            0.000

     No symmetry found


                                    s                        frac. trans.

      isym =  1     identity                                     

 cryst.   s( 1) = (     1          0          0      )
                  (     0          1          0      )
                  (     0          0          1      )

 cart.    s( 1) = (  1.0000000  0.0000000  0.0000000 )
                  (  0.0000000  1.0000000  0.0000000 )
                  (  0.0000000  0.0000000  1.0000000 )


   Cartesian axes

     site n.     atom                  positions (alat units)
         1           Na  tau(   1) = (   0.5528950   0.1730142   0.2046994  )
         2           Fe  tau(   2) = (   0.2772550   0.4261744   0.4489505  )
         3           Fe  tau(   3) = (   0.2104810   0.1413386   0.2220923  )
         4           Fe  tau(   4) = (   0.7295180   0.1381093   0.0007398  )
         5           Fe  tau(   5) = (   0.7815080   0.4273240   0.2325369  )
         6           P   tau(   6) = (   0.1053980   0.4260497   0.2009888  )
         7           P   tau(   7) = (   0.3872650   0.1401804   0.4265630  )
         8           P   tau(   8) = (   0.8920080   0.1420130   0.2521020  )
         9           P   tau(   9) = (   0.6044490   0.4267987   0.0289400  )
        10           O   tau(  10) = (   0.1314730   0.4254590   0.3399691  )
        11           O   tau(  11) = (   0.3628330   0.1416430   0.1131837  )
        12           O   tau(  12) = (   0.8713170   0.1417620   0.1125449  )
        13           O   tau(  13) = (   0.6316830   0.4250805   0.3429214  )
        14           O   tau(  14) = (   0.4581640   0.4254180   0.0543309  )
        15           O   tau(  15) = (   0.0360600   0.1425127   0.2839232  )
        16           O   tau(  16) = (   0.5359580   0.1406863   0.4059852  )
        17           O   tau(  17) = (   0.9586070   0.4259723   0.1769696  )
        18           O   tau(  18) = (   0.1741780   0.5374883   0.1360095  )
        19           O   tau(  19) = (   0.3202340   0.0293707   0.3611880  )
        20           O   tau(  20) = (   0.8164520   0.2510327   0.3149182  )
        21           O   tau(  21) = (   0.6734540   0.3155480   0.0956311  )
        22           O   tau(  22) = (   0.8184930   0.0314025   0.3150956  )
        23           O   tau(  23) = (   0.6734880   0.5384928   0.0946373  )
        24           O   tau(  24) = (   0.1746990   0.3152645   0.1353349  )
        25           O   tau(  25) = (   0.3222050   0.2512979   0.3590113  )

   Crystallographic axes

     site n.     atom                  positions (cryst. coord.)
         1           Na  tau(   1) = (  0.5528950  0.3039960  0.4521360  )
         2           Fe  tau(   2) = (  0.2772550  0.7488130  0.9916330  )
         3           Fe  tau(   3) = (  0.2104810  0.2483400  0.4905530  )
         4           Fe  tau(   4) = (  0.7295180  0.2426660  0.0016340  )
         5           Fe  tau(   5) = (  0.7815080  0.7508330  0.5136230  )
         6           P   tau(   6) = (  0.1053980  0.7485940  0.4439400  )
         7           P   tau(   7) = (  0.3872650  0.2463050  0.9421840  )
         8           P   tau(   8) = (  0.8920080  0.2495250  0.5568380  )
         9           P   tau(   9) = (  0.6044490  0.7499100  0.0639220  )
        10           O   tau(  10) = (  0.1314730  0.7475560  0.7509170  )
        11           O   tau(  11) = (  0.3628330  0.2488750  0.2499980  )
        12           O   tau(  12) = (  0.8713170  0.2490840  0.2485870  )
        13           O   tau(  13) = (  0.6316830  0.7468910  0.7574380  )
        14           O   tau(  14) = (  0.4581640  0.7474840  0.1200050  )
        15           O   tau(  15) = (  0.0360600  0.2504030  0.6271240  )
        16           O   tau(  16) = (  0.5359580  0.2471940  0.8967320  )
        17           O   tau(  17) = (  0.9586070  0.7484580  0.3908870  )
        18           O   tau(  18) = (  0.1741780  0.9443980  0.3004150  )
        19           O   tau(  19) = (  0.3202340  0.0516060  0.7977850  )
        20           O   tau(  20) = (  0.8164520  0.4410790  0.6955850  )
        21           O   tau(  21) = (  0.6734540  0.5544360  0.2112280  )
        22           O   tau(  22) = (  0.8184930  0.0551760  0.6959770  )
        23           O   tau(  23) = (  0.6734880  0.9461630  0.2090330  )
        24           O   tau(  24) = (  0.1746990  0.5539380  0.2989250  )
        25           O   tau(  25) = (  0.3222050  0.4415450  0.7929770  )

     number of k points=   158  Marzari-Vanderbilt smearing, width (Ry)=  0.0073
                       cart. coord. in units 2pi/alat
        k(    1) = (   0.0000000   0.0000000   0.0000000), wk =   0.0031746
        k(    2) = (   0.0000000   0.0000000   0.2454200), wk =   0.0063492
        k(    3) = (   0.0000000   0.0000000   0.4908401), wk =   0.0063492
        k(    4) = (   0.0000000   0.0000000   0.7362601), wk =   0.0063492
        k(    5) = (   0.0000000   0.0000000   0.9816801), wk =   0.0063492
        k(    6) = (   0.0000000   0.2510082   0.0000000), wk =   0.0063492
        k(    7) = (   0.0000000   0.2510082   0.2454200), wk =   0.0063492
        k(    8) = (   0.0000000   0.2510082   0.4908401), wk =   0.0063492
        k(    9) = (   0.0000000   0.2510082   0.7362601), wk =   0.0063492
        k(   10) = (   0.0000000   0.2510082   0.9816801), wk =   0.0063492
        k(   11) = (   0.0000000   0.5020165   0.0000000), wk =   0.0063492
        k(   12) = (   0.0000000   0.5020165   0.2454200), wk =   0.0063492
        k(   13) = (   0.0000000   0.5020165   0.4908401), wk =   0.0063492
        k(   14) = (   0.0000000   0.5020165   0.7362601), wk =   0.0063492
        k(   15) = (   0.0000000   0.5020165   0.9816801), wk =   0.0063492
        k(   16) = (   0.0000000   0.7530247   0.0000000), wk =   0.0063492
        k(   17) = (   0.0000000   0.7530247   0.2454200), wk =   0.0063492
        k(   18) = (   0.0000000   0.7530247   0.4908401), wk =   0.0063492
        k(   19) = (   0.0000000   0.7530247   0.7362601), wk =   0.0063492
        k(   20) = (   0.0000000   0.7530247   0.9816801), wk =   0.0063492
        k(   21) = (   0.2000000   0.0000000   0.0000000), wk =   0.0063492
        k(   22) = (   0.2000000   0.0000000   0.2454200), wk =   0.0063492
        k(   23) = (   0.2000000   0.0000000   0.4908401), wk =   0.0063492
        k(   24) = (   0.2000000   0.0000000   0.7362601), wk =   0.0063492
        k(   25) = (   0.2000000   0.0000000   0.9816801), wk =   0.0063492
        k(   26) = (   0.2000000   0.2510082   0.0000000), wk =   0.0063492
        k(   27) = (   0.2000000   0.2510082   0.2454200), wk =   0.0063492
        k(   28) = (   0.2000000   0.2510082   0.4908401), wk =   0.0063492
        k(   29) = (   0.2000000   0.2510082   0.7362601), wk =   0.0063492
        k(   30) = (   0.2000000   0.2510082   0.9816801), wk =   0.0063492
        k(   31) = (   0.2000000   0.5020165   0.0000000), wk =   0.0063492
        k(   32) = (   0.2000000   0.5020165   0.2454200), wk =   0.0063492
        k(   33) = (   0.2000000   0.5020165   0.4908401), wk =   0.0063492
        k(   34) = (   0.2000000   0.5020165   0.7362601), wk =   0.0063492
        k(   35) = (   0.2000000   0.5020165   0.9816801), wk =   0.0063492
        k(   36) = (   0.2000000   0.7530247   0.0000000), wk =   0.0063492
        k(   37) = (   0.2000000   0.7530247   0.2454200), wk =   0.0063492
        k(   38) = (   0.2000000   0.7530247   0.4908401), wk =   0.0063492
        k(   39) = (   0.2000000   0.7530247   0.7362601), wk =   0.0063492
        k(   40) = (   0.2000000   0.7530247   0.9816801), wk =   0.0063492
        k(   41) = (   0.4000000   0.0000000   0.0000000), wk =   0.0063492
        k(   42) = (   0.4000000   0.0000000   0.2454200), wk =   0.0063492
        k(   43) = (   0.4000000   0.0000000   0.4908401), wk =   0.0063492
        k(   44) = (   0.4000000   0.0000000   0.7362601), wk =   0.0063492
        k(   45) = (   0.4000000   0.0000000   0.9816801), wk =   0.0063492
        k(   46) = (   0.4000000   0.2510082   0.0000000), wk =   0.0063492
        k(   47) = (   0.4000000   0.2510082   0.2454200), wk =   0.0063492
        k(   48) = (   0.4000000   0.2510082   0.4908401), wk =   0.0063492
        k(   49) = (   0.4000000   0.2510082   0.7362601), wk =   0.0063492
        k(   50) = (   0.4000000   0.2510082   0.9816801), wk =   0.0063492
        k(   51) = (   0.4000000   0.5020165   0.0000000), wk =   0.0063492
        k(   52) = (   0.4000000   0.5020165   0.2454200), wk =   0.0063492
        k(   53) = (   0.4000000   0.5020165   0.4908401), wk =   0.0063492
        k(   54) = (   0.4000000   0.5020165   0.7362601), wk =   0.0063492
        k(   55) = (   0.4000000   0.5020165   0.9816801), wk =   0.0063492
        k(   56) = (   0.4000000   0.7530247   0.0000000), wk =   0.0063492
        k(   57) = (   0.4000000   0.7530247   0.2454200), wk =   0.0063492
        k(   58) = (   0.4000000   0.7530247   0.4908401), wk =   0.0063492
        k(   59) = (   0.4000000   0.7530247   0.7362601), wk =   0.0063492
        k(   60) = (   0.4000000   0.7530247   0.9816801), wk =   0.0063492
        k(   61) = (   0.0000000  -0.2510082   0.2454200), wk =   0.0063492
        k(   62) = (   0.0000000  -0.2510082   0.4908401), wk =   0.0063492
        k(   63) = (   0.0000000  -0.2510082   0.7362601), wk =   0.0063492
        k(   64) = (   0.0000000  -0.2510082   0.9816801), wk =   0.0063492
        k(   65) = (   0.0000000  -0.5020165   0.2454200), wk =   0.0063492
        k(   66) = (   0.0000000  -0.5020165   0.4908401), wk =   0.0063492
        k(   67) = (   0.0000000  -0.5020165   0.7362601), wk =   0.0063492
        k(   68) = (   0.0000000  -0.5020165   0.9816801), wk =   0.0063492
        k(   69) = (   0.0000000  -0.7530247   0.2454200), wk =   0.0063492
        k(   70) = (   0.0000000  -0.7530247   0.4908401), wk =   0.0063492
        k(   71) = (   0.0000000  -0.7530247   0.7362601), wk =   0.0063492
        k(   72) = (   0.0000000  -0.7530247   0.9816801), wk =   0.0063492
        k(   73) = (  -0.2000000   0.0000000   0.2454200), wk =   0.0063492
        k(   74) = (  -0.2000000   0.0000000   0.4908401), wk =   0.0063492
        k(   75) = (  -0.2000000   0.0000000   0.7362601), wk =   0.0063492
        k(   76) = (  -0.2000000   0.0000000   0.9816801), wk =   0.0063492
        k(   77) = (  -0.2000000   0.2510082   0.0000000), wk =   0.0063492
        k(   78) = (  -0.2000000  -0.2510082   0.2454200), wk =   0.0063492
        k(   79) = (  -0.2000000   0.2510082  -0.2454200), wk =   0.0063492
        k(   80) = (   0.2000000  -0.2510082  -0.2454200), wk =   0.0063492
        k(   81) = (  -0.2000000  -0.2510082   0.4908401), wk =   0.0063492
        k(   82) = (  -0.2000000   0.2510082  -0.4908401), wk =   0.0063492
        k(   83) = (   0.2000000  -0.2510082  -0.4908401), wk =   0.0063492
        k(   84) = (  -0.2000000  -0.2510082   0.7362601), wk =   0.0063492
        k(   85) = (  -0.2000000   0.2510082  -0.7362601), wk =   0.0063492
        k(   86) = (   0.2000000  -0.2510082  -0.7362601), wk =   0.0063492
        k(   87) = (  -0.2000000  -0.2510082   0.9816801), wk =   0.0063492
        k(   88) = (  -0.2000000   0.2510082  -0.9816801), wk =   0.0063492
        k(   89) = (   0.2000000  -0.2510082  -0.9816801), wk =   0.0063492
        k(   90) = (  -0.2000000   0.5020165   0.0000000), wk =   0.0063492
        k(   91) = (  -0.2000000  -0.5020165   0.2454200), wk =   0.0063492
        k(   92) = (  -0.2000000   0.5020165  -0.2454200), wk =   0.0063492
        k(   93) = (   0.2000000  -0.5020165  -0.2454200), wk =   0.0063492
        k(   94) = (  -0.2000000  -0.5020165   0.4908401), wk =   0.0063492
        k(   95) = (  -0.2000000   0.5020165  -0.4908401), wk =   0.0063492
        k(   96) = (   0.2000000  -0.5020165  -0.4908401), wk =   0.0063492
        k(   97) = (  -0.2000000  -0.5020165   0.7362601), wk =   0.0063492
        k(   98) = (  -0.2000000   0.5020165  -0.7362601), wk =   0.0063492
        k(   99) = (   0.2000000  -0.5020165  -0.7362601), wk =   0.0063492
        k(  100) = (  -0.2000000  -0.5020165   0.9816801), wk =   0.0063492
        k(  101) = (  -0.2000000   0.5020165  -0.9816801), wk =   0.0063492
        k(  102) = (   0.2000000  -0.5020165  -0.9816801), wk =   0.0063492
        k(  103) = (  -0.2000000   0.7530247   0.0000000), wk =   0.0063492
        k(  104) = (  -0.2000000  -0.7530247   0.2454200), wk =   0.0063492
        k(  105) = (  -0.2000000   0.7530247  -0.2454200), wk =   0.0063492
        k(  106) = (   0.2000000  -0.7530247  -0.2454200), wk =   0.0063492
        k(  107) = (  -0.2000000  -0.7530247   0.4908401), wk =   0.0063492
        k(  108) = (  -0.2000000   0.7530247  -0.4908401), wk =   0.0063492
        k(  109) = (   0.2000000  -0.7530247  -0.4908401), wk =   0.0063492
        k(  110) = (  -0.2000000  -0.7530247   0.7362601), wk =   0.0063492
        k(  111) = (  -0.2000000   0.7530247  -0.7362601), wk =   0.0063492
        k(  112) = (   0.2000000  -0.7530247  -0.7362601), wk =   0.0063492
        k(  113) = (  -0.2000000  -0.7530247   0.9816801), wk =   0.0063492
        k(  114) = (  -0.2000000   0.7530247  -0.9816801), wk =   0.0063492
        k(  115) = (   0.2000000  -0.7530247  -0.9816801), wk =   0.0063492
        k(  116) = (  -0.4000000   0.0000000   0.2454200), wk =   0.0063492
        k(  117) = (  -0.4000000   0.0000000   0.4908401), wk =   0.0063492
        k(  118) = (  -0.4000000   0.0000000   0.7362601), wk =   0.0063492
        k(  119) = (  -0.4000000   0.0000000   0.9816801), wk =   0.0063492
        k(  120) = (  -0.4000000   0.2510082   0.0000000), wk =   0.0063492
        k(  121) = (  -0.4000000  -0.2510082   0.2454200), wk =   0.0063492
        k(  122) = (  -0.4000000   0.2510082  -0.2454200), wk =   0.0063492
        k(  123) = (   0.4000000  -0.2510082  -0.2454200), wk =   0.0063492
        k(  124) = (  -0.4000000  -0.2510082   0.4908401), wk =   0.0063492
        k(  125) = (  -0.4000000   0.2510082  -0.4908401), wk =   0.0063492
        k(  126) = (   0.4000000  -0.2510082  -0.4908401), wk =   0.0063492
        k(  127) = (  -0.4000000  -0.2510082   0.7362601), wk =   0.0063492
        k(  128) = (  -0.4000000   0.2510082  -0.7362601), wk =   0.0063492
        k(  129) = (   0.4000000  -0.2510082  -0.7362601), wk =   0.0063492
        k(  130) = (  -0.4000000  -0.2510082   0.9816801), wk =   0.0063492
        k(  131) = (  -0.4000000   0.2510082  -0.9816801), wk =   0.0063492
        k(  132) = (   0.4000000  -0.2510082  -0.9816801), wk =   0.0063492
        k(  133) = (  -0.4000000   0.5020165   0.0000000), wk =   0.0063492
        k(  134) = (  -0.4000000  -0.5020165   0.2454200), wk =   0.0063492
        k(  135) = (  -0.4000000   0.5020165  -0.2454200), wk =   0.0063492
        k(  136) = (   0.4000000  -0.5020165  -0.2454200), wk =   0.0063492
        k(  137) = (  -0.4000000  -0.5020165   0.4908401), wk =   0.0063492
        k(  138) = (  -0.4000000   0.5020165  -0.4908401), wk =   0.0063492
        k(  139) = (   0.4000000  -0.5020165  -0.4908401), wk =   0.0063492
        k(  140) = (  -0.4000000  -0.5020165   0.7362601), wk =   0.0063492
        k(  141) = (  -0.4000000   0.5020165  -0.7362601), wk =   0.0063492
        k(  142) = (   0.4000000  -0.5020165  -0.7362601), wk =   0.0063492
        k(  143) = (  -0.4000000  -0.5020165   0.9816801), wk =   0.0063492
        k(  144) = (  -0.4000000   0.5020165  -0.9816801), wk =   0.0063492
        k(  145) = (   0.4000000  -0.5020165  -0.9816801), wk =   0.0063492
        k(  146) = (  -0.4000000   0.7530247   0.0000000), wk =   0.0063492
        k(  147) = (  -0.4000000  -0.7530247   0.2454200), wk =   0.0063492
        k(  148) = (  -0.4000000   0.7530247  -0.2454200), wk =   0.0063492
        k(  149) = (   0.4000000  -0.7530247  -0.2454200), wk =   0.0063492
        k(  150) = (  -0.4000000  -0.7530247   0.4908401), wk =   0.0063492
        k(  151) = (  -0.4000000   0.7530247  -0.4908401), wk =   0.0063492
        k(  152) = (   0.4000000  -0.7530247  -0.4908401), wk =   0.0063492
        k(  153) = (  -0.4000000  -0.7530247   0.7362601), wk =   0.0063492
        k(  154) = (  -0.4000000   0.7530247  -0.7362601), wk =   0.0063492
        k(  155) = (   0.4000000  -0.7530247  -0.7362601), wk =   0.0063492
        k(  156) = (  -0.4000000  -0.7530247   0.9816801), wk =   0.0063492
        k(  157) = (  -0.4000000   0.7530247  -0.9816801), wk =   0.0063492
        k(  158) = (   0.4000000  -0.7530247  -0.9816801), wk =   0.0063492

                       cryst. coord.
        k(    1) = (   0.0000000   0.0000000   0.0000000), wk =   0.0031746
        k(    2) = (   0.0000000   0.0000000   0.1111111), wk =   0.0063492
        k(    3) = (   0.0000000   0.0000000   0.2222222), wk =   0.0063492
        k(    4) = (   0.0000000   0.0000000   0.3333333), wk =   0.0063492
        k(    5) = (   0.0000000   0.0000000   0.4444444), wk =   0.0063492
        k(    6) = (   0.0000000   0.1428571   0.0000000), wk =   0.0063492
        k(    7) = (   0.0000000   0.1428571   0.1111111), wk =   0.0063492
        k(    8) = (   0.0000000   0.1428571   0.2222222), wk =   0.0063492
        k(    9) = (   0.0000000   0.1428571   0.3333333), wk =   0.0063492
        k(   10) = (   0.0000000   0.1428571   0.4444444), wk =   0.0063492
        k(   11) = (   0.0000000   0.2857143   0.0000000), wk =   0.0063492
        k(   12) = (   0.0000000   0.2857143   0.1111111), wk =   0.0063492
        k(   13) = (   0.0000000   0.2857143   0.2222222), wk =   0.0063492
        k(   14) = (   0.0000000   0.2857143   0.3333333), wk =   0.0063492
        k(   15) = (   0.0000000   0.2857143   0.4444444), wk =   0.0063492
        k(   16) = (   0.0000000   0.4285714   0.0000000), wk =   0.0063492
        k(   17) = (   0.0000000   0.4285714   0.1111111), wk =   0.0063492
        k(   18) = (   0.0000000   0.4285714   0.2222222), wk =   0.0063492
        k(   19) = (   0.0000000   0.4285714   0.3333333), wk =   0.0063492
        k(   20) = (   0.0000000   0.4285714   0.4444444), wk =   0.0063492
        k(   21) = (   0.2000000   0.0000000   0.0000000), wk =   0.0063492
        k(   22) = (   0.2000000   0.0000000   0.1111111), wk =   0.0063492
        k(   23) = (   0.2000000   0.0000000   0.2222222), wk =   0.0063492
        k(   24) = (   0.2000000   0.0000000   0.3333333), wk =   0.0063492
        k(   25) = (   0.2000000   0.0000000   0.4444444), wk =   0.0063492
        k(   26) = (   0.2000000   0.1428571   0.0000000), wk =   0.0063492
        k(   27) = (   0.2000000   0.1428571   0.1111111), wk =   0.0063492
        k(   28) = (   0.2000000   0.1428571   0.2222222), wk =   0.0063492
        k(   29) = (   0.2000000   0.1428571   0.3333333), wk =   0.0063492
        k(   30) = (   0.2000000   0.1428571   0.4444444), wk =   0.0063492
        k(   31) = (   0.2000000   0.2857143   0.0000000), wk =   0.0063492
        k(   32) = (   0.2000000   0.2857143   0.1111111), wk =   0.0063492
        k(   33) = (   0.2000000   0.2857143   0.2222222), wk =   0.0063492
        k(   34) = (   0.2000000   0.2857143   0.3333333), wk =   0.0063492
        k(   35) = (   0.2000000   0.2857143   0.4444444), wk =   0.0063492
        k(   36) = (   0.2000000   0.4285714   0.0000000), wk =   0.0063492
        k(   37) = (   0.2000000   0.4285714   0.1111111), wk =   0.0063492
        k(   38) = (   0.2000000   0.4285714   0.2222222), wk =   0.0063492
        k(   39) = (   0.2000000   0.4285714   0.3333333), wk =   0.0063492
        k(   40) = (   0.2000000   0.4285714   0.4444444), wk =   0.0063492
        k(   41) = (   0.4000000   0.0000000   0.0000000), wk =   0.0063492
        k(   42) = (   0.4000000   0.0000000   0.1111111), wk =   0.0063492
        k(   43) = (   0.4000000   0.0000000   0.2222222), wk =   0.0063492
        k(   44) = (   0.4000000   0.0000000   0.3333333), wk =   0.0063492
        k(   45) = (   0.4000000   0.0000000   0.4444444), wk =   0.0063492
        k(   46) = (   0.4000000   0.1428571   0.0000000), wk =   0.0063492
        k(   47) = (   0.4000000   0.1428571   0.1111111), wk =   0.0063492
        k(   48) = (   0.4000000   0.1428571   0.2222222), wk =   0.0063492
        k(   49) = (   0.4000000   0.1428571   0.3333333), wk =   0.0063492
        k(   50) = (   0.4000000   0.1428571   0.4444444), wk =   0.0063492
        k(   51) = (   0.4000000   0.2857143   0.0000000), wk =   0.0063492
        k(   52) = (   0.4000000   0.2857143   0.1111111), wk =   0.0063492
        k(   53) = (   0.4000000   0.2857143   0.2222222), wk =   0.0063492
        k(   54) = (   0.4000000   0.2857143   0.3333333), wk =   0.0063492
        k(   55) = (   0.4000000   0.2857143   0.4444444), wk =   0.0063492
        k(   56) = (   0.4000000   0.4285714   0.0000000), wk =   0.0063492
        k(   57) = (   0.4000000   0.4285714   0.1111111), wk =   0.0063492
        k(   58) = (   0.4000000   0.4285714   0.2222222), wk =   0.0063492
        k(   59) = (   0.4000000   0.4285714   0.3333333), wk =   0.0063492
        k(   60) = (   0.4000000   0.4285714   0.4444444), wk =   0.0063492
        k(   61) = (   0.0000000  -0.1428571   0.1111111), wk =   0.0063492
        k(   62) = (   0.0000000  -0.1428571   0.2222222), wk =   0.0063492
        k(   63) = (   0.0000000  -0.1428571   0.3333333), wk =   0.0063492
        k(   64) = (   0.0000000  -0.1428571   0.4444444), wk =   0.0063492
        k(   65) = (   0.0000000  -0.2857143   0.1111111), wk =   0.0063492
        k(   66) = (   0.0000000  -0.2857143   0.2222222), wk =   0.0063492
        k(   67) = (   0.0000000  -0.2857143   0.3333333), wk =   0.0063492
        k(   68) = (   0.0000000  -0.2857143   0.4444444), wk =   0.0063492
        k(   69) = (   0.0000000  -0.4285714   0.1111111), wk =   0.0063492
        k(   70) = (   0.0000000  -0.4285714   0.2222222), wk =   0.0063492
        k(   71) = (   0.0000000  -0.4285714   0.3333333), wk =   0.0063492
        k(   72) = (   0.0000000  -0.4285714   0.4444444), wk =   0.0063492
        k(   73) = (  -0.2000000   0.0000000   0.1111111), wk =   0.0063492
        k(   74) = (  -0.2000000   0.0000000   0.2222222), wk =   0.0063492
        k(   75) = (  -0.2000000   0.0000000   0.3333333), wk =   0.0063492
        k(   76) = (  -0.2000000   0.0000000   0.4444444), wk =   0.0063492
        k(   77) = (  -0.2000000   0.1428571   0.0000000), wk =   0.0063492
        k(   78) = (  -0.2000000  -0.1428571   0.1111111), wk =   0.0063492
        k(   79) = (  -0.2000000   0.1428571  -0.1111111), wk =   0.0063492
        k(   80) = (   0.2000000  -0.1428571  -0.1111111), wk =   0.0063492
        k(   81) = (  -0.2000000  -0.1428571   0.2222222), wk =   0.0063492
        k(   82) = (  -0.2000000   0.1428571  -0.2222222), wk =   0.0063492
        k(   83) = (   0.2000000  -0.1428571  -0.2222222), wk =   0.0063492
        k(   84) = (  -0.2000000  -0.1428571   0.3333333), wk =   0.0063492
        k(   85) = (  -0.2000000   0.1428571  -0.3333333), wk =   0.0063492
        k(   86) = (   0.2000000  -0.1428571  -0.3333333), wk =   0.0063492
        k(   87) = (  -0.2000000  -0.1428571   0.4444444), wk =   0.0063492
        k(   88) = (  -0.2000000   0.1428571  -0.4444444), wk =   0.0063492
        k(   89) = (   0.2000000  -0.1428571  -0.4444444), wk =   0.0063492
        k(   90) = (  -0.2000000   0.2857143   0.0000000), wk =   0.0063492
        k(   91) = (  -0.2000000  -0.2857143   0.1111111), wk =   0.0063492
        k(   92) = (  -0.2000000   0.2857143  -0.1111111), wk =   0.0063492
        k(   93) = (   0.2000000  -0.2857143  -0.1111111), wk =   0.0063492
        k(   94) = (  -0.2000000  -0.2857143   0.2222222), wk =   0.0063492
        k(   95) = (  -0.2000000   0.2857143  -0.2222222), wk =   0.0063492
        k(   96) = (   0.2000000  -0.2857143  -0.2222222), wk =   0.0063492
        k(   97) = (  -0.2000000  -0.2857143   0.3333333), wk =   0.0063492
        k(   98) = (  -0.2000000   0.2857143  -0.3333333), wk =   0.0063492
        k(   99) = (   0.2000000  -0.2857143  -0.3333333), wk =   0.0063492
        k(  100) = (  -0.2000000  -0.2857143   0.4444444), wk =   0.0063492
        k(  101) = (  -0.2000000   0.2857143  -0.4444444), wk =   0.0063492
        k(  102) = (   0.2000000  -0.2857143  -0.4444444), wk =   0.0063492
        k(  103) = (  -0.2000000   0.4285714   0.0000000), wk =   0.0063492
        k(  104) = (  -0.2000000  -0.4285714   0.1111111), wk =   0.0063492
        k(  105) = (  -0.2000000   0.4285714  -0.1111111), wk =   0.0063492
        k(  106) = (   0.2000000  -0.4285714  -0.1111111), wk =   0.0063492
        k(  107) = (  -0.2000000  -0.4285714   0.2222222), wk =   0.0063492
        k(  108) = (  -0.2000000   0.4285714  -0.2222222), wk =   0.0063492
        k(  109) = (   0.2000000  -0.4285714  -0.2222222), wk =   0.0063492
        k(  110) = (  -0.2000000  -0.4285714   0.3333333), wk =   0.0063492
        k(  111) = (  -0.2000000   0.4285714  -0.3333333), wk =   0.0063492
        k(  112) = (   0.2000000  -0.4285714  -0.3333333), wk =   0.0063492
        k(  113) = (  -0.2000000  -0.4285714   0.4444444), wk =   0.0063492
        k(  114) = (  -0.2000000   0.4285714  -0.4444444), wk =   0.0063492
        k(  115) = (   0.2000000  -0.4285714  -0.4444444), wk =   0.0063492
        k(  116) = (  -0.4000000   0.0000000   0.1111111), wk =   0.0063492
        k(  117) = (  -0.4000000   0.0000000   0.2222222), wk =   0.0063492
        k(  118) = (  -0.4000000   0.0000000   0.3333333), wk =   0.0063492
        k(  119) = (  -0.4000000   0.0000000   0.4444444), wk =   0.0063492
        k(  120) = (  -0.4000000   0.1428571   0.0000000), wk =   0.0063492
        k(  121) = (  -0.4000000  -0.1428571   0.1111111), wk =   0.0063492
        k(  122) = (  -0.4000000   0.1428571  -0.1111111), wk =   0.0063492
        k(  123) = (   0.4000000  -0.1428571  -0.1111111), wk =   0.0063492
        k(  124) = (  -0.4000000  -0.1428571   0.2222222), wk =   0.0063492
        k(  125) = (  -0.4000000   0.1428571  -0.2222222), wk =   0.0063492
        k(  126) = (   0.4000000  -0.1428571  -0.2222222), wk =   0.0063492
        k(  127) = (  -0.4000000  -0.1428571   0.3333333), wk =   0.0063492
        k(  128) = (  -0.4000000   0.1428571  -0.3333333), wk =   0.0063492
        k(  129) = (   0.4000000  -0.1428571  -0.3333333), wk =   0.0063492
        k(  130) = (  -0.4000000  -0.1428571   0.4444444), wk =   0.0063492
        k(  131) = (  -0.4000000   0.1428571  -0.4444444), wk =   0.0063492
        k(  132) = (   0.4000000  -0.1428571  -0.4444444), wk =   0.0063492
        k(  133) = (  -0.4000000   0.2857143   0.0000000), wk =   0.0063492
        k(  134) = (  -0.4000000  -0.2857143   0.1111111), wk =   0.0063492
        k(  135) = (  -0.4000000   0.2857143  -0.1111111), wk =   0.0063492
        k(  136) = (   0.4000000  -0.2857143  -0.1111111), wk =   0.0063492
        k(  137) = (  -0.4000000  -0.2857143   0.2222222), wk =   0.0063492
        k(  138) = (  -0.4000000   0.2857143  -0.2222222), wk =   0.0063492
        k(  139) = (   0.4000000  -0.2857143  -0.2222222), wk =   0.0063492
        k(  140) = (  -0.4000000  -0.2857143   0.3333333), wk =   0.0063492
        k(  141) = (  -0.4000000   0.2857143  -0.3333333), wk =   0.0063492
        k(  142) = (   0.4000000  -0.2857143  -0.3333333), wk =   0.0063492
        k(  143) = (  -0.4000000  -0.2857143   0.4444444), wk =   0.0063492
        k(  144) = (  -0.4000000   0.2857143  -0.4444444), wk =   0.0063492
        k(  145) = (   0.4000000  -0.2857143  -0.4444444), wk =   0.0063492
        k(  146) = (  -0.4000000   0.4285714   0.0000000), wk =   0.0063492
        k(  147) = (  -0.4000000  -0.4285714   0.1111111), wk =   0.0063492
        k(  148) = (  -0.4000000   0.4285714  -0.1111111), wk =   0.0063492
        k(  149) = (   0.4000000  -0.4285714  -0.1111111), wk =   0.0063492
        k(  150) = (  -0.4000000  -0.4285714   0.2222222), wk =   0.0063492
        k(  151) = (  -0.4000000   0.4285714  -0.2222222), wk =   0.0063492
        k(  152) = (   0.4000000  -0.4285714  -0.2222222), wk =   0.0063492
        k(  153) = (  -0.4000000  -0.4285714   0.3333333), wk =   0.0063492
        k(  154) = (  -0.4000000   0.4285714  -0.3333333), wk =   0.0063492
        k(  155) = (   0.4000000  -0.4285714  -0.3333333), wk =   0.0063492
        k(  156) = (  -0.4000000  -0.4285714   0.4444444), wk =   0.0063492
        k(  157) = (  -0.4000000   0.4285714  -0.4444444), wk =   0.0063492
        k(  158) = (   0.4000000  -0.4285714  -0.4444444), wk =   0.0063492

     Dense  grid:  1359665 G-vectors     FFT dimensions: ( 216, 125, 100)

     Smooth grid:   306383 G-vectors     FFT dimensions: ( 135,  75,  60)

     Dynamical RAM for                 wfc:       2.78 MB

     Dynamical RAM for     wfc (w. buffer):     880.07 MB

     Dynamical RAM for           str. fact:       3.46 MB

     Dynamical RAM for           local pot:       0.00 MB

     Dynamical RAM for          nlocal pot:       6.82 MB

     Dynamical RAM for                qrad:      10.54 MB

     Dynamical RAM for          rho,v,vnew:      11.37 MB

     Dynamical RAM for               rhoin:       3.79 MB

     Dynamical RAM for            rho*nmix:      27.66 MB

     Dynamical RAM for           G-vectors:       3.34 MB

     Dynamical RAM for          h,s,v(r/c):       2.38 MB

     Dynamical RAM for          <psi|beta>:       0.49 MB

     Dynamical RAM for                 psi:       5.55 MB

     Dynamical RAM for                hpsi:       5.55 MB

     Dynamical RAM for                spsi:       5.55 MB

     Dynamical RAM for      wfcinit/wfcrot:       7.10 MB

     Dynamical RAM for           addusdens:     175.48 MB

     Dynamical RAM for          addusforce:     201.54 MB

     Dynamical RAM for         addusstress:     175.05 MB

     Estimated static dynamical RAM per process >     957.55 MB

     Estimated max dynamical RAM per process >       1.13 GB

     Estimated total dynamical RAM >      27.17 GB

     Check: negative core charge=   -0.000003
     Generating pointlists ...
     new r_m :   0.0745 (alat units)  1.5383 (a.u.) for type    1
     new r_m :   0.0844 (alat units)  1.7424 (a.u.) for type    2
     new r_m :   0.0582 (alat units)  1.2017 (a.u.) for type    3
     new r_m :   0.0582 (alat units)  1.2017 (a.u.) for type    4

     Initial potential from superposition of free atoms

     starting charge  188.99132, renormalised to  189.00000
     Starting wfcs are  137 randomized atomic wfcs
     Checking if some PAW data can be deallocated... 
       PAW data deallocated on   20 nodes for type:  1
       PAW data deallocated on    8 nodes for type:  3

     total cpu time spent up to now is      184.7 secs

     Self-consistent Calculation

     iteration #  1     ecut=   100.00 Ry     beta= 0.40
     Davidson diagonalization with overlap
     ethr =  1.00E-02,  avg # of iterations =  2.9

     negative rho (up, down):  0.000E+00 1.163E-04

     total cpu time spent up to now is      748.2 secs

     total energy              =   -2123.68932880 Ry
     estimated scf accuracy    <       7.20324859 Ry

     total magnetization       =    19.00 Bohr mag/cell
     absolute magnetization    =    19.00 Bohr mag/cell

     iteration #  2     ecut=   100.00 Ry     beta= 0.40
     Davidson diagonalization with overlap
     ethr =  3.81E-03,  avg # of iterations =  2.0

     negative rho (up, down):  0.000E+00 3.171E-05

     total cpu time spent up to now is     1279.0 secs

     total energy              =   -2120.09735044 Ry
     estimated scf accuracy    <      54.07517106 Ry

     total magnetization       =     5.92 Bohr mag/cell
     absolute magnetization    =     7.60 Bohr mag/cell

     iteration #  3     ecut=   100.00 Ry     beta= 0.40
     Davidson diagonalization with overlap
     ethr =  3.81E-03,  avg # of iterations =  2.8

     negative rho (up, down):  0.000E+00 1.428E-05

     total cpu time spent up to now is     1743.6 secs

     total energy              =   -2123.12267242 Ry
     estimated scf accuracy    <      60.80587406 Ry

     total magnetization       =     3.77 Bohr mag/cell
     absolute magnetization    =     8.09 Bohr mag/cell

     iteration #  4     ecut=   100.00 Ry     beta= 0.40
     Davidson diagonalization with overlap
     ethr =  3.81E-03,  avg # of iterations =  1.5

     negative rho (up, down):  0.000E+00 1.963E-05

     total cpu time spent up to now is     2150.6 secs

     total energy              =   -2124.45302116 Ry
     estimated scf accuracy    <      31.09295047 Ry

     total magnetization       =     9.00 Bohr mag/cell
     absolute magnetization    =     9.32 Bohr mag/cell

     iteration #  5     ecut=   100.00 Ry     beta= 0.40
     Davidson diagonalization with overlap
     ethr =  3.81E-03,  avg # of iterations =  1.8

     negative rho (up, down):  0.000E+00 8.439E-05

     total cpu time spent up to now is     2582.6 secs

     total energy              =   -2125.78433421 Ry
     estimated scf accuracy    <       3.62911131 Ry

     total magnetization       =    17.40 Bohr mag/cell
     absolute magnetization    =    17.41 Bohr mag/cell

     iteration #  6     ecut=   100.00 Ry     beta= 0.40
     Davidson diagonalization with overlap
     ethr =  1.92E-03,  avg # of iterations =  1.5

     negative rho (up, down):  0.000E+00 2.286E-04

     total cpu time spent up to now is     2991.2 secs

     total energy              =   -2126.00222466 Ry
     estimated scf accuracy    <       0.90623688 Ry

     total magnetization       =    19.00 Bohr mag/cell
     absolute magnetization    =    19.00 Bohr mag/cell

     iteration #  7     ecut=   100.00 Ry     beta= 0.40
     Davidson diagonalization with overlap
     ethr =  4.79E-04,  avg # of iterations =  1.3

     negative rho (up, down):  0.000E+00 3.182E-04

     total cpu time spent up to now is     3384.3 secs

     total energy              =   -2125.99777281 Ry
     estimated scf accuracy    <       0.37937536 Ry

     total magnetization       =    19.00 Bohr mag/cell
     absolute magnetization    =    19.00 Bohr mag/cell

     iteration #  8     ecut=   100.00 Ry     beta= 0.40
     Davidson diagonalization with overlap
     ethr =  2.01E-04,  avg # of iterations =  2.6

     negative rho (up, down):  0.000E+00 4.016E-04

     total cpu time spent up to now is     3829.0 secs

     total energy              =   -2126.00487053 Ry
     estimated scf accuracy    <       0.46687112 Ry

     total magnetization       =    19.00 Bohr mag/cell
     absolute magnetization    =    19.00 Bohr mag/cell

     iteration #  9     ecut=   100.00 Ry     beta= 0.40
     Davidson diagonalization with overlap
     ethr =  2.01E-04,  avg # of iterations =  1.2

     negative rho (up, down):  0.000E+00 7.603E-04

     total cpu time spent up to now is     4213.7 secs

     total energy              =   -2126.01675380 Ry
     estimated scf accuracy    <       0.37309451 Ry

     total magnetization       =    19.00 Bohr mag/cell
     absolute magnetization    =    19.01 Bohr mag/cell

     iteration # 10     ecut=   100.00 Ry     beta= 0.40
     Davidson diagonalization with overlap
     ethr =  1.97E-04,  avg # of iterations =  1.2

     negative rho (up, down):  0.000E+00 8.696E-04

     total cpu time spent up to now is     4600.4 secs

     total energy              =   -2126.02755149 Ry
     estimated scf accuracy    <       0.29830760 Ry

     total magnetization       =    19.00 Bohr mag/cell
     absolute magnetization    =    19.02 Bohr mag/cell

     iteration # 11     ecut=   100.00 Ry     beta= 0.40
     Davidson diagonalization with overlap
     ethr =  1.58E-04,  avg # of iterations =  1.1

     negative rho (up, down):  0.000E+00 9.073E-04

     total cpu time spent up to now is     4981.3 secs

     total energy              =   -2126.03373705 Ry
     estimated scf accuracy    <       0.03235203 Ry

     total magnetization       =    19.00 Bohr mag/cell
     absolute magnetization    =    19.03 Bohr mag/cell

     iteration # 12     ecut=   100.00 Ry     beta= 0.40
     Davidson diagonalization with overlap
     c_bands:  1 eigenvalues not converged
     c_bands:  1 eigenvalues not converged
     c_bands:  2 eigenvalues not converged
     c_bands:  1 eigenvalues not converged
     c_bands:  1 eigenvalues not converged
     c_bands:  1 eigenvalues not converged
     c_bands:  2 eigenvalues not converged
     c_bands:  1 eigenvalues not converged
     c_bands:  1 eigenvalues not converged
     c_bands:  1 eigenvalues not converged
     c_bands:  1 eigenvalues not converged
     c_bands:  1 eigenvalues not converged
     c_bands:  1 eigenvalues not converged
     c_bands:  1 eigenvalues not converged
     c_bands:  1 eigenvalues not converged
     c_bands:  1 eigenvalues not converged
     c_bands:  2 eigenvalues not converged
     c_bands:  1 eigenvalues not converged
     c_bands:  1 eigenvalues not converged
     c_bands:  1 eigenvalues not converged
     c_bands:  1 eigenvalues not converged
     c_bands:  1 eigenvalues not converged
     c_bands:  1 eigenvalues not converged
     ethr =  1.71E-05,  avg # of iterations = 15.8

     negative rho (up, down):  0.000E+00 9.178E-04

     total cpu time spent up to now is     5846.3 secs

     total energy              =   -2126.03443869 Ry
     estimated scf accuracy    <       0.03473580 Ry

     total magnetization       =    19.00 Bohr mag/cell
     absolute magnetization    =    19.03 Bohr mag/cell

     iteration # 13     ecut=   100.00 Ry     beta= 0.40
     Davidson diagonalization with overlap
     c_bands:  1 eigenvalues not converged
     ethr =  1.71E-05,  avg # of iterations =  1.1

     negative rho (up, down):  0.000E+00 9.524E-04

     total cpu time spent up to now is     6258.7 secs

     total energy              =   -2126.03607855 Ry
     estimated scf accuracy    <       0.01130409 Ry

     total magnetization       =    19.00 Bohr mag/cell
     absolute magnetization    =    19.04 Bohr mag/cell

     iteration # 14     ecut=   100.00 Ry     beta= 0.40
     Davidson diagonalization with overlap
     c_bands:  1 eigenvalues not converged
     ethr =  5.98E-06,  avg # of iterations =  1.7

     negative rho (up, down):  0.000E+00 9.553E-04

     total cpu time spent up to now is     7015.7 secs

     total energy              =   -2126.03633409 Ry
     estimated scf accuracy    <       0.00532692 Ry

     total magnetization       =    19.00 Bohr mag/cell
     absolute magnetization    =    19.05 Bohr mag/cell

     iteration # 15     ecut=   100.00 Ry     beta= 0.40
     Davidson diagonalization with overlap
     c_bands:  1 eigenvalues not converged
     c_bands:  1 eigenvalues not converged
     c_bands:  1 eigenvalues not converged
     ethr =  2.82E-06,  avg # of iterations =  2.3

     negative rho (up, down):  0.000E+00 9.506E-04

     total cpu time spent up to now is     7883.5 secs

     total energy              =   -2126.03656913 Ry
     estimated scf accuracy    <       0.00128486 Ry

     total magnetization       =    19.00 Bohr mag/cell
     absolute magnetization    =    19.05 Bohr mag/cell

     iteration # 16     ecut=   100.00 Ry     beta= 0.40
     Davidson diagonalization with overlap
     ethr =  6.80E-07,  avg # of iterations =  4.7

     negative rho (up, down):  0.000E+00 9.451E-04

     total cpu time spent up to now is     8698.2 secs

     total energy              =   -2126.03686367 Ry
     estimated scf accuracy    <       0.00022540 Ry

     total magnetization       =    19.00 Bohr mag/cell
     absolute magnetization    =    19.05 Bohr mag/cell

     iteration # 17     ecut=   100.00 Ry     beta= 0.40
     Davidson diagonalization with overlap
     c_bands:  1 eigenvalues not converged
     ethr =  1.19E-07,  avg # of iterations =  2.9

     negative rho (up, down):  0.000E+00 9.397E-04

     total cpu time spent up to now is     9708.0 secs

     total energy              =   -2126.03691991 Ry
     estimated scf accuracy    <       0.00015179 Ry

     total magnetization       =    19.00 Bohr mag/cell
     absolute magnetization    =    19.05 Bohr mag/cell

     iteration # 18     ecut=   100.00 Ry     beta= 0.40
     Davidson diagonalization with overlap
     ethr =  8.03E-08,  avg # of iterations =  2.0

     negative rho (up, down):  0.000E+00 9.402E-04

     total cpu time spent up to now is    10596.0 secs

     total energy              =   -2126.03694122 Ry
     estimated scf accuracy    <       0.00021235 Ry

     total magnetization       =    19.00 Bohr mag/cell
     absolute magnetization    =    19.06 Bohr mag/cell

     iteration # 19     ecut=   100.00 Ry     beta= 0.40
     Davidson diagonalization with overlap
     ethr =  8.03E-08,  avg # of iterations =  1.0

     negative rho (up, down):  0.000E+00 9.384E-04

     total cpu time spent up to now is    10970.9 secs

     total energy              =   -2126.03695250 Ry
     estimated scf accuracy    <       0.00003487 Ry

     total magnetization       =    19.00 Bohr mag/cell
     absolute magnetization    =    19.06 Bohr mag/cell

     iteration # 20     ecut=   100.00 Ry     beta= 0.40
     Davidson diagonalization with overlap
     ethr =  1.85E-08,  avg # of iterations =  2.1

     negative rho (up, down):  0.000E+00 9.315E-04

     total cpu time spent up to now is    11430.8 secs

     total energy              =   -2126.03695578 Ry
     estimated scf accuracy    <       0.00002297 Ry

     total magnetization       =    19.00 Bohr mag/cell
     absolute magnetization    =    19.06 Bohr mag/cell

     iteration # 21     ecut=   100.00 Ry     beta= 0.40
     Davidson diagonalization with overlap
     ethr =  1.22E-08,  avg # of iterations =  2.0

     negative rho (up, down):  0.000E+00 9.334E-04

     total cpu time spent up to now is    11901.1 secs

     total energy              =   -2126.03696790 Ry
     estimated scf accuracy    <       0.00000730 Ry

     total magnetization       =    19.00 Bohr mag/cell
     absolute magnetization    =    19.06 Bohr mag/cell

     iteration # 22     ecut=   100.00 Ry     beta= 0.40
     Davidson diagonalization with overlap
     ethr =  3.86E-09,  avg # of iterations =  2.1

     negative rho (up, down):  0.000E+00 9.350E-04

     total cpu time spent up to now is    12356.3 secs

     total energy              =   -2126.03696944 Ry
     estimated scf accuracy    <       0.00000815 Ry

     total magnetization       =    19.00 Bohr mag/cell
     absolute magnetization    =    19.06 Bohr mag/cell

     iteration # 23     ecut=   100.00 Ry     beta= 0.40
     Davidson diagonalization with overlap
     ethr =  3.86E-09,  avg # of iterations =  2.0

     negative rho (up, down):  0.000E+00 9.360E-04

     total cpu time spent up to now is    12840.8 secs

     total energy              =   -2126.03697065 Ry
     estimated scf accuracy    <       0.00000403 Ry

     total magnetization       =    19.00 Bohr mag/cell
     absolute magnetization    =    19.06 Bohr mag/cell

     iteration # 24     ecut=   100.00 Ry     beta= 0.40
     Davidson diagonalization with overlap
     ethr =  2.13E-09,  avg # of iterations =  1.0

     negative rho (up, down):  0.000E+00 9.357E-04

     total cpu time spent up to now is    13218.5 secs

     total energy              =   -2126.03697088 Ry
     estimated scf accuracy    <       0.00000224 Ry

     total magnetization       =    19.00 Bohr mag/cell
     absolute magnetization    =    19.06 Bohr mag/cell

     iteration # 25     ecut=   100.00 Ry     beta= 0.40
     Davidson diagonalization with overlap
     ethr =  1.19E-09,  avg # of iterations =  1.1

     negative rho (up, down):  0.000E+00 9.365E-04

     total cpu time spent up to now is    13949.3 secs

     total energy              =   -2126.03697103 Ry
     estimated scf accuracy    <       0.00000869 Ry

     total magnetization       =    19.00 Bohr mag/cell
     absolute magnetization    =    19.06 Bohr mag/cell

     iteration # 26     ecut=   100.00 Ry     beta= 0.40
     Davidson diagonalization with overlap
     ethr =  1.19E-09,  avg # of iterations =  1.0

     negative rho (up, down):  0.000E+00 9.370E-04

     total cpu time spent up to now is    14325.5 secs

     total energy              =   -2126.03697122 Ry
     estimated scf accuracy    <       0.00000056 Ry

     total magnetization       =    19.00 Bohr mag/cell
     absolute magnetization    =    19.06 Bohr mag/cell

     iteration # 27     ecut=   100.00 Ry     beta= 0.40
     Davidson diagonalization with overlap
     ethr =  2.98E-10,  avg # of iterations =  2.7

     negative rho (up, down):  0.000E+00 9.367E-04

     total cpu time spent up to now is    14791.9 secs

     total energy              =   -2126.03697132 Ry
     estimated scf accuracy    <       0.00000015 Ry

     total magnetization       =    19.00 Bohr mag/cell
     absolute magnetization    =    19.06 Bohr mag/cell

     iteration # 28     ecut=   100.00 Ry     beta= 0.40
     Davidson diagonalization with overlap
     ethr =  7.74E-11,  avg # of iterations =  4.2

     negative rho (up, down):  0.000E+00 9.369E-04

     total cpu time spent up to now is    15586.2 secs

     total energy              =   -2126.03697135 Ry
     estimated scf accuracy    <       0.00000035 Ry

     total magnetization       =    19.00 Bohr mag/cell
     absolute magnetization    =    19.06 Bohr mag/cell

     iteration # 29     ecut=   100.00 Ry     beta= 0.40
     Davidson diagonalization with overlap
     ethr =  7.74E-11,  avg # of iterations =  2.0

     negative rho (up, down):  0.000E+00 9.367E-04

     total cpu time spent up to now is    16310.7 secs

     total energy              =   -2126.03697142 Ry
     estimated scf accuracy    <       0.00000007 Ry

     total magnetization       =    19.00 Bohr mag/cell
     absolute magnetization    =    19.06 Bohr mag/cell

     iteration # 30     ecut=   100.00 Ry     beta= 0.40
     Davidson diagonalization with overlap
     ethr =  3.47E-11,  avg # of iterations =  2.1

     negative rho (up, down):  0.000E+00 9.366E-04

     total cpu time spent up to now is    16755.8 secs

     total energy              =   -2126.03697142 Ry
     estimated scf accuracy    <       0.00000004 Ry

     total magnetization       =    19.00 Bohr mag/cell
     absolute magnetization    =    19.06 Bohr mag/cell

     iteration # 31     ecut=   100.00 Ry     beta= 0.40
     Davidson diagonalization with overlap
     ethr =  2.25E-11,  avg # of iterations =  2.0

     negative rho (up, down):  0.000E+00 9.365E-04

     total cpu time spent up to now is    17227.2 secs

     total energy              =   -2126.03697144 Ry
     estimated scf accuracy    <       0.00000002 Ry

     total magnetization       =    19.00 Bohr mag/cell
     absolute magnetization    =    19.06 Bohr mag/cell

     iteration # 32     ecut=   100.00 Ry     beta= 0.40
     Davidson diagonalization with overlap
     ethr =  9.88E-12,  avg # of iterations =  2.2

     negative rho (up, down):  0.000E+00 9.365E-04

     total cpu time spent up to now is    18226.4 secs

     total energy              =   -2126.03697145 Ry
     estimated scf accuracy    <          9.7E-09 Ry

     total magnetization       =    19.00 Bohr mag/cell
     absolute magnetization    =    19.06 Bohr mag/cell

     iteration # 33     ecut=   100.00 Ry     beta= 0.40
     Davidson diagonalization with overlap
     ethr =  5.14E-12,  avg # of iterations =  2.2

     negative rho (up, down):  0.000E+00 9.365E-04

     total cpu time spent up to now is    18749.7 secs

     total energy              =   -2126.03697145 Ry
     estimated scf accuracy    <          8.3E-09 Ry

     total magnetization       =    19.00 Bohr mag/cell
     absolute magnetization    =    19.06 Bohr mag/cell

     iteration # 34     ecut=   100.00 Ry     beta= 0.40
     Davidson diagonalization with overlap
     ethr =  4.41E-12,  avg # of iterations =  1.1

     negative rho (up, down):  0.000E+00 9.365E-04

     total cpu time spent up to now is    19133.9 secs

     total energy              =   -2126.03697145 Ry
     estimated scf accuracy    <          5.1E-09 Ry

     total magnetization       =    19.00 Bohr mag/cell
     absolute magnetization    =    19.06 Bohr mag/cell

     iteration # 35     ecut=   100.00 Ry     beta= 0.40
     Davidson diagonalization with overlap
     ethr =  2.69E-12,  avg # of iterations =  2.0

     negative rho (up, down):  0.000E+00 9.365E-04

     total cpu time spent up to now is    19730.9 secs

     total energy              =   -2126.03697145 Ry
     estimated scf accuracy    <          1.5E-09 Ry

     total magnetization       =    19.00 Bohr mag/cell
     absolute magnetization    =    19.06 Bohr mag/cell

     iteration # 36     ecut=   100.00 Ry     beta= 0.40
     Davidson diagonalization with overlap
     ethr =  8.13E-13,  avg # of iterations =  3.6

     negative rho (up, down):  0.000E+00 9.366E-04

     total cpu time spent up to now is    20219.6 secs

     total energy              =   -2126.03697145 Ry
     estimated scf accuracy    <          3.0E-09 Ry

     total magnetization       =    19.00 Bohr mag/cell
     absolute magnetization    =    19.06 Bohr mag/cell

     iteration # 37     ecut=   100.00 Ry     beta= 0.40
     Davidson diagonalization with overlap
     ethr =  8.13E-13,  avg # of iterations =  2.0

     negative rho (up, down):  0.000E+00 9.366E-04

     total cpu time spent up to now is    20723.6 secs

     total energy              =   -2126.03697145 Ry
     estimated scf accuracy    <          1.5E-09 Ry

     total magnetization       =    19.00 Bohr mag/cell
     absolute magnetization    =    19.06 Bohr mag/cell

     iteration # 38     ecut=   100.00 Ry     beta= 0.40
     Davidson diagonalization with overlap
     ethr =  7.76E-13,  avg # of iterations =  1.7

     negative rho (up, down):  0.000E+00 9.365E-04

     total cpu time spent up to now is    21139.2 secs

     total energy              =   -2126.03697145 Ry
     estimated scf accuracy    <          1.2E-09 Ry

     total magnetization       =    19.00 Bohr mag/cell
     absolute magnetization    =    19.06 Bohr mag/cell

     iteration # 39     ecut=   100.00 Ry     beta= 0.40
     Davidson diagonalization with overlap
     ethr =  6.13E-13,  avg # of iterations =  2.0

     negative rho (up, down):  0.000E+00 9.365E-04

     total cpu time spent up to now is    21578.3 secs

     total energy              =   -2126.03697145 Ry
     estimated scf accuracy    <          7.2E-10 Ry

     total magnetization       =    19.00 Bohr mag/cell
     absolute magnetization    =    19.06 Bohr mag/cell

     iteration # 40     ecut=   100.00 Ry     beta= 0.40
     Davidson diagonalization with overlap
     ethr =  3.82E-13,  avg # of iterations =  1.0

     negative rho (up, down):  0.000E+00 9.365E-04

     total cpu time spent up to now is    21957.6 secs

     total energy              =   -2126.03697145 Ry
     estimated scf accuracy    <          3.2E-10 Ry

     total magnetization       =    19.00 Bohr mag/cell
     absolute magnetization    =    19.06 Bohr mag/cell

     iteration # 41     ecut=   100.00 Ry     beta= 0.40
     Davidson diagonalization with overlap
     ethr =  1.68E-13,  avg # of iterations =  2.0

     negative rho (up, down):  0.000E+00 9.365E-04

     Magnetic moment per site:
     atom:    1    charge:    7.8938    magn:    0.0003    constr:    0.0000
     atom:    2    charge:   12.9649    magn:    3.7122    constr:    0.0000
     atom:    3    charge:   12.9728    magn:    3.6936    constr:    0.0000
     atom:    4    charge:   13.0117    magn:    3.6028    constr:    0.0000
     atom:    5    charge:   12.9746    magn:    3.6937    constr:    0.0000
     atom:    6    charge:    0.8292    magn:    0.0095    constr:    0.0000
     atom:    7    charge:    0.8344    magn:    0.0077    constr:    0.0000
     atom:    8    charge:    0.8304    magn:    0.0102    constr:    0.0000
     atom:    9    charge:    0.8273    magn:    0.0081    constr:    0.0000
     atom:   10    charge:    4.2615    magn:    0.1348    constr:    0.0000
     atom:   11    charge:    4.2758    magn:    0.0839    constr:    0.0000
     atom:   12    charge:    4.2653    magn:    0.1242    constr:    0.0000
     atom:   13    charge:    4.2621    magn:    0.1041    constr:    0.0000
     atom:   14    charge:    4.2057    magn:    0.1219    constr:    0.0000
     atom:   15    charge:    4.2117    magn:    0.1377    constr:    0.0000
     atom:   16    charge:    4.2166    magn:    0.0770    constr:    0.0000
     atom:   17    charge:    4.2057    magn:    0.1514    constr:    0.0000
     atom:   18    charge:    4.2323    magn:    0.1510    constr:    0.0000
     atom:   19    charge:    4.2374    magn:    0.1328    constr:    0.0000
     atom:   20    charge:    4.2360    magn:    0.1416    constr:    0.0000
     atom:   21    charge:    4.2361    magn:    0.1176    constr:    0.0000
     atom:   22    charge:    4.2383    magn:    0.1485    constr:    0.0000
     atom:   23    charge:    4.2304    magn:    0.1281    constr:    0.0000
     atom:   24    charge:    4.2319    magn:    0.1498    constr:    0.0000
     atom:   25    charge:    4.2347    magn:    0.1304    constr:    0.0000

     total cpu time spent up to now is    22413.6 secs

     End of self-consistent calculation

 ------ SPIN UP ------------


          k = 0.0000 0.0000 0.0000 ( 38253 PWs)   bands (ev):

   -85.9786 -85.8902 -85.8891 -85.5850 -52.0548 -51.9923 -51.9866 -51.9234
   -51.9020 -51.9006 -51.8715 -51.8263 -51.8143 -51.7592 -51.5379 -51.3200
   -45.5850 -17.5948 -17.5336 -17.5270 -16.4428 -16.3140 -16.1287 -16.0410
   -14.1842 -14.1359 -13.9561 -13.9402 -13.8984 -13.8619 -13.7586 -13.6736
   -13.6588 -13.5621 -13.4745 -13.4225  -4.5354  -4.1105  -3.9895  -3.6626
    -2.5294  -2.3209  -2.1426  -2.0919  -1.8676  -1.7063  -1.6254  -1.5721
    -1.5287  -1.2236  -1.1298  -0.9151  -0.7941  -0.7748  -0.3201  -0.2774
    -0.1071  -0.0564   0.0215   0.2562   0.3403   0.3485   0.4799   0.5574
     0.6426   0.7597   0.7707   0.9899   1.1440   1.1990   1.2462   1.2619
     1.3957   1.4212   1.5259   1.6488   1.8065   1.8404   1.8823   1.9620
     2.1367   2.1597   2.2175   2.3177   2.4133   2.4302   2.4433   2.6337
     2.7346   2.7571   2.8323   2.8714   2.9233   3.1353   3.2132   3.3173
     3.3624   3.4233   3.5419   3.5965   3.6304   3.7628   4.1115   4.2312
     7.9905  10.0434  10.5067  10.8004  11.2122  11.7263  12.0966  12.2828
    12.5182  12.7069

     occupation numbers 
     1.0000   1.0000   1.0000   1.0000   1.0000   1.0000   1.0000   1.0000
     1.0000   1.0000   1.0000   1.0000   1.0000   1.0000   1.0000   1.0000
     1.0000   1.0000   1.0000   1.0000   1.0000   1.0000   1.0000   1.0000
     1.0000   1.0000   1.0000   1.0000   1.0000   1.0000   1.0000   1.0000
     1.0000   1.0000   1.0000   1.0000   1.0000   1.0000   1.0000   1.0000
     1.0000   1.0000   1.0000   1.0000   1.0000   1.0000   1.0000   1.0000
     1.0000   1.0000   1.0000   1.0000   1.0000   1.0000   1.0000   1.0000
     1.0000   1.0000   1.0000   1.0000   1.0000   1.0000   1.0000   1.0000
     1.0000   1.0000   1.0000   1.0000   1.0000   1.0000   1.0000   1.0000
     1.0000   1.0000   1.0000   1.0000   1.0000   1.0000   1.0000   1.0000
     1.0000   1.0000   1.0000   1.0000   1.0000   1.0000   1.0000   1.0000
     1.0000   1.0000   1.0000   1.0000   1.0000   1.0000   1.0000   1.0000
     1.0000   1.0000   1.0000   1.0000   1.0000   1.0000   1.0000   1.0000
     0.0000   0.0000   0.0000   0.0000   0.0000   0.0000   0.0000   0.0000
     0.0000   0.0000

          k = 0.0000 0.0000 0.2454 ( 38275 PWs)   bands (ev):

   -85.9786 -85.8902 -85.8891 -85.5850 -52.0548 -51.9923 -51.9866 -51.9234
   -51.9020 -51.9006 -51.8715 -51.8263 -51.8143 -51.7592 -51.5379 -51.3200
   -45.5850 -17.5946 -17.5374 -17.5266 -16.4290 -16.3036 -16.1227 -16.0375
   -14.1969 -14.1500 -13.9669 -13.9425 -13.9136 -13.8582 -13.7623 -13.6770
   -13.6573 -13.5595 -13.4720 -13.4232  -4.5149  -4.1063  -3.9862  -3.6712
    -2.4869  -2.3132  -2.1078  -2.0720  -1.8635  -1.7149  -1.6515  -1.5664
    -1.4565  -1.1940  -1.1728  -0.8922  -0.8419  -0.7549  -0.3054  -0.2530
    -0.0998  -0.0384   0.0282   0.2398   0.3226   0.3561   0.4476   0.5627
     0.6404   0.7552   0.7604   0.9816   1.0919   1.1645   1.2067   1.2562
     1.3792   1.4604   1.4816   1.6417   1.7766   1.8211   1.8802   2.0424
     2.0907   2.1836   2.2148   2.2798   2.3615   2.4577   2.5003   2.5869
     2.6994   2.7686   2.8263   2.8586   2.9211   3.1716   3.2194   3.3201
     3.3750   3.4465   3.5560   3.5953   3.6275   3.7718   4.0878   4.2097
     8.1335  10.1169  10.5322  10.8146  11.2649  11.6679  12.0623  12.2894
    12.4415  12.6500

     occupation numbers 
     1.0000   1.0000   1.0000   1.0000   1.0000   1.0000   1.0000   1.0000
     1.0000   1.0000   1.0000   1.0000   1.0000   1.0000   1.0000   1.0000
     1.0000   1.0000   1.0000   1.0000   1.0000   1.0000   1.0000   1.0000
     1.0000   1.0000   1.0000   1.0000   1.0000   1.0000   1.0000   1.0000
     1.0000   1.0000   1.0000   1.0000   1.0000   1.0000   1.0000   1.0000
     1.0000   1.0000   1.0000   1.0000   1.0000   1.0000   1.0000   1.0000
     1.0000   1.0000   1.0000   1.0000   1.0000   1.0000   1.0000   1.0000
     1.0000   1.0000   1.0000   1.0000   1.0000   1.0000   1.0000   1.0000
     1.0000   1.0000   1.0000   1.0000   1.0000   1.0000   1.0000   1.0000
     1.0000   1.0000   1.0000   1.0000   1.0000   1.0000   1.0000   1.0000
     1.0000   1.0000   1.0000   1.0000   1.0000   1.0000   1.0000   1.0000
     1.0000   1.0000   1.0000   1.0000   1.0000   1.0000   1.0000   1.0000
     1.0000   1.0000   1.0000   1.0000   1.0000   1.0000   1.0000   1.0000
     0.0000   0.0000   0.0000   0.0000   0.0000   0.0000   0.0000   0.0000
     0.0000   0.0000

          k = 0.0000 0.0000 0.4908 ( 38314 PWs)   bands (ev):

   -85.9786 -85.8902 -85.8891 -85.5850 -52.0548 -51.9923 -51.9866 -51.9234
   -51.9020 -51.9006 -51.8715 -51.8263 -51.8143 -51.7592 -51.5379 -51.3200
   -45.5850 -17.5942 -17.5465 -17.5259 -16.3923 -16.2767 -16.1071 -16.0302
   -14.2287 -14.1858 -14.0080 -13.9535 -13.9333 -13.8476 -13.7723 -13.6865
   -13.6537 -13.5523 -13.4660 -13.4252  -4.4550  -4.0910  -3.9870  -3.7064
    -2.3780  -2.2732  -2.0491  -2.0116  -1.8462  -1.7326  -1.6611  -1.5497
    -1.3053  -1.2838  -1.1063  -0.9690  -0.8175  -0.6967  -0.2576  -0.2004
    -0.0797   0.0004   0.0450   0.2250   0.2670   0.3548   0.3701   0.5744
     0.6417   0.7204   0.7668   0.9474   0.9842   1.0621   1.1453   1.2041
     1.2719   1.3370   1.6218   1.6314   1.7159   1.7559   1.9447   1.9903
     2.1184   2.1408   2.1971   2.2540   2.2882   2.4134   2.4973   2.5776
     2.6321   2.8240   2.8438   2.9302   2.9519   3.1975   3.2371   3.3280
     3.4281   3.5047   3.5799   3.5904   3.6386   3.7917   4.0152   4.1442
     8.5128  10.3079  10.5745  10.8670  11.3934  11.5850  11.8962  12.2552
    12.2898  12.4418

     occupation numbers 
     1.0000   1.0000   1.0000   1.0000   1.0000   1.0000   1.0000   1.0000
     1.0000   1.0000   1.0000   1.0000   1.0000   1.0000   1.0000   1.0000
     1.0000   1.0000   1.0000   1.0000   1.0000   1.0000   1.0000   1.0000
     1.0000   1.0000   1.0000   1.0000   1.0000   1.0000   1.0000   1.0000
     1.0000   1.0000   1.0000   1.0000   1.0000   1.0000   1.0000   1.0000
     1.0000   1.0000   1.0000   1.0000   1.0000   1.0000   1.0000   1.0000
     1.0000   1.0000   1.0000   1.0000   1.0000   1.0000   1.0000   1.0000
     1.0000   1.0000   1.0000   1.0000   1.0000   1.0000   1.0000   1.0000
     1.0000   1.0000   1.0000   1.0000   1.0000   1.0000   1.0000   1.0000
     1.0000   1.0000   1.0000   1.0000   1.0000   1.0000   1.0000   1.0000
     1.0000   1.0000   1.0000   1.0000   1.0000   1.0000   1.0000   1.0000
     1.0000   1.0000   1.0000   1.0000   1.0000   1.0000   1.0000   1.0000
     1.0000   1.0000   1.0000   1.0000   1.0000   1.0000   1.0000   1.0000
     0.0000   0.0000   0.0000   0.0000   0.0000   0.0000   0.0000   0.0000
     0.0000   0.0000

          k = 0.0000 0.0000 0.7363 ( 38338 PWs)   bands (ev):

   -85.9786 -85.8902 -85.8891 -85.5850 -52.0548 -51.9923 -51.9866 -51.9234
   -51.9020 -51.9006 -51.8715 -51.8263 -51.8143 -51.7592 -51.5379 -51.3200
   -45.5849 -17.5941 -17.5561 -17.5253 -16.3467 -16.2455 -16.0870 -16.0263
   -14.2645 -14.2266 -14.0570 -14.0002 -13.9193 -13.8335 -13.7855 -13.6995
   -13.6502 -13.5433 -13.4593 -13.4281  -4.3626  -4.0729  -4.0010  -3.7749
    -2.2956  -2.1439  -2.0465  -1.9120  -1.8058  -1.7441  -1.6492  -1.5273
    -1.4102  -1.1280  -1.1164  -0.9781  -0.6980  -0.5933  -0.1841  -0.1342
    -0.0921   0.0102   0.0843   0.1758   0.2358   0.2565   0.3957   0.5644
     0.6426   0.6625   0.8060   0.8351   0.8824   0.8975   0.9625   1.0935
     1.2536   1.3214   1.5921   1.6011   1.7350   1.8150   1.8682   2.0219
     2.0325   2.0840   2.1399   2.2024   2.2762   2.2989   2.3994   2.5015
     2.7160   2.8760   2.8954   3.0818   3.1451   3.1863   3.2611   3.3386
     3.4688   3.5553   3.5963   3.6168   3.6799   3.8080   3.8905   4.0353
     9.0249  10.4081  10.6473  10.9958  11.3778  11.6257  11.7435  12.1357
    12.1751  12.3194

     occupation numbers 
     1.0000   1.0000   1.0000   1.0000   1.0000   1.0000   1.0000   1.0000
     1.0000   1.0000   1.0000   1.0000   1.0000   1.0000   1.0000   1.0000
     1.0000   1.0000   1.0000   1.0000   1.0000   1.0000   1.0000   1.0000
     1.0000   1.0000   1.0000   1.0000   1.0000   1.0000   1.0000   1.0000
     1.0000   1.0000   1.0000   1.0000   1.0000   1.0000   1.0000   1.0000
     1.0000   1.0000   1.0000   1.0000   1.0000   1.0000   1.0000   1.0000
     1.0000   1.0000   1.0000   1.0000   1.0000   1.0000   1.0000   1.0000
     1.0000   1.0000   1.0000   1.0000   1.0000   1.0000   1.0000   1.0000
     1.0000   1.0000   1.0000   1.0000   1.0000   1.0000   1.0000   1.0000
     1.0000   1.0000   1.0000   1.0000   1.0000   1.0000   1.0000   1.0000
     1.0000   1.0000   1.0000   1.0000   1.0000   1.0000   1.0000   1.0000
     1.0000   1.0000   1.0000   1.0000   1.0000   1.0000   1.0000   1.0000
     1.0000   1.0000   1.0000   1.0000   1.0000   1.0000   1.0000   1.0000
     0.0000   0.0000   0.0000   0.0000   0.0000   0.0000   0.0000   0.0000
     0.0000   0.0000

          k = 0.0000 0.0000 0.9817 ( 38334 PWs)   bands (ev):

   -85.9786 -85.8902 -85.8891 -85.5850 -52.0548 -51.9923 -51.9866 -51.9234
   -51.9020 -51.9006 -51.8715 -51.8263 -51.8143 -51.7592 -51.5379 -51.3200
   -45.5849 -17.5944 -17.5619 -17.5249 -16.3133 -16.2260 -16.0688 -16.0301
   -14.2873 -14.2532 -14.0898 -14.0317 -13.9080 -13.8229 -13.7955 -13.7099
   -13.6482 -13.5370 -13.4547 -13.4306  -4.2598  -4.1127  -3.9764  -3.8523
    -2.2484  -2.0936  -1.9859  -1.8519  -1.7518  -1.7322  -1.6471  -1.5976
    -1.3924  -1.2770  -0.9891  -0.8776  -0.5369  -0.4120  -0.1887  -0.1546
    -0.0912  -0.0496   0.0701   0.1190   0.2268   0.3258   0.4206   0.4769
     0.5875   0.6259   0.6920   0.7445   0.8164   0.8603   0.8839   1.0593
     1.2494   1.3867   1.5033   1.5475   1.7495   1.8280   1.9119   1.9351
     1.9870   2.0854   2.1044   2.1407   2.2306   2.2350   2.3555   2.4810
     2.7615   2.8708   2.9532   3.1602   3.2236   3.2715   3.3479   3.4249
     3.4759   3.5267   3.6345   3.6705   3.7248   3.7450   3.8086   3.9022
     9.5640  10.1034  10.9125  11.1420  11.2737  11.4429  11.8311  12.0883
    12.1572  12.2781

     occupation numbers 
     1.0000   1.0000   1.0000   1.0000   1.0000   1.0000   1.0000   1.0000
     1.0000   1.0000   1.0000   1.0000   1.0000   1.0000   1.0000   1.0000
     1.0000   1.0000   1.0000   1.0000   1.0000   1.0000   1.0000   1.0000
     1.0000   1.0000   1.0000   1.0000   1.0000   1.0000   1.0000   1.0000
     1.0000   1.0000   1.0000   1.0000   1.0000   1.0000   1.0000   1.0000
     1.0000   1.0000   1.0000   1.0000   1.0000   1.0000   1.0000   1.0000
     1.0000   1.0000   1.0000   1.0000   1.0000   1.0000   1.0000   1.0000
     1.0000   1.0000   1.0000   1.0000   1.0000   1.0000   1.0000   1.0000
     1.0000   1.0000   1.0000   1.0000   1.0000   1.0000   1.0000   1.0000
     1.0000   1.0000   1.0000   1.0000   1.0000   1.0000   1.0000   1.0000
     1.0000   1.0000   1.0000   1.0000   1.0000   1.0000   1.0000   1.0000
     1.0000   1.0000   1.0000   1.0000   1.0000   1.0000   1.0000   1.0000
     1.0000   1.0000   1.0000   1.0000   1.0000   1.0000   1.0000   1.0000
     0.0000   0.0000   0.0000   0.0000   0.0000   0.0000   0.0000   0.0000
     0.0000   0.0000

          k = 0.0000 0.2510 0.0000 ( 38299 PWs)   bands (ev):

   -85.9786 -85.8902 -85.8891 -85.5850 -52.0548 -51.9923 -51.9866 -51.9234
   -51.9020 -51.9006 -51.8715 -51.8263 -51.8143 -51.7592 -51.5379 -51.3200
   -45.5850 -17.5947 -17.5336 -17.5274 -16.4293 -16.3098 -16.1283 -16.0542
   -14.1818 -14.1336 -13.9639 -13.9387 -13.9019 -13.8637 -13.7909 -13.7070
   -13.6215 -13.5502 -13.4638 -13.4216  -4.5069  -4.0849  -4.0113  -3.6727
    -2.4993  -2.3063  -2.1465  -2.0967  -1.8534  -1.7002  -1.6123  -1.5507
    -1.4973  -1.2314  -1.1216  -0.9017  -0.8297  -0.7411  -0.2762  -0.2299
    -0.1293  -0.0843  -0.0027   0.1128   0.2449   0.4476   0.5472   0.5952
     0.6789   0.7503   0.7741   0.9372   0.9704   1.0333   1.1960   1.2818
     1.3811   1.5635   1.6490   1.6964   1.7627   1.7910   1.8859   1.9227
     2.1124   2.1586   2.2086   2.2767   2.3561   2.4548   2.5898   2.6491
     2.7110   2.7368   2.7822   2.9157   2.9471   3.1404   3.2101   3.2968
     3.3184   3.4328   3.5240   3.5861   3.6217   3.8013   4.1059   4.2000
     8.1515  10.1352  10.5708  10.7296  11.2922  11.6918  12.1607  12.3630
    12.4508  12.6755

     occupation numbers 
     1.0000   1.0000   1.0000   1.0000   1.0000   1.0000   1.0000   1.0000
     1.0000   1.0000   1.0000   1.0000   1.0000   1.0000   1.0000   1.0000
     1.0000   1.0000   1.0000   1.0000   1.0000   1.0000   1.0000   1.0000
     1.0000   1.0000   1.0000   1.0000   1.0000   1.0000   1.0000   1.0000
     1.0000   1.0000   1.0000   1.0000   1.0000   1.0000   1.0000   1.0000
     1.0000   1.0000   1.0000   1.0000   1.0000   1.0000   1.0000   1.0000
     1.0000   1.0000   1.0000   1.0000   1.0000   1.0000   1.0000   1.0000
     1.0000   1.0000   1.0000   1.0000   1.0000   1.0000   1.0000   1.0000
     1.0000   1.0000   1.0000   1.0000   1.0000   1.0000   1.0000   1.0000
     1.0000   1.0000   1.0000   1.0000   1.0000   1.0000   1.0000   1.0000
     1.0000   1.0000   1.0000   1.0000   1.0000   1.0000   1.0000   1.0000
     1.0000   1.0000   1.0000   1.0000   1.0000   1.0000   1.0000   1.0000
     1.0000   1.0000   1.0000   1.0000   1.0000   1.0000   1.0000   1.0000
     0.0000   0.0000   0.0000   0.0000   0.0000   0.0000   0.0000   0.0000
     0.0000   0.0000

          k = 0.0000 0.2510 0.2454 ( 38259 PWs)   bands (ev):

   -85.9786 -85.8902 -85.8891 -85.5850 -52.0548 -51.9923 -51.9866 -51.9234
   -51.9020 -51.9006 -51.8715 -51.8263 -51.8143 -51.7592 -51.5379 -51.3200
   -45.5850 -17.5945 -17.5373 -17.5270 -16.4165 -16.2996 -16.1222 -16.0495
   -14.1959 -14.1477 -13.9750 -13.9420 -13.9189 -13.8574 -13.7890 -13.7087
   -13.6223 -13.5501 -13.4619 -13.4223  -4.4868  -4.0818  -4.0051  -3.6811
    -2.4580  -2.2964  -2.1115  -2.0780  -1.8484  -1.7147  -1.6299  -1.5271
    -1.4448  -1.2014  -1.1631  -0.9153  -0.8353  -0.7299  -0.2650  -0.2183
    -0.1286  -0.0667  -0.0020   0.1178   0.2410   0.4412   0.5048   0.5886
     0.6872   0.7220   0.7791   0.9294   0.9553   1.0210   1.1652   1.2662
     1.4544   1.4986   1.6048   1.6898   1.7501   1.7978   1.8555   1.9825
     2.0831   2.1591   2.2147   2.2652   2.3404   2.4312   2.5516   2.6450
     2.6772   2.7507   2.7939   2.9037   2.9313   3.1702   3.2237   3.3069
     3.3304   3.4546   3.5208   3.6008   3.6250   3.8062   4.0907   4.1851
     8.2878  10.2075  10.5874  10.7694  11.3356  11.6511  12.1205  12.3106
    12.4321  12.6320

     occupation numbers 
     1.0000   1.0000   1.0000   1.0000   1.0000   1.0000   1.0000   1.0000
     1.0000   1.0000   1.0000   1.0000   1.0000   1.0000   1.0000   1.0000
     1.0000   1.0000   1.0000   1.0000   1.0000   1.0000   1.0000   1.0000
     1.0000   1.0000   1.0000   1.0000   1.0000   1.0000   1.0000   1.0000
     1.0000   1.0000   1.0000   1.0000   1.0000   1.0000   1.0000   1.0000
     1.0000   1.0000   1.0000   1.0000   1.0000   1.0000   1.0000   1.0000
     1.0000   1.0000   1.0000   1.0000   1.0000   1.0000   1.0000   1.0000
     1.0000   1.0000   1.0000   1.0000   1.0000   1.0000   1.0000   1.0000
     1.0000   1.0000   1.0000   1.0000   1.0000   1.0000   1.0000   1.0000
     1.0000   1.0000   1.0000   1.0000   1.0000   1.0000   1.0000   1.0000
     1.0000   1.0000   1.0000   1.0000   1.0000   1.0000   1.0000   1.0000
     1.0000   1.0000   1.0000   1.0000   1.0000   1.0000   1.0000   1.0000
     1.0000   1.0000   1.0000   1.0000   1.0000   1.0000   1.0000   1.0000
     0.0000   0.0000   0.0000   0.0000   0.0000   0.0000   0.0000   0.0000
     0.0000   0.0000

          k = 0.0000 0.2510 0.4908 ( 38306 PWs)   bands (ev):

   -85.9786 -85.8902 -85.8891 -85.5850 -52.0548 -51.9923 -51.9866 -51.9234
   -51.9020 -51.9006 -51.8715 -51.8263 -51.8143 -51.7592 -51.5379 -51.3200
   -45.5850 -17.5940 -17.5463 -17.5262 -16.3817 -16.2731 -16.1059 -16.0395
   -14.2298 -14.1848 -14.0204 -13.9611 -13.9283 -13.8458 -13.7904 -13.7137
   -13.6246 -13.5455 -13.4571 -13.4242  -4.4286  -4.0713  -3.9971  -3.7143
    -2.3533  -2.2527  -2.0531  -2.0163  -1.8311  -1.7353  -1.6355  -1.5076
    -1.3015  -1.2733  -1.1092  -1.0013  -0.7983  -0.6914  -0.2312  -0.1893
    -0.1290  -0.0483   0.0104   0.1545   0.2483   0.3984   0.4403   0.5800
     0.6718   0.7011   0.7732   0.8902   0.9208   0.9934   1.0942   1.2632
     1.2836   1.4460   1.6040   1.6441   1.7164   1.7739   1.9133   1.9768
     2.0481   2.1684   2.2034   2.2250   2.2880   2.3816   2.4720   2.5547
     2.6715   2.7915   2.8304   2.9268   2.9834   3.1903   3.2438   3.3280
     3.3866   3.4949   3.5315   3.6030   3.6691   3.8133   4.0454   4.1355
     8.6517  10.3923  10.6299  10.8636  11.4496  11.5944  11.9539  12.1932
    12.3602  12.4683

     occupation numbers 
     1.0000   1.0000   1.0000   1.0000   1.0000   1.0000   1.0000   1.0000
     1.0000   1.0000   1.0000   1.0000   1.0000   1.0000   1.0000   1.0000
     1.0000   1.0000   1.0000   1.0000   1.0000   1.0000   1.0000   1.0000
     1.0000   1.0000   1.0000   1.0000   1.0000   1.0000   1.0000   1.0000
     1.0000   1.0000   1.0000   1.0000   1.0000   1.0000   1.0000   1.0000
     1.0000   1.0000   1.0000   1.0000   1.0000   1.0000   1.0000   1.0000
     1.0000   1.0000   1.0000   1.0000   1.0000   1.0000   1.0000   1.0000
     1.0000   1.0000   1.0000   1.0000   1.0000   1.0000   1.0000   1.0000
     1.0000   1.0000   1.0000   1.0000   1.0000   1.0000   1.0000   1.0000
     1.0000   1.0000   1.0000   1.0000   1.0000   1.0000   1.0000   1.0000
     1.0000   1.0000   1.0000   1.0000   1.0000   1.0000   1.0000   1.0000
     1.0000   1.0000   1.0000   1.0000   1.0000   1.0000   1.0000   1.0000
     1.0000   1.0000   1.0000   1.0000   1.0000   1.0000   1.0000   1.0000
     0.0000   0.0000   0.0000   0.0000   0.0000   0.0000   0.0000   0.0000
     0.0000   0.0000

          k = 0.0000 0.2510 0.7363 ( 38323 PWs)   bands (ev):

   -85.9786 -85.8902 -85.8891 -85.5850 -52.0548 -51.9923 -51.9866 -51.9234
   -51.9020 -51.9006 -51.8715 -51.8263 -51.8143 -51.7592 -51.5379 -51.3200
   -45.5849 -17.5939 -17.5559 -17.5256 -16.3386 -16.2420 -16.0855 -16.0318
   -14.2673 -14.2274 -14.0715 -14.0079 -13.9137 -13.8316 -13.7968 -13.7215
   -13.6270 -13.5380 -13.4518 -13.4269  -4.3399  -4.0644  -3.9936  -3.7782
    -2.2733  -2.1260  -2.0452  -1.9145  -1.7954  -1.7436  -1.6264  -1.4932
    -1.3906  -1.1377  -1.1211  -0.9771  -0.7124  -0.6149  -0.2502  -0.1501
    -0.1168  -0.0647   0.0925   0.2246   0.2587   0.3200   0.4138   0.5772
     0.6183   0.6970   0.7710   0.8216   0.8652   0.9227   0.9587   1.0550
     1.2499   1.3557   1.5350   1.6359   1.7585   1.7837   1.8474   1.9654
     2.0253   2.1319   2.1693   2.2119   2.2380   2.2821   2.3895   2.4859
     2.6986   2.8008   2.9013   3.0415   3.1272   3.1893   3.2692   3.3427
     3.4125   3.5280   3.5896   3.6068   3.7283   3.8157   3.9730   4.0525
     9.1478  10.4901  10.7123  11.0252  11.4211  11.6958  11.7716  12.1050
    12.1935  12.3041

     occupation numbers 
     1.0000   1.0000   1.0000   1.0000   1.0000   1.0000   1.0000   1.0000
     1.0000   1.0000   1.0000   1.0000   1.0000   1.0000   1.0000   1.0000
     1.0000   1.0000   1.0000   1.0000   1.0000   1.0000   1.0000   1.0000
     1.0000   1.0000   1.0000   1.0000   1.0000   1.0000   1.0000   1.0000
     1.0000   1.0000   1.0000   1.0000   1.0000   1.0000   1.0000   1.0000
     1.0000   1.0000   1.0000   1.0000   1.0000   1.0000   1.0000   1.0000
     1.0000   1.0000   1.0000   1.0000   1.0000   1.0000   1.0000   1.0000
     1.0000   1.0000   1.0000   1.0000   1.0000   1.0000   1.0000   1.0000
     1.0000   1.0000   1.0000   1.0000   1.0000   1.0000   1.0000   1.0000
     1.0000   1.0000   1.0000   1.0000   1.0000   1.0000   1.0000   1.0000
     1.0000   1.0000   1.0000   1.0000   1.0000   1.0000   1.0000   1.0000
     1.0000   1.0000   1.0000   1.0000   1.0000   1.0000   1.0000   1.0000
     1.0000   1.0000   1.0000   1.0000   1.0000   1.0000   1.0000   1.0000
     0.0000   0.0000   0.0000   0.0000   0.0000   0.0000   0.0000   0.0000
     0.0000   0.0000

          k = 0.0000 0.2510 0.9817 ( 38330 PWs)   bands (ev):

   -85.9786 -85.8902 -85.8891 -85.5850 -52.0548 -51.9923 -51.9866 -51.9234
   -51.9020 -51.9006 -51.8715 -51.8263 -51.8143 -51.7592 -51.5379 -51.3200
   -45.5849 -17.5941 -17.5617 -17.5251 -16.3077 -16.2211 -16.0693 -16.0313
   -14.2912 -14.2553 -14.1052 -14.0394 -13.9024 -13.8208 -13.8042 -13.7286
   -13.6285 -13.5315 -13.4480 -13.4291  -4.2445  -4.1012  -3.9675  -3.8476
    -2.2291  -2.0804  -1.9781  -1.8506  -1.7613  -1.7250  -1.6231  -1.5632
    -1.3717  -1.2728  -0.9953  -0.8739  -0.5965  -0.4727  -0.3426  -0.2714
    -0.0248   0.0197   0.1355   0.2052   0.2538   0.3658   0.4568   0.4833
     0.5967   0.6328   0.7028   0.7442   0.7970   0.8230   0.8905   0.9990
[...]
     atom   24 type  3   force =    -0.00885930    0.00656161    0.00455165
     atom   25 type  3   force =     0.00794061   -0.00414760    0.00485824
     The non-local contrib.  to forces
     atom    1 type  2   force =     0.10122127   -0.03315784   -0.04519665
     atom    2 type  1   force =     0.08174717   -0.01723994    0.13481939
     atom    3 type  1   force =     0.02149962    0.00068249    0.11541260
     atom    4 type  1   force =    -0.22949703    0.04594925   -0.06862096
     atom    5 type  1   force =    -0.00175493   -0.00749507   -0.11723933
     atom    6 type  4   force =    -0.08792651   -0.00048401   -0.07175380
     atom    7 type  4   force =     0.10469614   -0.00095182   -0.04312066
     atom    8 type  4   force =     0.06138649   -0.00358316    0.08111640
     atom    9 type  4   force =    -0.06429413    0.00158323    0.07845828
     atom   10 type  3   force =     0.28747878    0.01178404   -1.54041525
     atom   11 type  3   force =    -0.07330499    0.00586055   -1.47218902
     atom   12 type  3   force =    -0.38384085   -0.01492627    1.53994267
     atom   13 type  3   force =     0.20508368    0.01326927    1.53924695
     atom   14 type  3   force =     1.26765868    0.00514152   -0.56402981
     atom   15 type  3   force =    -1.24689709   -0.01127930   -0.73183325
     atom   16 type  3   force =    -1.24236138    0.02534589    0.25226258
     atom   17 type  3   force =     1.21270662    0.00526563    0.58348714
     atom   18 type  3   force =    -0.56134097   -1.04744679    0.76943000
     atom   19 type  3   force =     0.58071508    1.09292364    0.81698695
     atom   20 type  3   force =     0.61606946   -1.05567952   -0.67020650
     atom   21 type  3   force =    -0.63753137    1.01325495   -0.63822131
     atom   22 type  3   force =     0.56653660    1.04639547   -0.65016494
     atom   23 type  3   force =    -0.56299942   -1.01852487   -0.72807465
     atom   24 type  3   force =    -0.56422180    1.05314279    0.76340829
     atom   25 type  3   force =     0.55060956   -1.12250803    0.80142384
     The ionic contribution  to forces
     atom    1 type  2   force =    -3.92289541   -0.32091428    1.79760970
     atom    2 type  1   force =     0.97650479    0.03516839   -0.12254347
     atom    3 type  1   force =    -9.30917831   -0.24424511   -0.15509386
     atom    4 type  1   force =     2.68176657   -0.34802482   -0.14774134
     atom    5 type  1   force =     9.98894990    0.40073885    0.23926950
     atom    6 type  4   force =    -4.72928293    0.01135925   -0.02638621
     atom    7 type  4   force =     1.82026621   -0.38631489    0.11575670
     atom    8 type  4   force =     6.28095939    0.05049843   -0.12480657
     atom    9 type  4   force =    -3.87369920    0.46947220   -0.37389152
     atom   10 type  3   force =   -10.17297998   -0.04054520    3.24534136
     atom   11 type  3   force =     4.05594434   -0.61687887    2.09221249
     atom   12 type  3   force =    12.11813896    0.15880217   -3.32674002
     atom   13 type  3   force =    -8.19851894    0.49863977   -2.76028966
     atom   14 type  3   force =     0.52774543    0.55347862    4.69102866
     atom   15 type  3   force =    -1.94827425    0.06365761    6.06581884
     atom   16 type  3   force =    -2.01399336   -0.96379176   -1.97096215
     atom   17 type  3   force =     3.56132942   -0.06861115   -5.33051101
     atom   18 type  3   force =    -4.54067828    2.52166605   -3.07008826
     atom   19 type  3   force =     1.47159182   -3.56610373   -2.93389303
     atom   20 type  3   force =     5.81776495    3.94733469    2.49546573
     atom   21 type  3   force =    -0.77205459   -1.07778559    0.77808412
     atom   22 type  3   force =     5.90937615   -3.85902811    2.24803157
     atom   23 type  3   force =    -2.27849642    1.48950725    2.15296144
     atom   24 type  3   force =    -4.62079244   -2.61238156   -3.01935107
     atom   25 type  3   force =     1.17050615    3.90430181   -2.55928196
     The local contribution  to forces
     atom    1 type  2   force =     3.81545626    0.35736949   -1.75898412
     atom    2 type  1   force =    -1.05315390   -0.01836388   -0.01785327
     atom    3 type  1   force =     9.27457471    0.24388690    0.03989478
     atom    4 type  1   force =    -2.44752189    0.30185801    0.22511941
     atom    5 type  1   force =    -9.97242840   -0.39454888   -0.12218963
     atom    6 type  4   force =     4.75178077   -0.01118750    0.07922136
     atom    7 type  4   force =    -1.86360917    0.38702357   -0.08524448
     atom    8 type  4   force =    -6.27981647   -0.04624925    0.06852494
     atom    9 type  4   force =     3.87631386   -0.47036728    0.31373208
     atom   10 type  3   force =     9.90045681    0.02879882   -1.71433944
     atom   11 type  3   force =    -3.98496043    0.61157502   -0.62901983
     atom   12 type  3   force =   -11.75146697   -0.14485151    1.79438648
     atom   13 type  3   force =     8.00283699   -0.51167611    1.23325690
     atom   14 type  3   force =    -1.70705526   -0.55903062   -4.14627016
     atom   15 type  3   force =     3.11022768   -0.05290181   -5.36437920
     atom   16 type  3   force =     3.16258782    0.93868677    1.73095059
     atom   17 type  3   force =    -4.69196308    0.06346675    4.76896408
     atom   18 type  3   force =     5.08803912   -1.48990438    2.31251928
     atom   19 type  3   force =    -2.03872228    2.48571045    2.12960898
     atom   20 type  3   force =    -6.41599449   -2.90781711   -1.83600115
     atom   21 type  3   force =     1.39289560    0.07892526   -0.14730043
     atom   22 type  3   force =    -6.45947739    2.82703048   -1.60789269
     atom   23 type  3   force =     2.82587690   -0.48387563   -1.43467322
     atom   24 type  3   force =     5.17105162    1.57507292    2.26756327
     atom   25 type  3   force =    -1.70828143   -2.79581107    1.77015684
     The core correction contribution to forces
     atom    1 type  2   force =     0.00000000    0.00000000    0.00000000
     atom    2 type  1   force =    -0.00138414    0.00014616   -0.00060466
     atom    3 type  1   force =    -0.00014288    0.00000233   -0.00070172
     atom    4 type  1   force =     0.00418456   -0.00047047   -0.00040393
     atom    5 type  1   force =    -0.00041489    0.00010997    0.00080767
     atom    6 type  4   force =     0.00870456    0.00004432    0.00598499
     atom    7 type  4   force =    -0.00976643    0.00018103    0.00379603
     atom    8 type  4   force =    -0.00684709    0.00017736   -0.00674135
     atom    9 type  4   force =     0.00686048   -0.00034588   -0.00631579
     atom   10 type  3   force =    -0.00336379   -0.00011181    0.01352943
     atom   11 type  3   force =     0.00137203   -0.00005325    0.01277862
     atom   12 type  3   force =     0.00425347    0.00015964   -0.01344759
     atom   13 type  3   force =    -0.00259907   -0.00012661   -0.01349255
     atom   14 type  3   force =    -0.01209174   -0.00006401    0.00583145
     atom   15 type  3   force =     0.01188475    0.00011322    0.00745644
     atom   16 type  3   force =     0.01182913   -0.00020473   -0.00274391
     atom   17 type  3   force =    -0.01164901   -0.00005212   -0.00601173
     atom   18 type  3   force =     0.00507081    0.00920180   -0.00713706
     atom   19 type  3   force =    -0.00518899   -0.00954224   -0.00758894
     atom   20 type  3   force =    -0.00566239    0.00929759    0.00617049
     atom   21 type  3   force =     0.00576099   -0.00896298    0.00592823
     atom   22 type  3   force =    -0.00518725   -0.00920474    0.00597476
     atom   23 type  3   force =     0.00509643    0.00896020    0.00680341
     atom   24 type  3   force =     0.00510061   -0.00926853   -0.00706822
     atom   25 type  3   force =    -0.00489004    0.00987202   -0.00743688
     The Hubbard contrib.    to forces
     atom    1 type  2   force =     0.00000000    0.00000000    0.00000000
     atom    2 type  1   force =     0.00000000    0.00000000    0.00000000
     atom    3 type  1   force =     0.00000000    0.00000000    0.00000000
     atom    4 type  1   force =     0.00000000    0.00000000    0.00000000
     atom    5 type  1   force =     0.00000000    0.00000000    0.00000000
     atom    6 type  4   force =     0.00000000    0.00000000    0.00000000
     atom    7 type  4   force =     0.00000000    0.00000000    0.00000000
     atom    8 type  4   force =     0.00000000    0.00000000    0.00000000
     atom    9 type  4   force =     0.00000000    0.00000000    0.00000000
     atom   10 type  3   force =     0.00000000    0.00000000    0.00000000
     atom   11 type  3   force =     0.00000000    0.00000000    0.00000000
     atom   12 type  3   force =     0.00000000    0.00000000    0.00000000
     atom   13 type  3   force =     0.00000000    0.00000000    0.00000000
     atom   14 type  3   force =     0.00000000    0.00000000    0.00000000
     atom   15 type  3   force =     0.00000000    0.00000000    0.00000000
     atom   16 type  3   force =     0.00000000    0.00000000    0.00000000
     atom   17 type  3   force =     0.00000000    0.00000000    0.00000000
     atom   18 type  3   force =     0.00000000    0.00000000    0.00000000
     atom   19 type  3   force =     0.00000000    0.00000000    0.00000000
     atom   20 type  3   force =     0.00000000    0.00000000    0.00000000
     atom   21 type  3   force =     0.00000000    0.00000000    0.00000000
     atom   22 type  3   force =     0.00000000    0.00000000    0.00000000
     atom   23 type  3   force =     0.00000000    0.00000000    0.00000000
     atom   24 type  3   force =     0.00000000    0.00000000    0.00000000
     atom   25 type  3   force =     0.00000000    0.00000000    0.00000000
     The SCF correction term to forces
     atom    1 type  2   force =    -0.00000840   -0.00000009    0.00000051
     atom    2 type  1   force =    -0.00000094   -0.00000016    0.00000006
     atom    3 type  1   force =     0.00000393   -0.00000000    0.00000003
     atom    4 type  1   force =    -0.00000520    0.00000032    0.00000094
     atom    5 type  1   force =     0.00000241   -0.00000001   -0.00000080
     atom    6 type  4   force =     0.00000351    0.00000001   -0.00000007
     atom    7 type  4   force =    -0.00000406    0.00000003   -0.00000026
     atom    8 type  4   force =     0.00000406   -0.00000003    0.00000002
     atom    9 type  4   force =    -0.00000413   -0.00000007   -0.00000012
     atom   10 type  3   force =     0.00000367   -0.00000000    0.00000006
     atom   11 type  3   force =    -0.00000636    0.00000002    0.00000226
     atom   12 type  3   force =     0.00000453    0.00000002    0.00000031
     atom   13 type  3   force =    -0.00000527   -0.00000003    0.00000125
     atom   14 type  3   force =    -0.00000434   -0.00000002   -0.00000012
     atom   15 type  3   force =     0.00000921   -0.00000004   -0.00000135
     atom   16 type  3   force =    -0.00000560    0.00000003   -0.00000043
     atom   17 type  3   force =     0.00000613   -0.00000001   -0.00000071
     atom   18 type  3   force =     0.00000294    0.00000410    0.00000129
     atom   19 type  3   force =    -0.00000327    0.00000235   -0.00000162
     atom   20 type  3   force =     0.00000262   -0.00000078    0.00000009
     atom   21 type  3   force =    -0.00000396    0.00000018   -0.00000059
     atom   22 type  3   force =     0.00000276    0.00000081    0.00000013
     atom   23 type  3   force =    -0.00000397   -0.00000031   -0.00000056
     atom   24 type  3   force =     0.00000293   -0.00000402    0.00000127
     atom   25 type  3   force =    -0.00000341   -0.00000235   -0.00000170

     Total force =     0.197083     Total SCF correction =     0.000025


     Computing stress (Cartesian axis) and pressure


     negative rho (up, down):  0.000E+00 9.365E-04
          total   stress  (Ry/bohr**3)                   (kbar)     P=      -94.95
  -0.00128791   0.00000095  -0.00002635         -189.46        0.14       -3.88
   0.00000095  -0.00042505  -0.00001127            0.14      -62.53       -1.66
  -0.00002635  -0.00001127  -0.00022342           -3.88       -1.66      -32.87

     kinetic stress (kbar)  24874.64     -3.23    -12.48
                               -3.23  25203.46     -2.90
                              -12.48     -2.90  25033.95

     local   stress (kbar)  -2668.09   -881.44   1148.31
                             -881.44 -15192.31    346.28
                             1148.31    346.28  -9366.02

     nonloc. stress (kbar)  -6321.19     -1.39     -3.59
                               -1.39  -6286.97      0.35
                               -3.59      0.35  -6272.74

     hartree stress (kbar)  11207.81    356.32   -470.54
                              356.32  17664.64   -135.49
                             -470.54   -135.49  14722.45

     exc-cor stress (kbar)  -2650.37      0.53     -0.97
                                0.53  -2656.33     -0.28
                               -0.97     -0.28  -2654.10

     corecor stress (kbar)  -2963.99     -0.11      1.30
                               -0.11  -2964.55      0.04
                                1.30      0.04  -2967.05

     ewald   stress (kbar) -21668.27    529.46   -665.91
                              529.46 -15830.46   -209.67
                             -665.91   -209.67 -18529.36

     hubbard stress (kbar)      0.00      0.00      0.00
                                0.00      0.00      0.00
                                0.00      0.00      0.00

     DFT-D   stress (kbar)      0.00      0.00      0.00
                                0.00      0.00      0.00
                                0.00      0.00      0.00

     XDM     stress (kbar)      0.00      0.00      0.00
                                0.00      0.00      0.00
                                0.00      0.00      0.00

     dft-nl  stress (kbar)      0.00      0.00      0.00
                                0.00      0.00      0.00
                                0.00      0.00      0.00

     TS-vdW  stress (kbar)      0.00      0.00      0.00
                                0.00      0.00      0.00
                                0.00      0.00      0.00



     init_run     :    180.97s CPU    183.93s WALL (       1 calls)
     electrons    :  21921.03s CPU  22228.96s WALL (       1 calls)
     forces       :    110.75s CPU    112.58s WALL (       1 calls)
     stress       :    707.90s CPU    712.63s WALL (       1 calls)

     Called by init_run:
     wfcinit      :    171.91s CPU    174.26s WALL (       1 calls)
     wfcinit:atom :      2.98s CPU      3.03s WALL (     316 calls)
     wfcinit:wfcr :    160.77s CPU    162.96s WALL (     316 calls)
     potinit      :      3.13s CPU      3.25s WALL (       1 calls)
     hinit0       :      3.45s CPU      3.55s WALL (       1 calls)

     Called by electrons:
     c_bands      :  18595.34s CPU  18801.15s WALL (      41 calls)
     sum_band     :   3226.59s CPU   3305.71s WALL (      41 calls)
     v_of_rho     :     28.03s CPU     29.45s WALL (      42 calls)
     v_h          :      1.21s CPU      1.31s WALL (      42 calls)
     v_xc         :     28.39s CPU     29.75s WALL (      44 calls)
     newd         :     45.54s CPU     66.79s WALL (      42 calls)
     PAW_pot      :     17.56s CPU     17.75s WALL (      42 calls)
     mix_rho      :      7.26s CPU      7.58s WALL (      41 calls)

     Called by c_bands:
     init_us_2    :    257.13s CPU    262.04s WALL (   26860 calls)
     cegterg      :  18092.82s CPU  18290.03s WALL (   12956 calls)

     Called by sum_band:
     sum_band:wei :      0.65s CPU      0.65s WALL (      41 calls)
     sum_band:loo :   3084.65s CPU   3139.00s WALL (      41 calls)
     sum_band:buf :     68.93s CPU     70.26s WALL (   12956 calls)
     sum_band:ini :    124.03s CPU    126.18s WALL (   12956 calls)
     sum_band:cal :    915.17s CPU    926.21s WALL (   12956 calls)
     sum_band:bec :      5.99s CPU      6.09s WALL (   12956 calls)
     addusdens    :    133.22s CPU    157.72s WALL (      41 calls)
     addusd:skk   :      0.74s CPU      0.77s WALL (     123 calls)
     addusd:dgemm :     57.08s CPU     76.05s WALL (     246 calls)
     addusd:qvan2 :     73.75s CPU     74.58s WALL (     246 calls)

     Called by *egterg:
     cdiaghg      :    984.29s CPU   1008.05s WALL (   43234 calls)
     cegterg:over :   1660.63s CPU   1685.83s WALL (   30278 calls)
     cegterg:upda :    817.43s CPU    821.90s WALL (   30278 calls)
     cegterg:last :   1832.65s CPU   1841.98s WALL (   22093 calls)
     h_psi        :   9784.05s CPU   9895.38s WALL (   43550 calls)
     s_psi        :   1903.06s CPU   1913.07s WALL (   43550 calls)
     g_psi        :     16.64s CPU     16.85s WALL (   30278 calls)

     Called by h_psi:
     h_psi:calbec :   2116.35s CPU   2138.49s WALL (   43550 calls)
     vloc_psi     :   5545.81s CPU   5620.83s WALL (   43550 calls)
     add_vuspsi   :   1969.29s CPU   1980.03s WALL (   43550 calls)

     General routines
     calbec       :   3196.00s CPU   3230.66s WALL (   58086 calls)
     fft          :     27.10s CPU     28.95s WALL (    1088 calls)
     ffts         :      0.41s CPU      0.48s WALL (     166 calls)
     fftw         :   7231.81s CPU   7343.34s WALL ( 7838960 calls)
     interpolate  :      2.02s CPU      2.20s WALL (      84 calls)

     Parallel routines
     fft_scatt_xy :    358.58s CPU    362.06s WALL ( 7840214 calls)
     fft_scatt_yz :   4343.82s CPU   4427.86s WALL ( 7840214 calls)

     PAW routines
     PAW_pot      :     17.56s CPU     17.75s WALL (      42 calls)

     PWSCF        :      6h22m CPU      6h27m WALL


   This run was terminated on:  20:23:45  18Dec2022            

=------------------------------------------------------------------------------=
   JOB DONE.
=------------------------------------------------------------------------------=
Note: The following floating-point exceptions are signalling: IEEE_UNDERFLOW_FLAG IEEE_DENORMAL
Note: The following floating-point exceptions are signalling: IEEE_DENORMAL
Note: The following floating-point exceptions are signalling: IEEE_DENORMAL
Note: The following floating-point exceptions are signalling: IEEE_DENORMAL
Note: The following floating-point exceptions are signalling: IEEE_DENORMAL
Note: The following floating-point exceptions are signalling: IEEE_DENORMAL
Note: The following floating-point exceptions are signalling: IEEE_DENORMAL
Note: The following floating-point exceptions are signalling: IEEE_DENORMAL
Note: The following floating-point exceptions are signalling: IEEE_DENORMAL
Note: The following floating-point exceptions are signalling: IEEE_DENORMAL
Note: The following floating-point exceptions are signalling: IEEE_DENORMAL
Note: The following floating-point exceptions are signalling: IEEE_DENORMAL
Note: The following floating-point exceptions are signalling: IEEE_DENORMAL
Note: The following floating-point exceptions are signalling: IEEE_DENORMAL
Note: The following floating-point exceptions are signalling: IEEE_DENORMAL
Note: The following floating-point exceptions are signalling: IEEE_DENORMAL
Note: The following floating-point exceptions are signalling: IEEE_DENORMAL
Note: The following floating-point exceptions are signalling: IEEE_DENORMAL
Note: The following floating-point exceptions are signalling: IEEE_INVALID_FLAG IEEE_DENORMAL
Note: The following floating-point exceptions are signalling: IEEE_DENORMAL
Note: The following floating-point exceptions are signalling: IEEE_DENORMAL
Note: The following floating-point exceptions are signalling: IEEE_DENORMAL
Note: The following floating-point exceptions are signalling: IEEE_DENORMAL
Note: The following floating-point exceptions are signalling: IEEE_DENORMAL
