ITEM: TIMESTEP
3500
ITEM: NUMBER OF ATOMS
4
ITEM: BOX BOUNDS xy xz yz pp pp pp
-2.7526565631673843e+00 4.0686875373130835e+00 -1.2379082258534087e+00
3.3827480765113327e-02 2.1779492059428640e+00 0.0000000000000000e+00
-2.8506360079015192e-02 4.2553613600790534e+00 0.0000000000000000e+00
ITEM: ATOMS id type x y z
1 1 0.44492 1.69136 2.01511
2 1 0.887221 0.511779 4.11796
4 2 1.1772 0.686501 2.72891
3 2 0.242404 1.58052 0.577869
