ITEM: TIMESTEP
2000
ITEM: NUMBER OF ATOMS
4
ITEM: BOX BOUNDS xy xz yz pp pp pp
-3.0795108482813651e+00 4.4004737842444266e+00 -1.2329762640367701e+00
3.8098688540429304e-02 2.1736779981675620e+00 0.0000000000000000e+00
5.1387700097908606e-02 4.1754672999021105e+00 0.0000000000000000e+00
ITEM: ATOMS id type x y z
4 2 0.711564 0.419472 2.70296
1 1 0.294238 1.6045 1.99633
2 1 1.10908 0.630472 4.06078
3 2 0.679082 1.82279 0.64189
