ITEM: TIMESTEP
500
ITEM: NUMBER OF ATOMS
4
ITEM: BOX BOUNDS xy xz yz pp pp pp
-1.2899934933574140e+00 2.5608335716677981e+00 -1.2830991216896093e+00
-5.3090155918114057e-03 2.2170857022998147e+00 0.0000000000000000e+00
2.4677324192965866e-02 4.2021776758070359e+00 0.0000000000000000e+00
ITEM: ATOMS id type x y z
3 2 0.00155177 1.51527 0.558036
1 1 -0.0129152 1.50337 2.14037
2 1 1.38721 0.748355 4.1731
4 2 1.22663 0.716024 2.59584
