ITEM: TIMESTEP
5500
ITEM: NUMBER OF ATOMS
4
ITEM: BOX BOUNDS xy xz yz pp pp pp
-2.7530547109081578e+00 4.0363325940383286e+00 -1.2706613168681389e+00
5.4624483076419761e-03 2.2063142384003269e+00 0.0000000000000000e+00
3.2636119353944615e-02 4.1942188806460958e+00 0.0000000000000000e+00
ITEM: ATOMS id type x y z
4 2 0.831378 0.485548 2.69681
1 1 0.27969 1.61763 2.00005
2 1 1.08309 0.617438 4.12971
3 2 0.504139 1.75811 0.596786
