
     Program PWSCF v.6.7MaX starts on 13Dec2022 at 22:50: 3 

     This program is part of the open-source Quantum ESPRESSO suite
     for quantum simulation of materials; please cite
         "P. Giannozzi et al., J. Phys.:Condens. Matter 21 395502 (2009);
         "P. Giannozzi et al., J. Phys.:Condens. Matter 29 465901 (2017);
          URL http://www.quantum-espresso.org", 
     in publications or presentations arising from this work. More details at
     http://www.quantum-espresso.org/quote

     Parallel version (MPI), running on    24 processors

     MPI processes distributed on     1 nodes
     R & G space division:  proc/nbgrp/npool/nimage =      24
     Reading input from path1_cod-3.in

     Current dimensions of program PWSCF are:
     Max number of different atomic species (ntypx) = 10
     Max number of k-points (npk) =  40000
     Max angular momentum in pseudopotentials (lmaxx) =  3
     Message from routine read_pp_mesh:
     mesh size missing, using the one in header
     file Fe.pbe-spn-kjpaw_psl.0.2.1.UPF: wavefunction(s)  3D renormalized
     file O.pbe-n-kjpaw_psl.0.1.UPF: wavefunction(s)  2P renormalized

     Subspace diagonalization in iterative solution of the eigenvalue problem:
     a serial algorithm will be used


     Parallelization info
     --------------------
     sticks:   dense  smooth     PW     G-vecs:    dense   smooth      PW
     Min         827     306     82                53951    12161    1706
     Max         828     309     83                53954    12162    1709
     Sum       19863    7371   1983              1294859   291873   40977



     bravais-lattice index     =            0
     lattice parameter (alat)  =      19.6651  a.u.
     unit-cell volume          =    2160.3578 (a.u.)^3
     number of atoms/cell      =           25
     number of atomic types    =            4
     number of electrons       =       189.00
     number of Kohn-Sham states=          114
     kinetic-energy cutoff     =     100.0000  Ry
     charge density cutoff     =    1080.0000  Ry
     scf convergence threshold =      2.0E-10
     mixing beta               =       0.4000
     number of iterations used =            8  plain     mixing
     Exchange-correlation= PBE
                           (   1   4   3   4   0   0   0)

     celldm(1)=  19.665057  celldm(2)=   0.000000  celldm(3)=   0.000000
     celldm(4)=   0.000000  celldm(5)=   0.000000  celldm(6)=   0.000000

     crystal axes: (cart. coord. in units of alat)
               a(1) = (   1.000000   0.000000   0.000000 )  
               a(2) = (   0.000000   0.597590   0.000000 )  
               a(3) = (   0.000000   0.000000   0.475375 )  

     reciprocal axes: (cart. coord. in units 2 pi/alat)
               b(1) = (  1.000000  0.000000  0.000000 )  
               b(2) = (  0.000000  1.673388  0.000000 )  
               b(3) = (  0.000000  0.000000  2.103600 )  


     PseudoPot. # 1 for Fe read from file:
     /opt/QEpot/SSSP_precision_pseudos/Fe.pbe-spn-kjpaw_psl.0.2.1.UPF
     MD5 check sum: e86618425769142926afa95317d90200
     Pseudo is Projector augmented-wave + core cor, Zval = 16.0
     Generated using "atomic" code by A. Dal Corso  v.5.0.99 svn rev. 10869
     Shape of augmentation charge: PSQ
     Using radial grid of 1191 points,  6 beta functions with: 
                l(1) =   0
                l(2) =   0
                l(3) =   1
                l(4) =   1
                l(5) =   2
                l(6) =   2
     Q(r) pseudized with 0 coefficients 


     PseudoPot. # 2 for Na read from file:
     /opt/QEpot/SSSP_precision_pseudos/Na_ONCV_PBE-1.0.oncvpsp.upf
     MD5 check sum: 24a298df0a6742ae313db96548fdb2a4
     Pseudo is Norm-conserving, Zval =  9.0
     Generated using ONCVPSP code by D. R. Hamann
     Using radial grid of 1992 points,  4 beta functions with: 
                l(1) =   0
                l(2) =   0
                l(3) =   1
                l(4) =   1

     PseudoPot. # 3 for O  read from file:
     /opt/QEpot/SSSP_precision_pseudos/O.pbe-n-kjpaw_psl.0.1.UPF
     MD5 check sum: 0234752ac141de4415c5fc33072bef88
     Pseudo is Projector augmented-wave + core cor, Zval =  6.0
     Generated using "atomic" code by A. Dal Corso  v.5.0.99 svn rev. 10869
     Shape of augmentation charge: BESSEL
     Using radial grid of 1095 points,  4 beta functions with: 
                l(1) =   0
                l(2) =   0
                l(3) =   1
                l(4) =   1
     Q(r) pseudized with 0 coefficients 


     PseudoPot. # 4 for P  read from file:
     /opt/QEpot/SSSP_precision_pseudos/P.pbe-n-rrkjus_psl.1.0.0.UPF
     MD5 check sum: 8b930f418f0a4573dca56cd030ffe088
     Pseudo is Ultrasoft + core correction, Zval =  5.0
     Generated using "atomic" code by A. Dal Corso  v.5.1
     Using radial grid of 1147 points,  6 beta functions with: 
                l(1) =   0
                l(2) =   0
                l(3) =   1
                l(4) =   1
                l(5) =   2
                l(6) =   2
     Q(r) pseudized with 0 coefficients 


     atomic species   valence    mass     pseudopotential
        Fe            16.00    55.84500     Fe( 1.00)
        Na             9.00    22.98977     Na( 1.00)
        O              6.00    15.99940     O ( 1.00)
        P              5.00    30.97376     P ( 1.00)

     Starting magnetic structure 
     atomic species   magnetization
        Fe           0.312
        Na           0.000
        O            0.000
        P            0.000

     No symmetry found


                                    s                        frac. trans.

      isym =  1     identity                                     

 cryst.   s( 1) = (     1          0          0      )
                  (     0          1          0      )
                  (     0          0          1      )

 cart.    s( 1) = (  1.0000000  0.0000000  0.0000000 )
                  (  0.0000000  1.0000000  0.0000000 )
                  (  0.0000000  0.0000000  1.0000000 )


   Cartesian axes

     site n.     atom                  positions (alat units)
         1           Na  tau(   1) = (   0.5426074   0.0859529   0.2217514  )
         2           Fe  tau(   2) = (   0.2774940   0.4493394   0.4716742  )
         3           Fe  tau(   3) = (   0.2102571   0.1513028   0.2332096  )
         4           Fe  tau(   4) = (   0.7280953   0.1558240   0.0019268  )
         5           Fe  tau(   5) = (   0.7825798   0.4471330   0.2433695  )
         6           P   tau(   6) = (   0.1059476   0.4497038   0.2111038  )
         7           P   tau(   7) = (   0.3878489   0.1534739   0.4484426  )
         8           P   tau(   8) = (   0.8915557   0.1498512   0.2648221  )
         9           P   tau(   9) = (   0.6054982   0.4485933   0.0284871  )
        10           O   tau(  10) = (   0.1317878   0.4508198   0.3570437  )
        11           O   tau(  11) = (   0.3634073   0.1505341   0.1192697  )
        12           O   tau(  12) = (   0.8709786   0.1504482   0.1182674  )
        13           O   tau(  13) = (   0.6302562   0.4517626   0.3576406  )
        14           O   tau(  14) = (   0.4595488   0.4517154   0.0576764  )
        15           O   tau(  15) = (   0.0359183   0.1490369   0.2976971  )
        16           O   tau(  16) = (   0.5363256   0.1525480   0.4260872  )
        17           O   tau(  17) = (   0.9593076   0.4497544   0.1854236  )
        18           O   tau(  18) = (   0.1755981   0.5656974   0.1419621  )
        19           O   tau(  19) = (   0.3240217   0.0365729   0.3760922  )
        20           O   tau(  20) = (   0.8190688   0.2665415   0.3311611  )
        21           O   tau(  21) = (   0.6753187   0.3316798   0.0965105  )
        22           O   tau(  22) = (   0.8159813   0.0356331   0.3307455  )
        23           O   tau(  23) = (   0.6759006   0.5648447   0.0980639  )
        24           O   tau(  24) = (   0.1746373   0.3324696   0.1431926  )
        25           O   tau(  25) = (   0.3201313   0.2697332   0.3806093  )

   Crystallographic axes

     site n.     atom                  positions (cryst. coord.)
         1           Na  tau(   1) = (  0.5426074  0.1438326  0.4664762  )
         2           Fe  tau(   2) = (  0.2774940  0.7519193  0.9922140  )
         3           Fe  tau(   3) = (  0.2102571  0.2531883  0.4905797  )
         4           Fe  tau(   4) = (  0.7280953  0.2607540  0.0040531  )
         5           Fe  tau(   5) = (  0.7825798  0.7482271  0.5119521  )
         6           P   tau(   6) = (  0.1059476  0.7525292  0.4440780  )
         7           P   tau(   7) = (  0.3878489  0.2568214  0.9433440  )
         8           P   tau(   8) = (  0.8915557  0.2507592  0.5570798  )
         9           P   tau(   9) = (  0.6054982  0.7506708  0.0599254  )
        10           O   tau(  10) = (  0.1317878  0.7543967  0.7510772  )
        11           O   tau(  11) = (  0.3634073  0.2519020  0.2508957  )
        12           O   tau(  12) = (  0.8709786  0.2517583  0.2487873  )
        13           O   tau(  13) = (  0.6302562  0.7559743  0.7523328  )
        14           O   tau(  14) = (  0.4595488  0.7558953  0.1213281  )
        15           O   tau(  15) = (  0.0359183  0.2493966  0.6262358  )
        16           O   tau(  16) = (  0.5363256  0.2552721  0.8963171  )
        17           O   tau(  17) = (  0.9593076  0.7526137  0.3900572  )
        18           O   tau(  18) = (  0.1755981  0.9466315  0.2986315  )
        19           O   tau(  19) = (  0.3240217  0.0612007  0.7911476  )
        20           O   tau(  20) = (  0.8190688  0.4460274  0.6966306  )
        21           O   tau(  21) = (  0.6753187  0.5550292  0.2030194  )
        22           O   tau(  22) = (  0.8159813  0.0596281  0.6957562  )
        23           O   tau(  23) = (  0.6759006  0.9452045  0.2062871  )
        24           O   tau(  24) = (  0.1746373  0.5563508  0.3012200  )
        25           O   tau(  25) = (  0.3201313  0.4513685  0.8006499  )

     number of k points=   158  Marzari-Vanderbilt smearing, width (Ry)=  0.0073
                       cart. coord. in units 2pi/alat
        k(    1) = (   0.0000000   0.0000000   0.0000000), wk =   0.0031746
        k(    2) = (   0.0000000   0.0000000   0.2337334), wk =   0.0063492
        k(    3) = (   0.0000000   0.0000000   0.4674667), wk =   0.0063492
        k(    4) = (   0.0000000   0.0000000   0.7012001), wk =   0.0063492
        k(    5) = (   0.0000000   0.0000000   0.9349334), wk =   0.0063492
        k(    6) = (   0.0000000   0.2390555   0.0000000), wk =   0.0063492
        k(    7) = (   0.0000000   0.2390555   0.2337334), wk =   0.0063492
        k(    8) = (   0.0000000   0.2390555   0.4674667), wk =   0.0063492
        k(    9) = (   0.0000000   0.2390555   0.7012001), wk =   0.0063492
        k(   10) = (   0.0000000   0.2390555   0.9349334), wk =   0.0063492
        k(   11) = (   0.0000000   0.4781110   0.0000000), wk =   0.0063492
        k(   12) = (   0.0000000   0.4781110   0.2337334), wk =   0.0063492
        k(   13) = (   0.0000000   0.4781110   0.4674667), wk =   0.0063492
        k(   14) = (   0.0000000   0.4781110   0.7012001), wk =   0.0063492
        k(   15) = (   0.0000000   0.4781110   0.9349334), wk =   0.0063492
        k(   16) = (   0.0000000   0.7171664   0.0000000), wk =   0.0063492
        k(   17) = (   0.0000000   0.7171664   0.2337334), wk =   0.0063492
        k(   18) = (   0.0000000   0.7171664   0.4674667), wk =   0.0063492
        k(   19) = (   0.0000000   0.7171664   0.7012001), wk =   0.0063492
        k(   20) = (   0.0000000   0.7171664   0.9349334), wk =   0.0063492
        k(   21) = (   0.2000000   0.0000000   0.0000000), wk =   0.0063492
        k(   22) = (   0.2000000   0.0000000   0.2337334), wk =   0.0063492
        k(   23) = (   0.2000000   0.0000000   0.4674667), wk =   0.0063492
        k(   24) = (   0.2000000   0.0000000   0.7012001), wk =   0.0063492
        k(   25) = (   0.2000000   0.0000000   0.9349334), wk =   0.0063492
        k(   26) = (   0.2000000   0.2390555   0.0000000), wk =   0.0063492
        k(   27) = (   0.2000000   0.2390555   0.2337334), wk =   0.0063492
        k(   28) = (   0.2000000   0.2390555   0.4674667), wk =   0.0063492
        k(   29) = (   0.2000000   0.2390555   0.7012001), wk =   0.0063492
        k(   30) = (   0.2000000   0.2390555   0.9349334), wk =   0.0063492
        k(   31) = (   0.2000000   0.4781110   0.0000000), wk =   0.0063492
        k(   32) = (   0.2000000   0.4781110   0.2337334), wk =   0.0063492
        k(   33) = (   0.2000000   0.4781110   0.4674667), wk =   0.0063492
        k(   34) = (   0.2000000   0.4781110   0.7012001), wk =   0.0063492
        k(   35) = (   0.2000000   0.4781110   0.9349334), wk =   0.0063492
        k(   36) = (   0.2000000   0.7171664   0.0000000), wk =   0.0063492
        k(   37) = (   0.2000000   0.7171664   0.2337334), wk =   0.0063492
        k(   38) = (   0.2000000   0.7171664   0.4674667), wk =   0.0063492
        k(   39) = (   0.2000000   0.7171664   0.7012001), wk =   0.0063492
        k(   40) = (   0.2000000   0.7171664   0.9349334), wk =   0.0063492
        k(   41) = (   0.4000000   0.0000000   0.0000000), wk =   0.0063492
        k(   42) = (   0.4000000   0.0000000   0.2337334), wk =   0.0063492
        k(   43) = (   0.4000000   0.0000000   0.4674667), wk =   0.0063492
        k(   44) = (   0.4000000   0.0000000   0.7012001), wk =   0.0063492
        k(   45) = (   0.4000000   0.0000000   0.9349334), wk =   0.0063492
        k(   46) = (   0.4000000   0.2390555   0.0000000), wk =   0.0063492
        k(   47) = (   0.4000000   0.2390555   0.2337334), wk =   0.0063492
        k(   48) = (   0.4000000   0.2390555   0.4674667), wk =   0.0063492
        k(   49) = (   0.4000000   0.2390555   0.7012001), wk =   0.0063492
        k(   50) = (   0.4000000   0.2390555   0.9349334), wk =   0.0063492
        k(   51) = (   0.4000000   0.4781110   0.0000000), wk =   0.0063492
        k(   52) = (   0.4000000   0.4781110   0.2337334), wk =   0.0063492
        k(   53) = (   0.4000000   0.4781110   0.4674667), wk =   0.0063492
        k(   54) = (   0.4000000   0.4781110   0.7012001), wk =   0.0063492
        k(   55) = (   0.4000000   0.4781110   0.9349334), wk =   0.0063492
        k(   56) = (   0.4000000   0.7171664   0.0000000), wk =   0.0063492
        k(   57) = (   0.4000000   0.7171664   0.2337334), wk =   0.0063492
        k(   58) = (   0.4000000   0.7171664   0.4674667), wk =   0.0063492
        k(   59) = (   0.4000000   0.7171664   0.7012001), wk =   0.0063492
        k(   60) = (   0.4000000   0.7171664   0.9349334), wk =   0.0063492
        k(   61) = (   0.0000000  -0.2390555   0.2337334), wk =   0.0063492
        k(   62) = (   0.0000000  -0.2390555   0.4674667), wk =   0.0063492
        k(   63) = (   0.0000000  -0.2390555   0.7012001), wk =   0.0063492
        k(   64) = (   0.0000000  -0.2390555   0.9349334), wk =   0.0063492
        k(   65) = (   0.0000000  -0.4781110   0.2337334), wk =   0.0063492
        k(   66) = (   0.0000000  -0.4781110   0.4674667), wk =   0.0063492
        k(   67) = (   0.0000000  -0.4781110   0.7012001), wk =   0.0063492
        k(   68) = (   0.0000000  -0.4781110   0.9349334), wk =   0.0063492
        k(   69) = (   0.0000000  -0.7171664   0.2337334), wk =   0.0063492
        k(   70) = (   0.0000000  -0.7171664   0.4674667), wk =   0.0063492
        k(   71) = (   0.0000000  -0.7171664   0.7012001), wk =   0.0063492
        k(   72) = (   0.0000000  -0.7171664   0.9349334), wk =   0.0063492
        k(   73) = (  -0.2000000   0.0000000   0.2337334), wk =   0.0063492
        k(   74) = (  -0.2000000   0.0000000   0.4674667), wk =   0.0063492
        k(   75) = (  -0.2000000   0.0000000   0.7012001), wk =   0.0063492
        k(   76) = (  -0.2000000   0.0000000   0.9349334), wk =   0.0063492
        k(   77) = (  -0.2000000   0.2390555   0.0000000), wk =   0.0063492
        k(   78) = (  -0.2000000  -0.2390555   0.2337334), wk =   0.0063492
        k(   79) = (  -0.2000000   0.2390555  -0.2337334), wk =   0.0063492
        k(   80) = (   0.2000000  -0.2390555  -0.2337334), wk =   0.0063492
        k(   81) = (  -0.2000000  -0.2390555   0.4674667), wk =   0.0063492
        k(   82) = (  -0.2000000   0.2390555  -0.4674667), wk =   0.0063492
        k(   83) = (   0.2000000  -0.2390555  -0.4674667), wk =   0.0063492
        k(   84) = (  -0.2000000  -0.2390555   0.7012001), wk =   0.0063492
        k(   85) = (  -0.2000000   0.2390555  -0.7012001), wk =   0.0063492
        k(   86) = (   0.2000000  -0.2390555  -0.7012001), wk =   0.0063492
        k(   87) = (  -0.2000000  -0.2390555   0.9349334), wk =   0.0063492
        k(   88) = (  -0.2000000   0.2390555  -0.9349334), wk =   0.0063492
        k(   89) = (   0.2000000  -0.2390555  -0.9349334), wk =   0.0063492
        k(   90) = (  -0.2000000   0.4781110   0.0000000), wk =   0.0063492
        k(   91) = (  -0.2000000  -0.4781110   0.2337334), wk =   0.0063492
        k(   92) = (  -0.2000000   0.4781110  -0.2337334), wk =   0.0063492
        k(   93) = (   0.2000000  -0.4781110  -0.2337334), wk =   0.0063492
        k(   94) = (  -0.2000000  -0.4781110   0.4674667), wk =   0.0063492
        k(   95) = (  -0.2000000   0.4781110  -0.4674667), wk =   0.0063492
        k(   96) = (   0.2000000  -0.4781110  -0.4674667), wk =   0.0063492
        k(   97) = (  -0.2000000  -0.4781110   0.7012001), wk =   0.0063492
        k(   98) = (  -0.2000000   0.4781110  -0.7012001), wk =   0.0063492
        k(   99) = (   0.2000000  -0.4781110  -0.7012001), wk =   0.0063492
        k(  100) = (  -0.2000000  -0.4781110   0.9349334), wk =   0.0063492
        k(  101) = (  -0.2000000   0.4781110  -0.9349334), wk =   0.0063492
        k(  102) = (   0.2000000  -0.4781110  -0.9349334), wk =   0.0063492
        k(  103) = (  -0.2000000   0.7171664   0.0000000), wk =   0.0063492
        k(  104) = (  -0.2000000  -0.7171664   0.2337334), wk =   0.0063492
        k(  105) = (  -0.2000000   0.7171664  -0.2337334), wk =   0.0063492
        k(  106) = (   0.2000000  -0.7171664  -0.2337334), wk =   0.0063492
        k(  107) = (  -0.2000000  -0.7171664   0.4674667), wk =   0.0063492
        k(  108) = (  -0.2000000   0.7171664  -0.4674667), wk =   0.0063492
        k(  109) = (   0.2000000  -0.7171664  -0.4674667), wk =   0.0063492
        k(  110) = (  -0.2000000  -0.7171664   0.7012001), wk =   0.0063492
        k(  111) = (  -0.2000000   0.7171664  -0.7012001), wk =   0.0063492
        k(  112) = (   0.2000000  -0.7171664  -0.7012001), wk =   0.0063492
        k(  113) = (  -0.2000000  -0.7171664   0.9349334), wk =   0.0063492
        k(  114) = (  -0.2000000   0.7171664  -0.9349334), wk =   0.0063492
        k(  115) = (   0.2000000  -0.7171664  -0.9349334), wk =   0.0063492
        k(  116) = (  -0.4000000   0.0000000   0.2337334), wk =   0.0063492
        k(  117) = (  -0.4000000   0.0000000   0.4674667), wk =   0.0063492
        k(  118) = (  -0.4000000   0.0000000   0.7012001), wk =   0.0063492
        k(  119) = (  -0.4000000   0.0000000   0.9349334), wk =   0.0063492
        k(  120) = (  -0.4000000   0.2390555   0.0000000), wk =   0.0063492
        k(  121) = (  -0.4000000  -0.2390555   0.2337334), wk =   0.0063492
        k(  122) = (  -0.4000000   0.2390555  -0.2337334), wk =   0.0063492
        k(  123) = (   0.4000000  -0.2390555  -0.2337334), wk =   0.0063492
        k(  124) = (  -0.4000000  -0.2390555   0.4674667), wk =   0.0063492
        k(  125) = (  -0.4000000   0.2390555  -0.4674667), wk =   0.0063492
        k(  126) = (   0.4000000  -0.2390555  -0.4674667), wk =   0.0063492
        k(  127) = (  -0.4000000  -0.2390555   0.7012001), wk =   0.0063492
        k(  128) = (  -0.4000000   0.2390555  -0.7012001), wk =   0.0063492
        k(  129) = (   0.4000000  -0.2390555  -0.7012001), wk =   0.0063492
        k(  130) = (  -0.4000000  -0.2390555   0.9349334), wk =   0.0063492
        k(  131) = (  -0.4000000   0.2390555  -0.9349334), wk =   0.0063492
        k(  132) = (   0.4000000  -0.2390555  -0.9349334), wk =   0.0063492
        k(  133) = (  -0.4000000   0.4781110   0.0000000), wk =   0.0063492
        k(  134) = (  -0.4000000  -0.4781110   0.2337334), wk =   0.0063492
        k(  135) = (  -0.4000000   0.4781110  -0.2337334), wk =   0.0063492
        k(  136) = (   0.4000000  -0.4781110  -0.2337334), wk =   0.0063492
        k(  137) = (  -0.4000000  -0.4781110   0.4674667), wk =   0.0063492
        k(  138) = (  -0.4000000   0.4781110  -0.4674667), wk =   0.0063492
        k(  139) = (   0.4000000  -0.4781110  -0.4674667), wk =   0.0063492
        k(  140) = (  -0.4000000  -0.4781110   0.7012001), wk =   0.0063492
        k(  141) = (  -0.4000000   0.4781110  -0.7012001), wk =   0.0063492
        k(  142) = (   0.4000000  -0.4781110  -0.7012001), wk =   0.0063492
        k(  143) = (  -0.4000000  -0.4781110   0.9349334), wk =   0.0063492
        k(  144) = (  -0.4000000   0.4781110  -0.9349334), wk =   0.0063492
        k(  145) = (   0.4000000  -0.4781110  -0.9349334), wk =   0.0063492
        k(  146) = (  -0.4000000   0.7171664   0.0000000), wk =   0.0063492
        k(  147) = (  -0.4000000  -0.7171664   0.2337334), wk =   0.0063492
        k(  148) = (  -0.4000000   0.7171664  -0.2337334), wk =   0.0063492
        k(  149) = (   0.4000000  -0.7171664  -0.2337334), wk =   0.0063492
        k(  150) = (  -0.4000000  -0.7171664   0.4674667), wk =   0.0063492
        k(  151) = (  -0.4000000   0.7171664  -0.4674667), wk =   0.0063492
        k(  152) = (   0.4000000  -0.7171664  -0.4674667), wk =   0.0063492
        k(  153) = (  -0.4000000  -0.7171664   0.7012001), wk =   0.0063492
        k(  154) = (  -0.4000000   0.7171664  -0.7012001), wk =   0.0063492
        k(  155) = (   0.4000000  -0.7171664  -0.7012001), wk =   0.0063492
        k(  156) = (  -0.4000000  -0.7171664   0.9349334), wk =   0.0063492
        k(  157) = (  -0.4000000   0.7171664  -0.9349334), wk =   0.0063492
        k(  158) = (   0.4000000  -0.7171664  -0.9349334), wk =   0.0063492

                       cryst. coord.
        k(    1) = (   0.0000000   0.0000000   0.0000000), wk =   0.0031746
        k(    2) = (   0.0000000   0.0000000   0.1111111), wk =   0.0063492
        k(    3) = (   0.0000000   0.0000000   0.2222222), wk =   0.0063492
        k(    4) = (   0.0000000   0.0000000   0.3333333), wk =   0.0063492
        k(    5) = (   0.0000000   0.0000000   0.4444444), wk =   0.0063492
        k(    6) = (   0.0000000   0.1428571   0.0000000), wk =   0.0063492
        k(    7) = (   0.0000000   0.1428571   0.1111111), wk =   0.0063492
        k(    8) = (   0.0000000   0.1428571   0.2222222), wk =   0.0063492
        k(    9) = (   0.0000000   0.1428571   0.3333333), wk =   0.0063492
        k(   10) = (   0.0000000   0.1428571   0.4444444), wk =   0.0063492
        k(   11) = (   0.0000000   0.2857143   0.0000000), wk =   0.0063492
        k(   12) = (   0.0000000   0.2857143   0.1111111), wk =   0.0063492
        k(   13) = (   0.0000000   0.2857143   0.2222222), wk =   0.0063492
        k(   14) = (   0.0000000   0.2857143   0.3333333), wk =   0.0063492
        k(   15) = (   0.0000000   0.2857143   0.4444444), wk =   0.0063492
        k(   16) = (   0.0000000   0.4285714   0.0000000), wk =   0.0063492
        k(   17) = (   0.0000000   0.4285714   0.1111111), wk =   0.0063492
        k(   18) = (   0.0000000   0.4285714   0.2222222), wk =   0.0063492
        k(   19) = (   0.0000000   0.4285714   0.3333333), wk =   0.0063492
        k(   20) = (   0.0000000   0.4285714   0.4444444), wk =   0.0063492
        k(   21) = (   0.2000000   0.0000000   0.0000000), wk =   0.0063492
        k(   22) = (   0.2000000   0.0000000   0.1111111), wk =   0.0063492
        k(   23) = (   0.2000000   0.0000000   0.2222222), wk =   0.0063492
        k(   24) = (   0.2000000   0.0000000   0.3333333), wk =   0.0063492
        k(   25) = (   0.2000000   0.0000000   0.4444444), wk =   0.0063492
        k(   26) = (   0.2000000   0.1428571   0.0000000), wk =   0.0063492
        k(   27) = (   0.2000000   0.1428571   0.1111111), wk =   0.0063492
        k(   28) = (   0.2000000   0.1428571   0.2222222), wk =   0.0063492
        k(   29) = (   0.2000000   0.1428571   0.3333333), wk =   0.0063492
        k(   30) = (   0.2000000   0.1428571   0.4444444), wk =   0.0063492
        k(   31) = (   0.2000000   0.2857143   0.0000000), wk =   0.0063492
        k(   32) = (   0.2000000   0.2857143   0.1111111), wk =   0.0063492
        k(   33) = (   0.2000000   0.2857143   0.2222222), wk =   0.0063492
        k(   34) = (   0.2000000   0.2857143   0.3333333), wk =   0.0063492
        k(   35) = (   0.2000000   0.2857143   0.4444444), wk =   0.0063492
        k(   36) = (   0.2000000   0.4285714   0.0000000), wk =   0.0063492
        k(   37) = (   0.2000000   0.4285714   0.1111111), wk =   0.0063492
        k(   38) = (   0.2000000   0.4285714   0.2222222), wk =   0.0063492
        k(   39) = (   0.2000000   0.4285714   0.3333333), wk =   0.0063492
        k(   40) = (   0.2000000   0.4285714   0.4444444), wk =   0.0063492
        k(   41) = (   0.4000000   0.0000000   0.0000000), wk =   0.0063492
        k(   42) = (   0.4000000   0.0000000   0.1111111), wk =   0.0063492
        k(   43) = (   0.4000000   0.0000000   0.2222222), wk =   0.0063492
        k(   44) = (   0.4000000   0.0000000   0.3333333), wk =   0.0063492
        k(   45) = (   0.4000000   0.0000000   0.4444444), wk =   0.0063492
        k(   46) = (   0.4000000   0.1428571   0.0000000), wk =   0.0063492
        k(   47) = (   0.4000000   0.1428571   0.1111111), wk =   0.0063492
        k(   48) = (   0.4000000   0.1428571   0.2222222), wk =   0.0063492
        k(   49) = (   0.4000000   0.1428571   0.3333333), wk =   0.0063492
        k(   50) = (   0.4000000   0.1428571   0.4444444), wk =   0.0063492
        k(   51) = (   0.4000000   0.2857143   0.0000000), wk =   0.0063492
        k(   52) = (   0.4000000   0.2857143   0.1111111), wk =   0.0063492
        k(   53) = (   0.4000000   0.2857143   0.2222222), wk =   0.0063492
        k(   54) = (   0.4000000   0.2857143   0.3333333), wk =   0.0063492
        k(   55) = (   0.4000000   0.2857143   0.4444444), wk =   0.0063492
        k(   56) = (   0.4000000   0.4285714   0.0000000), wk =   0.0063492
        k(   57) = (   0.4000000   0.4285714   0.1111111), wk =   0.0063492
        k(   58) = (   0.4000000   0.4285714   0.2222222), wk =   0.0063492
        k(   59) = (   0.4000000   0.4285714   0.3333333), wk =   0.0063492
        k(   60) = (   0.4000000   0.4285714   0.4444444), wk =   0.0063492
        k(   61) = (   0.0000000  -0.1428571   0.1111111), wk =   0.0063492
        k(   62) = (   0.0000000  -0.1428571   0.2222222), wk =   0.0063492
        k(   63) = (   0.0000000  -0.1428571   0.3333333), wk =   0.0063492
        k(   64) = (   0.0000000  -0.1428571   0.4444444), wk =   0.0063492
        k(   65) = (   0.0000000  -0.2857143   0.1111111), wk =   0.0063492
        k(   66) = (   0.0000000  -0.2857143   0.2222222), wk =   0.0063492
        k(   67) = (   0.0000000  -0.2857143   0.3333333), wk =   0.0063492
        k(   68) = (   0.0000000  -0.2857143   0.4444444), wk =   0.0063492
        k(   69) = (   0.0000000  -0.4285714   0.1111111), wk =   0.0063492
        k(   70) = (   0.0000000  -0.4285714   0.2222222), wk =   0.0063492
        k(   71) = (   0.0000000  -0.4285714   0.3333333), wk =   0.0063492
        k(   72) = (   0.0000000  -0.4285714   0.4444444), wk =   0.0063492
        k(   73) = (  -0.2000000   0.0000000   0.1111111), wk =   0.0063492
        k(   74) = (  -0.2000000   0.0000000   0.2222222), wk =   0.0063492
        k(   75) = (  -0.2000000   0.0000000   0.3333333), wk =   0.0063492
        k(   76) = (  -0.2000000   0.0000000   0.4444444), wk =   0.0063492
        k(   77) = (  -0.2000000   0.1428571   0.0000000), wk =   0.0063492
        k(   78) = (  -0.2000000  -0.1428571   0.1111111), wk =   0.0063492
        k(   79) = (  -0.2000000   0.1428571  -0.1111111), wk =   0.0063492
        k(   80) = (   0.2000000  -0.1428571  -0.1111111), wk =   0.0063492
        k(   81) = (  -0.2000000  -0.1428571   0.2222222), wk =   0.0063492
        k(   82) = (  -0.2000000   0.1428571  -0.2222222), wk =   0.0063492
        k(   83) = (   0.2000000  -0.1428571  -0.2222222), wk =   0.0063492
        k(   84) = (  -0.2000000  -0.1428571   0.3333333), wk =   0.0063492
        k(   85) = (  -0.2000000   0.1428571  -0.3333333), wk =   0.0063492
        k(   86) = (   0.2000000  -0.1428571  -0.3333333), wk =   0.0063492
        k(   87) = (  -0.2000000  -0.1428571   0.4444444), wk =   0.0063492
        k(   88) = (  -0.2000000   0.1428571  -0.4444444), wk =   0.0063492
        k(   89) = (   0.2000000  -0.1428571  -0.4444444), wk =   0.0063492
        k(   90) = (  -0.2000000   0.2857143   0.0000000), wk =   0.0063492
        k(   91) = (  -0.2000000  -0.2857143   0.1111111), wk =   0.0063492
        k(   92) = (  -0.2000000   0.2857143  -0.1111111), wk =   0.0063492
        k(   93) = (   0.2000000  -0.2857143  -0.1111111), wk =   0.0063492
        k(   94) = (  -0.2000000  -0.2857143   0.2222222), wk =   0.0063492
        k(   95) = (  -0.2000000   0.2857143  -0.2222222), wk =   0.0063492
        k(   96) = (   0.2000000  -0.2857143  -0.2222222), wk =   0.0063492
        k(   97) = (  -0.2000000  -0.2857143   0.3333333), wk =   0.0063492
        k(   98) = (  -0.2000000   0.2857143  -0.3333333), wk =   0.0063492
        k(   99) = (   0.2000000  -0.2857143  -0.3333333), wk =   0.0063492
        k(  100) = (  -0.2000000  -0.2857143   0.4444444), wk =   0.0063492
        k(  101) = (  -0.2000000   0.2857143  -0.4444444), wk =   0.0063492
        k(  102) = (   0.2000000  -0.2857143  -0.4444444), wk =   0.0063492
        k(  103) = (  -0.2000000   0.4285714   0.0000000), wk =   0.0063492
        k(  104) = (  -0.2000000  -0.4285714   0.1111111), wk =   0.0063492
        k(  105) = (  -0.2000000   0.4285714  -0.1111111), wk =   0.0063492
        k(  106) = (   0.2000000  -0.4285714  -0.1111111), wk =   0.0063492
        k(  107) = (  -0.2000000  -0.4285714   0.2222222), wk =   0.0063492
        k(  108) = (  -0.2000000   0.4285714  -0.2222222), wk =   0.0063492
        k(  109) = (   0.2000000  -0.4285714  -0.2222222), wk =   0.0063492
        k(  110) = (  -0.2000000  -0.4285714   0.3333333), wk =   0.0063492
        k(  111) = (  -0.2000000   0.4285714  -0.3333333), wk =   0.0063492
        k(  112) = (   0.2000000  -0.4285714  -0.3333333), wk =   0.0063492
        k(  113) = (  -0.2000000  -0.4285714   0.4444444), wk =   0.0063492
        k(  114) = (  -0.2000000   0.4285714  -0.4444444), wk =   0.0063492
        k(  115) = (   0.2000000  -0.4285714  -0.4444444), wk =   0.0063492
        k(  116) = (  -0.4000000   0.0000000   0.1111111), wk =   0.0063492
        k(  117) = (  -0.4000000   0.0000000   0.2222222), wk =   0.0063492
        k(  118) = (  -0.4000000   0.0000000   0.3333333), wk =   0.0063492
        k(  119) = (  -0.4000000   0.0000000   0.4444444), wk =   0.0063492
        k(  120) = (  -0.4000000   0.1428571   0.0000000), wk =   0.0063492
        k(  121) = (  -0.4000000  -0.1428571   0.1111111), wk =   0.0063492
        k(  122) = (  -0.4000000   0.1428571  -0.1111111), wk =   0.0063492
        k(  123) = (   0.4000000  -0.1428571  -0.1111111), wk =   0.0063492
        k(  124) = (  -0.4000000  -0.1428571   0.2222222), wk =   0.0063492
        k(  125) = (  -0.4000000   0.1428571  -0.2222222), wk =   0.0063492
        k(  126) = (   0.4000000  -0.1428571  -0.2222222), wk =   0.0063492
        k(  127) = (  -0.4000000  -0.1428571   0.3333333), wk =   0.0063492
        k(  128) = (  -0.4000000   0.1428571  -0.3333333), wk =   0.0063492
        k(  129) = (   0.4000000  -0.1428571  -0.3333333), wk =   0.0063492
        k(  130) = (  -0.4000000  -0.1428571   0.4444444), wk =   0.0063492
        k(  131) = (  -0.4000000   0.1428571  -0.4444444), wk =   0.0063492
        k(  132) = (   0.4000000  -0.1428571  -0.4444444), wk =   0.0063492
        k(  133) = (  -0.4000000   0.2857143   0.0000000), wk =   0.0063492
        k(  134) = (  -0.4000000  -0.2857143   0.1111111), wk =   0.0063492
        k(  135) = (  -0.4000000   0.2857143  -0.1111111), wk =   0.0063492
        k(  136) = (   0.4000000  -0.2857143  -0.1111111), wk =   0.0063492
        k(  137) = (  -0.4000000  -0.2857143   0.2222222), wk =   0.0063492
        k(  138) = (  -0.4000000   0.2857143  -0.2222222), wk =   0.0063492
        k(  139) = (   0.4000000  -0.2857143  -0.2222222), wk =   0.0063492
        k(  140) = (  -0.4000000  -0.2857143   0.3333333), wk =   0.0063492
        k(  141) = (  -0.4000000   0.2857143  -0.3333333), wk =   0.0063492
        k(  142) = (   0.4000000  -0.2857143  -0.3333333), wk =   0.0063492
        k(  143) = (  -0.4000000  -0.2857143   0.4444444), wk =   0.0063492
        k(  144) = (  -0.4000000   0.2857143  -0.4444444), wk =   0.0063492
        k(  145) = (   0.4000000  -0.2857143  -0.4444444), wk =   0.0063492
        k(  146) = (  -0.4000000   0.4285714   0.0000000), wk =   0.0063492
        k(  147) = (  -0.4000000  -0.4285714   0.1111111), wk =   0.0063492
        k(  148) = (  -0.4000000   0.4285714  -0.1111111), wk =   0.0063492
        k(  149) = (   0.4000000  -0.4285714  -0.1111111), wk =   0.0063492
        k(  150) = (  -0.4000000  -0.4285714   0.2222222), wk =   0.0063492
        k(  151) = (  -0.4000000   0.4285714  -0.2222222), wk =   0.0063492
        k(  152) = (   0.4000000  -0.4285714  -0.2222222), wk =   0.0063492
        k(  153) = (  -0.4000000  -0.4285714   0.3333333), wk =   0.0063492
        k(  154) = (  -0.4000000   0.4285714  -0.3333333), wk =   0.0063492
        k(  155) = (   0.4000000  -0.4285714  -0.3333333), wk =   0.0063492
        k(  156) = (  -0.4000000  -0.4285714   0.4444444), wk =   0.0063492
        k(  157) = (  -0.4000000   0.4285714  -0.4444444), wk =   0.0063492
        k(  158) = (   0.4000000  -0.4285714  -0.4444444), wk =   0.0063492

     Dense  grid:  1294859 G-vectors     FFT dimensions: ( 216, 125, 100)

     Smooth grid:   291873 G-vectors     FFT dimensions: ( 125,  75,  60)

     Dynamical RAM for                 wfc:       2.64 MB

     Dynamical RAM for     wfc (w. buffer):     838.16 MB

     Dynamical RAM for           str. fact:       3.29 MB

     Dynamical RAM for           local pot:       0.00 MB

     Dynamical RAM for          nlocal pot:       6.49 MB

     Dynamical RAM for                qrad:      10.54 MB

     Dynamical RAM for          rho,v,vnew:      11.12 MB

     Dynamical RAM for               rhoin:       3.71 MB

     Dynamical RAM for            rho*nmix:      26.34 MB

     Dynamical RAM for           G-vectors:       3.18 MB

     Dynamical RAM for          h,s,v(r/c):       2.38 MB

     Dynamical RAM for          <psi|beta>:       0.49 MB

     Dynamical RAM for                 psi:       5.29 MB

     Dynamical RAM for                hpsi:       5.29 MB

     Dynamical RAM for                spsi:       5.29 MB

     Dynamical RAM for      wfcinit/wfcrot:       6.79 MB

     Dynamical RAM for           addusdens:     167.12 MB

     Dynamical RAM for          addusforce:     191.95 MB

     Dynamical RAM for         addusstress:     166.71 MB

     Estimated static dynamical RAM per process >     913.14 MB

     Estimated max dynamical RAM per process >       1.08 GB

     Estimated total dynamical RAM >      25.90 GB

     Check: negative core charge=   -0.000003
     Generating pointlists ...
     new r_m :   0.0760 (alat units)  1.4953 (a.u.) for type    1
     new r_m :   0.0887 (alat units)  1.7441 (a.u.) for type    2
     new r_m :   0.0610 (alat units)  1.2005 (a.u.) for type    3
     new r_m :   0.0610 (alat units)  1.2005 (a.u.) for type    4

     Initial potential from superposition of free atoms

     starting charge  188.99132, renormalised to  189.00000
     Starting wfcs are  137 randomized atomic wfcs
     Checking if some PAW data can be deallocated... 
       PAW data deallocated on   20 nodes for type:  1
       PAW data deallocated on    8 nodes for type:  3

     total cpu time spent up to now is      214.5 secs

     Self-consistent Calculation

     iteration #  1     ecut=   100.00 Ry     beta= 0.40
     Davidson diagonalization with overlap
     ethr =  1.00E-02,  avg # of iterations =  3.0

     negative rho (up, down):  0.000E+00 9.622E-05

     total cpu time spent up to now is      902.2 secs

     total energy              =   -2123.88692623 Ry
     estimated scf accuracy    <       7.00033494 Ry

     total magnetization       =    19.00 Bohr mag/cell
     absolute magnetization    =    19.00 Bohr mag/cell

     iteration #  2     ecut=   100.00 Ry     beta= 0.40
     Davidson diagonalization with overlap
     ethr =  3.70E-03,  avg # of iterations =  2.0

     negative rho (up, down):  0.000E+00 3.951E-05

     total cpu time spent up to now is     1523.0 secs

     total energy              =   -2120.55551865 Ry
     estimated scf accuracy    <      47.96983902 Ry

     total magnetization       =     6.93 Bohr mag/cell
     absolute magnetization    =     8.53 Bohr mag/cell

     iteration #  3     ecut=   100.00 Ry     beta= 0.40
     Davidson diagonalization with overlap
     ethr =  3.70E-03,  avg # of iterations =  3.0

     negative rho (up, down):  0.000E+00 2.317E-05

     total cpu time spent up to now is     2088.7 secs

     total energy              =   -2123.30628375 Ry
     estimated scf accuracy    <      63.13072690 Ry

     total magnetization       =     3.10 Bohr mag/cell
     absolute magnetization    =     7.28 Bohr mag/cell

     iteration #  4     ecut=   100.00 Ry     beta= 0.40
     Davidson diagonalization with overlap
     ethr =  3.70E-03,  avg # of iterations =  1.5

     negative rho (up, down):  0.000E+00 2.178E-05

     total cpu time spent up to now is     2567.7 secs

     total energy              =   -2124.52743342 Ry
     estimated scf accuracy    <      29.97020323 Ry

     total magnetization       =     9.00 Bohr mag/cell
     absolute magnetization    =     9.39 Bohr mag/cell

     iteration #  5     ecut=   100.00 Ry     beta= 0.40
     Davidson diagonalization with overlap
     ethr =  3.70E-03,  avg # of iterations =  1.9

     negative rho (up, down):  0.000E+00 8.246E-05

     total cpu time spent up to now is     3083.0 secs

     total energy              =   -2125.98320405 Ry
     estimated scf accuracy    <       2.12028589 Ry

     total magnetization       =    18.49 Bohr mag/cell
     absolute magnetization    =    18.49 Bohr mag/cell

     iteration #  6     ecut=   100.00 Ry     beta= 0.40
     Davidson diagonalization with overlap
     ethr =  1.12E-03,  avg # of iterations =  2.0

     negative rho (up, down):  0.000E+00 2.424E-04

     total cpu time spent up to now is     3782.5 secs

     total energy              =   -2126.10125850 Ry
     estimated scf accuracy    <       0.54604476 Ry

     total magnetization       =    19.00 Bohr mag/cell
     absolute magnetization    =    19.00 Bohr mag/cell

     iteration #  7     ecut=   100.00 Ry     beta= 0.40
     Davidson diagonalization with overlap
     ethr =  2.89E-04,  avg # of iterations =  2.5

     negative rho (up, down):  0.000E+00 3.863E-04

     total cpu time spent up to now is     4292.9 secs

     total energy              =   -2126.10282648 Ry
     estimated scf accuracy    <       0.28218483 Ry

     total magnetization       =    19.00 Bohr mag/cell
     absolute magnetization    =    19.00 Bohr mag/cell

     iteration #  8     ecut=   100.00 Ry     beta= 0.40
     Davidson diagonalization with overlap
     ethr =  1.49E-04,  avg # of iterations =  7.5

     negative rho (up, down):  0.000E+00 4.758E-04

     total cpu time spent up to now is     4945.6 secs

     total energy              =   -2126.09779542 Ry
     estimated scf accuracy    <       0.44994468 Ry

     total magnetization       =    19.00 Bohr mag/cell
     absolute magnetization    =    19.01 Bohr mag/cell

     iteration #  9     ecut=   100.00 Ry     beta= 0.40
     Davidson diagonalization with overlap
     ethr =  1.49E-04,  avg # of iterations =  1.5

     negative rho (up, down):  0.000E+00 7.783E-04

     total cpu time spent up to now is     5415.1 secs

     total energy              =   -2126.11825212 Ry
     estimated scf accuracy    <       0.15077576 Ry

     total magnetization       =    19.00 Bohr mag/cell
     absolute magnetization    =    19.01 Bohr mag/cell

     iteration # 10     ecut=   100.00 Ry     beta= 0.40
     Davidson diagonalization with overlap
     c_bands:  1 eigenvalues not converged
     c_bands:  2 eigenvalues not converged
     c_bands:  1 eigenvalues not converged
     c_bands:  1 eigenvalues not converged
     c_bands:  1 eigenvalues not converged
     c_bands:  1 eigenvalues not converged
     c_bands:  1 eigenvalues not converged
     ethr =  7.98E-05,  avg # of iterations =  8.0

     negative rho (up, down):  0.000E+00 7.743E-04

     total cpu time spent up to now is     6109.5 secs

     total energy              =   -2126.12820505 Ry
     estimated scf accuracy    <       0.20505570 Ry

     total magnetization       =    19.00 Bohr mag/cell
     absolute magnetization    =    19.02 Bohr mag/cell

     iteration # 11     ecut=   100.00 Ry     beta= 0.40
     Davidson diagonalization with overlap
     ethr =  7.98E-05,  avg # of iterations =  1.0

     negative rho (up, down):  0.000E+00 8.919E-04

     total cpu time spent up to now is     6552.2 secs

     total energy              =   -2126.12924020 Ry
     estimated scf accuracy    <       0.13653980 Ry

     total magnetization       =    19.00 Bohr mag/cell
     absolute magnetization    =    19.02 Bohr mag/cell

     iteration # 12     ecut=   100.00 Ry     beta= 0.40
     Davidson diagonalization with overlap
     ethr =  7.22E-05,  avg # of iterations =  1.0

     negative rho (up, down):  0.000E+00 9.071E-04

     total cpu time spent up to now is     6991.5 secs

     total energy              =   -2126.12673533 Ry
     estimated scf accuracy    <       0.09345508 Ry

     total magnetization       =    19.00 Bohr mag/cell
     absolute magnetization    =    19.03 Bohr mag/cell

     iteration # 13     ecut=   100.00 Ry     beta= 0.40
     Davidson diagonalization with overlap
     ethr =  4.94E-05,  avg # of iterations =  1.6

     negative rho (up, down):  0.000E+00 9.742E-04

     total cpu time spent up to now is     7455.6 secs

     total energy              =   -2126.12921558 Ry
     estimated scf accuracy    <       0.03767774 Ry

     total magnetization       =    19.00 Bohr mag/cell
     absolute magnetization    =    19.04 Bohr mag/cell

     iteration # 14     ecut=   100.00 Ry     beta= 0.40
     Davidson diagonalization with overlap
     c_bands:  1 eigenvalues not converged
     c_bands:  1 eigenvalues not converged
     c_bands:  1 eigenvalues not converged
     c_bands:  1 eigenvalues not converged
     c_bands:  1 eigenvalues not converged
     c_bands:  1 eigenvalues not converged
     c_bands:  1 eigenvalues not converged
     c_bands:  1 eigenvalues not converged
     c_bands:  1 eigenvalues not converged
     c_bands:  1 eigenvalues not converged
     c_bands:  1 eigenvalues not converged
     c_bands:  1 eigenvalues not converged
     c_bands:  1 eigenvalues not converged
     c_bands:  1 eigenvalues not converged
     c_bands:  1 eigenvalues not converged
     c_bands:  1 eigenvalues not converged
     ethr =  1.99E-05,  avg # of iterations =  7.8

     negative rho (up, down):  0.000E+00 9.644E-04

     total cpu time spent up to now is     8115.8 secs

     total energy              =   -2126.13061468 Ry
     estimated scf accuracy    <       0.00900101 Ry

     total magnetization       =    19.00 Bohr mag/cell
     absolute magnetization    =    19.04 Bohr mag/cell

     iteration # 15     ecut=   100.00 Ry     beta= 0.40
     Davidson diagonalization with overlap
     c_bands:  1 eigenvalues not converged
     c_bands:  1 eigenvalues not converged
     c_bands:  1 eigenvalues not converged
     c_bands:  1 eigenvalues not converged
     c_bands:  1 eigenvalues not converged
     c_bands:  1 eigenvalues not converged
     c_bands:  1 eigenvalues not converged
     c_bands:  1 eigenvalues not converged
     c_bands:  1 eigenvalues not converged
     c_bands:  1 eigenvalues not converged
     c_bands:  1 eigenvalues not converged
     c_bands:  1 eigenvalues not converged
     c_bands:  1 eigenvalues not converged
     c_bands:  1 eigenvalues not converged
     c_bands:  1 eigenvalues not converged
     c_bands:  1 eigenvalues not converged
     c_bands:  1 eigenvalues not converged
     c_bands:  1 eigenvalues not converged
     c_bands:  1 eigenvalues not converged
     c_bands:  1 eigenvalues not converged
     c_bands:  1 eigenvalues not converged
     c_bands:  1 eigenvalues not converged
     c_bands:  1 eigenvalues not converged
     c_bands:  1 eigenvalues not converged
     c_bands:  1 eigenvalues not converged
     c_bands:  1 eigenvalues not converged
     c_bands:  1 eigenvalues not converged
     c_bands:  1 eigenvalues not converged
     c_bands:  1 eigenvalues not converged
     c_bands:  1 eigenvalues not converged
     c_bands:  1 eigenvalues not converged
     c_bands:  1 eigenvalues not converged
     ethr =  4.76E-06,  avg # of iterations = 11.5

     negative rho (up, down):  0.000E+00 9.598E-04

     total cpu time spent up to now is     8936.2 secs

     total energy              =   -2126.13094913 Ry
     estimated scf accuracy    <       0.00120627 Ry

     total magnetization       =    19.00 Bohr mag/cell
     absolute magnetization    =    19.04 Bohr mag/cell

     iteration # 16     ecut=   100.00 Ry     beta= 0.40
     Davidson diagonalization with overlap
     ethr =  6.38E-07,  avg # of iterations =  6.0

     negative rho (up, down):  0.000E+00 9.546E-04

     total cpu time spent up to now is     9724.0 secs

     total energy              =   -2126.13130223 Ry
     estimated scf accuracy    <       0.00026044 Ry

     total magnetization       =    19.00 Bohr mag/cell
     absolute magnetization    =    19.05 Bohr mag/cell

     iteration # 17     ecut=   100.00 Ry     beta= 0.40
     Davidson diagonalization with overlap
     ethr =  1.38E-07,  avg # of iterations =  2.2

     negative rho (up, down):  0.000E+00 9.501E-04

     total cpu time spent up to now is    10256.4 secs

     total energy              =   -2126.13133386 Ry
     estimated scf accuracy    <       0.00015124 Ry

     total magnetization       =    19.00 Bohr mag/cell
     absolute magnetization    =    19.05 Bohr mag/cell

     iteration # 18     ecut=   100.00 Ry     beta= 0.40
     Davidson diagonalization with overlap
     ethr =  8.00E-08,  avg # of iterations =  1.1

     negative rho (up, down):  0.000E+00 9.460E-04

     total cpu time spent up to now is    10695.6 secs

     total energy              =   -2126.13133960 Ry
     estimated scf accuracy    <       0.00007504 Ry

     total magnetization       =    19.00 Bohr mag/cell
     absolute magnetization    =    19.05 Bohr mag/cell

     iteration # 19     ecut=   100.00 Ry     beta= 0.40
     Davidson diagonalization with overlap
     ethr =  3.97E-08,  avg # of iterations =  1.2

     negative rho (up, down):  0.000E+00 9.404E-04

     total cpu time spent up to now is    11181.5 secs

     total energy              =   -2126.13134410 Ry
     estimated scf accuracy    <       0.00000679 Ry

     total magnetization       =    19.00 Bohr mag/cell
     absolute magnetization    =    19.05 Bohr mag/cell

     iteration # 20     ecut=   100.00 Ry     beta= 0.40
     Davidson diagonalization with overlap
     ethr =  3.60E-09,  avg # of iterations =  3.7

     negative rho (up, down):  0.000E+00 9.393E-04

     total cpu time spent up to now is    12250.1 secs

     total energy              =   -2126.13134815 Ry
     estimated scf accuracy    <       0.00000141 Ry

     total magnetization       =    19.00 Bohr mag/cell
     absolute magnetization    =    19.05 Bohr mag/cell

     iteration # 21     ecut=   100.00 Ry     beta= 0.40
     Davidson diagonalization with overlap
     ethr =  7.45E-10,  avg # of iterations =  2.5

     negative rho (up, down):  0.000E+00 9.387E-04

     total cpu time spent up to now is    12832.4 secs

     total energy              =   -2126.13134871 Ry
     estimated scf accuracy    <       0.00000591 Ry

     total magnetization       =    19.00 Bohr mag/cell
     absolute magnetization    =    19.05 Bohr mag/cell

     iteration # 22     ecut=   100.00 Ry     beta= 0.40
     Davidson diagonalization with overlap
     ethr =  7.45E-10,  avg # of iterations =  2.0

     negative rho (up, down):  0.000E+00 9.398E-04

     total cpu time spent up to now is    13366.0 secs

     total energy              =   -2126.13134908 Ry
     estimated scf accuracy    <       0.00000078 Ry

     total magnetization       =    19.00 Bohr mag/cell
     absolute magnetization    =    19.05 Bohr mag/cell

     iteration # 23     ecut=   100.00 Ry     beta= 0.40
     Davidson diagonalization with overlap
     ethr =  4.11E-10,  avg # of iterations =  2.0

     negative rho (up, down):  0.000E+00 9.409E-04

     total cpu time spent up to now is    13893.8 secs

     total energy              =   -2126.13134923 Ry
     estimated scf accuracy    <       0.00000011 Ry

     total magnetization       =    19.00 Bohr mag/cell
     absolute magnetization    =    19.05 Bohr mag/cell

     iteration # 24     ecut=   100.00 Ry     beta= 0.40
     Davidson diagonalization with overlap
     ethr =  5.94E-11,  avg # of iterations =  4.0

     negative rho (up, down):  0.000E+00 9.409E-04

     total cpu time spent up to now is    14583.4 secs

     total energy              =   -2126.13134928 Ry
     estimated scf accuracy    <       0.00000017 Ry

     total magnetization       =    19.00 Bohr mag/cell
     absolute magnetization    =    19.05 Bohr mag/cell

     iteration # 25     ecut=   100.00 Ry     beta= 0.40
     Davidson diagonalization with overlap
     ethr =  5.94E-11,  avg # of iterations =  1.4

     negative rho (up, down):  0.000E+00 9.410E-04

     total cpu time spent up to now is    15052.5 secs

     total energy              =   -2126.13134930 Ry
     estimated scf accuracy    <       0.00000002 Ry

     total magnetization       =    19.00 Bohr mag/cell
     absolute magnetization    =    19.05 Bohr mag/cell

     iteration # 26     ecut=   100.00 Ry     beta= 0.40
     Davidson diagonalization with overlap
     ethr =  1.18E-11,  avg # of iterations =  3.6

     negative rho (up, down):  0.000E+00 9.411E-04

     total cpu time spent up to now is    15938.5 secs

     total energy              =   -2126.13134931 Ry
     estimated scf accuracy    <       0.00000001 Ry

     total magnetization       =    19.00 Bohr mag/cell
     absolute magnetization    =    19.05 Bohr mag/cell

     iteration # 27     ecut=   100.00 Ry     beta= 0.40
     Davidson diagonalization with overlap
     ethr =  6.14E-12,  avg # of iterations =  2.1

     negative rho (up, down):  0.000E+00 9.410E-04

     total cpu time spent up to now is    16483.8 secs

     total energy              =   -2126.13134931 Ry
     estimated scf accuracy    <       0.00000004 Ry

     total magnetization       =    19.00 Bohr mag/cell
     absolute magnetization    =    19.05 Bohr mag/cell

     iteration # 28     ecut=   100.00 Ry     beta= 0.40
     Davidson diagonalization with overlap
     ethr =  6.14E-12,  avg # of iterations =  2.0

     negative rho (up, down):  0.000E+00 9.410E-04

     total cpu time spent up to now is    17485.5 secs

     total energy              =   -2126.13134932 Ry
     estimated scf accuracy    <       0.00000001 Ry

     total magnetization       =    19.00 Bohr mag/cell
     absolute magnetization    =    19.05 Bohr mag/cell

     iteration # 29     ecut=   100.00 Ry     beta= 0.40
     Davidson diagonalization with overlap
     ethr =  6.14E-12,  avg # of iterations =  2.0

     negative rho (up, down):  0.000E+00 9.410E-04

     total cpu time spent up to now is    18006.8 secs

     total energy              =   -2126.13134932 Ry
     estimated scf accuracy    <          4.5E-09 Ry

     total magnetization       =    19.00 Bohr mag/cell
     absolute magnetization    =    19.05 Bohr mag/cell

     iteration # 30     ecut=   100.00 Ry     beta= 0.40
     Davidson diagonalization with overlap
     ethr =  2.39E-12,  avg # of iterations =  2.0

     negative rho (up, down):  0.000E+00 9.409E-04

     total cpu time spent up to now is    18522.4 secs

     total energy              =   -2126.13134932 Ry
     estimated scf accuracy    <          5.9E-09 Ry

     total magnetization       =    19.00 Bohr mag/cell
     absolute magnetization    =    19.05 Bohr mag/cell

     iteration # 31     ecut=   100.00 Ry     beta= 0.40
     Davidson diagonalization with overlap
     ethr =  2.39E-12,  avg # of iterations =  1.0

     negative rho (up, down):  0.000E+00 9.409E-04

     total cpu time spent up to now is    18959.9 secs

     total energy              =   -2126.13134932 Ry
     estimated scf accuracy    <          1.8E-09 Ry

     total magnetization       =    19.00 Bohr mag/cell
     absolute magnetization    =    19.05 Bohr mag/cell

     iteration # 32     ecut=   100.00 Ry     beta= 0.40
     Davidson diagonalization with overlap
     ethr =  9.45E-13,  avg # of iterations =  2.0

     negative rho (up, down):  0.000E+00 9.409E-04

     total cpu time spent up to now is    19488.0 secs

     total energy              =   -2126.13134932 Ry
     estimated scf accuracy    <          1.2E-09 Ry

     total magnetization       =    19.00 Bohr mag/cell
     absolute magnetization    =    19.05 Bohr mag/cell

     iteration # 33     ecut=   100.00 Ry     beta= 0.40
     Davidson diagonalization with overlap
     ethr =  6.59E-13,  avg # of iterations =  2.0

     negative rho (up, down):  0.000E+00 9.409E-04

     Magnetic moment per site:
     atom:    1    charge:    7.9045    magn:    0.0005    constr:    0.0000
     atom:    2    charge:   12.8469    magn:    3.6642    constr:    0.0000
     atom:    3    charge:   12.8540    magn:    3.6476    constr:    0.0000
     atom:    4    charge:   12.8811    magn:    3.5813    constr:    0.0000
     atom:    5    charge:   12.8546    magn:    3.6502    constr:    0.0000
     atom:    6    charge:    0.8508    magn:    0.0107    constr:    0.0000
     atom:    7    charge:    0.8549    magn:    0.0085    constr:    0.0000
     atom:    8    charge:    0.8532    magn:    0.0113    constr:    0.0000
     atom:    9    charge:    0.8493    magn:    0.0089    constr:    0.0000
     atom:   10    charge:    4.2710    magn:    0.1367    constr:    0.0000
     atom:   11    charge:    4.2872    magn:    0.0867    constr:    0.0000
     atom:   12    charge:    4.2739    magn:    0.1289    constr:    0.0000
     atom:   13    charge:    4.2697    magn:    0.1030    constr:    0.0000
     atom:   14    charge:    4.2612    magn:    0.1081    constr:    0.0000
     atom:   15    charge:    4.2694    magn:    0.1311    constr:    0.0000
     atom:   16    charge:    4.2691    magn:    0.0803    constr:    0.0000
     atom:   17    charge:    4.2652    magn:    0.1406    constr:    0.0000
     atom:   18    charge:    4.2427    magn:    0.1501    constr:    0.0000
     atom:   19    charge:    4.2436    magn:    0.1277    constr:    0.0000
     atom:   20    charge:    4.2495    magn:    0.1519    constr:    0.0000
     atom:   21    charge:    4.2434    magn:    0.1347    constr:    0.0000
     atom:   22    charge:    4.2473    magn:    0.1408    constr:    0.0000
     atom:   23    charge:    4.2511    magn:    0.1194    constr:    0.0000
     atom:   24    charge:    4.2433    magn:    0.1529    constr:    0.0000
     atom:   25    charge:    4.2488    magn:    0.1326    constr:    0.0000

     total cpu time spent up to now is    20019.9 secs

     End of self-consistent calculation

 ------ SPIN UP ------------


          k = 0.0000 0.0000 0.0000 ( 36463 PWs)   bands (ev):

   -85.2526 -85.2035 -85.2017 -84.9525 -51.3596 -51.3412 -51.3220 -51.2197
   -51.2079 -51.1672 -51.1540 -51.1135 -51.1074 -51.0986 -50.9087 -50.7357
   -44.9940 -17.0246 -16.9752 -16.9641 -16.2143 -16.0413 -15.8775 -15.7756
   -13.8201 -13.7777 -13.6740 -13.5848 -13.5301 -13.5107 -13.4867 -13.4276
   -13.4195 -13.3488 -13.2961 -13.2058  -4.1500  -3.6503  -3.5863  -3.1629
    -2.2829  -1.9317  -1.8599  -1.6934  -1.5177  -1.3999  -1.2766  -1.2696
    -1.1174  -0.9636  -0.7275  -0.4798  -0.3262  -0.3066   0.2016   0.2757
     0.3107   0.4042   0.5530   0.6893   0.7667   0.8150   0.9360   1.0002
     1.0987   1.3034   1.3258   1.4634   1.5819   1.6041   1.6837   1.7224
     1.8340   2.0224   2.1381   2.1739   2.2389   2.2782   2.3707   2.4695
     2.5721   2.6417   2.7039   2.8173   2.8515   3.0068   3.0936   3.1601
     3.2350   3.3530   3.3791   3.4015   3.5045   3.6800   3.6854   3.8379
     3.9278   4.0948   4.1123   4.1446   4.3715   4.4826   4.7510   4.8603
     9.0375  11.0700  11.5573  11.9262  12.1403  12.8055  13.1341  13.3407
    13.4579  13.6409

     occupation numbers 
     1.0000   1.0000   1.0000   1.0000   1.0000   1.0000   1.0000   1.0000
     1.0000   1.0000   1.0000   1.0000   1.0000   1.0000   1.0000   1.0000
     1.0000   1.0000   1.0000   1.0000   1.0000   1.0000   1.0000   1.0000
     1.0000   1.0000   1.0000   1.0000   1.0000   1.0000   1.0000   1.0000
     1.0000   1.0000   1.0000   1.0000   1.0000   1.0000   1.0000   1.0000
     1.0000   1.0000   1.0000   1.0000   1.0000   1.0000   1.0000   1.0000
     1.0000   1.0000   1.0000   1.0000   1.0000   1.0000   1.0000   1.0000
     1.0000   1.0000   1.0000   1.0000   1.0000   1.0000   1.0000   1.0000
     1.0000   1.0000   1.0000   1.0000   1.0000   1.0000   1.0000   1.0000
     1.0000   1.0000   1.0000   1.0000   1.0000   1.0000   1.0000   1.0000
     1.0000   1.0000   1.0000   1.0000   1.0000   1.0000   1.0000   1.0000
     1.0000   1.0000   1.0000   1.0000   1.0000   1.0000   1.0000   1.0000
     1.0000   1.0000   1.0000   1.0000   1.0000   1.0000   1.0000   1.0000
     0.0000   0.0000   0.0000   0.0000   0.0000   0.0000   0.0000   0.0000
     0.0000   0.0000

          k = 0.0000 0.0000 0.2337 ( 36493 PWs)   bands (ev):

   -85.2526 -85.2035 -85.2017 -84.9525 -51.3596 -51.3412 -51.3220 -51.2197
   -51.2079 -51.1672 -51.1540 -51.1135 -51.1074 -51.0986 -50.9087 -50.7357
   -44.9940 -17.0255 -16.9786 -16.9644 -16.1973 -16.0337 -15.8716 -15.7731
   -13.8298 -13.7832 -13.6874 -13.5895 -13.5344 -13.5140 -13.4823 -13.4314
   -13.4162 -13.3545 -13.3007 -13.2097  -4.1266  -3.6449  -3.5825  -3.1739
    -2.2376  -1.9060  -1.8583  -1.6802  -1.5124  -1.4184  -1.3069  -1.1849
    -1.1091  -0.9301  -0.7732  -0.4542  -0.3502  -0.3072   0.2137   0.2835
     0.3161   0.4421   0.5499   0.6909   0.7605   0.7916   0.9126   1.0251
     1.0908   1.2984   1.3128   1.4451   1.5479   1.5751   1.6281   1.6845
     1.9393   1.9978   2.0807   2.1280   2.2293   2.2826   2.3378   2.5099
     2.5498   2.6482   2.7180   2.8082   2.9555   2.9845   3.0531   3.1175
     3.2393   3.3125   3.3819   3.4043   3.4811   3.6860   3.7447   3.8408
     3.9536   4.0932   4.1378   4.1502   4.3669   4.4741   4.7260   4.8377
     9.1862  11.1415  11.6120  11.9286  12.1976  12.7361  13.1499  13.2535
    13.3614  13.5957

     occupation numbers 
     1.0000   1.0000   1.0000   1.0000   1.0000   1.0000   1.0000   1.0000
     1.0000   1.0000   1.0000   1.0000   1.0000   1.0000   1.0000   1.0000
     1.0000   1.0000   1.0000   1.0000   1.0000   1.0000   1.0000   1.0000
     1.0000   1.0000   1.0000   1.0000   1.0000   1.0000   1.0000   1.0000
     1.0000   1.0000   1.0000   1.0000   1.0000   1.0000   1.0000   1.0000
     1.0000   1.0000   1.0000   1.0000   1.0000   1.0000   1.0000   1.0000
     1.0000   1.0000   1.0000   1.0000   1.0000   1.0000   1.0000   1.0000
     1.0000   1.0000   1.0000   1.0000   1.0000   1.0000   1.0000   1.0000
     1.0000   1.0000   1.0000   1.0000   1.0000   1.0000   1.0000   1.0000
     1.0000   1.0000   1.0000   1.0000   1.0000   1.0000   1.0000   1.0000
     1.0000   1.0000   1.0000   1.0000   1.0000   1.0000   1.0000   1.0000
     1.0000   1.0000   1.0000   1.0000   1.0000   1.0000   1.0000   1.0000
     1.0000   1.0000   1.0000   1.0000   1.0000   1.0000   1.0000   1.0000
     0.0000   0.0000   0.0000   0.0000   0.0000   0.0000   0.0000   0.0000
     0.0000   0.0000

          k = 0.0000 0.0000 0.4675 ( 36542 PWs)   bands (ev):

   -85.2526 -85.2035 -85.2017 -84.9525 -51.3596 -51.3412 -51.3220 -51.2197
   -51.2079 -51.1672 -51.1540 -51.1135 -51.1074 -51.0986 -50.9087 -50.7357
   -44.9940 -17.0297 -16.9870 -16.9632 -16.1525 -16.0147 -15.8565 -15.7681
   -13.8562 -13.7999 -13.7182 -13.6050 -13.5476 -13.5225 -13.4695 -13.4383
   -13.4050 -13.3674 -13.3137 -13.2204  -4.0591  -3.6404  -3.5680  -3.2158
    -2.1119  -1.8669  -1.8226  -1.6653  -1.4922  -1.4402  -1.3054  -1.1019
    -1.0234  -0.8932  -0.8396  -0.4741  -0.3699  -0.2482   0.2522   0.3025
     0.3446   0.5106   0.5620   0.6966   0.7339   0.7627   0.8353   1.0601
     1.0890   1.2627   1.3208   1.3853   1.4440   1.4953   1.5839   1.6391
     1.7890   1.9212   2.0985   2.1359   2.1926   2.2089   2.3987   2.4514
     2.5888   2.6409   2.7579   2.8269   2.8490   2.9795   3.0525   3.0858
     3.1818   3.2839   3.4213   3.4895   3.5025   3.6998   3.8280   3.8467
     4.0207   4.1149   4.1244   4.2151   4.3522   4.4613   4.6495   4.7690
     9.5849  11.3325  11.7316  11.9743  12.3307  12.6265  12.9376  13.1655
    13.1817  13.2954

     occupation numbers 
     1.0000   1.0000   1.0000   1.0000   1.0000   1.0000   1.0000   1.0000
     1.0000   1.0000   1.0000   1.0000   1.0000   1.0000   1.0000   1.0000
     1.0000   1.0000   1.0000   1.0000   1.0000   1.0000   1.0000   1.0000
     1.0000   1.0000   1.0000   1.0000   1.0000   1.0000   1.0000   1.0000
     1.0000   1.0000   1.0000   1.0000   1.0000   1.0000   1.0000   1.0000
     1.0000   1.0000   1.0000   1.0000   1.0000   1.0000   1.0000   1.0000
     1.0000   1.0000   1.0000   1.0000   1.0000   1.0000   1.0000   1.0000
     1.0000   1.0000   1.0000   1.0000   1.0000   1.0000   1.0000   1.0000
     1.0000   1.0000   1.0000   1.0000   1.0000   1.0000   1.0000   1.0000
     1.0000   1.0000   1.0000   1.0000   1.0000   1.0000   1.0000   1.0000
     1.0000   1.0000   1.0000   1.0000   1.0000   1.0000   1.0000   1.0000
     1.0000   1.0000   1.0000   1.0000   1.0000   1.0000   1.0000   1.0000
     1.0000   1.0000   1.0000   1.0000   1.0000   1.0000   1.0000   1.0000
     0.0000   0.0000   0.0000   0.0000   0.0000   0.0000   0.0000   0.0000
     0.0000   0.0000

          k = 0.0000 0.0000 0.7012 ( 36506 PWs)   bands (ev):

   -85.2526 -85.2035 -85.2017 -84.9525 -51.3596 -51.3412 -51.3220 -51.2197
   -51.2079 -51.1672 -51.1540 -51.1136 -51.1074 -51.0986 -50.9087 -50.7357
   -44.9940 -17.0376 -16.9931 -16.9609 -16.0965 -15.9948 -15.8383 -15.7655
   -13.8888 -13.8242 -13.7484 -13.6305 -13.5648 -13.5288 -13.4525 -13.4388
   -13.3908 -13.3797 -13.3318 -13.2345  -3.9578  -3.6586  -3.5398  -3.2908
    -1.9662  -1.8394  -1.7459  -1.6647  -1.4604  -1.4305  -1.2888  -1.0996
    -0.9959  -0.8618  -0.7221  -0.6333  -0.2341  -0.1291   0.2958   0.3430
     0.3926   0.4910   0.6257   0.6735   0.6943   0.7216   0.8053   1.0525
     1.1042   1.1852   1.2501   1.3244   1.3840   1.4137   1.4971   1.5663
     1.6445   1.7842   2.0048   2.1094   2.1555   2.3422   2.3640   2.5323
     2.5947   2.6281   2.6693   2.7002   2.8674   2.8756   2.9702   3.0914
     3.1612   3.2995   3.5482   3.5617   3.6911   3.7569   3.8493   3.8699
     4.0711   4.1288   4.1687   4.2597   4.3531   4.4529   4.5209   4.6553
    10.1334  11.5714  11.7403  12.1005  12.3934  12.5885  12.7874  12.9272
    13.0493  13.0856

     occupation numbers 
     1.0000   1.0000   1.0000   1.0000   1.0000   1.0000   1.0000   1.0000
     1.0000   1.0000   1.0000   1.0000   1.0000   1.0000   1.0000   1.0000
     1.0000   1.0000   1.0000   1.0000   1.0000   1.0000   1.0000   1.0000
     1.0000   1.0000   1.0000   1.0000   1.0000   1.0000   1.0000   1.0000
     1.0000   1.0000   1.0000   1.0000   1.0000   1.0000   1.0000   1.0000
     1.0000   1.0000   1.0000   1.0000   1.0000   1.0000   1.0000   1.0000
     1.0000   1.0000   1.0000   1.0000   1.0000   1.0000   1.0000   1.0000
     1.0000   1.0000   1.0000   1.0000   1.0000   1.0000   1.0000   1.0000
     1.0000   1.0000   1.0000   1.0000   1.0000   1.0000   1.0000   1.0000
     1.0000   1.0000   1.0000   1.0000   1.0000   1.0000   1.0000   1.0000
     1.0000   1.0000   1.0000   1.0000   1.0000   1.0000   1.0000   1.0000
     1.0000   1.0000   1.0000   1.0000   1.0000   1.0000   1.0000   1.0000
     1.0000   1.0000   1.0000   1.0000   1.0000   1.0000   1.0000   1.0000
     0.0000   0.0000   0.0000   0.0000   0.0000   0.0000   0.0000   0.0000
     0.0000   0.0000

          k = 0.0000 0.0000 0.9349 ( 36496 PWs)   bands (ev):

   -85.2526 -85.2035 -85.2017 -84.9525 -51.3596 -51.3412 -51.3220 -51.2197
   -51.2079 -51.1672 -51.1540 -51.1136 -51.1074 -51.0986 -50.9087 -50.7357
   -44.9940 -17.0443 -16.9954 -16.9593 -16.0536 -15.9859 -15.8248 -15.7670
   -13.9111 -13.8429 -13.7660 -13.6525 -13.5747 -13.5311 -13.4457 -13.4276
   -13.3884 -13.3800 -13.3469 -13.2455  -3.8476  -3.7133  -3.5009  -3.3684
    -1.8895  -1.8219  -1.6882  -1.6437  -1.4418  -1.3534  -1.2929  -1.2249
    -0.9307  -0.7979  -0.7525  -0.6312  -0.0426   0.0720   0.2602   0.3311
     0.4273   0.4558   0.5794   0.5939   0.6435   0.7545   0.8811   0.9809
     1.1026   1.1203   1.1627   1.2396   1.2813   1.3717   1.4465   1.5672
     1.6930   1.7741   1.8551   2.0066   2.1742   2.3130   2.4904   2.5126
     2.5841   2.6149   2.6404   2.6835   2.7569   2.8086   2.9540   3.0880
     3.1654   3.3023   3.6041   3.6740   3.7352   3.8512   3.8758   4.0140
     4.0355   4.1661   4.2489   4.2771   4.3385   4.3941   4.4470   4.5209
    10.7332  11.3165  11.8882  12.2436  12.3641  12.5205  12.7339  12.8313
    13.0470  13.0813

     occupation numbers 
     1.0000   1.0000   1.0000   1.0000   1.0000   1.0000   1.0000   1.0000
     1.0000   1.0000   1.0000   1.0000   1.0000   1.0000   1.0000   1.0000
     1.0000   1.0000   1.0000   1.0000   1.0000   1.0000   1.0000   1.0000
     1.0000   1.0000   1.0000   1.0000   1.0000   1.0000   1.0000   1.0000
     1.0000   1.0000   1.0000   1.0000   1.0000   1.0000   1.0000   1.0000
     1.0000   1.0000   1.0000   1.0000   1.0000   1.0000   1.0000   1.0000
     1.0000   1.0000   1.0000   1.0000   1.0000   1.0000   1.0000   1.0000
     1.0000   1.0000   1.0000   1.0000   1.0000   1.0000   1.0000   1.0000
     1.0000   1.0000   1.0000   1.0000   1.0000   1.0000   1.0000   1.0000
     1.0000   1.0000   1.0000   1.0000   1.0000   1.0000   1.0000   1.0000
     1.0000   1.0000   1.0000   1.0000   1.0000   1.0000   1.0000   1.0000
     1.0000   1.0000   1.0000   1.0000   1.0000   1.0000   1.0000   1.0000
     1.0000   1.0000   1.0000   1.0000   1.0000   1.0000   1.0000   1.0000
     0.0000   0.0000   0.0000   0.0000   0.0000   0.0000   0.0000   0.0000
     0.0000   0.0000

          k = 0.0000 0.2391 0.0000 ( 36485 PWs)   bands (ev):

   -85.2526 -85.2035 -85.2017 -84.9525 -51.3596 -51.3412 -51.3220 -51.2197
   -51.2079 -51.1672 -51.1540 -51.1135 -51.1074 -51.0986 -50.9087 -50.7357
   -44.9940 -17.0245 -16.9758 -16.9641 -16.1975 -16.0390 -15.8760 -15.7924
   -13.8218 -13.7752 -13.6734 -13.5889 -13.5712 -13.5257 -13.4693 -13.4478
   -13.3742 -13.3426 -13.2930 -13.2083  -4.1244  -3.6720  -3.5606  -3.1718
    -2.2572  -1.9383  -1.8543  -1.6983  -1.4923  -1.3938  -1.2693  -1.2515
    -1.0735  -0.9643  -0.7059  -0.4596  -0.3829  -0.2616   0.2387   0.2851
     0.3320   0.3791   0.4566   0.5728   0.6689   0.9046   0.9762   1.0390
     1.1943   1.3068   1.3135   1.4371   1.5082   1.5288   1.5932   1.6571
     1.8544   2.0870   2.1466   2.2111   2.2569   2.3037   2.3801   2.4263
     2.5974   2.6182   2.6593   2.7178   2.8342   3.0434   3.1138   3.1990
     3.2133   3.2776   3.3211   3.4894   3.5658   3.6715   3.7016   3.8463
     3.9264   4.0376   4.1199   4.1756   4.3357   4.4706   4.7936   4.8549
     9.1935  11.1596  11.6328  11.8535  12.2114  12.8718  13.0783  13.3453
    13.4167  13.6114

     occupation numbers 
     1.0000   1.0000   1.0000   1.0000   1.0000   1.0000   1.0000   1.0000
     1.0000   1.0000   1.0000   1.0000   1.0000   1.0000   1.0000   1.0000
     1.0000   1.0000   1.0000   1.0000   1.0000   1.0000   1.0000   1.0000
     1.0000   1.0000   1.0000   1.0000   1.0000   1.0000   1.0000   1.0000
     1.0000   1.0000   1.0000   1.0000   1.0000   1.0000   1.0000   1.0000
     1.0000   1.0000   1.0000   1.0000   1.0000   1.0000   1.0000   1.0000
     1.0000   1.0000   1.0000   1.0000   1.0000   1.0000   1.0000   1.0000
     1.0000   1.0000   1.0000   1.0000   1.0000   1.0000   1.0000   1.0000
     1.0000   1.0000   1.0000   1.0000   1.0000   1.0000   1.0000   1.0000
     1.0000   1.0000   1.0000   1.0000   1.0000   1.0000   1.0000   1.0000
     1.0000   1.0000   1.0000   1.0000   1.0000   1.0000   1.0000   1.0000
     1.0000   1.0000   1.0000   1.0000   1.0000   1.0000   1.0000   1.0000
     1.0000   1.0000   1.0000   1.0000   1.0000   1.0000   1.0000   1.0000
     0.0000   0.0000   0.0000   0.0000   0.0000   0.0000   0.0000   0.0000
     0.0000   0.0000

          k = 0.0000 0.2391 0.2337 ( 36495 PWs)   bands (ev):

   -85.2526 -85.2035 -85.2017 -84.9525 -51.3596 -51.3412 -51.3220 -51.2197
   -51.2079 -51.1672 -51.1540 -51.1135 -51.1074 -51.0986 -50.9087 -50.7357
   -44.9940 -17.0257 -16.9794 -16.9643 -16.1790 -16.0312 -15.8708 -15.7900
   -13.8319 -13.7806 -13.6884 -13.5954 -13.5704 -13.5281 -13.4784 -13.4418
   -13.3773 -13.3462 -13.2940 -13.2108  -4.1015  -3.6642  -3.5594  -3.1813
    -2.2140  -1.9114  -1.8510  -1.6843  -1.4886  -1.4118  -1.2840  -1.1812
    -1.0627  -0.9380  -0.7528  -0.4529  -0.3957  -0.2569   0.2523   0.2790
     0.3281   0.4109   0.4672   0.5819   0.6746   0.9071   0.9950   1.0044
     1.1636   1.2870   1.3259   1.4227   1.4660   1.5027   1.5693   1.6490
     1.9261   2.0560   2.1163   2.1637   2.2385   2.2902   2.3234   2.5004
     2.5364   2.6144   2.6825   2.7684   2.8509   3.0134   3.0691   3.1851
     3.1904   3.2897   3.3386   3.4596   3.5557   3.6860   3.7373   3.8531
     3.9581   4.0417   4.1456   4.1865   4.3216   4.4628   4.7757   4.8366
     9.3356  11.2283  11.6895  11.8878  12.2451  12.7886  13.1217  13.2197
    13.3738  13.5402

     occupation numbers 
     1.0000   1.0000   1.0000   1.0000   1.0000   1.0000   1.0000   1.0000
     1.0000   1.0000   1.0000   1.0000   1.0000   1.0000   1.0000   1.0000
     1.0000   1.0000   1.0000   1.0000   1.0000   1.0000   1.0000   1.0000
     1.0000   1.0000   1.0000   1.0000   1.0000   1.0000   1.0000   1.0000
     1.0000   1.0000   1.0000   1.0000   1.0000   1.0000   1.0000   1.0000
     1.0000   1.0000   1.0000   1.0000   1.0000   1.0000   1.0000   1.0000
     1.0000   1.0000   1.0000   1.0000   1.0000   1.0000   1.0000   1.0000
     1.0000   1.0000   1.0000   1.0000   1.0000   1.0000   1.0000   1.0000
     1.0000   1.0000   1.0000   1.0000   1.0000   1.0000   1.0000   1.0000
     1.0000   1.0000   1.0000   1.0000   1.0000   1.0000   1.0000   1.0000
     1.0000   1.0000   1.0000   1.0000   1.0000   1.0000   1.0000   1.0000
     1.0000   1.0000   1.0000   1.0000   1.0000   1.0000   1.0000   1.0000
     1.0000   1.0000   1.0000   1.0000   1.0000   1.0000   1.0000   1.0000
     0.0000   0.0000   0.0000   0.0000   0.0000   0.0000   0.0000   0.0000
     0.0000   0.0000

          k = 0.0000 0.2391 0.4675 ( 36500 PWs)   bands (ev):

   -85.2526 -85.2035 -85.2017 -84.9525 -51.3596 -51.3412 -51.3220 -51.2197
   -51.2079 -51.1672 -51.1540 -51.1135 -51.1074 -51.0986 -50.9087 -50.7357
   -44.9940 -17.0300 -16.9873 -16.9632 -16.1354 -16.0106 -15.8578 -15.7824
   -13.8588 -13.7968 -13.7222 -13.6092 -13.5767 -13.5323 -13.4929 -13.4305
   -13.3825 -13.3514 -13.3024 -13.2190  -4.0358  -3.6528  -3.5496  -3.2204
    -2.0929  -1.8606  -1.8209  -1.6650  -1.4751  -1.4241  -1.2831  -1.0698
    -1.0190  -0.8726  -0.8463  -0.5197  -0.3527  -0.2303   0.2553   0.2979
     0.3617   0.3982   0.5403   0.6233   0.6860   0.8667   0.9321   1.0406
     1.1154   1.2694   1.3062   1.3657   1.3976   1.4680   1.5193   1.6415
     1.8285   1.9520   2.0876   2.1659   2.1821   2.2274   2.3524   2.4613
     2.5447   2.6677   2.7118   2.7810   2.8575   2.8921   3.0154   3.1145
     3.1705   3.2774   3.4167   3.4872   3.5630   3.7204   3.8029   3.8661
     4.0224   4.0638   4.1279   4.2515   4.3017   4.4563   4.7249   4.7859
     9.7201  11.4163  11.8156  11.9796  12.3501  12.6754  12.9457  13.1254
    13.2366  13.3540

     occupation numbers 
     1.0000   1.0000   1.0000   1.0000   1.0000   1.0000   1.0000   1.0000
     1.0000   1.0000   1.0000   1.0000   1.0000   1.0000   1.0000   1.0000
     1.0000   1.0000   1.0000   1.0000   1.0000   1.0000   1.0000   1.0000
     1.0000   1.0000   1.0000   1.0000   1.0000   1.0000   1.0000   1.0000
     1.0000   1.0000   1.0000   1.0000   1.0000   1.0000   1.0000   1.0000
     1.0000   1.0000   1.0000   1.0000   1.0000   1.0000   1.0000   1.0000
     1.0000   1.0000   1.0000   1.0000   1.0000   1.0000   1.0000   1.0000
     1.0000   1.0000   1.0000   1.0000   1.0000   1.0000   1.0000   1.0000
     1.0000   1.0000   1.0000   1.0000   1.0000   1.0000   1.0000   1.0000
     1.0000   1.0000   1.0000   1.0000   1.0000   1.0000   1.0000   1.0000
     1.0000   1.0000   1.0000   1.0000   1.0000   1.0000   1.0000   1.0000
     1.0000   1.0000   1.0000   1.0000   1.0000   1.0000   1.0000   1.0000
     1.0000   1.0000   1.0000   1.0000   1.0000   1.0000   1.0000   1.0000
     0.0000   0.0000   0.0000   0.0000   0.0000   0.0000   0.0000   0.0000
     0.0000   0.0000

          k = 0.0000 0.2391 0.7012 ( 36515 PWs)   bands (ev):

   -85.2526 -85.2035 -85.2017 -84.9525 -51.3596 -51.3412 -51.3220 -51.2197
   -51.2079 -51.1672 -51.1540 -51.1136 -51.1074 -51.0986 -50.9087 -50.7357
   -44.9940 -17.0377 -16.9932 -16.9610 -16.0835 -15.9878 -15.8430 -15.7745
   -13.8919 -13.8221 -13.7540 -13.6326 -13.5892 -13.5359 -13.4966 -13.4152
   -13.3900 -13.3526 -13.3153 -13.2304  -3.9380  -3.6612  -3.5271  -3.2915
    -1.9492  -1.8303  -1.7424  -1.6608  -1.4557  -1.3991  -1.2678  -1.0695
    -0.9840  -0.8669  -0.7232  -0.6449  -0.2522  -0.1529   0.2253   0.3275
     0.3676   0.4360   0.5974   0.7166   0.7330   0.7929   0.8627   1.0525
     1.0795   1.2031   1.2353   1.3170   1.3743   1.4267   1.4612   1.5578
     1.6477   1.8012   1.9594   2.1344   2.1931   2.3103   2.3365   2.4876
     2.5461   2.6457   2.7017   2.7560   2.7909   2.8633   2.9043   3.0849
     3.1587   3.2582   3.5392   3.5894   3.6473   3.7634   3.8395   3.8770
     4.0499   4.0927   4.1362   4.2550   4.3595   4.4537   4.6448   4.7095
    10.2543  11.6656  11.8247  12.1299  12.4418  12.6487  12.8014  12.9419
    13.0379  13.1210

     occupation numbers 
     1.0000   1.0000   1.0000   1.0000   1.0000   1.0000   1.0000   1.0000
     1.0000   1.0000   1.0000   1.0000   1.0000   1.0000   1.0000   1.0000
     1.0000   1.0000   1.0000   1.0000   1.0000   1.0000   1.0000   1.0000
     1.0000   1.0000   1.0000   1.0000   1.0000   1.0000   1.0000   1.0000
     1.0000   1.0000   1.0000   1.0000   1.0000   1.0000   1.0000   1.0000
     1.0000   1.0000   1.0000   1.0000   1.0000   1.0000   1.0000   1.0000
     1.0000   1.0000   1.0000   1.0000   1.0000   1.0000   1.0000   1.0000
     1.0000   1.0000   1.0000   1.0000   1.0000   1.0000   1.0000   1.0000
     1.0000   1.0000   1.0000   1.0000   1.0000   1.0000   1.0000   1.0000
     1.0000   1.0000   1.0000   1.0000   1.0000   1.0000   1.0000   1.0000
     1.0000   1.0000   1.0000   1.0000   1.0000   1.0000   1.0000   1.0000
     1.0000   1.0000   1.0000   1.0000   1.0000   1.0000   1.0000   1.0000
     1.0000   1.0000   1.0000   1.0000   1.0000   1.0000   1.0000   1.0000
     0.0000   0.0000   0.0000   0.0000   0.0000   0.0000   0.0000   0.0000
     0.0000   0.0000

          k = 0.0000 0.2391 0.9349 ( 36488 PWs)   bands (ev):

   -85.2526 -85.2035 -85.2017 -84.9525 -51.3596 -51.3412 -51.3220 -51.2197
   -51.2079 -51.1672 -51.1540 -51.1136 -51.1074 -51.0986 -50.9087 -50.7357
   -44.9940 -17.0438 -16.9954 -16.9594 -16.0455 -15.9780 -15.8302 -15.7709
   -13.9148 -13.8419 -13.7728 -13.6535 -13.5950 -13.5380 -13.4928 -13.4024
   -13.3940 -13.3552 -13.3252 -13.2398  -3.8343  -3.7039  -3.4958  -3.3635
    -1.8707  -1.8106  -1.6830  -1.6452  -1.4329  -1.3308  -1.2704  -1.1868
    -0.9352  -0.8017  -0.7485  -0.6223  -0.1120  -0.0006   0.1460   0.1997
     0.4575   0.5474   0.6223   0.6733   0.7049   0.8116   0.9092   0.9618
     1.0788   1.0989   1.2063   1.2642   1.2886   1.3596   1.4180   1.5036
     1.6817   1.7862   1.8254   2.0163   2.1996   2.3029   2.4180   2.4853
     2.5649   2.6156   2.6497   2.6999   2.7704   2.8257   2.9063   3.0668
     3.1550   3.2505   3.5856   3.6820   3.7491   3.8266   3.8571   3.8854
     4.0123   4.0749   4.1961   4.2713   4.4170   4.4578   4.5616   4.6374
    10.8448  11.4240  11.9666  12.3302  12.4033  12.5749  12.7783  12.8578
    12.9728  13.0783

     occupation numbers 
     1.0000   1.0000   1.0000   1.0000   1.0000   1.0000   1.0000   1.0000
     1.0000   1.0000   1.0000   1.0000   1.0000   1.0000   1.0000   1.0000
     1.0000   1.0000   1.0000   1.0000   1.0000   1.0000   1.0000   1.0000
     1.0000   1.0000   1.0000   1.0000   1.0000   1.0000   1.0000   1.0000
     1.0000   1.0000   1.0000   1.0000   1.0000   1.0000   1.0000   1.0000
     1.0000   1.0000   1.0000   1.0000   1.0000   1.0000   1.0000   1.0000
     1.0000   1.0000   1.0000   1.0000   1.0000   1.0000   1.0000   1.0000
     1.0000   1.0000   1.0000   1.0000   1.0000   1.0000   1.0000   1.0000
     1.0000   1.0000   1.0000   1.0000   1.0000   1.0000   1.0000   1.0000
     1.0000   1.0000   1.0000   1.0000   1.0000   1.0000   1.0000   1.0000
     1.0000   1.0000   1.0000   1.0000   1.0000   1.0000   1.0000   1.0000
     1.0000   1.0000   1.0000   1.0000   1.0000   1.0000   1.0000   1.0000
     1.0000   1.0000   1.0000   1.0000   1.0000   1.0000   1.0000   1.0000
     0.0000   0.0000   0.0000   0.0000   0.0000   0.0000   0.0000   0.0000
     0.0000   0.0000

          k = 0.0000 0.4781 0.0000 ( 36507 PWs)   bands (ev):

   -85.2526 -85.2035 -85.2017 -84.9525 -51.3596 -51.3412 -51.3220 -51.2197
   -51.2079 -51.1672 -51.1540 -51.1135 -51.1074 -51.0986 -50.9087 -50.7357
   -44.9940 -17.0244 -16.9770 -16.9642 -16.1523 -16.0338 -15.8806 -15.8293
   -13.8265 -13.7674 -13.6713 -13.6447 -13.5915 -13.5324 -13.4803 -13.4308
   -13.3624 -13.3073 -13.2889 -13.2101  -4.0547  -3.7332  -3.4919  -3.2046
    -2.1917  -1.9576  -1.8406  -1.7074  -1.4624  -1.3743  -1.2514  -1.1515
    -1.0289  -0.9087  -0.6870  -0.4980  -0.3708  -0.1759   0.2101   0.2725
     0.3470   0.3702   0.4080   0.4724   0.5203   0.8432   1.0815   1.1367
     1.1650   1.2181   1.2909   1.3210   1.3981   1.4543   1.5709   1.7179
     1.9019   2.0607   2.1583   2.1882   2.2722   2.2899   2.3468   2.4211
     2.5866   2.6309   2.6394   2.7237   2.8229   2.9946   3.0592   3.0880
     3.1490   3.2476   3.4975   3.5396   3.6256   3.6795   3.7327   3.8746
     3.9009   3.9760   4.0984   4.1382   4.2612   4.5797   4.8091   4.8535
     9.6159  11.3529  11.5300  11.8646  12.3578  12.8677  13.0946  13.2337
    13.5451  13.6243

     occupation numbers 
     1.0000   1.0000   1.0000   1.0000   1.0000   1.0000   1.0000   1.0000
[...]
     atom   24 type  3   force =     0.00081002    0.00147997    0.00062316
     atom   25 type  3   force =    -0.00030056    0.00143519    0.00089885
     The non-local contrib.  to forces
     atom    1 type  2   force =     0.07039957    0.03578631   -0.00818007
     atom    2 type  1   force =     0.07576869    0.03156827    0.12657494
     atom    3 type  1   force =     0.04619099   -0.00165864    0.10411354
     atom    4 type  1   force =    -0.17807345   -0.06671933   -0.09389788
     atom    5 type  1   force =    -0.03360688    0.01498427   -0.09920501
     atom    6 type  4   force =    -0.02660487    0.00049283   -0.03855552
     atom    7 type  4   force =     0.04386850   -0.00184988   -0.01177648
     atom    8 type  4   force =     0.00755355    0.00754743    0.04130634
     atom    9 type  4   force =    -0.00376050   -0.00105401    0.04147797
     atom   10 type  3   force =     0.30949746   -0.02036612   -1.49084629
     atom   11 type  3   force =    -0.10971879   -0.01555100   -1.42093185
     atom   12 type  3   force =    -0.39257897    0.01886190    1.49465788
     atom   13 type  3   force =     0.24736795   -0.01299091    1.49197496
     atom   14 type  3   force =     1.23722971   -0.01793597   -0.62320044
     atom   15 type  3   force =    -1.20452222    0.01880993   -0.75909888
     atom   16 type  3   force =    -1.21896695   -0.04336074    0.31803626
     atom   17 type  3   force =     1.18306602   -0.00865920    0.62505055
     atom   18 type  3   force =    -0.53742066   -1.10841539    0.76213099
     atom   19 type  3   force =     0.52218704    1.17871343    0.78404619
     atom   20 type  3   force =     0.52886545   -1.09452034   -0.67305458
     atom   21 type  3   force =    -0.53230725    1.07268793   -0.76079908
     atom   22 type  3   force =     0.59778614    1.11957998   -0.70479328
     atom   23 type  3   force =    -0.65760756   -1.04813877   -0.61593273
     atom   24 type  3   force =    -0.53076159    1.09645444    0.77201653
     atom   25 type  3   force =     0.56824571   -1.13259537    0.82954296
     The ionic contribution  to forces
     atom    1 type  2   force =    -2.55652734    0.31845908    1.21623358
     atom    2 type  1   force =    -0.18595552   -0.24867202   -0.39288546
     atom    3 type  1   force =    -8.67909990    0.67473129   -0.46000102
     atom    4 type  1   force =     3.11390844    0.84471960    0.11725819
     atom    5 type  1   force =     8.81292629   -1.04725114    0.75144793
     atom    6 type  4   force =    -3.59892529   -0.03492208    0.31307833
     atom    7 type  4   force =     0.74290737    0.79631257    0.56672640
     atom    8 type  4   force =     4.96032691   -0.02191895   -0.45891780
     atom    9 type  4   force =    -2.55916304   -0.92214515   -0.76815030
     atom   10 type  3   force =   -10.33473710    0.07172970    2.72180343
     atom   11 type  3   force =     4.16391185    1.38504877    1.29749657
     atom   12 type  3   force =    12.00758498   -0.18761125   -2.83861990
     atom   13 type  3   force =    -8.09207113   -1.11330300   -2.27129979
     atom   14 type  3   force =     0.40826621   -1.10882564    5.22216736
     atom   15 type  3   force =    -2.09759773   -0.12038131    6.78600338
     atom   16 type  3   force =    -1.63148546    1.84159831   -2.36102824
     atom   17 type  3   force =     3.54910564    0.11474482   -6.00033858
     atom   18 type  3   force =    -4.37946003    2.83827779   -2.94683903
     atom   19 type  3   force =     0.34529231   -4.18256968   -2.07854926
     atom   20 type  3   force =     5.23864106    3.86972731    2.26246925
     atom   21 type  3   force =    -2.09499104   -1.91402558    2.47656236
     atom   22 type  3   force =     5.32731532   -3.97636145    2.65410411
     atom   23 type  3   force =     0.53863314    1.22700441    0.19006613
     atom   24 type  3   force =    -4.14476011   -2.68308028   -3.01603192
     atom   25 type  3   force =     1.14595417    3.57871389   -2.98275574
     The local contribution  to forces
     atom    1 type  2   force =     2.48401669   -0.36496768   -1.20638717
     atom    2 type  1   force =     0.10857104    0.21784949    0.26524565
     atom    3 type  1   force =     8.63239923   -0.67274127    0.35561072
     atom    4 type  1   force =    -2.93601819   -0.77806519   -0.02044545
     atom    5 type  1   force =    -8.77824729    1.03296866   -0.65264734
     atom    6 type  4   force =     3.62431531    0.03478051   -0.27894444
     atom    7 type  4   force =    -0.78114970   -0.79356850   -0.55567580
     atom    8 type  4   force =    -4.97041696    0.01557228    0.42109162
     atom    9 type  4   force =     2.56323048    0.92232495    0.73002117
     atom   10 type  3   force =    10.02963851   -0.05094322   -1.24318719
     atom   11 type  3   force =    -4.05654442   -1.36915671    0.11305219
     atom   12 type  3   force =   -11.61954783    0.16970572    1.35646367
     atom   13 type  3   force =     7.84686580    1.12663298    0.79088577
     atom   14 type  3   force =    -1.63534585    1.12811815   -4.60392173
     atom   15 type  3   force =     3.29441600    0.10161241   -6.03522220
     atom   16 type  3   force =     2.83758542   -1.79799876    2.04523716
     atom   17 type  3   force =    -4.72246713   -0.10592009    5.38111844
     atom   18 type  3   force =     4.91313024   -1.74080407    2.19178102
     atom   19 type  3   force =    -0.86269645    3.01451129    1.30172731
     atom   20 type  3   force =    -5.76214724   -2.78351081   -1.59702137
     atom   21 type  3   force =     2.62173003    0.85109252   -1.72297756
     atom   22 type  3   force =    -5.91999753    2.86687202   -1.95715093
     atom   23 type  3   force =     0.11398046   -0.18927945    0.42006867
     atom   24 type  3   force =     4.67173653    1.59759819    2.25166651
     atom   25 type  3   force =    -1.70960095   -2.45441956    2.16168744
     The core correction contribution to forces
     atom    1 type  2   force =     0.00000000    0.00000000    0.00000000
     atom    2 type  1   force =    -0.00106879   -0.00029828   -0.00047255
     atom    3 type  1   force =    -0.00006966    0.00006255    0.00028877
     atom    4 type  1   force =     0.00320119    0.00068501   -0.00026606
     atom    5 type  1   force =     0.00002404   -0.00020089    0.00002826
     atom    6 type  4   force =     0.00204560   -0.00004865    0.00270606
     atom    7 type  4   force =    -0.00294329   -0.00006624    0.00068723
     atom    8 type  4   force =    -0.00093237   -0.00045997   -0.00279966
     atom    9 type  4   force =     0.00037664    0.00054010   -0.00260030
     atom   10 type  3   force =    -0.00339240    0.00018567    0.01302015
     atom   11 type  3   force =     0.00166687    0.00012241    0.01226788
     atom   12 type  3   force =     0.00413639   -0.00019653   -0.01301071
     atom   13 type  3   force =    -0.00284095    0.00011444   -0.01298448
     atom   14 type  3   force =    -0.01045002    0.00017780    0.00598365
     atom   15 type  3   force =     0.01019691   -0.00017152    0.00716500
     atom   16 type  3   force =     0.01025358    0.00034350   -0.00317036
     atom   17 type  3   force =    -0.01008387    0.00007605   -0.00596296
     atom   18 type  3   force =     0.00466396    0.00961719   -0.00691253
     atom   19 type  3   force =    -0.00446611   -0.01027820   -0.00713578
     atom   20 type  3   force =    -0.00462175    0.00946995    0.00607890
     atom   21 type  3   force =     0.00460922   -0.00929818    0.00697933
     atom   22 type  3   force =    -0.00525667   -0.00970294    0.00637688
     atom   23 type  3   force =     0.00572388    0.00913526    0.00562217
     atom   24 type  3   force =     0.00459611   -0.00948861   -0.00702925
     atom   25 type  3   force =    -0.00489827    0.00973988   -0.00757256
     The Hubbard contrib.    to forces
     atom    1 type  2   force =     0.00000000    0.00000000    0.00000000
     atom    2 type  1   force =     0.00000000    0.00000000    0.00000000
     atom    3 type  1   force =     0.00000000    0.00000000    0.00000000
     atom    4 type  1   force =     0.00000000    0.00000000    0.00000000
     atom    5 type  1   force =     0.00000000    0.00000000    0.00000000
     atom    6 type  4   force =     0.00000000    0.00000000    0.00000000
     atom    7 type  4   force =     0.00000000    0.00000000    0.00000000
     atom    8 type  4   force =     0.00000000    0.00000000    0.00000000
     atom    9 type  4   force =     0.00000000    0.00000000    0.00000000
     atom   10 type  3   force =     0.00000000    0.00000000    0.00000000
     atom   11 type  3   force =     0.00000000    0.00000000    0.00000000
     atom   12 type  3   force =     0.00000000    0.00000000    0.00000000
     atom   13 type  3   force =     0.00000000    0.00000000    0.00000000
     atom   14 type  3   force =     0.00000000    0.00000000    0.00000000
     atom   15 type  3   force =     0.00000000    0.00000000    0.00000000
     atom   16 type  3   force =     0.00000000    0.00000000    0.00000000
     atom   17 type  3   force =     0.00000000    0.00000000    0.00000000
     atom   18 type  3   force =     0.00000000    0.00000000    0.00000000
     atom   19 type  3   force =     0.00000000    0.00000000    0.00000000
     atom   20 type  3   force =     0.00000000    0.00000000    0.00000000
     atom   21 type  3   force =     0.00000000    0.00000000    0.00000000
     atom   22 type  3   force =     0.00000000    0.00000000    0.00000000
     atom   23 type  3   force =     0.00000000    0.00000000    0.00000000
     atom   24 type  3   force =     0.00000000    0.00000000    0.00000000
     atom   25 type  3   force =     0.00000000    0.00000000    0.00000000
     The SCF correction term to forces
     atom    1 type  2   force =     0.00000129    0.00000238   -0.00000068
     atom    2 type  1   force =    -0.00000308    0.00000008    0.00000045
     atom    3 type  1   force =    -0.00000106    0.00000001    0.00000085
     atom    4 type  1   force =    -0.00000070   -0.00000034    0.00000053
     atom    5 type  1   force =     0.00000042   -0.00000034    0.00000017
     atom    6 type  4   force =     0.00000009   -0.00000002    0.00000034
     atom    7 type  4   force =     0.00000023   -0.00000007   -0.00000034
     atom    8 type  4   force =    -0.00000026    0.00000004    0.00000032
     atom    9 type  4   force =    -0.00000011   -0.00000011   -0.00000008
     atom   10 type  3   force =    -0.00000198   -0.00000001   -0.00000154
     atom   11 type  3   force =    -0.00000191   -0.00000003    0.00000170
     atom   12 type  3   force =    -0.00000335    0.00000014   -0.00000423
     atom   13 type  3   force =    -0.00000311    0.00000011    0.00000247
     atom   14 type  3   force =     0.00000169    0.00000008    0.00000126
     atom   15 type  3   force =     0.00000289    0.00000011   -0.00000083
     atom   16 type  3   force =     0.00000449   -0.00000000    0.00000152
     atom   17 type  3   force =     0.00000592    0.00000002   -0.00000130
     atom   18 type  3   force =    -0.00000110    0.00000387    0.00000221
     atom   19 type  3   force =    -0.00000141    0.00000368   -0.00000237
     atom   20 type  3   force =    -0.00000106   -0.00000624    0.00000491
     atom   21 type  3   force =    -0.00000088   -0.00000694   -0.00000400
     atom   22 type  3   force =    -0.00000108    0.00000609    0.00000455
     atom   23 type  3   force =    -0.00000113    0.00000646   -0.00000367
     atom   24 type  3   force =    -0.00000109   -0.00000393    0.00000217
     atom   25 type  3   force =    -0.00000139   -0.00000382   -0.00000235

     Total force =     0.014983     Total SCF correction =     0.000022


     Computing stress (Cartesian axis) and pressure


     negative rho (up, down):  0.000E+00 9.409E-04
          total   stress  (Ry/bohr**3)                   (kbar)     P=      -24.59
  -0.00030360  -0.00001186  -0.00002710          -44.66       -1.74       -3.99
  -0.00001186  -0.00018286   0.00002244           -1.74      -26.90        3.30
  -0.00002710   0.00002244  -0.00001495           -3.99        3.30       -2.20

     kinetic stress (kbar)  26385.68      7.04     -8.54
                                7.04  26614.35      4.86
                               -8.54      4.86  26425.78

     local   stress (kbar)  -4413.13   1723.89   1070.12
                             1723.89 -14050.23   -651.26
                             1070.12   -651.26  -8346.32

     nonloc. stress (kbar)  -6724.43      1.65      0.15
                                1.65  -6667.79     -0.96
                                0.15     -0.96  -6672.90

     hartree stress (kbar)  12465.51   -697.11   -429.72
                             -697.11  17787.25    258.70
                             -429.72    258.70  14840.77

     exc-cor stress (kbar)  -2797.72     -1.00     -0.81
                               -1.00  -2805.15      0.42
                               -0.81      0.42  -2802.52

     corecor stress (kbar)  -3115.08      0.31      0.87
                                0.31  -3114.41     -0.03
                                0.87     -0.03  -3116.05

     ewald   stress (kbar) -21845.49  -1036.52   -636.05
                            -1036.52 -17790.92    391.57
                             -636.05    391.57 -20330.97

     hubbard stress (kbar)      0.00      0.00      0.00
                                0.00      0.00      0.00
                                0.00      0.00      0.00

     DFT-D   stress (kbar)      0.00      0.00      0.00
                                0.00      0.00      0.00
                                0.00      0.00      0.00

     XDM     stress (kbar)      0.00      0.00      0.00
                                0.00      0.00      0.00
                                0.00      0.00      0.00

     dft-nl  stress (kbar)      0.00      0.00      0.00
                                0.00      0.00      0.00
                                0.00      0.00      0.00

     TS-vdW  stress (kbar)      0.00      0.00      0.00
                                0.00      0.00      0.00
                                0.00      0.00      0.00



     init_run     :    208.22s CPU    213.39s WALL (       1 calls)
     electrons    :  19489.94s CPU  19805.46s WALL (       1 calls)
     forces       :    132.17s CPU    134.87s WALL (       1 calls)
     stress       :   1103.41s CPU   1111.75s WALL (       1 calls)

     Called by init_run:
     wfcinit      :    197.66s CPU    201.83s WALL (       1 calls)
     wfcinit:atom :      3.73s CPU      3.82s WALL (     316 calls)
     wfcinit:wfcr :    182.92s CPU    186.75s WALL (     316 calls)
     potinit      :      3.69s CPU      3.89s WALL (       1 calls)
     hinit0       :      3.57s CPU      3.73s WALL (       1 calls)

     Called by electrons:
     c_bands      :  17464.09s CPU  17704.29s WALL (      33 calls)
     sum_band     :   1915.32s CPU   1966.41s WALL (      33 calls)
     v_of_rho     :     31.78s CPU     33.26s WALL (      34 calls)
     v_h          :      1.55s CPU      1.64s WALL (      34 calls)
     v_xc         :     32.14s CPU     33.62s WALL (      36 calls)
     newd         :     54.78s CPU     77.49s WALL (      34 calls)
     PAW_pot      :     15.81s CPU     15.91s WALL (      34 calls)
     mix_rho      :      7.69s CPU      8.03s WALL (      33 calls)

     Called by c_bands:
     init_us_2    :    319.42s CPU    327.40s WALL (   21804 calls)
     cegterg      :  16944.62s CPU  17172.78s WALL (   10428 calls)

     Called by sum_band:
     sum_band:wei :      0.58s CPU      0.59s WALL (      33 calls)
     sum_band:loo :   1752.23s CPU   1775.66s WALL (      33 calls)
     sum_band:buf :     75.35s CPU     77.11s WALL (   10428 calls)
     sum_band:ini :    154.59s CPU    157.99s WALL (   10428 calls)
     sum_band:cal :    795.95s CPU    805.49s WALL (   10428 calls)
     sum_band:bec :      9.25s CPU      9.42s WALL (   10428 calls)
     addusdens    :    151.59s CPU    179.00s WALL (      33 calls)
     addusd:skk   :      0.79s CPU      0.84s WALL (      99 calls)
     addusd:dgemm :     66.37s CPU     88.42s WALL (     198 calls)
     addusd:qvan2 :     82.37s CPU     83.13s WALL (     198 calls)

     Called by *egterg:
     cdiaghg      :    995.02s CPU   1020.42s WALL (   41662 calls)
     cegterg:over :   1590.32s CPU   1619.69s WALL (   31234 calls)
     cegterg:upda :    860.75s CPU    866.87s WALL (   31234 calls)
     cegterg:last :   1928.48s CPU   1941.44s WALL (   18660 calls)
     h_psi        :   8647.54s CPU   8774.18s WALL (   41978 calls)
     s_psi        :   1967.94s CPU   1981.34s WALL (   41978 calls)
     g_psi        :     18.50s CPU     18.79s WALL (   31234 calls)

     Called by h_psi:
     h_psi:calbec :   2128.25s CPU   2156.53s WALL (   41978 calls)
     vloc_psi     :   4255.02s CPU   4333.38s WALL (   41978 calls)
     add_vuspsi   :   2084.23s CPU   2098.68s WALL (   41978 calls)

     General routines
     calbec       :   3058.74s CPU   3098.33s WALL (   53986 calls)
     fft          :     33.00s CPU     34.91s WALL (     888 calls)
     ffts         :      0.60s CPU      0.67s WALL (     134 calls)
     fftw         :   4702.80s CPU   4786.10s WALL ( 6455230 calls)
     interpolate  :      2.33s CPU      2.52s WALL (      68 calls)

     Parallel routines
     fft_scatt_xy :    306.74s CPU    310.04s WALL ( 6456252 calls)
     fft_scatt_yz :   2425.13s CPU   2485.77s WALL ( 6456252 calls)

     PAW routines
     PAW_pot      :     15.81s CPU     15.91s WALL (      34 calls)

     PWSCF        :      5h48m CPU      5h54m WALL


   This run was terminated on:   4:44:29  14Dec2022            

=------------------------------------------------------------------------------=
   JOB DONE.
=------------------------------------------------------------------------------=
Note: The following floating-point exceptions are signalling: IEEE_UNDERFLOW_FLAG IEEE_DENORMAL
Note: The following floating-point exceptions are signalling: IEEE_DENORMAL
Note: The following floating-point exceptions are signalling: IEEE_DENORMAL
Note: The following floating-point exceptions are signalling: IEEE_INVALID_FLAG IEEE_DENORMAL
Note: The following floating-point exceptions are signalling: IEEE_DENORMAL
Note: The following floating-point exceptions are signalling: IEEE_DENORMAL
Note: The following floating-point exceptions are signalling: IEEE_DENORMAL
Note: The following floating-point exceptions are signalling: IEEE_DENORMAL
Note: The following floating-point exceptions are signalling: IEEE_DENORMAL
Note: The following floating-point exceptions are signalling: IEEE_DENORMAL
Note: The following floating-point exceptions are signalling: IEEE_DENORMAL
Note: The following floating-point exceptions are signalling: IEEE_DENORMAL
Note: The following floating-point exceptions are signalling: IEEE_DENORMAL
Note: The following floating-point exceptions are signalling: IEEE_DENORMAL
Note: The following floating-point exceptions are signalling: IEEE_DENORMAL
Note: The following floating-point exceptions are signalling: IEEE_DENORMAL
Note: The following floating-point exceptions are signalling: IEEE_DENORMAL
Note: The following floating-point exceptions are signalling: IEEE_DENORMAL
Note: The following floating-point exceptions are signalling: IEEE_DENORMAL
Note: The following floating-point exceptions are signalling: IEEE_DENORMAL
Note: The following floating-point exceptions are signalling: IEEE_DENORMAL
Note: The following floating-point exceptions are signalling: IEEE_DENORMAL
Note: The following floating-point exceptions are signalling: IEEE_DENORMAL
Note: The following floating-point exceptions are signalling: IEEE_DENORMAL
