
     Program PWSCF v.6.7MaX starts on 17Dec2022 at 22:53:29 

     This program is part of the open-source Quantum ESPRESSO suite
     for quantum simulation of materials; please cite
         "P. Giannozzi et al., J. Phys.:Condens. Matter 21 395502 (2009);
         "P. Giannozzi et al., J. Phys.:Condens. Matter 29 465901 (2017);
          URL http://www.quantum-espresso.org", 
     in publications or presentations arising from this work. More details at
     http://www.quantum-espresso.org/quote

     Parallel version (MPI), running on    16 processors

     MPI processes distributed on     1 nodes
     R & G space division:  proc/nbgrp/npool/nimage =      16
     Reading input from scale_2dab-00.in

     Current dimensions of program PWSCF are:
     Max number of different atomic species (ntypx) = 10
     Max number of k-points (npk) =  40000
     Max angular momentum in pseudopotentials (lmaxx) =  3
     Message from routine read_pp_mesh:
     mesh size missing, using the one in header
     file Fe.pbe-spn-kjpaw_psl.0.2.1.UPF: wavefunction(s)  3D renormalized
     file O.pbe-n-kjpaw_psl.0.1.UPF: wavefunction(s)  2P renormalized

     Subspace diagonalization in iterative solution of the eigenvalue problem:
     a serial algorithm will be used


     Parallelization info
     --------------------
     sticks:   dense  smooth     PW     G-vecs:    dense   smooth      PW
     Min        1120     415    112                73029    16467    2322
     Max        1122     416    114                73030    16470    2323
     Sum       17927    6645   1805              1168479   263495   37159



     bravais-lattice index     =            0
     lattice parameter (alat)  =      18.6818  a.u.
     unit-cell volume          =    1949.7229 (a.u.)^3
     number of atoms/cell      =           25
     number of atomic types    =            4
     number of electrons       =       189.00
     number of Kohn-Sham states=          114
     kinetic-energy cutoff     =     100.0000  Ry
     charge density cutoff     =    1080.0000  Ry
     scf convergence threshold =      2.0E-10
     mixing beta               =       0.4000
     number of iterations used =            8  plain     mixing
     Exchange-correlation= PBE
                           (   1   4   3   4   0   0   0)

     celldm(1)=  18.681804  celldm(2)=   0.000000  celldm(3)=   0.000000
     celldm(4)=   0.000000  celldm(5)=   0.000000  celldm(6)=   0.000000

     crystal axes: (cart. coord. in units of alat)
               a(1) = (   1.000000   0.000000   0.000000 )  
               a(2) = (   0.000000   0.597590   0.000000 )  
               a(3) = (   0.000000   0.000000   0.500395 )  

     reciprocal axes: (cart. coord. in units 2 pi/alat)
               b(1) = (  1.000000  0.000000  0.000000 )  
               b(2) = (  0.000000  1.673388  0.000000 )  
               b(3) = (  0.000000  0.000000  1.998420 )  


     PseudoPot. # 1 for Fe read from file:
     /opt/QEpot/SSSP_precision_pseudos/Fe.pbe-spn-kjpaw_psl.0.2.1.UPF
     MD5 check sum: e86618425769142926afa95317d90200
     Pseudo is Projector augmented-wave + core cor, Zval = 16.0
     Generated using "atomic" code by A. Dal Corso  v.5.0.99 svn rev. 10869
     Shape of augmentation charge: PSQ
     Using radial grid of 1191 points,  6 beta functions with: 
                l(1) =   0
                l(2) =   0
                l(3) =   1
                l(4) =   1
                l(5) =   2
                l(6) =   2
     Q(r) pseudized with 0 coefficients 


     PseudoPot. # 2 for Na read from file:
     /opt/QEpot/SSSP_precision_pseudos/Na_ONCV_PBE-1.0.oncvpsp.upf
     MD5 check sum: 24a298df0a6742ae313db96548fdb2a4
     Pseudo is Norm-conserving, Zval =  9.0
     Generated using ONCVPSP code by D. R. Hamann
     Using radial grid of 1992 points,  4 beta functions with: 
                l(1) =   0
                l(2) =   0
                l(3) =   1
                l(4) =   1

     PseudoPot. # 3 for O  read from file:
     /opt/QEpot/SSSP_precision_pseudos/O.pbe-n-kjpaw_psl.0.1.UPF
     MD5 check sum: 0234752ac141de4415c5fc33072bef88
     Pseudo is Projector augmented-wave + core cor, Zval =  6.0
     Generated using "atomic" code by A. Dal Corso  v.5.0.99 svn rev. 10869
     Shape of augmentation charge: BESSEL
     Using radial grid of 1095 points,  4 beta functions with: 
                l(1) =   0
                l(2) =   0
                l(3) =   1
                l(4) =   1
     Q(r) pseudized with 0 coefficients 


     PseudoPot. # 4 for P  read from file:
     /opt/QEpot/SSSP_precision_pseudos/P.pbe-n-rrkjus_psl.1.0.0.UPF
     MD5 check sum: 8b930f418f0a4573dca56cd030ffe088
     Pseudo is Ultrasoft + core correction, Zval =  5.0
     Generated using "atomic" code by A. Dal Corso  v.5.1
     Using radial grid of 1147 points,  6 beta functions with: 
                l(1) =   0
                l(2) =   0
                l(3) =   1
                l(4) =   1
                l(5) =   2
                l(6) =   2
     Q(r) pseudized with 0 coefficients 


     atomic species   valence    mass     pseudopotential
        Fe            16.00    55.84500     Fe( 1.00)
        Na             9.00    22.98977     Na( 1.00)
        O              6.00    15.99940     O ( 1.00)
        P              5.00    30.97376     P ( 1.00)

     Starting magnetic structure 
     atomic species   magnetization
        Fe           0.312
        Na           0.000
        O            0.000
        P            0.000

     No symmetry found


                                    s                        frac. trans.

      isym =  1     identity                                     

 cryst.   s( 1) = (     1          0          0      )
                  (     0          1          0      )
                  (     0          0          1      )

 cart.    s( 1) = (  1.0000000  0.0000000  0.0000000 )
                  (  0.0000000  1.0000000  0.0000000 )
                  (  0.0000000  0.0000000  1.0000000 )


   Cartesian axes

     site n.     atom                  positions (alat units)
         1           Na  tau(   1) = (   0.5426070   0.0859532   0.2334224  )
         2           Fe  tau(   2) = (   0.2774940   0.4493392   0.4964992  )
         3           Fe  tau(   3) = (   0.2102570   0.1513026   0.2454839  )
         4           Fe  tau(   4) = (   0.7280950   0.1558240   0.0020281  )
         5           Fe  tau(   5) = (   0.7825800   0.4471329   0.2561784  )
         6           P   tau(   6) = (   0.1059480   0.4497037   0.2222145  )
         7           P   tau(   7) = (   0.3878490   0.1534736   0.4720449  )
         8           P   tau(   8) = (   0.8915560   0.1498511   0.2787602  )
         9           P   tau(   9) = (   0.6054980   0.4485934   0.0299862  )
        10           O   tau(  10) = (   0.1317880   0.4508200   0.3758354  )
        11           O   tau(  11) = (   0.3634070   0.1505341   0.1255472  )
        12           O   tau(  12) = (   0.8709790   0.1504480   0.1244918  )
        13           O   tau(  13) = (   0.6302560   0.4517624   0.3764639  )
        14           O   tau(  14) = (   0.4595490   0.4517152   0.0607120  )
        15           O   tau(  15) = (   0.0359180   0.1490371   0.3133655  )
        16           O   tau(  16) = (   0.5363260   0.1525480   0.4485128  )
        17           O   tau(  17) = (   0.9593080   0.4497545   0.1951827  )
        18           O   tau(  18) = (   0.1755980   0.5656971   0.1494335  )
        19           O   tau(  19) = (   0.3240220   0.0365731   0.3958867  )
        20           O   tau(  20) = (   0.8190690   0.2665412   0.3485908  )
        21           O   tau(  21) = (   0.6753190   0.3316797   0.1015897  )
        22           O   tau(  22) = (   0.8159810   0.0356331   0.3481530  )
        23           O   tau(  23) = (   0.6759010   0.5648444   0.1032250  )
        24           O   tau(  24) = (   0.1746370   0.3324698   0.1507291  )
        25           O   tau(  25) = (   0.3201310   0.2697330   0.4006415  )

   Crystallographic axes

     site n.     atom                  positions (cryst. coord.)
         1           Na  tau(   1) = (  0.5426070  0.1438330  0.4664760  )
         2           Fe  tau(   2) = (  0.2774940  0.7519190  0.9922140  )
         3           Fe  tau(   3) = (  0.2102570  0.2531880  0.4905800  )
         4           Fe  tau(   4) = (  0.7280950  0.2607540  0.0040530  )
         5           Fe  tau(   5) = (  0.7825800  0.7482270  0.5119520  )
         6           P   tau(   6) = (  0.1059480  0.7525290  0.4440780  )
         7           P   tau(   7) = (  0.3878490  0.2568210  0.9433440  )
         8           P   tau(   8) = (  0.8915560  0.2507590  0.5570800  )
         9           P   tau(   9) = (  0.6054980  0.7506710  0.0599250  )
        10           O   tau(  10) = (  0.1317880  0.7543970  0.7510770  )
        11           O   tau(  11) = (  0.3634070  0.2519020  0.2508960  )
        12           O   tau(  12) = (  0.8709790  0.2517580  0.2487870  )
        13           O   tau(  13) = (  0.6302560  0.7559740  0.7523330  )
        14           O   tau(  14) = (  0.4595490  0.7558950  0.1213280  )
        15           O   tau(  15) = (  0.0359180  0.2493970  0.6262360  )
        16           O   tau(  16) = (  0.5363260  0.2552720  0.8963170  )
        17           O   tau(  17) = (  0.9593080  0.7526140  0.3900570  )
        18           O   tau(  18) = (  0.1755980  0.9466310  0.2986310  )
        19           O   tau(  19) = (  0.3240220  0.0612010  0.7911480  )
        20           O   tau(  20) = (  0.8190690  0.4460270  0.6966310  )
        21           O   tau(  21) = (  0.6753190  0.5550290  0.2030190  )
        22           O   tau(  22) = (  0.8159810  0.0596280  0.6957560  )
        23           O   tau(  23) = (  0.6759010  0.9452040  0.2062870  )
        24           O   tau(  24) = (  0.1746370  0.5563510  0.3012200  )
        25           O   tau(  25) = (  0.3201310  0.4513680  0.8006500  )

     number of k points=   158  Marzari-Vanderbilt smearing, width (Ry)=  0.0073
                       cart. coord. in units 2pi/alat
        k(    1) = (   0.0000000   0.0000000   0.0000000), wk =   0.0031746
        k(    2) = (   0.0000000   0.0000000   0.2220467), wk =   0.0063492
        k(    3) = (   0.0000000   0.0000000   0.4440934), wk =   0.0063492
        k(    4) = (   0.0000000   0.0000000   0.6661401), wk =   0.0063492
        k(    5) = (   0.0000000   0.0000000   0.8881868), wk =   0.0063492
        k(    6) = (   0.0000000   0.2390555   0.0000000), wk =   0.0063492
        k(    7) = (   0.0000000   0.2390555   0.2220467), wk =   0.0063492
        k(    8) = (   0.0000000   0.2390555   0.4440934), wk =   0.0063492
        k(    9) = (   0.0000000   0.2390555   0.6661401), wk =   0.0063492
        k(   10) = (   0.0000000   0.2390555   0.8881868), wk =   0.0063492
        k(   11) = (   0.0000000   0.4781110   0.0000000), wk =   0.0063492
        k(   12) = (   0.0000000   0.4781110   0.2220467), wk =   0.0063492
        k(   13) = (   0.0000000   0.4781110   0.4440934), wk =   0.0063492
        k(   14) = (   0.0000000   0.4781110   0.6661401), wk =   0.0063492
        k(   15) = (   0.0000000   0.4781110   0.8881868), wk =   0.0063492
        k(   16) = (   0.0000000   0.7171664   0.0000000), wk =   0.0063492
        k(   17) = (   0.0000000   0.7171664   0.2220467), wk =   0.0063492
        k(   18) = (   0.0000000   0.7171664   0.4440934), wk =   0.0063492
        k(   19) = (   0.0000000   0.7171664   0.6661401), wk =   0.0063492
        k(   20) = (   0.0000000   0.7171664   0.8881868), wk =   0.0063492
        k(   21) = (   0.2000000   0.0000000   0.0000000), wk =   0.0063492
        k(   22) = (   0.2000000   0.0000000   0.2220467), wk =   0.0063492
        k(   23) = (   0.2000000   0.0000000   0.4440934), wk =   0.0063492
        k(   24) = (   0.2000000   0.0000000   0.6661401), wk =   0.0063492
        k(   25) = (   0.2000000   0.0000000   0.8881868), wk =   0.0063492
        k(   26) = (   0.2000000   0.2390555   0.0000000), wk =   0.0063492
        k(   27) = (   0.2000000   0.2390555   0.2220467), wk =   0.0063492
        k(   28) = (   0.2000000   0.2390555   0.4440934), wk =   0.0063492
        k(   29) = (   0.2000000   0.2390555   0.6661401), wk =   0.0063492
        k(   30) = (   0.2000000   0.2390555   0.8881868), wk =   0.0063492
        k(   31) = (   0.2000000   0.4781110   0.0000000), wk =   0.0063492
        k(   32) = (   0.2000000   0.4781110   0.2220467), wk =   0.0063492
        k(   33) = (   0.2000000   0.4781110   0.4440934), wk =   0.0063492
        k(   34) = (   0.2000000   0.4781110   0.6661401), wk =   0.0063492
        k(   35) = (   0.2000000   0.4781110   0.8881868), wk =   0.0063492
        k(   36) = (   0.2000000   0.7171664   0.0000000), wk =   0.0063492
        k(   37) = (   0.2000000   0.7171664   0.2220467), wk =   0.0063492
        k(   38) = (   0.2000000   0.7171664   0.4440934), wk =   0.0063492
        k(   39) = (   0.2000000   0.7171664   0.6661401), wk =   0.0063492
        k(   40) = (   0.2000000   0.7171664   0.8881868), wk =   0.0063492
        k(   41) = (   0.4000000   0.0000000   0.0000000), wk =   0.0063492
        k(   42) = (   0.4000000   0.0000000   0.2220467), wk =   0.0063492
        k(   43) = (   0.4000000   0.0000000   0.4440934), wk =   0.0063492
        k(   44) = (   0.4000000   0.0000000   0.6661401), wk =   0.0063492
        k(   45) = (   0.4000000   0.0000000   0.8881868), wk =   0.0063492
        k(   46) = (   0.4000000   0.2390555   0.0000000), wk =   0.0063492
        k(   47) = (   0.4000000   0.2390555   0.2220467), wk =   0.0063492
        k(   48) = (   0.4000000   0.2390555   0.4440934), wk =   0.0063492
        k(   49) = (   0.4000000   0.2390555   0.6661401), wk =   0.0063492
        k(   50) = (   0.4000000   0.2390555   0.8881868), wk =   0.0063492
        k(   51) = (   0.4000000   0.4781110   0.0000000), wk =   0.0063492
        k(   52) = (   0.4000000   0.4781110   0.2220467), wk =   0.0063492
        k(   53) = (   0.4000000   0.4781110   0.4440934), wk =   0.0063492
        k(   54) = (   0.4000000   0.4781110   0.6661401), wk =   0.0063492
        k(   55) = (   0.4000000   0.4781110   0.8881868), wk =   0.0063492
        k(   56) = (   0.4000000   0.7171664   0.0000000), wk =   0.0063492
        k(   57) = (   0.4000000   0.7171664   0.2220467), wk =   0.0063492
        k(   58) = (   0.4000000   0.7171664   0.4440934), wk =   0.0063492
        k(   59) = (   0.4000000   0.7171664   0.6661401), wk =   0.0063492
        k(   60) = (   0.4000000   0.7171664   0.8881868), wk =   0.0063492
        k(   61) = (   0.0000000  -0.2390555   0.2220467), wk =   0.0063492
        k(   62) = (   0.0000000  -0.2390555   0.4440934), wk =   0.0063492
        k(   63) = (   0.0000000  -0.2390555   0.6661401), wk =   0.0063492
        k(   64) = (   0.0000000  -0.2390555   0.8881868), wk =   0.0063492
        k(   65) = (   0.0000000  -0.4781110   0.2220467), wk =   0.0063492
        k(   66) = (   0.0000000  -0.4781110   0.4440934), wk =   0.0063492
        k(   67) = (   0.0000000  -0.4781110   0.6661401), wk =   0.0063492
        k(   68) = (   0.0000000  -0.4781110   0.8881868), wk =   0.0063492
        k(   69) = (   0.0000000  -0.7171664   0.2220467), wk =   0.0063492
        k(   70) = (   0.0000000  -0.7171664   0.4440934), wk =   0.0063492
        k(   71) = (   0.0000000  -0.7171664   0.6661401), wk =   0.0063492
        k(   72) = (   0.0000000  -0.7171664   0.8881868), wk =   0.0063492
        k(   73) = (  -0.2000000   0.0000000   0.2220467), wk =   0.0063492
        k(   74) = (  -0.2000000   0.0000000   0.4440934), wk =   0.0063492
        k(   75) = (  -0.2000000   0.0000000   0.6661401), wk =   0.0063492
        k(   76) = (  -0.2000000   0.0000000   0.8881868), wk =   0.0063492
        k(   77) = (  -0.2000000   0.2390555   0.0000000), wk =   0.0063492
        k(   78) = (  -0.2000000  -0.2390555   0.2220467), wk =   0.0063492
        k(   79) = (  -0.2000000   0.2390555  -0.2220467), wk =   0.0063492
        k(   80) = (   0.2000000  -0.2390555  -0.2220467), wk =   0.0063492
        k(   81) = (  -0.2000000  -0.2390555   0.4440934), wk =   0.0063492
        k(   82) = (  -0.2000000   0.2390555  -0.4440934), wk =   0.0063492
        k(   83) = (   0.2000000  -0.2390555  -0.4440934), wk =   0.0063492
        k(   84) = (  -0.2000000  -0.2390555   0.6661401), wk =   0.0063492
        k(   85) = (  -0.2000000   0.2390555  -0.6661401), wk =   0.0063492
        k(   86) = (   0.2000000  -0.2390555  -0.6661401), wk =   0.0063492
        k(   87) = (  -0.2000000  -0.2390555   0.8881868), wk =   0.0063492
        k(   88) = (  -0.2000000   0.2390555  -0.8881868), wk =   0.0063492
        k(   89) = (   0.2000000  -0.2390555  -0.8881868), wk =   0.0063492
        k(   90) = (  -0.2000000   0.4781110   0.0000000), wk =   0.0063492
        k(   91) = (  -0.2000000  -0.4781110   0.2220467), wk =   0.0063492
        k(   92) = (  -0.2000000   0.4781110  -0.2220467), wk =   0.0063492
        k(   93) = (   0.2000000  -0.4781110  -0.2220467), wk =   0.0063492
        k(   94) = (  -0.2000000  -0.4781110   0.4440934), wk =   0.0063492
        k(   95) = (  -0.2000000   0.4781110  -0.4440934), wk =   0.0063492
        k(   96) = (   0.2000000  -0.4781110  -0.4440934), wk =   0.0063492
        k(   97) = (  -0.2000000  -0.4781110   0.6661401), wk =   0.0063492
        k(   98) = (  -0.2000000   0.4781110  -0.6661401), wk =   0.0063492
        k(   99) = (   0.2000000  -0.4781110  -0.6661401), wk =   0.0063492
        k(  100) = (  -0.2000000  -0.4781110   0.8881868), wk =   0.0063492
        k(  101) = (  -0.2000000   0.4781110  -0.8881868), wk =   0.0063492
        k(  102) = (   0.2000000  -0.4781110  -0.8881868), wk =   0.0063492
        k(  103) = (  -0.2000000   0.7171664   0.0000000), wk =   0.0063492
        k(  104) = (  -0.2000000  -0.7171664   0.2220467), wk =   0.0063492
        k(  105) = (  -0.2000000   0.7171664  -0.2220467), wk =   0.0063492
        k(  106) = (   0.2000000  -0.7171664  -0.2220467), wk =   0.0063492
        k(  107) = (  -0.2000000  -0.7171664   0.4440934), wk =   0.0063492
        k(  108) = (  -0.2000000   0.7171664  -0.4440934), wk =   0.0063492
        k(  109) = (   0.2000000  -0.7171664  -0.4440934), wk =   0.0063492
        k(  110) = (  -0.2000000  -0.7171664   0.6661401), wk =   0.0063492
        k(  111) = (  -0.2000000   0.7171664  -0.6661401), wk =   0.0063492
        k(  112) = (   0.2000000  -0.7171664  -0.6661401), wk =   0.0063492
        k(  113) = (  -0.2000000  -0.7171664   0.8881868), wk =   0.0063492
        k(  114) = (  -0.2000000   0.7171664  -0.8881868), wk =   0.0063492
        k(  115) = (   0.2000000  -0.7171664  -0.8881868), wk =   0.0063492
        k(  116) = (  -0.4000000   0.0000000   0.2220467), wk =   0.0063492
        k(  117) = (  -0.4000000   0.0000000   0.4440934), wk =   0.0063492
        k(  118) = (  -0.4000000   0.0000000   0.6661401), wk =   0.0063492
        k(  119) = (  -0.4000000   0.0000000   0.8881868), wk =   0.0063492
        k(  120) = (  -0.4000000   0.2390555   0.0000000), wk =   0.0063492
        k(  121) = (  -0.4000000  -0.2390555   0.2220467), wk =   0.0063492
        k(  122) = (  -0.4000000   0.2390555  -0.2220467), wk =   0.0063492
        k(  123) = (   0.4000000  -0.2390555  -0.2220467), wk =   0.0063492
        k(  124) = (  -0.4000000  -0.2390555   0.4440934), wk =   0.0063492
        k(  125) = (  -0.4000000   0.2390555  -0.4440934), wk =   0.0063492
        k(  126) = (   0.4000000  -0.2390555  -0.4440934), wk =   0.0063492
        k(  127) = (  -0.4000000  -0.2390555   0.6661401), wk =   0.0063492
        k(  128) = (  -0.4000000   0.2390555  -0.6661401), wk =   0.0063492
        k(  129) = (   0.4000000  -0.2390555  -0.6661401), wk =   0.0063492
        k(  130) = (  -0.4000000  -0.2390555   0.8881868), wk =   0.0063492
        k(  131) = (  -0.4000000   0.2390555  -0.8881868), wk =   0.0063492
        k(  132) = (   0.4000000  -0.2390555  -0.8881868), wk =   0.0063492
        k(  133) = (  -0.4000000   0.4781110   0.0000000), wk =   0.0063492
        k(  134) = (  -0.4000000  -0.4781110   0.2220467), wk =   0.0063492
        k(  135) = (  -0.4000000   0.4781110  -0.2220467), wk =   0.0063492
        k(  136) = (   0.4000000  -0.4781110  -0.2220467), wk =   0.0063492
        k(  137) = (  -0.4000000  -0.4781110   0.4440934), wk =   0.0063492
        k(  138) = (  -0.4000000   0.4781110  -0.4440934), wk =   0.0063492
        k(  139) = (   0.4000000  -0.4781110  -0.4440934), wk =   0.0063492
        k(  140) = (  -0.4000000  -0.4781110   0.6661401), wk =   0.0063492
        k(  141) = (  -0.4000000   0.4781110  -0.6661401), wk =   0.0063492
        k(  142) = (   0.4000000  -0.4781110  -0.6661401), wk =   0.0063492
        k(  143) = (  -0.4000000  -0.4781110   0.8881868), wk =   0.0063492
        k(  144) = (  -0.4000000   0.4781110  -0.8881868), wk =   0.0063492
        k(  145) = (   0.4000000  -0.4781110  -0.8881868), wk =   0.0063492
        k(  146) = (  -0.4000000   0.7171664   0.0000000), wk =   0.0063492
        k(  147) = (  -0.4000000  -0.7171664   0.2220467), wk =   0.0063492
        k(  148) = (  -0.4000000   0.7171664  -0.2220467), wk =   0.0063492
        k(  149) = (   0.4000000  -0.7171664  -0.2220467), wk =   0.0063492
        k(  150) = (  -0.4000000  -0.7171664   0.4440934), wk =   0.0063492
        k(  151) = (  -0.4000000   0.7171664  -0.4440934), wk =   0.0063492
        k(  152) = (   0.4000000  -0.7171664  -0.4440934), wk =   0.0063492
        k(  153) = (  -0.4000000  -0.7171664   0.6661401), wk =   0.0063492
        k(  154) = (  -0.4000000   0.7171664  -0.6661401), wk =   0.0063492
        k(  155) = (   0.4000000  -0.7171664  -0.6661401), wk =   0.0063492
        k(  156) = (  -0.4000000  -0.7171664   0.8881868), wk =   0.0063492
        k(  157) = (  -0.4000000   0.7171664  -0.8881868), wk =   0.0063492
        k(  158) = (   0.4000000  -0.7171664  -0.8881868), wk =   0.0063492

                       cryst. coord.
        k(    1) = (   0.0000000   0.0000000   0.0000000), wk =   0.0031746
        k(    2) = (   0.0000000   0.0000000   0.1111111), wk =   0.0063492
        k(    3) = (   0.0000000   0.0000000   0.2222222), wk =   0.0063492
        k(    4) = (   0.0000000   0.0000000   0.3333333), wk =   0.0063492
        k(    5) = (   0.0000000   0.0000000   0.4444444), wk =   0.0063492
        k(    6) = (   0.0000000   0.1428571   0.0000000), wk =   0.0063492
        k(    7) = (   0.0000000   0.1428571   0.1111111), wk =   0.0063492
        k(    8) = (   0.0000000   0.1428571   0.2222222), wk =   0.0063492
        k(    9) = (   0.0000000   0.1428571   0.3333333), wk =   0.0063492
        k(   10) = (   0.0000000   0.1428571   0.4444444), wk =   0.0063492
        k(   11) = (   0.0000000   0.2857143   0.0000000), wk =   0.0063492
        k(   12) = (   0.0000000   0.2857143   0.1111111), wk =   0.0063492
        k(   13) = (   0.0000000   0.2857143   0.2222222), wk =   0.0063492
        k(   14) = (   0.0000000   0.2857143   0.3333333), wk =   0.0063492
        k(   15) = (   0.0000000   0.2857143   0.4444444), wk =   0.0063492
        k(   16) = (   0.0000000   0.4285714   0.0000000), wk =   0.0063492
        k(   17) = (   0.0000000   0.4285714   0.1111111), wk =   0.0063492
        k(   18) = (   0.0000000   0.4285714   0.2222222), wk =   0.0063492
        k(   19) = (   0.0000000   0.4285714   0.3333333), wk =   0.0063492
        k(   20) = (   0.0000000   0.4285714   0.4444444), wk =   0.0063492
        k(   21) = (   0.2000000   0.0000000   0.0000000), wk =   0.0063492
        k(   22) = (   0.2000000   0.0000000   0.1111111), wk =   0.0063492
        k(   23) = (   0.2000000   0.0000000   0.2222222), wk =   0.0063492
        k(   24) = (   0.2000000   0.0000000   0.3333333), wk =   0.0063492
        k(   25) = (   0.2000000   0.0000000   0.4444444), wk =   0.0063492
        k(   26) = (   0.2000000   0.1428571   0.0000000), wk =   0.0063492
        k(   27) = (   0.2000000   0.1428571   0.1111111), wk =   0.0063492
        k(   28) = (   0.2000000   0.1428571   0.2222222), wk =   0.0063492
        k(   29) = (   0.2000000   0.1428571   0.3333333), wk =   0.0063492
        k(   30) = (   0.2000000   0.1428571   0.4444444), wk =   0.0063492
        k(   31) = (   0.2000000   0.2857143   0.0000000), wk =   0.0063492
        k(   32) = (   0.2000000   0.2857143   0.1111111), wk =   0.0063492
        k(   33) = (   0.2000000   0.2857143   0.2222222), wk =   0.0063492
        k(   34) = (   0.2000000   0.2857143   0.3333333), wk =   0.0063492
        k(   35) = (   0.2000000   0.2857143   0.4444444), wk =   0.0063492
        k(   36) = (   0.2000000   0.4285714   0.0000000), wk =   0.0063492
        k(   37) = (   0.2000000   0.4285714   0.1111111), wk =   0.0063492
        k(   38) = (   0.2000000   0.4285714   0.2222222), wk =   0.0063492
        k(   39) = (   0.2000000   0.4285714   0.3333333), wk =   0.0063492
        k(   40) = (   0.2000000   0.4285714   0.4444444), wk =   0.0063492
        k(   41) = (   0.4000000   0.0000000   0.0000000), wk =   0.0063492
        k(   42) = (   0.4000000   0.0000000   0.1111111), wk =   0.0063492
        k(   43) = (   0.4000000   0.0000000   0.2222222), wk =   0.0063492
        k(   44) = (   0.4000000   0.0000000   0.3333333), wk =   0.0063492
        k(   45) = (   0.4000000   0.0000000   0.4444444), wk =   0.0063492
        k(   46) = (   0.4000000   0.1428571   0.0000000), wk =   0.0063492
        k(   47) = (   0.4000000   0.1428571   0.1111111), wk =   0.0063492
        k(   48) = (   0.4000000   0.1428571   0.2222222), wk =   0.0063492
        k(   49) = (   0.4000000   0.1428571   0.3333333), wk =   0.0063492
        k(   50) = (   0.4000000   0.1428571   0.4444444), wk =   0.0063492
        k(   51) = (   0.4000000   0.2857143   0.0000000), wk =   0.0063492
        k(   52) = (   0.4000000   0.2857143   0.1111111), wk =   0.0063492
        k(   53) = (   0.4000000   0.2857143   0.2222222), wk =   0.0063492
        k(   54) = (   0.4000000   0.2857143   0.3333333), wk =   0.0063492
        k(   55) = (   0.4000000   0.2857143   0.4444444), wk =   0.0063492
        k(   56) = (   0.4000000   0.4285714   0.0000000), wk =   0.0063492
        k(   57) = (   0.4000000   0.4285714   0.1111111), wk =   0.0063492
        k(   58) = (   0.4000000   0.4285714   0.2222222), wk =   0.0063492
        k(   59) = (   0.4000000   0.4285714   0.3333333), wk =   0.0063492
        k(   60) = (   0.4000000   0.4285714   0.4444444), wk =   0.0063492
        k(   61) = (   0.0000000  -0.1428571   0.1111111), wk =   0.0063492
        k(   62) = (   0.0000000  -0.1428571   0.2222222), wk =   0.0063492
        k(   63) = (   0.0000000  -0.1428571   0.3333333), wk =   0.0063492
        k(   64) = (   0.0000000  -0.1428571   0.4444444), wk =   0.0063492
        k(   65) = (   0.0000000  -0.2857143   0.1111111), wk =   0.0063492
        k(   66) = (   0.0000000  -0.2857143   0.2222222), wk =   0.0063492
        k(   67) = (   0.0000000  -0.2857143   0.3333333), wk =   0.0063492
        k(   68) = (   0.0000000  -0.2857143   0.4444444), wk =   0.0063492
        k(   69) = (   0.0000000  -0.4285714   0.1111111), wk =   0.0063492
        k(   70) = (   0.0000000  -0.4285714   0.2222222), wk =   0.0063492
        k(   71) = (   0.0000000  -0.4285714   0.3333333), wk =   0.0063492
        k(   72) = (   0.0000000  -0.4285714   0.4444444), wk =   0.0063492
        k(   73) = (  -0.2000000   0.0000000   0.1111111), wk =   0.0063492
        k(   74) = (  -0.2000000   0.0000000   0.2222222), wk =   0.0063492
        k(   75) = (  -0.2000000   0.0000000   0.3333333), wk =   0.0063492
        k(   76) = (  -0.2000000   0.0000000   0.4444444), wk =   0.0063492
        k(   77) = (  -0.2000000   0.1428571   0.0000000), wk =   0.0063492
        k(   78) = (  -0.2000000  -0.1428571   0.1111111), wk =   0.0063492
        k(   79) = (  -0.2000000   0.1428571  -0.1111111), wk =   0.0063492
        k(   80) = (   0.2000000  -0.1428571  -0.1111111), wk =   0.0063492
        k(   81) = (  -0.2000000  -0.1428571   0.2222222), wk =   0.0063492
        k(   82) = (  -0.2000000   0.1428571  -0.2222222), wk =   0.0063492
        k(   83) = (   0.2000000  -0.1428571  -0.2222222), wk =   0.0063492
        k(   84) = (  -0.2000000  -0.1428571   0.3333333), wk =   0.0063492
        k(   85) = (  -0.2000000   0.1428571  -0.3333333), wk =   0.0063492
        k(   86) = (   0.2000000  -0.1428571  -0.3333333), wk =   0.0063492
        k(   87) = (  -0.2000000  -0.1428571   0.4444444), wk =   0.0063492
        k(   88) = (  -0.2000000   0.1428571  -0.4444444), wk =   0.0063492
        k(   89) = (   0.2000000  -0.1428571  -0.4444444), wk =   0.0063492
        k(   90) = (  -0.2000000   0.2857143   0.0000000), wk =   0.0063492
        k(   91) = (  -0.2000000  -0.2857143   0.1111111), wk =   0.0063492
        k(   92) = (  -0.2000000   0.2857143  -0.1111111), wk =   0.0063492
        k(   93) = (   0.2000000  -0.2857143  -0.1111111), wk =   0.0063492
        k(   94) = (  -0.2000000  -0.2857143   0.2222222), wk =   0.0063492
        k(   95) = (  -0.2000000   0.2857143  -0.2222222), wk =   0.0063492
        k(   96) = (   0.2000000  -0.2857143  -0.2222222), wk =   0.0063492
        k(   97) = (  -0.2000000  -0.2857143   0.3333333), wk =   0.0063492
        k(   98) = (  -0.2000000   0.2857143  -0.3333333), wk =   0.0063492
        k(   99) = (   0.2000000  -0.2857143  -0.3333333), wk =   0.0063492
        k(  100) = (  -0.2000000  -0.2857143   0.4444444), wk =   0.0063492
        k(  101) = (  -0.2000000   0.2857143  -0.4444444), wk =   0.0063492
        k(  102) = (   0.2000000  -0.2857143  -0.4444444), wk =   0.0063492
        k(  103) = (  -0.2000000   0.4285714   0.0000000), wk =   0.0063492
        k(  104) = (  -0.2000000  -0.4285714   0.1111111), wk =   0.0063492
        k(  105) = (  -0.2000000   0.4285714  -0.1111111), wk =   0.0063492
        k(  106) = (   0.2000000  -0.4285714  -0.1111111), wk =   0.0063492
        k(  107) = (  -0.2000000  -0.4285714   0.2222222), wk =   0.0063492
        k(  108) = (  -0.2000000   0.4285714  -0.2222222), wk =   0.0063492
        k(  109) = (   0.2000000  -0.4285714  -0.2222222), wk =   0.0063492
        k(  110) = (  -0.2000000  -0.4285714   0.3333333), wk =   0.0063492
        k(  111) = (  -0.2000000   0.4285714  -0.3333333), wk =   0.0063492
        k(  112) = (   0.2000000  -0.4285714  -0.3333333), wk =   0.0063492
        k(  113) = (  -0.2000000  -0.4285714   0.4444444), wk =   0.0063492
        k(  114) = (  -0.2000000   0.4285714  -0.4444444), wk =   0.0063492
        k(  115) = (   0.2000000  -0.4285714  -0.4444444), wk =   0.0063492
        k(  116) = (  -0.4000000   0.0000000   0.1111111), wk =   0.0063492
        k(  117) = (  -0.4000000   0.0000000   0.2222222), wk =   0.0063492
        k(  118) = (  -0.4000000   0.0000000   0.3333333), wk =   0.0063492
        k(  119) = (  -0.4000000   0.0000000   0.4444444), wk =   0.0063492
        k(  120) = (  -0.4000000   0.1428571   0.0000000), wk =   0.0063492
        k(  121) = (  -0.4000000  -0.1428571   0.1111111), wk =   0.0063492
        k(  122) = (  -0.4000000   0.1428571  -0.1111111), wk =   0.0063492
        k(  123) = (   0.4000000  -0.1428571  -0.1111111), wk =   0.0063492
        k(  124) = (  -0.4000000  -0.1428571   0.2222222), wk =   0.0063492
        k(  125) = (  -0.4000000   0.1428571  -0.2222222), wk =   0.0063492
        k(  126) = (   0.4000000  -0.1428571  -0.2222222), wk =   0.0063492
        k(  127) = (  -0.4000000  -0.1428571   0.3333333), wk =   0.0063492
        k(  128) = (  -0.4000000   0.1428571  -0.3333333), wk =   0.0063492
        k(  129) = (   0.4000000  -0.1428571  -0.3333333), wk =   0.0063492
        k(  130) = (  -0.4000000  -0.1428571   0.4444444), wk =   0.0063492
        k(  131) = (  -0.4000000   0.1428571  -0.4444444), wk =   0.0063492
        k(  132) = (   0.4000000  -0.1428571  -0.4444444), wk =   0.0063492
        k(  133) = (  -0.4000000   0.2857143   0.0000000), wk =   0.0063492
        k(  134) = (  -0.4000000  -0.2857143   0.1111111), wk =   0.0063492
        k(  135) = (  -0.4000000   0.2857143  -0.1111111), wk =   0.0063492
        k(  136) = (   0.4000000  -0.2857143  -0.1111111), wk =   0.0063492
        k(  137) = (  -0.4000000  -0.2857143   0.2222222), wk =   0.0063492
        k(  138) = (  -0.4000000   0.2857143  -0.2222222), wk =   0.0063492
        k(  139) = (   0.4000000  -0.2857143  -0.2222222), wk =   0.0063492
        k(  140) = (  -0.4000000  -0.2857143   0.3333333), wk =   0.0063492
        k(  141) = (  -0.4000000   0.2857143  -0.3333333), wk =   0.0063492
        k(  142) = (   0.4000000  -0.2857143  -0.3333333), wk =   0.0063492
        k(  143) = (  -0.4000000  -0.2857143   0.4444444), wk =   0.0063492
        k(  144) = (  -0.4000000   0.2857143  -0.4444444), wk =   0.0063492
        k(  145) = (   0.4000000  -0.2857143  -0.4444444), wk =   0.0063492
        k(  146) = (  -0.4000000   0.4285714   0.0000000), wk =   0.0063492
        k(  147) = (  -0.4000000  -0.4285714   0.1111111), wk =   0.0063492
        k(  148) = (  -0.4000000   0.4285714  -0.1111111), wk =   0.0063492
        k(  149) = (   0.4000000  -0.4285714  -0.1111111), wk =   0.0063492
        k(  150) = (  -0.4000000  -0.4285714   0.2222222), wk =   0.0063492
        k(  151) = (  -0.4000000   0.4285714  -0.2222222), wk =   0.0063492
        k(  152) = (   0.4000000  -0.4285714  -0.2222222), wk =   0.0063492
        k(  153) = (  -0.4000000  -0.4285714   0.3333333), wk =   0.0063492
        k(  154) = (  -0.4000000   0.4285714  -0.3333333), wk =   0.0063492
        k(  155) = (   0.4000000  -0.4285714  -0.3333333), wk =   0.0063492
        k(  156) = (  -0.4000000  -0.4285714   0.4444444), wk =   0.0063492
        k(  157) = (  -0.4000000   0.4285714  -0.4444444), wk =   0.0063492
        k(  158) = (   0.4000000  -0.4285714  -0.4444444), wk =   0.0063492

     Dense  grid:  1168479 G-vectors     FFT dimensions: ( 200, 120, 100)

     Smooth grid:   263495 G-vectors     FFT dimensions: ( 120,  72,  60)

     Dynamical RAM for                 wfc:       3.58 MB

     Dynamical RAM for     wfc (w. buffer):    1134.28 MB

     Dynamical RAM for           str. fact:       4.46 MB

     Dynamical RAM for           local pot:       0.00 MB

     Dynamical RAM for          nlocal pot:       8.79 MB

     Dynamical RAM for                qrad:      10.54 MB

     Dynamical RAM for          rho,v,vnew:      14.38 MB

     Dynamical RAM for               rhoin:       4.79 MB

     Dynamical RAM for            rho*nmix:      35.66 MB

     Dynamical RAM for           G-vectors:       4.30 MB

     Dynamical RAM for          h,s,v(r/c):       2.38 MB

     Dynamical RAM for          <psi|beta>:       0.49 MB

     Dynamical RAM for                 psi:       7.16 MB

     Dynamical RAM for                hpsi:       7.16 MB

     Dynamical RAM for                spsi:       7.16 MB

     Dynamical RAM for      wfcinit/wfcrot:       9.03 MB

     Dynamical RAM for           addusdens:     226.21 MB

     Dynamical RAM for          addusforce:     259.77 MB

     Dynamical RAM for         addusstress:     225.66 MB

     Estimated static dynamical RAM per process >       1.20 GB

     Estimated max dynamical RAM per process >       1.46 GB

     Estimated total dynamical RAM >      23.28 GB

     Check: negative core charge=   -0.000003
     Generating pointlists ...
     new r_m :   0.0771 (alat units)  1.4409 (a.u.) for type    1
     new r_m :   0.0903 (alat units)  1.6870 (a.u.) for type    2
     new r_m :   0.0612 (alat units)  1.1440 (a.u.) for type    3
     new r_m :   0.0612 (alat units)  1.1440 (a.u.) for type    4

     Initial potential from superposition of free atoms

     starting charge  188.99132, renormalised to  189.00000
     Starting wfcs are  137 randomized atomic wfcs
     Checking if some PAW data can be deallocated... 
       PAW data deallocated on   13 nodes for type:  1
       PAW data deallocated on    4 nodes for type:  3

     total cpu time spent up to now is      203.8 secs

     Self-consistent Calculation

     iteration #  1     ecut=   100.00 Ry     beta= 0.40
     Davidson diagonalization with overlap
     ethr =  1.00E-02,  avg # of iterations =  3.6

     negative rho (up, down):  0.000E+00 8.492E-05

     total cpu time spent up to now is      892.5 secs

     total energy              =   -2123.92514432 Ry
     estimated scf accuracy    <       6.81964242 Ry

     total magnetization       =    19.00 Bohr mag/cell
     absolute magnetization    =    19.00 Bohr mag/cell

     iteration #  2     ecut=   100.00 Ry     beta= 0.40
     Davidson diagonalization with overlap
     ethr =  3.61E-03,  avg # of iterations =  2.0

     negative rho (up, down):  0.000E+00 3.315E-05

     total cpu time spent up to now is     1517.5 secs

     total energy              =   -2121.13675315 Ry
     estimated scf accuracy    <      38.50783321 Ry

     total magnetization       =     7.88 Bohr mag/cell
     absolute magnetization    =     9.65 Bohr mag/cell

     iteration #  3     ecut=   100.00 Ry     beta= 0.40
     Davidson diagonalization with overlap
     ethr =  3.61E-03,  avg # of iterations =  2.9

     negative rho (up, down):  0.000E+00 1.141E-05

     total cpu time spent up to now is     2042.8 secs

     total energy              =   -2123.27196809 Ry
     estimated scf accuracy    <      71.75459538 Ry

     total magnetization       =     1.36 Bohr mag/cell
     absolute magnetization    =     5.93 Bohr mag/cell

     iteration #  4     ecut=   100.00 Ry     beta= 0.40
     Davidson diagonalization with overlap
     ethr =  3.61E-03,  avg # of iterations =  1.2

     negative rho (up, down):  0.000E+00 1.284E-05

     total cpu time spent up to now is     2472.6 secs

     total energy              =   -2124.36496653 Ry
     estimated scf accuracy    <      29.78973484 Ry

     total magnetization       =     9.02 Bohr mag/cell
     absolute magnetization    =     9.65 Bohr mag/cell

     iteration #  5     ecut=   100.00 Ry     beta= 0.40
     Davidson diagonalization with overlap
     ethr =  3.61E-03,  avg # of iterations =  2.0

     negative rho (up, down):  0.000E+00 9.391E-05

     total cpu time spent up to now is     2966.1 secs

     total energy              =   -2125.85187219 Ry
     estimated scf accuracy    <       2.28959512 Ry

     total magnetization       =    18.15 Bohr mag/cell
     absolute magnetization    =    18.16 Bohr mag/cell

     iteration #  6     ecut=   100.00 Ry     beta= 0.40
     Davidson diagonalization with overlap
     ethr =  1.21E-03,  avg # of iterations =  1.8

     negative rho (up, down):  0.000E+00 2.429E-04

     total cpu time spent up to now is     3441.9 secs

     total energy              =   -2125.98451072 Ry
     estimated scf accuracy    <       0.33797814 Ry

     total magnetization       =    19.00 Bohr mag/cell
     absolute magnetization    =    19.00 Bohr mag/cell

     iteration #  7     ecut=   100.00 Ry     beta= 0.40
     Davidson diagonalization with overlap
     c_bands:  1 eigenvalues not converged
     ethr =  1.79E-04,  avg # of iterations =  7.5

     negative rho (up, down):  0.000E+00 5.833E-04

     total cpu time spent up to now is     4088.1 secs

     total energy              =   -2125.99442777 Ry
     estimated scf accuracy    <       0.16700355 Ry

     total magnetization       =    19.00 Bohr mag/cell
     absolute magnetization    =    19.00 Bohr mag/cell

     iteration #  8     ecut=   100.00 Ry     beta= 0.40
     Davidson diagonalization with overlap
     c_bands:  1 eigenvalues not converged
     ethr =  8.84E-05,  avg # of iterations =  8.3

     negative rho (up, down):  0.000E+00 6.137E-04

     total cpu time spent up to now is     4800.3 secs

     total energy              =   -2126.00524032 Ry
     estimated scf accuracy    <       0.31636970 Ry

     total magnetization       =    19.00 Bohr mag/cell
     absolute magnetization    =    19.01 Bohr mag/cell

     iteration #  9     ecut=   100.00 Ry     beta= 0.40
     Davidson diagonalization with overlap
     ethr =  8.84E-05,  avg # of iterations =  1.0

     negative rho (up, down):  0.000E+00 6.225E-04

     total cpu time spent up to now is     5219.3 secs

     total energy              =   -2126.00985576 Ry
     estimated scf accuracy    <       0.33571162 Ry

     total magnetization       =    19.00 Bohr mag/cell
     absolute magnetization    =    19.02 Bohr mag/cell

     iteration # 10     ecut=   100.00 Ry     beta= 0.40
     Davidson diagonalization with overlap
     ethr =  8.84E-05,  avg # of iterations =  1.0

     negative rho (up, down):  0.000E+00 8.273E-04

     total cpu time spent up to now is     5637.5 secs

     total energy              =   -2126.01730766 Ry
     estimated scf accuracy    <       0.08365479 Ry

     total magnetization       =    19.00 Bohr mag/cell
     absolute magnetization    =    19.02 Bohr mag/cell

     iteration # 11     ecut=   100.00 Ry     beta= 0.40
     Davidson diagonalization with overlap
     ethr =  4.43E-05,  avg # of iterations =  1.1

     negative rho (up, down):  0.000E+00 9.103E-04

     total cpu time spent up to now is     6062.3 secs

     total energy              =   -2126.01641723 Ry
     estimated scf accuracy    <       0.08043818 Ry

     total magnetization       =    19.00 Bohr mag/cell
     absolute magnetization    =    19.03 Bohr mag/cell

     iteration # 12     ecut=   100.00 Ry     beta= 0.40
     Davidson diagonalization with overlap
     ethr =  4.26E-05,  avg # of iterations =  1.0

     negative rho (up, down):  0.000E+00 9.948E-04

     total cpu time spent up to now is     6480.0 secs

     total energy              =   -2126.01864905 Ry
     estimated scf accuracy    <       0.00530926 Ry

     total magnetization       =    19.00 Bohr mag/cell
     absolute magnetization    =    19.03 Bohr mag/cell

     iteration # 13     ecut=   100.00 Ry     beta= 0.40
     Davidson diagonalization with overlap
     c_bands:  1 eigenvalues not converged
     c_bands:  1 eigenvalues not converged
     c_bands:  1 eigenvalues not converged
     c_bands:  1 eigenvalues not converged
     c_bands:  1 eigenvalues not converged
     c_bands:  1 eigenvalues not converged
     c_bands:  1 eigenvalues not converged
     c_bands:  1 eigenvalues not converged
     c_bands:  1 eigenvalues not converged
     c_bands:  1 eigenvalues not converged
     c_bands:  1 eigenvalues not converged
     c_bands:  2 eigenvalues not converged
     c_bands:  1 eigenvalues not converged
     c_bands:  1 eigenvalues not converged
     c_bands:  1 eigenvalues not converged
     c_bands:  1 eigenvalues not converged
     c_bands:  1 eigenvalues not converged
     c_bands:  2 eigenvalues not converged
     c_bands:  2 eigenvalues not converged
     c_bands:  1 eigenvalues not converged
     c_bands:  1 eigenvalues not converged
     c_bands:  1 eigenvalues not converged
     c_bands:  1 eigenvalues not converged
     c_bands:  1 eigenvalues not converged
     c_bands:  1 eigenvalues not converged
     c_bands:  1 eigenvalues not converged
     c_bands:  1 eigenvalues not converged
     c_bands:  1 eigenvalues not converged
     c_bands:  1 eigenvalues not converged
     c_bands:  2 eigenvalues not converged
     c_bands:  2 eigenvalues not converged
     c_bands:  1 eigenvalues not converged
     c_bands:  1 eigenvalues not converged
     c_bands:  1 eigenvalues not converged
     ethr =  2.81E-06,  avg # of iterations = 13.5

     negative rho (up, down):  0.000E+00 9.707E-04

     total cpu time spent up to now is     7449.8 secs

     total energy              =   -2126.01972001 Ry
     estimated scf accuracy    <       0.00124108 Ry

     total magnetization       =    19.00 Bohr mag/cell
     absolute magnetization    =    19.04 Bohr mag/cell

     iteration # 14     ecut=   100.00 Ry     beta= 0.40
     Davidson diagonalization with overlap
     c_bands:  1 eigenvalues not converged
     ethr =  6.57E-07,  avg # of iterations =  3.0

     negative rho (up, down):  0.000E+00 9.652E-04

     total cpu time spent up to now is     7992.7 secs

     total energy              =   -2126.01989113 Ry
     estimated scf accuracy    <       0.00156684 Ry

     total magnetization       =    19.00 Bohr mag/cell
     absolute magnetization    =    19.04 Bohr mag/cell

     iteration # 15     ecut=   100.00 Ry     beta= 0.40
     Davidson diagonalization with overlap
     ethr =  6.57E-07,  avg # of iterations =  1.0

     negative rho (up, down):  0.000E+00 9.628E-04

     total cpu time spent up to now is     8413.8 secs

     total energy              =   -2126.01992794 Ry
     estimated scf accuracy    <       0.00046802 Ry

     total magnetization       =    19.00 Bohr mag/cell
     absolute magnetization    =    19.04 Bohr mag/cell

     iteration # 16     ecut=   100.00 Ry     beta= 0.40
     Davidson diagonalization with overlap
     ethr =  2.48E-07,  avg # of iterations =  1.1

     negative rho (up, down):  0.000E+00 9.528E-04

     total cpu time spent up to now is     8844.1 secs

     total energy              =   -2126.01993600 Ry
     estimated scf accuracy    <       0.00032305 Ry

     total magnetization       =    19.00 Bohr mag/cell
     absolute magnetization    =    19.04 Bohr mag/cell

     iteration # 17     ecut=   100.00 Ry     beta= 0.40
     Davidson diagonalization with overlap
     ethr =  1.71E-07,  avg # of iterations =  1.0

     negative rho (up, down):  0.000E+00 9.480E-04

     total cpu time spent up to now is     9266.3 secs

     total energy              =   -2126.01994825 Ry
     estimated scf accuracy    <       0.00010745 Ry

     total magnetization       =    19.00 Bohr mag/cell
     absolute magnetization    =    19.04 Bohr mag/cell

     iteration # 18     ecut=   100.00 Ry     beta= 0.40
     Davidson diagonalization with overlap
     ethr =  5.69E-08,  avg # of iterations =  1.9

     negative rho (up, down):  0.000E+00 9.443E-04

     total cpu time spent up to now is     9730.8 secs

     total energy              =   -2126.01995250 Ry
     estimated scf accuracy    <       0.00002873 Ry

     total magnetization       =    19.00 Bohr mag/cell
     absolute magnetization    =    19.04 Bohr mag/cell

     iteration # 19     ecut=   100.00 Ry     beta= 0.40
     Davidson diagonalization with overlap
     ethr =  1.52E-08,  avg # of iterations =  2.1

     negative rho (up, down):  0.000E+00 9.468E-04

     total cpu time spent up to now is    10217.1 secs

     total energy              =   -2126.01995504 Ry
     estimated scf accuracy    <       0.00001993 Ry

     total magnetization       =    19.00 Bohr mag/cell
     absolute magnetization    =    19.04 Bohr mag/cell

     iteration # 20     ecut=   100.00 Ry     beta= 0.40
     Davidson diagonalization with overlap
     ethr =  1.05E-08,  avg # of iterations =  1.0

     negative rho (up, down):  0.000E+00 9.467E-04

     total cpu time spent up to now is    10638.7 secs

     total energy              =   -2126.01995660 Ry
     estimated scf accuracy    <       0.00000482 Ry

     total magnetization       =    19.00 Bohr mag/cell
     absolute magnetization    =    19.04 Bohr mag/cell

     iteration # 21     ecut=   100.00 Ry     beta= 0.40
     Davidson diagonalization with overlap
     ethr =  2.55E-09,  avg # of iterations =  2.4

     negative rho (up, down):  0.000E+00 9.466E-04

     total cpu time spent up to now is    11146.5 secs

     total energy              =   -2126.01995706 Ry
     estimated scf accuracy    <       0.00000165 Ry

     total magnetization       =    19.00 Bohr mag/cell
     absolute magnetization    =    19.04 Bohr mag/cell

     iteration # 22     ecut=   100.00 Ry     beta= 0.40
     Davidson diagonalization with overlap
     ethr =  8.76E-10,  avg # of iterations =  2.7

     negative rho (up, down):  0.000E+00 9.468E-04

     total cpu time spent up to now is    11657.9 secs

     total energy              =   -2126.01995722 Ry
     estimated scf accuracy    <       0.00000013 Ry

     total magnetization       =    19.00 Bohr mag/cell
     absolute magnetization    =    19.04 Bohr mag/cell

     iteration # 23     ecut=   100.00 Ry     beta= 0.40
     Davidson diagonalization with overlap
     ethr =  6.76E-11,  avg # of iterations =  4.9

     negative rho (up, down):  0.000E+00 9.470E-04

     total cpu time spent up to now is    12506.2 secs

     total energy              =   -2126.01995732 Ry
     estimated scf accuracy    <       0.00000004 Ry

     total magnetization       =    19.00 Bohr mag/cell
     absolute magnetization    =    19.04 Bohr mag/cell

     iteration # 24     ecut=   100.00 Ry     beta= 0.40
     Davidson diagonalization with overlap
     ethr =  1.86E-11,  avg # of iterations =  2.2

     negative rho (up, down):  0.000E+00 9.470E-04

     total cpu time spent up to now is    13032.5 secs

     total energy              =   -2126.01995732 Ry
     estimated scf accuracy    <       0.00000005 Ry

     total magnetization       =    19.00 Bohr mag/cell
     absolute magnetization    =    19.04 Bohr mag/cell

     iteration # 25     ecut=   100.00 Ry     beta= 0.40
     Davidson diagonalization with overlap
     ethr =  1.86E-11,  avg # of iterations =  2.0

     negative rho (up, down):  0.000E+00 9.470E-04

     total cpu time spent up to now is    13542.0 secs

     total energy              =   -2126.01995733 Ry
     estimated scf accuracy    <          7.6E-09 Ry

     total magnetization       =    19.00 Bohr mag/cell
     absolute magnetization    =    19.04 Bohr mag/cell

     iteration # 26     ecut=   100.00 Ry     beta= 0.40
     Davidson diagonalization with overlap
     ethr =  4.04E-12,  avg # of iterations =  2.2

     negative rho (up, down):  0.000E+00 9.470E-04

     total cpu time spent up to now is    14062.0 secs

     total energy              =   -2126.01995733 Ry
     estimated scf accuracy    <          7.5E-09 Ry

     total magnetization       =    19.00 Bohr mag/cell
     absolute magnetization    =    19.04 Bohr mag/cell

     iteration # 27     ecut=   100.00 Ry     beta= 0.40
     Davidson diagonalization with overlap
     ethr =  3.97E-12,  avg # of iterations =  2.0

     negative rho (up, down):  0.000E+00 9.470E-04

     total cpu time spent up to now is    14558.8 secs

     total energy              =   -2126.01995734 Ry
     estimated scf accuracy    <          2.3E-09 Ry

     total magnetization       =    19.00 Bohr mag/cell
     absolute magnetization    =    19.04 Bohr mag/cell

     iteration # 28     ecut=   100.00 Ry     beta= 0.40
     Davidson diagonalization with overlap
     ethr =  1.23E-12,  avg # of iterations =  2.1

     negative rho (up, down):  0.000E+00 9.469E-04

     total cpu time spent up to now is    15071.3 secs

     total energy              =   -2126.01995734 Ry
     estimated scf accuracy    <          1.0E-09 Ry

     total magnetization       =    19.00 Bohr mag/cell
     absolute magnetization    =    19.04 Bohr mag/cell

     iteration # 29     ecut=   100.00 Ry     beta= 0.40
     Davidson diagonalization with overlap
     ethr =  5.47E-13,  avg # of iterations =  2.2

     negative rho (up, down):  0.000E+00 9.469E-04

     total cpu time spent up to now is    15600.6 secs

     total energy              =   -2126.01995734 Ry
     estimated scf accuracy    <          2.8E-09 Ry

     total magnetization       =    19.00 Bohr mag/cell
     absolute magnetization    =    19.04 Bohr mag/cell

     iteration # 30     ecut=   100.00 Ry     beta= 0.40
     Davidson diagonalization with overlap
     ethr =  5.47E-13,  avg # of iterations =  1.2

     negative rho (up, down):  0.000E+00 9.469E-04

     total cpu time spent up to now is    16035.0 secs

     total energy              =   -2126.01995734 Ry
     estimated scf accuracy    <          9.8E-10 Ry

     total magnetization       =    19.00 Bohr mag/cell
     absolute magnetization    =    19.04 Bohr mag/cell

     iteration # 31     ecut=   100.00 Ry     beta= 0.40
     Davidson diagonalization with overlap
     ethr =  5.17E-13,  avg # of iterations =  1.7

     negative rho (up, down):  0.000E+00 9.469E-04

     Magnetic moment per site:
     atom:    1    charge:    7.8717    magn:    0.0006    constr:    0.0000
     atom:    2    charge:   12.6863    magn:    3.5987    constr:    0.0000
     atom:    3    charge:   12.6917    magn:    3.5884    constr:    0.0000
     atom:    4    charge:   12.7168    magn:    3.5177    constr:    0.0000
     atom:    5    charge:   12.6936    magn:    3.5877    constr:    0.0000
     atom:    6    charge:    0.7546    magn:    0.0110    constr:    0.0000
     atom:    7    charge:    0.7571    magn:    0.0087    constr:    0.0000
     atom:    8    charge:    0.7569    magn:    0.0115    constr:    0.0000
     atom:    9    charge:    0.7528    magn:    0.0092    constr:    0.0000
     atom:   10    charge:    4.0291    magn:    0.1335    constr:    0.0000
     atom:   11    charge:    4.0457    magn:    0.0886    constr:    0.0000
     atom:   12    charge:    4.0310    magn:    0.1272    constr:    0.0000
     atom:   13    charge:    4.0271    magn:    0.1021    constr:    0.0000
     atom:   14    charge:    4.0730    magn:    0.1009    constr:    0.0000
     atom:   15    charge:    4.0817    magn:    0.1226    constr:    0.0000
     atom:   16    charge:    4.0760    magn:    0.0804    constr:    0.0000
     atom:   17    charge:    4.0792    magn:    0.1303    constr:    0.0000
     atom:   18    charge:    4.0419    magn:    0.1454    constr:    0.0000
     atom:   19    charge:    4.0412    magn:    0.1255    constr:    0.0000
     atom:   20    charge:    4.0492    magn:    0.1476    constr:    0.0000
     atom:   21    charge:    4.0422    magn:    0.1306    constr:    0.0000
     atom:   22    charge:    4.0472    magn:    0.1376    constr:    0.0000
     atom:   23    charge:    4.0490    magn:    0.1176    constr:    0.0000
     atom:   24    charge:    4.0437    magn:    0.1478    constr:    0.0000
     atom:   25    charge:    4.0494    magn:    0.1296    constr:    0.0000

     total cpu time spent up to now is    16495.1 secs

     End of self-consistent calculation

 ------ SPIN UP ------------


          k = 0.0000 0.0000 0.0000 ( 32925 PWs)   bands (ev):

   -83.7381 -83.7191 -83.7149 -83.4321 -49.8988 -49.8475 -49.8194 -49.7023
   -49.6912 -49.6876 -49.6839 -49.6499 -49.6330 -49.6140 -49.3954 -49.2416
   -43.7642 -15.9330 -15.8312 -15.7782 -15.7654 -15.5673 -15.3832 -15.2474
   -13.2731 -13.1433 -12.9944 -12.9807 -12.7379 -12.6654 -12.6432 -12.5863
   -12.5348 -12.4353 -12.4289 -12.3123  -3.2227  -2.7239  -2.5462  -2.0611
    -1.5768  -1.1493  -1.0353  -0.8869  -0.8758  -0.6372  -0.5025  -0.4783
    -0.3135  -0.1394  -0.0007   0.3048   0.5386   0.5872   1.1896   1.2138
     1.2911   1.3731   1.5131   1.5474   1.6595   1.6714   1.9731   2.0619
     2.2736   2.4274   2.4456   2.5214   2.5725   2.6046   2.6856   2.7116
     2.7939   3.0268   3.2675   3.3205   3.3722   3.4798   3.5440   3.6031
     3.7607   3.8914   4.0534   4.1424   4.2628   4.2917   4.4403   4.4785
     4.5455   4.6916   4.7216   4.7398   4.8601   4.9149   5.0114   5.0944
     5.1579   5.4248   5.5849   5.8335   6.0147   6.2029   6.3133   6.4263
    10.9908  13.0980  13.2414  13.9519  14.2144  14.3865  15.0549  15.2308
    15.2566  15.4395

     occupation numbers 
     1.0000   1.0000   1.0000   1.0000   1.0000   1.0000   1.0000   1.0000
     1.0000   1.0000   1.0000   1.0000   1.0000   1.0000   1.0000   1.0000
     1.0000   1.0000   1.0000   1.0000   1.0000   1.0000   1.0000   1.0000
     1.0000   1.0000   1.0000   1.0000   1.0000   1.0000   1.0000   1.0000
     1.0000   1.0000   1.0000   1.0000   1.0000   1.0000   1.0000   1.0000
     1.0000   1.0000   1.0000   1.0000   1.0000   1.0000   1.0000   1.0000
     1.0000   1.0000   1.0000   1.0000   1.0000   1.0000   1.0000   1.0000
     1.0000   1.0000   1.0000   1.0000   1.0000   1.0000   1.0000   1.0000
     1.0000   1.0000   1.0000   1.0000   1.0000   1.0000   1.0000   1.0000
     1.0000   1.0000   1.0000   1.0000   1.0000   1.0000   1.0000   1.0000
     1.0000   1.0000   1.0000   1.0000   1.0000   1.0000   1.0000   1.0000
     1.0000   1.0000   1.0000   1.0000   1.0000   1.0000   1.0000   1.0000
     1.0000   1.0000   1.0000   1.0000   1.0000   1.0000   1.0000   1.0000
     0.0000   0.0000   0.0000   0.0000   0.0000   0.0000   0.0000   0.0000
     0.0000   0.0000

          k = 0.0000 0.0000 0.2220 ( 32901 PWs)   bands (ev):

   -83.7381 -83.7191 -83.7149 -83.4321 -49.8988 -49.8475 -49.8194 -49.7023
   -49.6912 -49.6876 -49.6839 -49.6499 -49.6330 -49.6140 -49.3954 -49.2416
   -43.7642 -15.9477 -15.8349 -15.7734 -15.7454 -15.5554 -15.3770 -15.2508
   -13.2740 -13.1446 -13.0083 -12.9737 -12.7332 -12.6665 -12.6488 -12.5896
   -12.5391 -12.4466 -12.4341 -12.3225  -3.1934  -2.7099  -2.5435  -2.0828
    -1.5183  -1.1261  -1.0429  -0.8803  -0.8655  -0.6635  -0.5133  -0.4011
    -0.3027  -0.1079  -0.0485   0.3336   0.5459   0.5553   1.1832   1.2108
     1.3031   1.3815   1.5271   1.5729   1.6383   1.6658   1.9382   2.1096
     2.2447   2.3890   2.4179   2.4767   2.5411   2.5777   2.6666   2.7051
     2.9354   2.9978   3.1921   3.3148   3.3679   3.4592   3.5269   3.6013
     3.7646   3.8500   4.0834   4.1619   4.2703   4.3277   4.3801   4.4778
     4.5076   4.6656   4.6895   4.7432   4.8690   4.9210   5.0825   5.1325
     5.1931   5.4112   5.6244   5.8197   6.0091   6.1813   6.2840   6.3998
    11.1464  13.1713  13.3219  13.9659  14.2593  14.3656  15.0036  15.1391
    15.2200  15.3877

     occupation numbers 
     1.0000   1.0000   1.0000   1.0000   1.0000   1.0000   1.0000   1.0000
     1.0000   1.0000   1.0000   1.0000   1.0000   1.0000   1.0000   1.0000
     1.0000   1.0000   1.0000   1.0000   1.0000   1.0000   1.0000   1.0000
     1.0000   1.0000   1.0000   1.0000   1.0000   1.0000   1.0000   1.0000
     1.0000   1.0000   1.0000   1.0000   1.0000   1.0000   1.0000   1.0000
     1.0000   1.0000   1.0000   1.0000   1.0000   1.0000   1.0000   1.0000
     1.0000   1.0000   1.0000   1.0000   1.0000   1.0000   1.0000   1.0000
     1.0000   1.0000   1.0000   1.0000   1.0000   1.0000   1.0000   1.0000
     1.0000   1.0000   1.0000   1.0000   1.0000   1.0000   1.0000   1.0000
     1.0000   1.0000   1.0000   1.0000   1.0000   1.0000   1.0000   1.0000
     1.0000   1.0000   1.0000   1.0000   1.0000   1.0000   1.0000   1.0000
     1.0000   1.0000   1.0000   1.0000   1.0000   1.0000   1.0000   1.0000
     1.0000   1.0000   1.0000   1.0000   1.0000   1.0000   1.0000   1.0000
     0.0000   0.0000   0.0000   0.0000   0.0000   0.0000   0.0000   0.0000
     0.0000   0.0000

          k = 0.0000 0.0000 0.4441 ( 32914 PWs)   bands (ev):

   -83.7381 -83.7191 -83.7149 -83.4321 -49.8988 -49.8475 -49.8194 -49.7023
   -49.6912 -49.6876 -49.6839 -49.6499 -49.6330 -49.6140 -49.3954 -49.2416
   -43.7642 -15.9800 -15.8296 -15.7710 -15.7047 -15.5213 -15.3614 -15.2620
   -13.2768 -13.1485 -13.0310 -12.9692 -12.7212 -12.6848 -12.6448 -12.5985
   -12.5510 -12.4772 -12.4452 -12.3481  -3.1102  -2.6832  -2.5319  -2.1502
    -1.3584  -1.0859  -1.0407  -0.8711  -0.8398  -0.6910  -0.5119  -0.2964
    -0.2236  -0.1678  -0.0234   0.4071   0.4424   0.6044   1.1481   1.2415
     1.3307   1.3989   1.5503   1.5841   1.6531   1.6733   1.8403   2.1821
     2.2256   2.3317   2.3446   2.3988   2.4621   2.5168   2.6101   2.7099
     2.8135   3.0149   3.2066   3.2764   3.3803   3.3912   3.4748   3.6662
     3.7118   3.8395   4.1032   4.1571   4.2156   4.3207   4.3591   4.4057
     4.5328   4.5717   4.6654   4.7984   4.9433   4.9821   5.1369   5.2153
     5.3332   5.3738   5.7044   5.8000   5.9920   6.1291   6.1964   6.3204
    11.5657  13.3595  13.5422  14.0285  14.3259  14.3940  14.7827  14.9292
    15.1799  15.2207

     occupation numbers 
     1.0000   1.0000   1.0000   1.0000   1.0000   1.0000   1.0000   1.0000
     1.0000   1.0000   1.0000   1.0000   1.0000   1.0000   1.0000   1.0000
     1.0000   1.0000   1.0000   1.0000   1.0000   1.0000   1.0000   1.0000
     1.0000   1.0000   1.0000   1.0000   1.0000   1.0000   1.0000   1.0000
     1.0000   1.0000   1.0000   1.0000   1.0000   1.0000   1.0000   1.0000
     1.0000   1.0000   1.0000   1.0000   1.0000   1.0000   1.0000   1.0000
     1.0000   1.0000   1.0000   1.0000   1.0000   1.0000   1.0000   1.0000
     1.0000   1.0000   1.0000   1.0000   1.0000   1.0000   1.0000   1.0000
     1.0000   1.0000   1.0000   1.0000   1.0000   1.0000   1.0000   1.0000
     1.0000   1.0000   1.0000   1.0000   1.0000   1.0000   1.0000   1.0000
     1.0000   1.0000   1.0000   1.0000   1.0000   1.0000   1.0000   1.0000
     1.0000   1.0000   1.0000   1.0000   1.0000   1.0000   1.0000   1.0000
     1.0000   1.0000   1.0000   1.0000   1.0000   1.0000   1.0000   1.0000
     0.0000   0.0000   0.0000   0.0000   0.0000   0.0000   0.0000   0.0000
     0.0000   0.0000

          k = 0.0000 0.0000 0.6661 ( 32938 PWs)   bands (ev):

   -83.7381 -83.7191 -83.7150 -83.4321 -49.8988 -49.8475 -49.8194 -49.7023
   -49.6912 -49.6876 -49.6839 -49.6499 -49.6330 -49.6140 -49.3954 -49.2416
   -43.7642 -16.0102 -15.8184 -15.7684 -15.6709 -15.4715 -15.3454 -15.2822
   -13.2812 -13.1537 -13.0526 -12.9697 -12.7190 -12.6942 -12.6338 -12.6102
   -12.5665 -12.5105 -12.4591 -12.3774  -2.9879  -2.6780  -2.5063  -2.2509
    -1.1834  -1.0736  -0.9795  -0.8726  -0.7803  -0.6968  -0.5046  -0.3759
    -0.1829  -0.0495   0.0835   0.2564   0.5673   0.7141   1.1049   1.3030
     1.3715   1.3968   1.5167   1.6003   1.6420   1.7041   1.7472   2.1098
     2.2239   2.2525   2.3118   2.3658   2.4298   2.4685   2.5113   2.5713
     2.7355   2.8612   3.1948   3.2220   3.3043   3.4688   3.5934   3.6373
     3.7520   3.8710   3.9554   4.0853   4.2028   4.2248   4.3390   4.3936
     4.5296   4.5566   4.7168   4.8473   5.0283   5.0878   5.2354   5.3089
     5.3178   5.5193   5.7615   5.8113   5.9615   6.0531   6.0796   6.1916
    12.1479  13.5881  13.8023  14.1036  14.2486  14.5289  14.6104  14.7841
    14.8921  14.9987

     occupation numbers 
     1.0000   1.0000   1.0000   1.0000   1.0000   1.0000   1.0000   1.0000
     1.0000   1.0000   1.0000   1.0000   1.0000   1.0000   1.0000   1.0000
     1.0000   1.0000   1.0000   1.0000   1.0000   1.0000   1.0000   1.0000
     1.0000   1.0000   1.0000   1.0000   1.0000   1.0000   1.0000   1.0000
     1.0000   1.0000   1.0000   1.0000   1.0000   1.0000   1.0000   1.0000
     1.0000   1.0000   1.0000   1.0000   1.0000   1.0000   1.0000   1.0000
     1.0000   1.0000   1.0000   1.0000   1.0000   1.0000   1.0000   1.0000
     1.0000   1.0000   1.0000   1.0000   1.0000   1.0000   1.0000   1.0000
     1.0000   1.0000   1.0000   1.0000   1.0000   1.0000   1.0000   1.0000
     1.0000   1.0000   1.0000   1.0000   1.0000   1.0000   1.0000   1.0000
     1.0000   1.0000   1.0000   1.0000   1.0000   1.0000   1.0000   1.0000
     1.0000   1.0000   1.0000   1.0000   1.0000   1.0000   1.0000   1.0000
     1.0000   1.0000   1.0000   1.0000   1.0000   1.0000   1.0000   1.0000
     0.0000   0.0000   0.0000   0.0000   0.0000   0.0000   0.0000   0.0000
     0.0000   0.0000

          k = 0.0000 0.0000 0.8882 ( 32928 PWs)   bands (ev):

   -83.7381 -83.7191 -83.7149 -83.4321 -49.8988 -49.8475 -49.8194 -49.7023
   -49.6912 -49.6876 -49.6839 -49.6499 -49.6330 -49.6140 -49.3954 -49.2416
   -43.7642 -16.0275 -15.8105 -15.7662 -15.6529 -15.4220 -15.3450 -15.3010
   -13.2848 -13.1573 -13.0659 -12.9717 -12.7322 -12.6812 -12.6279 -12.6185
   -12.5788 -12.5295 -12.4695 -12.3967  -2.8573  -2.7218  -2.4706  -2.3440
    -1.1334  -1.0389  -0.9121  -0.8525  -0.6870  -0.6705  -0.5347  -0.5230
    -0.0783   0.0586   0.0818   0.1638   0.7566   0.9163   1.0474   1.1994
     1.3899   1.4350   1.5045   1.5571   1.5819   1.6408   1.8048   1.9787
     2.1584   2.2609   2.2670   2.3224   2.3536   2.4583   2.5040   2.5531
     2.7825   2.8197   3.0073   3.0578   3.3572   3.5210   3.6246   3.7100
     3.8396   3.8822   3.9215   4.0133   4.0810   4.1136   4.3591   4.3924
     4.5276   4.5533   4.8030   4.9024   5.0625   5.0826   5.2455   5.3561
     5.5117   5.7046   5.7675   5.8265   5.8449   5.9809   6.0230   6.0622
    12.7937  13.4233  13.8654  14.2176  14.3212  14.5562  14.6203  14.7429
    14.7676  14.8937

     occupation numbers 
     1.0000   1.0000   1.0000   1.0000   1.0000   1.0000   1.0000   1.0000
     1.0000   1.0000   1.0000   1.0000   1.0000   1.0000   1.0000   1.0000
     1.0000   1.0000   1.0000   1.0000   1.0000   1.0000   1.0000   1.0000
     1.0000   1.0000   1.0000   1.0000   1.0000   1.0000   1.0000   1.0000
     1.0000   1.0000   1.0000   1.0000   1.0000   1.0000   1.0000   1.0000
     1.0000   1.0000   1.0000   1.0000   1.0000   1.0000   1.0000   1.0000
     1.0000   1.0000   1.0000   1.0000   1.0000   1.0000   1.0000   1.0000
     1.0000   1.0000   1.0000   1.0000   1.0000   1.0000   1.0000   1.0000
     1.0000   1.0000   1.0000   1.0000   1.0000   1.0000   1.0000   1.0000
     1.0000   1.0000   1.0000   1.0000   1.0000   1.0000   1.0000   1.0000
     1.0000   1.0000   1.0000   1.0000   1.0000   1.0000   1.0000   1.0000
     1.0000   1.0000   1.0000   1.0000   1.0000   1.0000   1.0000   1.0000
     1.0000   1.0000   1.0000   1.0000   1.0000   1.0000   1.0000   1.0000
     0.0000   0.0000   0.0000   0.0000   0.0000   0.0000   0.0000   0.0000
     0.0000   0.0000

          k = 0.0000 0.2391 0.0000 ( 32913 PWs)   bands (ev):

   -83.7381 -83.7191 -83.7149 -83.4321 -49.8988 -49.8475 -49.8194 -49.7023
   -49.6912 -49.6876 -49.6839 -49.6499 -49.6330 -49.6140 -49.3954 -49.2416
   -43.7642 -15.9376 -15.8135 -15.7735 -15.7631 -15.5624 -15.3801 -15.2698
   -13.2767 -13.1437 -13.0167 -12.9815 -12.7460 -12.6954 -12.6194 -12.5794
   -12.5300 -12.4340 -12.4204 -12.3078  -3.1980  -2.7459  -2.5142  -2.0648
    -1.5498  -1.1613  -1.0423  -0.8941  -0.8234  -0.6374  -0.4951  -0.4692
    -0.2526  -0.1410   0.0481   0.3336   0.4701   0.6334   1.1705   1.2265
     1.2617   1.3495   1.4176   1.5149   1.5478   1.7776   2.0301   2.0983
     2.2845   2.4088   2.4339   2.4981   2.5604   2.5671   2.6469   2.6765
     2.8408   3.0259   3.2603   3.3303   3.3773   3.4963   3.5409   3.5922
     3.8284   3.8883   3.9694   4.1217   4.1820   4.2796   4.4164   4.4580
     4.5195   4.5912   4.6922   4.8091   4.8955   4.9534   5.0256   5.1213
     5.1593   5.3974   5.6780   5.7527   5.9718   6.1073   6.4300   6.4793
    11.1486  13.1831  13.3292  13.8927  14.2401  14.4900  15.0180  15.1420
    15.2903  15.3930

     occupation numbers 
     1.0000   1.0000   1.0000   1.0000   1.0000   1.0000   1.0000   1.0000
     1.0000   1.0000   1.0000   1.0000   1.0000   1.0000   1.0000   1.0000
     1.0000   1.0000   1.0000   1.0000   1.0000   1.0000   1.0000   1.0000
     1.0000   1.0000   1.0000   1.0000   1.0000   1.0000   1.0000   1.0000
     1.0000   1.0000   1.0000   1.0000   1.0000   1.0000   1.0000   1.0000
     1.0000   1.0000   1.0000   1.0000   1.0000   1.0000   1.0000   1.0000
     1.0000   1.0000   1.0000   1.0000   1.0000   1.0000   1.0000   1.0000
     1.0000   1.0000   1.0000   1.0000   1.0000   1.0000   1.0000   1.0000
     1.0000   1.0000   1.0000   1.0000   1.0000   1.0000   1.0000   1.0000
     1.0000   1.0000   1.0000   1.0000   1.0000   1.0000   1.0000   1.0000
     1.0000   1.0000   1.0000   1.0000   1.0000   1.0000   1.0000   1.0000
     1.0000   1.0000   1.0000   1.0000   1.0000   1.0000   1.0000   1.0000
     1.0000   1.0000   1.0000   1.0000   1.0000   1.0000   1.0000   1.0000
     0.0000   0.0000   0.0000   0.0000   0.0000   0.0000   0.0000   0.0000
     0.0000   0.0000

          k = 0.0000 0.2391 0.2220 ( 32922 PWs)   bands (ev):

   -83.7381 -83.7191 -83.7149 -83.4321 -49.8988 -49.8475 -49.8194 -49.7023
   -49.6912 -49.6876 -49.6839 -49.6499 -49.6330 -49.6140 -49.3954 -49.2416
   -43.7642 -15.9581 -15.8202 -15.7703 -15.7311 -15.5460 -15.3743 -15.2783
   -13.2776 -13.1456 -13.0268 -12.9778 -12.7486 -12.6891 -12.6303 -12.5886
   -12.5322 -12.4397 -12.4247 -12.3158  -3.1691  -2.7305  -2.5142  -2.0841
    -1.4945  -1.1368  -1.0460  -0.8842  -0.8151  -0.6619  -0.5012  -0.3989
    -0.2383  -0.1165  -0.0051   0.3466   0.4560   0.6356   1.1372   1.2275
     1.2792   1.3501   1.4641   1.5272   1.5563   1.7739   2.0462   2.0831
     2.2312   2.3750   2.4016   2.4908   2.5299   2.5511   2.6355   2.6692
     2.9482   3.0107   3.1912   3.3191   3.3756   3.4659   3.5067   3.5972
     3.7884   3.8892   3.9892   4.1498   4.1995   4.2776   4.3974   4.4212
     4.4738   4.5993   4.7136   4.8001   4.8753   4.9689   5.0737   5.1555
     5.1885   5.3879   5.7123   5.7529   5.9463   6.0925   6.4067   6.4604
    11.2971  13.2528  13.4121  13.9356  14.2710  14.4638  14.9660  15.0602
    15.2342  15.3252

     occupation numbers 
     1.0000   1.0000   1.0000   1.0000   1.0000   1.0000   1.0000   1.0000
     1.0000   1.0000   1.0000   1.0000   1.0000   1.0000   1.0000   1.0000
     1.0000   1.0000   1.0000   1.0000   1.0000   1.0000   1.0000   1.0000
     1.0000   1.0000   1.0000   1.0000   1.0000   1.0000   1.0000   1.0000
     1.0000   1.0000   1.0000   1.0000   1.0000   1.0000   1.0000   1.0000
     1.0000   1.0000   1.0000   1.0000   1.0000   1.0000   1.0000   1.0000
     1.0000   1.0000   1.0000   1.0000   1.0000   1.0000   1.0000   1.0000
     1.0000   1.0000   1.0000   1.0000   1.0000   1.0000   1.0000   1.0000
     1.0000   1.0000   1.0000   1.0000   1.0000   1.0000   1.0000   1.0000
     1.0000   1.0000   1.0000   1.0000   1.0000   1.0000   1.0000   1.0000
     1.0000   1.0000   1.0000   1.0000   1.0000   1.0000   1.0000   1.0000
     1.0000   1.0000   1.0000   1.0000   1.0000   1.0000   1.0000   1.0000
     1.0000   1.0000   1.0000   1.0000   1.0000   1.0000   1.0000   1.0000
     0.0000   0.0000   0.0000   0.0000   0.0000   0.0000   0.0000   0.0000
     0.0000   0.0000

          k = 0.0000 0.2391 0.4441 ( 32913 PWs)   bands (ev):

   -83.7381 -83.7191 -83.7149 -83.4321 -49.8988 -49.8475 -49.8194 -49.7023
   -49.6912 -49.6876 -49.6839 -49.6499 -49.6330 -49.6140 -49.3954 -49.2416
   -43.7642 -15.9862 -15.8209 -15.7709 -15.6885 -15.5030 -15.3625 -15.2906
   -13.2798 -13.1505 -13.0440 -12.9740 -12.7556 -12.6877 -12.6441 -12.6095
   -12.5382 -12.4549 -12.4370 -12.3375  -3.0873  -2.6983  -2.5080  -2.1486
    -1.3415  -1.0871  -1.0388  -0.8741  -0.7854  -0.6843  -0.5006  -0.2642
    -0.2062  -0.1297  -0.0311   0.3311   0.4656   0.6423   1.0846   1.2502
     1.2706   1.3742   1.5263   1.5663   1.6197   1.7408   1.9656   2.1441
     2.1704   2.3096   2.3485   2.4146   2.4751   2.5193   2.5912   2.6668
     2.8363   3.0146   3.2069   3.3078   3.3499   3.4056   3.4556   3.6121
     3.7226   3.8865   4.0850   4.1352   4.1637   4.2240   4.3426   4.4110
     4.4414   4.6064   4.7201   4.8166   4.8619   5.0481   5.1364   5.2085
     5.3155   5.3604   5.6964   5.8107   5.8897   6.0717   6.3451   6.4072
    11.7021  13.4372  13.6324  14.0507  14.3648  14.4247  14.7772  14.8768
    15.1151  15.2637

     occupation numbers 
     1.0000   1.0000   1.0000   1.0000   1.0000   1.0000   1.0000   1.0000
     1.0000   1.0000   1.0000   1.0000   1.0000   1.0000   1.0000   1.0000
     1.0000   1.0000   1.0000   1.0000   1.0000   1.0000   1.0000   1.0000
     1.0000   1.0000   1.0000   1.0000   1.0000   1.0000   1.0000   1.0000
     1.0000   1.0000   1.0000   1.0000   1.0000   1.0000   1.0000   1.0000
     1.0000   1.0000   1.0000   1.0000   1.0000   1.0000   1.0000   1.0000
     1.0000   1.0000   1.0000   1.0000   1.0000   1.0000   1.0000   1.0000
     1.0000   1.0000   1.0000   1.0000   1.0000   1.0000   1.0000   1.0000
     1.0000   1.0000   1.0000   1.0000   1.0000   1.0000   1.0000   1.0000
     1.0000   1.0000   1.0000   1.0000   1.0000   1.0000   1.0000   1.0000
     1.0000   1.0000   1.0000   1.0000   1.0000   1.0000   1.0000   1.0000
     1.0000   1.0000   1.0000   1.0000   1.0000   1.0000   1.0000   1.0000
     1.0000   1.0000   1.0000   1.0000   1.0000   1.0000   1.0000   1.0000
     0.0000   0.0000   0.0000   0.0000   0.0000   0.0000   0.0000   0.0000
     0.0000   0.0000

          k = 0.0000 0.2391 0.6661 ( 32939 PWs)   bands (ev):

   -83.7381 -83.7191 -83.7149 -83.4321 -49.8988 -49.8475 -49.8194 -49.7023
   -49.6912 -49.6876 -49.6839 -49.6499 -49.6330 -49.6140 -49.3954 -49.2416
   -43.7642 -16.0107 -15.8144 -15.7692 -15.6583 -15.4443 -15.3587 -15.3025
   -13.2836 -13.1567 -13.0606 -12.9729 -12.7657 -12.6938 -12.6547 -12.6290
   -12.5420 -12.4761 -12.4472 -12.3632  -2.9677  -2.6820  -2.4912  -2.2481
    -1.1692  -1.0638  -0.9720  -0.8759  -0.7275  -0.6827  -0.4921  -0.3308
    -0.1718  -0.0542   0.0851   0.2277   0.5619   0.6905   1.0252   1.2084
     1.3130   1.4421   1.5407   1.6239   1.6742   1.7564   1.8622   2.0866
     2.1498   2.2435   2.2974   2.3790   2.4304   2.4929   2.5124   2.5696
     2.6856   2.8577   3.1559   3.2604   3.3328   3.4674   3.5307   3.6435
     3.6863   3.8725   4.0247   4.1118   4.1432   4.1943   4.2405   4.4265
     4.4673   4.5708   4.7525   4.8677   4.9821   5.0906   5.1842   5.2931
     5.3122   5.4680   5.6612   5.7691   5.9347   6.0516   6.2574   6.3312
    12.2681  13.6637  13.8858  14.1775  14.3137  14.5507  14.6301  14.7149
    14.8969  14.9654

     occupation numbers 
     1.0000   1.0000   1.0000   1.0000   1.0000   1.0000   1.0000   1.0000
     1.0000   1.0000   1.0000   1.0000   1.0000   1.0000   1.0000   1.0000
     1.0000   1.0000   1.0000   1.0000   1.0000   1.0000   1.0000   1.0000
     1.0000   1.0000   1.0000   1.0000   1.0000   1.0000   1.0000   1.0000
     1.0000   1.0000   1.0000   1.0000   1.0000   1.0000   1.0000   1.0000
     1.0000   1.0000   1.0000   1.0000   1.0000   1.0000   1.0000   1.0000
     1.0000   1.0000   1.0000   1.0000   1.0000   1.0000   1.0000   1.0000
     1.0000   1.0000   1.0000   1.0000   1.0000   1.0000   1.0000   1.0000
     1.0000   1.0000   1.0000   1.0000   1.0000   1.0000   1.0000   1.0000
     1.0000   1.0000   1.0000   1.0000   1.0000   1.0000   1.0000   1.0000
     1.0000   1.0000   1.0000   1.0000   1.0000   1.0000   1.0000   1.0000
     1.0000   1.0000   1.0000   1.0000   1.0000   1.0000   1.0000   1.0000
     1.0000   1.0000   1.0000   1.0000   1.0000   1.0000   1.0000   1.0000
     0.0000   0.0000   0.0000   0.0000   0.0000   0.0000   0.0000   0.0000
     0.0000   0.0000

          k = 0.0000 0.2391 0.8882 ( 32940 PWs)   bands (ev):

   -83.7381 -83.7191 -83.7150 -83.4321 -49.8988 -49.8475 -49.8194 -49.7023
   -49.6912 -49.6876 -49.6839 -49.6499 -49.6330 -49.6140 -49.3954 -49.2416
   -43.7642 -16.0228 -15.8096 -15.7675 -15.6419 -15.4068 -15.3596 -15.3073
   -13.2871 -13.1607 -13.0707 -12.9727 -12.7743 -12.6997 -12.6660 -12.6333
   -12.5398 -12.4942 -12.4521 -12.3817  -2.8423  -2.7113  -2.4656  -2.3391
    -1.1123  -1.0247  -0.9068  -0.8577  -0.6643  -0.6279  -0.5113  -0.4816
    -0.0933   0.0288   0.1008   0.1871   0.7000   0.8329   0.9465   1.0725
     1.3809   1.5343   1.5553   1.6142   1.6869   1.7061   1.8465   1.9613
     2.1131   2.2337   2.2735   2.3066   2.3838   2.4248   2.4956   2.5379
     2.6987   2.8382   2.9639   3.1216   3.3735   3.5069   3.6031   3.6606
     3.7756   3.8977   3.9366   4.0089   4.1168   4.1466   4.2448   4.4321
     4.4917   4.5465   4.8206   4.9039   5.0515   5.0937   5.2424   5.3187
     5.3495   5.5493   5.6347   5.7029   6.0017   6.0458   6.1785   6.2639
    12.8976  13.5279  13.9384  14.2859  14.3876  14.5828  14.6408  14.7149
    14.7751  14.8914

     occupation numbers 
     1.0000   1.0000   1.0000   1.0000   1.0000   1.0000   1.0000   1.0000
     1.0000   1.0000   1.0000   1.0000   1.0000   1.0000   1.0000   1.0000
     1.0000   1.0000   1.0000   1.0000   1.0000   1.0000   1.0000   1.0000
     1.0000   1.0000   1.0000   1.0000   1.0000   1.0000   1.0000   1.0000
     1.0000   1.0000   1.0000   1.0000   1.0000   1.0000   1.0000   1.0000
     1.0000   1.0000   1.0000   1.0000   1.0000   1.0000   1.0000   1.0000
     1.0000   1.0000   1.0000   1.0000   1.0000   1.0000   1.0000   1.0000
     1.0000   1.0000   1.0000   1.0000   1.0000   1.0000   1.0000   1.0000
     1.0000   1.0000   1.0000   1.0000   1.0000   1.0000   1.0000   1.0000
     1.0000   1.0000   1.0000   1.0000   1.0000   1.0000   1.0000   1.0000
     1.0000   1.0000   1.0000   1.0000   1.0000   1.0000   1.0000   1.0000
     1.0000   1.0000   1.0000   1.0000   1.0000   1.0000   1.0000   1.0000
     1.0000   1.0000   1.0000   1.0000   1.0000   1.0000   1.0000   1.0000
     0.0000   0.0000   0.0000   0.0000   0.0000   0.0000   0.0000   0.0000
     0.0000   0.0000

          k = 0.0000 0.4781 0.0000 ( 32886 PWs)   bands (ev):

   -83.7381 -83.7191 -83.7149 -83.4321 -49.8988 -49.8475 -49.8194 -49.7023
   -49.6912 -49.6876 -49.6839 -49.6499 -49.6330 -49.6140 -49.3954 -49.2416
   -43.7642 -15.9440 -15.7962 -15.7683 -15.7248 -15.5513 -15.3760 -15.3260
   -13.2823 -13.1424 -13.0737 -12.9837 -12.7532 -12.7003 -12.6293 -12.5966
   -12.5019 -12.4179 -12.4036 -12.3010  -3.1299  -2.8081  -2.4281  -2.0944
    -1.4739  -1.1915  -1.0513  -0.9205  -0.7163  -0.6225  -0.4622  -0.4058
    -0.2068  -0.0617   0.1264   0.3343   0.4294   0.7168   1.0411   1.1058
     1.2918   1.3217   1.3606   1.4377   1.5299   1.8798   1.9522   2.1707
     2.2079   2.2458   2.3303   2.4004   2.5986   2.6196   2.7003   2.7663
     2.9601   3.0129   3.2391   3.2880   3.3549   3.4208   3.5293   3.6383
     3.8194   3.8622   3.9311   4.0233   4.1571   4.2305   4.3242   4.3580
     4.4536   4.5060   4.8226   4.8664   4.9379   4.9837   5.0369   5.1523
     5.2075   5.3549   5.5273   5.6747   5.9275   6.2519   6.4987   6.5360
    11.5773  13.3828  13.5294  13.5654  14.4144  14.6938  14.8947  14.9679
    15.2637  15.4184

     occupation numbers 
     1.0000   1.0000   1.0000   1.0000   1.0000   1.0000   1.0000   1.0000
     1.0000   1.0000   1.0000   1.0000   1.0000   1.0000   1.0000   1.0000
     1.0000   1.0000   1.0000   1.0000   1.0000   1.0000   1.0000   1.0000
     1.0000   1.0000   1.0000   1.0000   1.0000   1.0000   1.0000   1.0000
     1.0000   1.0000   1.0000   1.0000   1.0000   1.0000   1.0000   1.0000
     1.0000   1.0000   1.0000   1.0000   1.0000   1.0000   1.0000   1.0000
     1.0000   1.0000   1.0000   1.0000   1.0000   1.0000   1.0000   1.0000
     1.0000   1.0000   1.0000   1.0000   1.0000   1.0000   1.0000   1.0000
     1.0000   1.0000   1.0000   1.0000   1.0000   1.0000   1.0000   1.0000
     1.0000   1.0000   1.0000   1.0000   1.0000   1.0000   1.0000   1.0000
     1.0000   1.0000   1.0000   1.0000   1.0000   1.0000   1.0000   1.0000
     1.0000   1.0000   1.0000   1.0000   1.0000   1.0000   1.0000   1.0000
     1.0000   1.0000   1.0000   1.0000   1.0000   1.0000   1.0000   1.0000
     0.0000   0.0000   0.0000   0.0000   0.0000   0.0000   0.0000   0.0000
     0.0000   0.0000

          k = 0.0000 0.4781 0.2220 ( 32900 PWs)   bands (ev):

   -83.7381 -83.7191 -83.7149 -83.4321 -49.8988 -49.8475 -49.8194 -49.7023
   -49.6912 -49.6876 -49.6839 -49.6499 -49.6330 -49.6140 -49.3954 -49.2416
   -43.7642 -15.9596 -15.8061 -15.7717 -15.6891 -15.5298 -15.3720 -15.3357
   -13.2825 -13.1455 -13.0757 -12.9834 -12.7669 -12.6983 -12.6328 -12.6127
   -12.5033 -12.4186 -12.4061 -12.3064  -3.1022  -2.7896  -2.4323  -2.1081
    -1.4274  -1.1638  -1.0455  -0.9074  -0.7110  -0.6355  -0.4396  -0.3765
    -0.1583  -0.0782   0.0770   0.2923   0.4523   0.7140   1.0182   1.0813
     1.2463   1.3782   1.4154   1.4723   1.5571   1.8756   1.9737   2.1181
     2.1564   2.2227   2.3281   2.3825   2.5963   2.6195   2.6920   2.7628
[...]
     atom   12 type  3   force =     0.02853346   -0.00005848    0.01573333
     atom   13 type  3   force =    -0.02726610    0.00038583    0.00832289
     atom   14 type  3   force =    -0.11624285    0.00354103    0.03576074
     atom   15 type  3   force =     0.11128804   -0.00157100    0.04329092
     atom   16 type  3   force =     0.11457370    0.00164759   -0.02467482
     atom   17 type  3   force =    -0.10616706    0.00108411   -0.03620936
     atom   18 type  3   force =     0.03749525    0.08285274   -0.03349477
     atom   19 type  3   force =    -0.03466490   -0.08735078   -0.03580199
     atom   20 type  3   force =    -0.03619812    0.08514605    0.02827842
     atom   21 type  3   force =     0.03470391   -0.08217353    0.03482445
     atom   22 type  3   force =    -0.04204835   -0.08643082    0.02888954
     atom   23 type  3   force =     0.04393589    0.07976109    0.02528719
     atom   24 type  3   force =     0.03762848   -0.08260946   -0.03412486
     atom   25 type  3   force =    -0.03947710    0.08806417   -0.03791693
     The non-local contrib.  to forces
     atom    1 type  2   force =     0.07845700    0.04126923    0.02737206
     atom    2 type  1   force =     0.03983503    0.02917779    0.16821167
     atom    3 type  1   force =     0.07991522   -0.00103482    0.14553273
     atom    4 type  1   force =    -0.12437057   -0.06047435   -0.14224092
     atom    5 type  1   force =    -0.07189749    0.01576904   -0.14040617
     atom    6 type  4   force =     0.01917164    0.00168648    0.05770566
     atom    7 type  4   force =     0.00152063   -0.00785521    0.08506893
     atom    8 type  4   force =    -0.03287925    0.00879243   -0.05988964
     atom    9 type  4   force =     0.04131029    0.00009341   -0.05707998
     atom   10 type  3   force =     0.28243029   -0.01754544   -1.45122937
     atom   11 type  3   force =    -0.09943690   -0.01568333   -1.37603064
     atom   12 type  3   force =    -0.36274162    0.01830666    1.45768377
     atom   13 type  3   force =     0.21696724   -0.00701510    1.44281520
     atom   14 type  3   force =     1.18359802   -0.01850694   -0.64760818
     atom   15 type  3   force =    -1.15260217    0.01688792   -0.78480698
     atom   16 type  3   force =    -1.17135616   -0.02895538    0.35231046
     atom   17 type  3   force =     1.13490912   -0.00702664    0.64741246
     atom   18 type  3   force =    -0.53299783   -1.02764019    0.82297500
     atom   19 type  3   force =     0.51726566    1.09973403    0.83307032
     atom   20 type  3   force =     0.52498187   -1.01836241   -0.73863037
     atom   21 type  3   force =    -0.53171993    0.99761355   -0.81164398
     atom   22 type  3   force =     0.58779619    1.04083311   -0.77399007
     atom   23 type  3   force =    -0.63725100   -0.98155386   -0.67941113
     atom   24 type  3   force =    -0.52560925    1.01825623    0.83052236
     atom   25 type  3   force =     0.56333550   -1.06039385    0.88135095
     The ionic contribution  to forces
     atom    1 type  2   force =    -2.58337113    0.61807296    1.66098280
     atom    2 type  1   force =    -2.10598427   -0.18804970   -0.27340423
     atom    3 type  1   force =    -7.36025989    0.75666954   -0.33677996
     atom    4 type  1   force =     4.90746586    0.74923668   -0.15916323
     atom    5 type  1   force =     7.41413192   -1.22286953    0.66747368
     atom    6 type  4   force =    -2.98096254   -0.02904687    1.06360538
     atom    7 type  4   force =     0.16610923    0.71424503    1.34417433
     atom    8 type  4   force =     4.48648702   -0.00215244   -1.24134387
     atom    9 type  4   force =    -1.94111017   -0.87067079   -1.61699880
     atom   10 type  3   force =   -10.77622963    0.06845554    2.49833459
     atom   11 type  3   force =     4.33666599    1.47079726    0.74712284
     atom   12 type  3   force =    12.48263946   -0.18649392   -2.66158263
     atom   13 type  3   force =    -8.47384227   -1.16297226   -1.84912157
     atom   14 type  3   force =     0.43488438   -1.08805247    6.02409473
     atom   15 type  3   force =    -2.18535650   -0.12930483    7.86457090
     atom   16 type  3   force =    -1.69441115    1.67202112   -3.07752652
     atom   17 type  3   force =     3.74924927    0.12006161   -6.97159257
     atom   18 type  3   force =    -4.24078386    2.77491870   -3.60603680
     atom   19 type  3   force =     0.10958144   -4.22372789   -2.52168310
     atom   20 type  3   force =     5.08275811    3.81905953    2.93927587
     atom   21 type  3   force =    -1.80668603   -1.87169701    2.96918962
     atom   22 type  3   force =     5.20907906   -3.93097311    3.35252211
     atom   23 type  3   force =     0.88005580    1.19550143    0.41304884
     atom   24 type  3   force =    -3.97131794   -2.61791089   -3.68177701
     atom   25 type  3   force =     0.86120784    3.56488231   -3.54738540
     The local contribution  to forces
     atom    1 type  2   force =     2.50748344   -0.66712328   -1.67485226
     atom    2 type  1   force =     2.04954179    0.16470724    0.10461654
     atom    3 type  1   force =     7.30651372   -0.75566348    0.18724921
     atom    4 type  1   force =    -4.78162503   -0.69679761    0.30381658
     atom    5 type  1   force =    -7.36832937    1.20876666   -0.52502555
     atom    6 type  4   force =     3.01393454    0.02970854   -1.03356547
     atom    7 type  4   force =    -0.20243018   -0.71199357   -1.33760924
     atom    8 type  4   force =    -4.50436658   -0.00335439    1.20669492
     atom    9 type  4   force =     1.95260938    0.87140932    1.58547137
     atom   10 type  3   force =    10.46878328   -0.04964517   -1.07316531
     atom   11 type  3   force =    -4.22407294   -1.45179044    0.60412518
     atom   12 type  3   force =   -12.09486059    0.16830725    1.23234828
     atom   13 type  3   force =     8.23181792    1.17031971    0.42714373
     atom   14 type  3   force =    -1.72647748    1.10995652   -5.34630182
     atom   15 type  3   force =     3.44117151    0.11097489   -7.04310100
     atom   16 type  3   force =     2.97224426   -1.64161943    2.70364428
     atom   17 type  3   force =    -4.98233108   -0.11199800    6.29350146
     atom   18 type  3   force =     4.80722277   -1.67210382    2.75638228
     atom   19 type  3   force =    -0.65761741    3.04496779    1.65971786
     atom   20 type  3   force =    -5.63994658   -2.72313547   -2.17843871
     atom   21 type  3   force =     2.36907575    0.79933073   -2.12949147
     atom   22 type  3   force =    -5.83441995    2.81146947   -2.55604379
     atom   23 type  3   force =    -0.20371506   -0.14157758    0.28596335
     atom   24 type  3   force =     4.53057788    1.52461978    2.82402382
     atom   25 type  3   force =    -1.45976625   -2.42427298    2.63543561
     The core correction contribution to forces
     atom    1 type  2   force =     0.00000000    0.00000000    0.00000000
     atom    2 type  1   force =    -0.00055013   -0.00039475   -0.00022409
     atom    3 type  1   force =    -0.00050831    0.00007211    0.00068450
     atom    4 type  1   force =     0.00265565    0.00075196   -0.00031981
     atom    5 type  1   force =     0.00071804   -0.00023537   -0.00032263
     atom    6 type  4   force =    -0.00188509   -0.00017124   -0.00679853
     atom    7 type  4   force =     0.00100426    0.00037196   -0.00887679
     atom    8 type  4   force =     0.00228695   -0.00052390    0.00718799
     atom    9 type  4   force =    -0.00344294    0.00049962    0.00717171
     atom   10 type  3   force =    -0.00277493    0.00014744    0.01267023
     atom   11 type  3   force =     0.00136933    0.00008713    0.01190205
     atom   12 type  3   force =     0.00349368   -0.00017839   -0.01271389
     atom   13 type  3   force =    -0.00220339    0.00005352   -0.01251521
     atom   14 type  3   force =    -0.00824093    0.00014403    0.00557830
     atom   15 type  3   force =     0.00806796   -0.00012892    0.00663131
     atom   16 type  3   force =     0.00809992    0.00020136   -0.00310176
     atom   17 type  3   force =    -0.00800218    0.00004719   -0.00552849
     atom   18 type  3   force =     0.00405096    0.00767634   -0.00681441
     atom   19 type  3   force =    -0.00389082   -0.00832481   -0.00690480
     atom   20 type  3   force =    -0.00399349    0.00758766    0.00607153
     atom   21 type  3   force =     0.00403748   -0.00741843    0.00677359
     atom   22 type  3   force =    -0.00450541   -0.00776332    0.00640119
     atom   23 type  3   force =     0.00484958    0.00738891    0.00568914
     atom   24 type  3   force =     0.00397448   -0.00757263   -0.00689322
     atom   25 type  3   force =    -0.00425054    0.00784867   -0.00731601
     The Hubbard contrib.    to forces
     atom    1 type  2   force =     0.00000000    0.00000000    0.00000000
     atom    2 type  1   force =     0.00000000    0.00000000    0.00000000
     atom    3 type  1   force =     0.00000000    0.00000000    0.00000000
     atom    4 type  1   force =     0.00000000    0.00000000    0.00000000
     atom    5 type  1   force =     0.00000000    0.00000000    0.00000000
     atom    6 type  4   force =     0.00000000    0.00000000    0.00000000
     atom    7 type  4   force =     0.00000000    0.00000000    0.00000000
     atom    8 type  4   force =     0.00000000    0.00000000    0.00000000
     atom    9 type  4   force =     0.00000000    0.00000000    0.00000000
     atom   10 type  3   force =     0.00000000    0.00000000    0.00000000
     atom   11 type  3   force =     0.00000000    0.00000000    0.00000000
     atom   12 type  3   force =     0.00000000    0.00000000    0.00000000
     atom   13 type  3   force =     0.00000000    0.00000000    0.00000000
     atom   14 type  3   force =     0.00000000    0.00000000    0.00000000
     atom   15 type  3   force =     0.00000000    0.00000000    0.00000000
     atom   16 type  3   force =     0.00000000    0.00000000    0.00000000
     atom   17 type  3   force =     0.00000000    0.00000000    0.00000000
     atom   18 type  3   force =     0.00000000    0.00000000    0.00000000
     atom   19 type  3   force =     0.00000000    0.00000000    0.00000000
     atom   20 type  3   force =     0.00000000    0.00000000    0.00000000
     atom   21 type  3   force =     0.00000000    0.00000000    0.00000000
     atom   22 type  3   force =     0.00000000    0.00000000    0.00000000
     atom   23 type  3   force =     0.00000000    0.00000000    0.00000000
     atom   24 type  3   force =     0.00000000    0.00000000    0.00000000
     atom   25 type  3   force =     0.00000000    0.00000000    0.00000000
     The SCF correction term to forces
     atom    1 type  2   force =    -0.00000589    0.00000074   -0.00000049
     atom    2 type  1   force =    -0.00000162    0.00000004   -0.00000068
     atom    3 type  1   force =     0.00000252    0.00000002   -0.00000025
     atom    4 type  1   force =    -0.00000336   -0.00000035    0.00000047
     atom    5 type  1   force =     0.00000151    0.00000010    0.00000007
     atom    6 type  4   force =     0.00000335    0.00000001   -0.00000050
     atom    7 type  4   force =    -0.00000304    0.00000001   -0.00000024
     atom    8 type  4   force =     0.00000281   -0.00000004    0.00000014
     atom    9 type  4   force =    -0.00000315    0.00000003   -0.00000075
     atom   10 type  3   force =     0.00000644   -0.00000006    0.00000149
     atom   11 type  3   force =    -0.00000563   -0.00000001    0.00000222
     atom   12 type  3   force =     0.00000265   -0.00000001   -0.00000087
     atom   13 type  3   force =    -0.00000547    0.00000003    0.00000207
     atom   14 type  3   force =    -0.00000672   -0.00000004   -0.00000096
     atom   15 type  3   force =     0.00000737    0.00000001   -0.00000197
     atom   16 type  3   force =    -0.00000305   -0.00000002    0.00000005
     atom   17 type  3   force =     0.00000792    0.00000001   -0.00000089
     atom   18 type  3   force =     0.00000334    0.00000177    0.00000049
     atom   19 type  3   force =    -0.00000365    0.00000017   -0.00000092
     atom   20 type  3   force =     0.00000209   -0.00000320    0.00000144
     atom   21 type  3   force =    -0.00000324   -0.00000230   -0.00000198
     atom   22 type  3   force =     0.00000188    0.00000311    0.00000144
     atom   23 type  3   force =    -0.00000330    0.00000225   -0.00000168
     atom   24 type  3   force =     0.00000342   -0.00000189    0.00000054
     atom   25 type  3   force =    -0.00000352    0.00000009   -0.00000074

     Total force =     0.417045     Total SCF correction =     0.000023


     Computing stress (Cartesian axis) and pressure


     negative rho (up, down):  0.000E+00 9.469E-04
          total   stress  (Ry/bohr**3)                   (kbar)     P=      171.75
   0.00161922  -0.00004756  -0.00004009          238.20       -7.00       -5.90
  -0.00004756   0.00129104   0.00003719           -7.00      189.92        5.47
  -0.00004009   0.00003719   0.00059244           -5.90        5.47       87.15

     kinetic stress (kbar)  29721.53      4.78    -10.21
                                4.78  29935.69      6.27
                              -10.21      6.27  29589.66

     local   stress (kbar)  -4006.15   2003.61   1218.54
                             2003.61 -14853.67   -722.50
                             1218.54   -722.50  -7462.47

     nonloc. stress (kbar)  -7608.12      2.29      4.32
                                2.29  -7538.65     -1.52
                                4.32     -1.52  -7562.24

     hartree stress (kbar)  13518.19   -802.17   -483.72
                             -802.17  19476.32    281.27
                             -483.72    281.27  15819.95

     exc-cor stress (kbar)  -3135.23     -1.23     -0.85
                               -1.23  -3143.40      0.49
                               -0.85      0.49  -3140.84

     corecor stress (kbar)  -3457.87      0.44      0.75
                                0.44  -3455.40     -0.05
                                0.75     -0.05  -3455.42

     ewald   stress (kbar) -24794.15  -1214.72   -734.73
                            -1214.72 -20230.98    441.51
                             -734.73    441.51 -23701.49

     hubbard stress (kbar)      0.00      0.00      0.00
                                0.00      0.00      0.00
                                0.00      0.00      0.00

     DFT-D   stress (kbar)      0.00      0.00      0.00
                                0.00      0.00      0.00
                                0.00      0.00      0.00

     XDM     stress (kbar)      0.00      0.00      0.00
                                0.00      0.00      0.00
                                0.00      0.00      0.00

     dft-nl  stress (kbar)      0.00      0.00      0.00
                                0.00      0.00      0.00
                                0.00      0.00      0.00

     TS-vdW  stress (kbar)      0.00      0.00      0.00
                                0.00      0.00      0.00
                                0.00      0.00      0.00



     init_run     :    198.55s CPU    202.81s WALL (       1 calls)
     electrons    :  15999.39s CPU  16291.35s WALL (       1 calls)
     forces       :    133.15s CPU    135.42s WALL (       1 calls)
     stress       :    772.48s CPU    777.81s WALL (       1 calls)

     Called by init_run:
     wfcinit      :    187.03s CPU    190.09s WALL (       1 calls)
     wfcinit:atom :      3.30s CPU      3.35s WALL (     316 calls)
     wfcinit:wfcr :    173.64s CPU    176.49s WALL (     316 calls)
     potinit      :      4.22s CPU      4.69s WALL (       1 calls)
     hinit0       :      4.25s CPU      4.35s WALL (       1 calls)

     Called by electrons:
     c_bands      :  14146.97s CPU  14370.84s WALL (      31 calls)
     sum_band     :   1723.60s CPU   1766.97s WALL (      31 calls)
     v_of_rho     :     29.72s CPU     31.17s WALL (      32 calls)
     v_h          :      1.73s CPU      1.80s WALL (      32 calls)
     v_xc         :     29.73s CPU     31.18s WALL (      34 calls)
     newd         :     68.24s CPU     85.31s WALL (      32 calls)
     PAW_pot      :     24.85s CPU     25.18s WALL (      32 calls)
     mix_rho      :      6.47s CPU      6.80s WALL (      31 calls)

     Called by c_bands:
     init_us_2    :    285.02s CPU    289.46s WALL (   20540 calls)
     cegterg      :  13691.46s CPU  13823.10s WALL (    9796 calls)

     Called by sum_band:
     sum_band:wei :      0.42s CPU      0.43s WALL (      31 calls)
     sum_band:loo :   1577.04s CPU   1599.05s WALL (      31 calls)
     sum_band:buf :     73.94s CPU     75.02s WALL (    9796 calls)
     sum_band:ini :    138.27s CPU    140.19s WALL (    9796 calls)
     sum_band:cal :    775.31s CPU    786.43s WALL (    9796 calls)
     sum_band:bec :      5.02s CPU      5.13s WALL (    9796 calls)
     addusdens    :    141.34s CPU    162.52s WALL (      31 calls)
     addusd:skk   :      1.17s CPU      1.20s WALL (      93 calls)
     addusd:dgemm :     65.04s CPU     84.48s WALL (     186 calls)
     addusd:qvan2 :     73.37s CPU     73.78s WALL (     186 calls)

     Called by *egterg:
     cdiaghg      :    757.66s CPU    766.98s WALL (   36214 calls)
     cegterg:over :   1370.58s CPU   1389.60s WALL (   26418 calls)
     cegterg:upda :    890.92s CPU    895.92s WALL (   26418 calls)
     cegterg:last :   1671.38s CPU   1679.90s WALL (   16348 calls)
     h_psi        :   6422.20s CPU   6494.81s WALL (   36530 calls)
     s_psi        :   1794.07s CPU   1803.61s WALL (   36530 calls)
     g_psi        :     23.11s CPU     23.41s WALL (   26418 calls)

     Called by h_psi:
     h_psi:calbec :   1945.88s CPU   1971.24s WALL (   36530 calls)
     vloc_psi     :   2423.28s CPU   2457.20s WALL (   36530 calls)
     add_vuspsi   :   1904.94s CPU   1915.74s WALL (   36530 calls)

     General routines
     calbec       :   2859.24s CPU   2897.67s WALL (   47906 calls)
     fft          :     26.90s CPU     28.69s WALL (     838 calls)
     ffts         :      0.33s CPU      0.45s WALL (     126 calls)
     fftw         :   2686.41s CPU   2723.01s WALL ( 6074032 calls)
     interpolate  :      2.29s CPU      2.52s WALL (      64 calls)

     Parallel routines
     fft_scatt_xy :    309.54s CPU    313.01s WALL ( 6074996 calls)
     fft_scatt_yz :    724.47s CPU    737.13s WALL ( 6074996 calls)

     PAW routines
     PAW_pot      :     24.85s CPU     25.18s WALL (      32 calls)

     PWSCF        :      4h45m CPU      4h50m WALL


   This run was terminated on:   3:43:38  18Dec2022            

=------------------------------------------------------------------------------=
   JOB DONE.
=------------------------------------------------------------------------------=
Note: The following floating-point exceptions are signalling: IEEE_UNDERFLOW_FLAG IEEE_DENORMAL
Note: The following floating-point exceptions are signalling: IEEE_DENORMAL
Note: The following floating-point exceptions are signalling: IEEE_DENORMAL
Note: The following floating-point exceptions are signalling: IEEE_DENORMAL
Note: The following floating-point exceptions are signalling: IEEE_DENORMAL
Note: The following floating-point exceptions are signalling: IEEE_DENORMAL
Note: The following floating-point exceptions are signalling: IEEE_DENORMAL
Note: The following floating-point exceptions are signalling: IEEE_DENORMAL
Note: The following floating-point exceptions are signalling: IEEE_DENORMAL
Note: The following floating-point exceptions are signalling: IEEE_DENORMAL
Note: The following floating-point exceptions are signalling: IEEE_DENORMAL
Note: The following floating-point exceptions are signalling: IEEE_DENORMAL
Note: The following floating-point exceptions are signalling: IEEE_DENORMAL
