
     Program PWSCF v.6.7MaX starts on 17Dec2022 at  7:43:13 

     This program is part of the open-source Quantum ESPRESSO suite
     for quantum simulation of materials; please cite
         "P. Giannozzi et al., J. Phys.:Condens. Matter 21 395502 (2009);
         "P. Giannozzi et al., J. Phys.:Condens. Matter 29 465901 (2017);
          URL http://www.quantum-espresso.org", 
     in publications or presentations arising from this work. More details at
     http://www.quantum-espresso.org/quote

     Parallel version (MPI), running on    16 processors

     MPI processes distributed on     1 nodes
     R & G space division:  proc/nbgrp/npool/nimage =      16
     Reading input from scale_3d-04.in

     Current dimensions of program PWSCF are:
     Max number of different atomic species (ntypx) = 10
     Max number of k-points (npk) =  40000
     Max angular momentum in pseudopotentials (lmaxx) =  3
     Message from routine read_pp_mesh:
     mesh size missing, using the one in header
     file Fe.pbe-spn-kjpaw_psl.0.2.1.UPF: wavefunction(s)  3D renormalized
     file O.pbe-n-kjpaw_psl.0.1.UPF: wavefunction(s)  2P renormalized

     Subspace diagonalization in iterative solution of the eigenvalue problem:
     a serial algorithm will be used


     Parallelization info
     --------------------
     sticks:   dense  smooth     PW     G-vecs:    dense   smooth      PW
     Min        1325     490    132                89298    20136    2814
     Max        1327     491    134                89299    20141    2815
     Sum       21211    7849   2119              1428783   322201   45025



     bravais-lattice index     =            0
     lattice parameter (alat)  =      20.3206  a.u.
     unit-cell volume          =    2383.6748 (a.u.)^3
     number of atoms/cell      =           25
     number of atomic types    =            4
     number of electrons       =       189.00
     number of Kohn-Sham states=          114
     kinetic-energy cutoff     =     100.0000  Ry
     charge density cutoff     =    1080.0000  Ry
     scf convergence threshold =      2.0E-10
     mixing beta               =       0.4000
     number of iterations used =            8  plain     mixing
     Exchange-correlation= PBE
                           (   1   4   3   4   0   0   0)

     celldm(1)=  20.320559  celldm(2)=   0.000000  celldm(3)=   0.000000
     celldm(4)=   0.000000  celldm(5)=   0.000000  celldm(6)=   0.000000

     crystal axes: (cart. coord. in units of alat)
               a(1) = (   1.000000   0.000000   0.000000 )  
               a(2) = (   0.000000   0.597590   0.000000 )  
               a(3) = (   0.000000   0.000000   0.475375 )  

     reciprocal axes: (cart. coord. in units 2 pi/alat)
               b(1) = (  1.000000  0.000000  0.000000 )  
               b(2) = (  0.000000  1.673388  0.000000 )  
               b(3) = (  0.000000  0.000000  2.103600 )  


     PseudoPot. # 1 for Fe read from file:
     /opt/QEpot/SSSP_precision_pseudos/Fe.pbe-spn-kjpaw_psl.0.2.1.UPF
     MD5 check sum: e86618425769142926afa95317d90200
     Pseudo is Projector augmented-wave + core cor, Zval = 16.0
     Generated using "atomic" code by A. Dal Corso  v.5.0.99 svn rev. 10869
     Shape of augmentation charge: PSQ
     Using radial grid of 1191 points,  6 beta functions with: 
                l(1) =   0
                l(2) =   0
                l(3) =   1
                l(4) =   1
                l(5) =   2
                l(6) =   2
     Q(r) pseudized with 0 coefficients 


     PseudoPot. # 2 for Na read from file:
     /opt/QEpot/SSSP_precision_pseudos/Na_ONCV_PBE-1.0.oncvpsp.upf
     MD5 check sum: 24a298df0a6742ae313db96548fdb2a4
     Pseudo is Norm-conserving, Zval =  9.0
     Generated using ONCVPSP code by D. R. Hamann
     Using radial grid of 1992 points,  4 beta functions with: 
                l(1) =   0
                l(2) =   0
                l(3) =   1
                l(4) =   1

     PseudoPot. # 3 for O  read from file:
     /opt/QEpot/SSSP_precision_pseudos/O.pbe-n-kjpaw_psl.0.1.UPF
     MD5 check sum: 0234752ac141de4415c5fc33072bef88
     Pseudo is Projector augmented-wave + core cor, Zval =  6.0
     Generated using "atomic" code by A. Dal Corso  v.5.0.99 svn rev. 10869
     Shape of augmentation charge: BESSEL
     Using radial grid of 1095 points,  4 beta functions with: 
                l(1) =   0
                l(2) =   0
                l(3) =   1
                l(4) =   1
     Q(r) pseudized with 0 coefficients 


     PseudoPot. # 4 for P  read from file:
     /opt/QEpot/SSSP_precision_pseudos/P.pbe-n-rrkjus_psl.1.0.0.UPF
     MD5 check sum: 8b930f418f0a4573dca56cd030ffe088
     Pseudo is Ultrasoft + core correction, Zval =  5.0
     Generated using "atomic" code by A. Dal Corso  v.5.1
     Using radial grid of 1147 points,  6 beta functions with: 
                l(1) =   0
                l(2) =   0
                l(3) =   1
                l(4) =   1
                l(5) =   2
                l(6) =   2
     Q(r) pseudized with 0 coefficients 


     atomic species   valence    mass     pseudopotential
        Fe            16.00    55.84500     Fe( 1.00)
        Na             9.00    22.98977     Na( 1.00)
        O              6.00    15.99940     O ( 1.00)
        P              5.00    30.97376     P ( 1.00)

     Starting magnetic structure 
     atomic species   magnetization
        Fe           0.312
        Na           0.000
        O            0.000
        P            0.000

     No symmetry found


                                    s                        frac. trans.

      isym =  1     identity                                     

 cryst.   s( 1) = (     1          0          0      )
                  (     0          1          0      )
                  (     0          0          1      )

 cart.    s( 1) = (  1.0000000  0.0000000  0.0000000 )
                  (  0.0000000  1.0000000  0.0000000 )
                  (  0.0000000  0.0000000  1.0000000 )


   Cartesian axes

     site n.     atom                  positions (alat units)
         1           Na  tau(   1) = (   0.5426070   0.0859532   0.2217513  )
         2           Fe  tau(   2) = (   0.2774940   0.4493392   0.4716742  )
         3           Fe  tau(   3) = (   0.2102570   0.1513026   0.2332097  )
         4           Fe  tau(   4) = (   0.7280950   0.1558240   0.0019267  )
         5           Fe  tau(   5) = (   0.7825800   0.4471329   0.2433694  )
         6           P   tau(   6) = (   0.1059480   0.4497037   0.2111038  )
         7           P   tau(   7) = (   0.3878490   0.1534736   0.4484426  )
         8           P   tau(   8) = (   0.8915560   0.1498511   0.2648222  )
         9           P   tau(   9) = (   0.6054980   0.4485934   0.0284869  )
        10           O   tau(  10) = (   0.1317880   0.4508200   0.3570436  )
        11           O   tau(  11) = (   0.3634070   0.1505341   0.1192698  )
        12           O   tau(  12) = (   0.8709790   0.1504480   0.1182672  )
        13           O   tau(  13) = (   0.6302560   0.4517624   0.3576407  )
        14           O   tau(  14) = (   0.4595490   0.4517152   0.0576764  )
        15           O   tau(  15) = (   0.0359180   0.1490371   0.2976972  )
        16           O   tau(  16) = (   0.5363260   0.1525480   0.4260871  )
        17           O   tau(  17) = (   0.9593080   0.4497545   0.1854235  )
        18           O   tau(  18) = (   0.1755980   0.5656971   0.1419619  )
        19           O   tau(  19) = (   0.3240220   0.0365731   0.3760924  )
        20           O   tau(  20) = (   0.8190690   0.2665412   0.3311613  )
        21           O   tau(  21) = (   0.6753190   0.3316797   0.0965103  )
        22           O   tau(  22) = (   0.8159810   0.0356331   0.3307454  )
        23           O   tau(  23) = (   0.6759010   0.5648444   0.0980638  )
        24           O   tau(  24) = (   0.1746370   0.3324698   0.1431926  )
        25           O   tau(  25) = (   0.3201310   0.2697330   0.3806094  )

   Crystallographic axes

     site n.     atom                  positions (cryst. coord.)
         1           Na  tau(   1) = (  0.5426070  0.1438330  0.4664760  )
         2           Fe  tau(   2) = (  0.2774940  0.7519190  0.9922140  )
         3           Fe  tau(   3) = (  0.2102570  0.2531880  0.4905800  )
         4           Fe  tau(   4) = (  0.7280950  0.2607540  0.0040530  )
         5           Fe  tau(   5) = (  0.7825800  0.7482270  0.5119520  )
         6           P   tau(   6) = (  0.1059480  0.7525290  0.4440780  )
         7           P   tau(   7) = (  0.3878490  0.2568210  0.9433440  )
         8           P   tau(   8) = (  0.8915560  0.2507590  0.5570800  )
         9           P   tau(   9) = (  0.6054980  0.7506710  0.0599250  )
        10           O   tau(  10) = (  0.1317880  0.7543970  0.7510770  )
        11           O   tau(  11) = (  0.3634070  0.2519020  0.2508960  )
        12           O   tau(  12) = (  0.8709790  0.2517580  0.2487870  )
        13           O   tau(  13) = (  0.6302560  0.7559740  0.7523330  )
        14           O   tau(  14) = (  0.4595490  0.7558950  0.1213280  )
        15           O   tau(  15) = (  0.0359180  0.2493970  0.6262360  )
        16           O   tau(  16) = (  0.5363260  0.2552720  0.8963170  )
        17           O   tau(  17) = (  0.9593080  0.7526140  0.3900570  )
        18           O   tau(  18) = (  0.1755980  0.9466310  0.2986310  )
        19           O   tau(  19) = (  0.3240220  0.0612010  0.7911480  )
        20           O   tau(  20) = (  0.8190690  0.4460270  0.6966310  )
        21           O   tau(  21) = (  0.6753190  0.5550290  0.2030190  )
        22           O   tau(  22) = (  0.8159810  0.0596280  0.6957560  )
        23           O   tau(  23) = (  0.6759010  0.9452040  0.2062870  )
        24           O   tau(  24) = (  0.1746370  0.5563510  0.3012200  )
        25           O   tau(  25) = (  0.3201310  0.4513680  0.8006500  )

     number of k points=   158  Marzari-Vanderbilt smearing, width (Ry)=  0.0073
                       cart. coord. in units 2pi/alat
        k(    1) = (   0.0000000   0.0000000   0.0000000), wk =   0.0031746
        k(    2) = (   0.0000000   0.0000000   0.2337334), wk =   0.0063492
        k(    3) = (   0.0000000   0.0000000   0.4674667), wk =   0.0063492
        k(    4) = (   0.0000000   0.0000000   0.7012001), wk =   0.0063492
        k(    5) = (   0.0000000   0.0000000   0.9349334), wk =   0.0063492
        k(    6) = (   0.0000000   0.2390555   0.0000000), wk =   0.0063492
        k(    7) = (   0.0000000   0.2390555   0.2337334), wk =   0.0063492
        k(    8) = (   0.0000000   0.2390555   0.4674667), wk =   0.0063492
        k(    9) = (   0.0000000   0.2390555   0.7012001), wk =   0.0063492
        k(   10) = (   0.0000000   0.2390555   0.9349334), wk =   0.0063492
        k(   11) = (   0.0000000   0.4781110   0.0000000), wk =   0.0063492
        k(   12) = (   0.0000000   0.4781110   0.2337334), wk =   0.0063492
        k(   13) = (   0.0000000   0.4781110   0.4674667), wk =   0.0063492
        k(   14) = (   0.0000000   0.4781110   0.7012001), wk =   0.0063492
        k(   15) = (   0.0000000   0.4781110   0.9349334), wk =   0.0063492
        k(   16) = (   0.0000000   0.7171664   0.0000000), wk =   0.0063492
        k(   17) = (   0.0000000   0.7171664   0.2337334), wk =   0.0063492
        k(   18) = (   0.0000000   0.7171664   0.4674667), wk =   0.0063492
        k(   19) = (   0.0000000   0.7171664   0.7012001), wk =   0.0063492
        k(   20) = (   0.0000000   0.7171664   0.9349334), wk =   0.0063492
        k(   21) = (   0.2000000   0.0000000   0.0000000), wk =   0.0063492
        k(   22) = (   0.2000000   0.0000000   0.2337334), wk =   0.0063492
        k(   23) = (   0.2000000   0.0000000   0.4674667), wk =   0.0063492
        k(   24) = (   0.2000000   0.0000000   0.7012001), wk =   0.0063492
        k(   25) = (   0.2000000   0.0000000   0.9349334), wk =   0.0063492
        k(   26) = (   0.2000000   0.2390555   0.0000000), wk =   0.0063492
        k(   27) = (   0.2000000   0.2390555   0.2337334), wk =   0.0063492
        k(   28) = (   0.2000000   0.2390555   0.4674667), wk =   0.0063492
        k(   29) = (   0.2000000   0.2390555   0.7012001), wk =   0.0063492
        k(   30) = (   0.2000000   0.2390555   0.9349334), wk =   0.0063492
        k(   31) = (   0.2000000   0.4781110   0.0000000), wk =   0.0063492
        k(   32) = (   0.2000000   0.4781110   0.2337334), wk =   0.0063492
        k(   33) = (   0.2000000   0.4781110   0.4674667), wk =   0.0063492
        k(   34) = (   0.2000000   0.4781110   0.7012001), wk =   0.0063492
        k(   35) = (   0.2000000   0.4781110   0.9349334), wk =   0.0063492
        k(   36) = (   0.2000000   0.7171664   0.0000000), wk =   0.0063492
        k(   37) = (   0.2000000   0.7171664   0.2337334), wk =   0.0063492
        k(   38) = (   0.2000000   0.7171664   0.4674667), wk =   0.0063492
        k(   39) = (   0.2000000   0.7171664   0.7012001), wk =   0.0063492
        k(   40) = (   0.2000000   0.7171664   0.9349334), wk =   0.0063492
        k(   41) = (   0.4000000   0.0000000   0.0000000), wk =   0.0063492
        k(   42) = (   0.4000000   0.0000000   0.2337334), wk =   0.0063492
        k(   43) = (   0.4000000   0.0000000   0.4674667), wk =   0.0063492
        k(   44) = (   0.4000000   0.0000000   0.7012001), wk =   0.0063492
        k(   45) = (   0.4000000   0.0000000   0.9349334), wk =   0.0063492
        k(   46) = (   0.4000000   0.2390555   0.0000000), wk =   0.0063492
        k(   47) = (   0.4000000   0.2390555   0.2337334), wk =   0.0063492
        k(   48) = (   0.4000000   0.2390555   0.4674667), wk =   0.0063492
        k(   49) = (   0.4000000   0.2390555   0.7012001), wk =   0.0063492
        k(   50) = (   0.4000000   0.2390555   0.9349334), wk =   0.0063492
        k(   51) = (   0.4000000   0.4781110   0.0000000), wk =   0.0063492
        k(   52) = (   0.4000000   0.4781110   0.2337334), wk =   0.0063492
        k(   53) = (   0.4000000   0.4781110   0.4674667), wk =   0.0063492
        k(   54) = (   0.4000000   0.4781110   0.7012001), wk =   0.0063492
        k(   55) = (   0.4000000   0.4781110   0.9349334), wk =   0.0063492
        k(   56) = (   0.4000000   0.7171664   0.0000000), wk =   0.0063492
        k(   57) = (   0.4000000   0.7171664   0.2337334), wk =   0.0063492
        k(   58) = (   0.4000000   0.7171664   0.4674667), wk =   0.0063492
        k(   59) = (   0.4000000   0.7171664   0.7012001), wk =   0.0063492
        k(   60) = (   0.4000000   0.7171664   0.9349334), wk =   0.0063492
        k(   61) = (   0.0000000  -0.2390555   0.2337334), wk =   0.0063492
        k(   62) = (   0.0000000  -0.2390555   0.4674667), wk =   0.0063492
        k(   63) = (   0.0000000  -0.2390555   0.7012001), wk =   0.0063492
        k(   64) = (   0.0000000  -0.2390555   0.9349334), wk =   0.0063492
        k(   65) = (   0.0000000  -0.4781110   0.2337334), wk =   0.0063492
        k(   66) = (   0.0000000  -0.4781110   0.4674667), wk =   0.0063492
        k(   67) = (   0.0000000  -0.4781110   0.7012001), wk =   0.0063492
        k(   68) = (   0.0000000  -0.4781110   0.9349334), wk =   0.0063492
        k(   69) = (   0.0000000  -0.7171664   0.2337334), wk =   0.0063492
        k(   70) = (   0.0000000  -0.7171664   0.4674667), wk =   0.0063492
        k(   71) = (   0.0000000  -0.7171664   0.7012001), wk =   0.0063492
        k(   72) = (   0.0000000  -0.7171664   0.9349334), wk =   0.0063492
        k(   73) = (  -0.2000000   0.0000000   0.2337334), wk =   0.0063492
        k(   74) = (  -0.2000000   0.0000000   0.4674667), wk =   0.0063492
        k(   75) = (  -0.2000000   0.0000000   0.7012001), wk =   0.0063492
        k(   76) = (  -0.2000000   0.0000000   0.9349334), wk =   0.0063492
        k(   77) = (  -0.2000000   0.2390555   0.0000000), wk =   0.0063492
        k(   78) = (  -0.2000000  -0.2390555   0.2337334), wk =   0.0063492
        k(   79) = (  -0.2000000   0.2390555  -0.2337334), wk =   0.0063492
        k(   80) = (   0.2000000  -0.2390555  -0.2337334), wk =   0.0063492
        k(   81) = (  -0.2000000  -0.2390555   0.4674667), wk =   0.0063492
        k(   82) = (  -0.2000000   0.2390555  -0.4674667), wk =   0.0063492
        k(   83) = (   0.2000000  -0.2390555  -0.4674667), wk =   0.0063492
        k(   84) = (  -0.2000000  -0.2390555   0.7012001), wk =   0.0063492
        k(   85) = (  -0.2000000   0.2390555  -0.7012001), wk =   0.0063492
        k(   86) = (   0.2000000  -0.2390555  -0.7012001), wk =   0.0063492
        k(   87) = (  -0.2000000  -0.2390555   0.9349334), wk =   0.0063492
        k(   88) = (  -0.2000000   0.2390555  -0.9349334), wk =   0.0063492
        k(   89) = (   0.2000000  -0.2390555  -0.9349334), wk =   0.0063492
        k(   90) = (  -0.2000000   0.4781110   0.0000000), wk =   0.0063492
        k(   91) = (  -0.2000000  -0.4781110   0.2337334), wk =   0.0063492
        k(   92) = (  -0.2000000   0.4781110  -0.2337334), wk =   0.0063492
        k(   93) = (   0.2000000  -0.4781110  -0.2337334), wk =   0.0063492
        k(   94) = (  -0.2000000  -0.4781110   0.4674667), wk =   0.0063492
        k(   95) = (  -0.2000000   0.4781110  -0.4674667), wk =   0.0063492
        k(   96) = (   0.2000000  -0.4781110  -0.4674667), wk =   0.0063492
        k(   97) = (  -0.2000000  -0.4781110   0.7012001), wk =   0.0063492
        k(   98) = (  -0.2000000   0.4781110  -0.7012001), wk =   0.0063492
        k(   99) = (   0.2000000  -0.4781110  -0.7012001), wk =   0.0063492
        k(  100) = (  -0.2000000  -0.4781110   0.9349334), wk =   0.0063492
        k(  101) = (  -0.2000000   0.4781110  -0.9349334), wk =   0.0063492
        k(  102) = (   0.2000000  -0.4781110  -0.9349334), wk =   0.0063492
        k(  103) = (  -0.2000000   0.7171664   0.0000000), wk =   0.0063492
        k(  104) = (  -0.2000000  -0.7171664   0.2337334), wk =   0.0063492
        k(  105) = (  -0.2000000   0.7171664  -0.2337334), wk =   0.0063492
        k(  106) = (   0.2000000  -0.7171664  -0.2337334), wk =   0.0063492
        k(  107) = (  -0.2000000  -0.7171664   0.4674667), wk =   0.0063492
        k(  108) = (  -0.2000000   0.7171664  -0.4674667), wk =   0.0063492
        k(  109) = (   0.2000000  -0.7171664  -0.4674667), wk =   0.0063492
        k(  110) = (  -0.2000000  -0.7171664   0.7012001), wk =   0.0063492
        k(  111) = (  -0.2000000   0.7171664  -0.7012001), wk =   0.0063492
        k(  112) = (   0.2000000  -0.7171664  -0.7012001), wk =   0.0063492
        k(  113) = (  -0.2000000  -0.7171664   0.9349334), wk =   0.0063492
        k(  114) = (  -0.2000000   0.7171664  -0.9349334), wk =   0.0063492
        k(  115) = (   0.2000000  -0.7171664  -0.9349334), wk =   0.0063492
        k(  116) = (  -0.4000000   0.0000000   0.2337334), wk =   0.0063492
        k(  117) = (  -0.4000000   0.0000000   0.4674667), wk =   0.0063492
        k(  118) = (  -0.4000000   0.0000000   0.7012001), wk =   0.0063492
        k(  119) = (  -0.4000000   0.0000000   0.9349334), wk =   0.0063492
        k(  120) = (  -0.4000000   0.2390555   0.0000000), wk =   0.0063492
        k(  121) = (  -0.4000000  -0.2390555   0.2337334), wk =   0.0063492
        k(  122) = (  -0.4000000   0.2390555  -0.2337334), wk =   0.0063492
        k(  123) = (   0.4000000  -0.2390555  -0.2337334), wk =   0.0063492
        k(  124) = (  -0.4000000  -0.2390555   0.4674667), wk =   0.0063492
        k(  125) = (  -0.4000000   0.2390555  -0.4674667), wk =   0.0063492
        k(  126) = (   0.4000000  -0.2390555  -0.4674667), wk =   0.0063492
        k(  127) = (  -0.4000000  -0.2390555   0.7012001), wk =   0.0063492
        k(  128) = (  -0.4000000   0.2390555  -0.7012001), wk =   0.0063492
        k(  129) = (   0.4000000  -0.2390555  -0.7012001), wk =   0.0063492
        k(  130) = (  -0.4000000  -0.2390555   0.9349334), wk =   0.0063492
        k(  131) = (  -0.4000000   0.2390555  -0.9349334), wk =   0.0063492
        k(  132) = (   0.4000000  -0.2390555  -0.9349334), wk =   0.0063492
        k(  133) = (  -0.4000000   0.4781110   0.0000000), wk =   0.0063492
        k(  134) = (  -0.4000000  -0.4781110   0.2337334), wk =   0.0063492
        k(  135) = (  -0.4000000   0.4781110  -0.2337334), wk =   0.0063492
        k(  136) = (   0.4000000  -0.4781110  -0.2337334), wk =   0.0063492
        k(  137) = (  -0.4000000  -0.4781110   0.4674667), wk =   0.0063492
        k(  138) = (  -0.4000000   0.4781110  -0.4674667), wk =   0.0063492
        k(  139) = (   0.4000000  -0.4781110  -0.4674667), wk =   0.0063492
        k(  140) = (  -0.4000000  -0.4781110   0.7012001), wk =   0.0063492
        k(  141) = (  -0.4000000   0.4781110  -0.7012001), wk =   0.0063492
        k(  142) = (   0.4000000  -0.4781110  -0.7012001), wk =   0.0063492
        k(  143) = (  -0.4000000  -0.4781110   0.9349334), wk =   0.0063492
        k(  144) = (  -0.4000000   0.4781110  -0.9349334), wk =   0.0063492
        k(  145) = (   0.4000000  -0.4781110  -0.9349334), wk =   0.0063492
        k(  146) = (  -0.4000000   0.7171664   0.0000000), wk =   0.0063492
        k(  147) = (  -0.4000000  -0.7171664   0.2337334), wk =   0.0063492
        k(  148) = (  -0.4000000   0.7171664  -0.2337334), wk =   0.0063492
        k(  149) = (   0.4000000  -0.7171664  -0.2337334), wk =   0.0063492
        k(  150) = (  -0.4000000  -0.7171664   0.4674667), wk =   0.0063492
        k(  151) = (  -0.4000000   0.7171664  -0.4674667), wk =   0.0063492
        k(  152) = (   0.4000000  -0.7171664  -0.4674667), wk =   0.0063492
        k(  153) = (  -0.4000000  -0.7171664   0.7012001), wk =   0.0063492
        k(  154) = (  -0.4000000   0.7171664  -0.7012001), wk =   0.0063492
        k(  155) = (   0.4000000  -0.7171664  -0.7012001), wk =   0.0063492
        k(  156) = (  -0.4000000  -0.7171664   0.9349334), wk =   0.0063492
        k(  157) = (  -0.4000000   0.7171664  -0.9349334), wk =   0.0063492
        k(  158) = (   0.4000000  -0.7171664  -0.9349334), wk =   0.0063492

                       cryst. coord.
        k(    1) = (   0.0000000   0.0000000   0.0000000), wk =   0.0031746
        k(    2) = (   0.0000000   0.0000000   0.1111111), wk =   0.0063492
        k(    3) = (   0.0000000   0.0000000   0.2222222), wk =   0.0063492
        k(    4) = (   0.0000000   0.0000000   0.3333333), wk =   0.0063492
        k(    5) = (   0.0000000   0.0000000   0.4444444), wk =   0.0063492
        k(    6) = (   0.0000000   0.1428571   0.0000000), wk =   0.0063492
        k(    7) = (   0.0000000   0.1428571   0.1111111), wk =   0.0063492
        k(    8) = (   0.0000000   0.1428571   0.2222222), wk =   0.0063492
        k(    9) = (   0.0000000   0.1428571   0.3333333), wk =   0.0063492
        k(   10) = (   0.0000000   0.1428571   0.4444444), wk =   0.0063492
        k(   11) = (   0.0000000   0.2857143   0.0000000), wk =   0.0063492
        k(   12) = (   0.0000000   0.2857143   0.1111111), wk =   0.0063492
        k(   13) = (   0.0000000   0.2857143   0.2222222), wk =   0.0063492
        k(   14) = (   0.0000000   0.2857143   0.3333333), wk =   0.0063492
        k(   15) = (   0.0000000   0.2857143   0.4444444), wk =   0.0063492
        k(   16) = (   0.0000000   0.4285714   0.0000000), wk =   0.0063492
        k(   17) = (   0.0000000   0.4285714   0.1111111), wk =   0.0063492
        k(   18) = (   0.0000000   0.4285714   0.2222222), wk =   0.0063492
        k(   19) = (   0.0000000   0.4285714   0.3333333), wk =   0.0063492
        k(   20) = (   0.0000000   0.4285714   0.4444444), wk =   0.0063492
        k(   21) = (   0.2000000   0.0000000   0.0000000), wk =   0.0063492
        k(   22) = (   0.2000000   0.0000000   0.1111111), wk =   0.0063492
        k(   23) = (   0.2000000   0.0000000   0.2222222), wk =   0.0063492
        k(   24) = (   0.2000000   0.0000000   0.3333333), wk =   0.0063492
        k(   25) = (   0.2000000   0.0000000   0.4444444), wk =   0.0063492
        k(   26) = (   0.2000000   0.1428571   0.0000000), wk =   0.0063492
        k(   27) = (   0.2000000   0.1428571   0.1111111), wk =   0.0063492
        k(   28) = (   0.2000000   0.1428571   0.2222222), wk =   0.0063492
        k(   29) = (   0.2000000   0.1428571   0.3333333), wk =   0.0063492
        k(   30) = (   0.2000000   0.1428571   0.4444444), wk =   0.0063492
        k(   31) = (   0.2000000   0.2857143   0.0000000), wk =   0.0063492
        k(   32) = (   0.2000000   0.2857143   0.1111111), wk =   0.0063492
        k(   33) = (   0.2000000   0.2857143   0.2222222), wk =   0.0063492
        k(   34) = (   0.2000000   0.2857143   0.3333333), wk =   0.0063492
        k(   35) = (   0.2000000   0.2857143   0.4444444), wk =   0.0063492
        k(   36) = (   0.2000000   0.4285714   0.0000000), wk =   0.0063492
        k(   37) = (   0.2000000   0.4285714   0.1111111), wk =   0.0063492
        k(   38) = (   0.2000000   0.4285714   0.2222222), wk =   0.0063492
        k(   39) = (   0.2000000   0.4285714   0.3333333), wk =   0.0063492
        k(   40) = (   0.2000000   0.4285714   0.4444444), wk =   0.0063492
        k(   41) = (   0.4000000   0.0000000   0.0000000), wk =   0.0063492
        k(   42) = (   0.4000000   0.0000000   0.1111111), wk =   0.0063492
        k(   43) = (   0.4000000   0.0000000   0.2222222), wk =   0.0063492
        k(   44) = (   0.4000000   0.0000000   0.3333333), wk =   0.0063492
        k(   45) = (   0.4000000   0.0000000   0.4444444), wk =   0.0063492
        k(   46) = (   0.4000000   0.1428571   0.0000000), wk =   0.0063492
        k(   47) = (   0.4000000   0.1428571   0.1111111), wk =   0.0063492
        k(   48) = (   0.4000000   0.1428571   0.2222222), wk =   0.0063492
        k(   49) = (   0.4000000   0.1428571   0.3333333), wk =   0.0063492
        k(   50) = (   0.4000000   0.1428571   0.4444444), wk =   0.0063492
        k(   51) = (   0.4000000   0.2857143   0.0000000), wk =   0.0063492
        k(   52) = (   0.4000000   0.2857143   0.1111111), wk =   0.0063492
        k(   53) = (   0.4000000   0.2857143   0.2222222), wk =   0.0063492
        k(   54) = (   0.4000000   0.2857143   0.3333333), wk =   0.0063492
        k(   55) = (   0.4000000   0.2857143   0.4444444), wk =   0.0063492
        k(   56) = (   0.4000000   0.4285714   0.0000000), wk =   0.0063492
        k(   57) = (   0.4000000   0.4285714   0.1111111), wk =   0.0063492
        k(   58) = (   0.4000000   0.4285714   0.2222222), wk =   0.0063492
        k(   59) = (   0.4000000   0.4285714   0.3333333), wk =   0.0063492
        k(   60) = (   0.4000000   0.4285714   0.4444444), wk =   0.0063492
        k(   61) = (   0.0000000  -0.1428571   0.1111111), wk =   0.0063492
        k(   62) = (   0.0000000  -0.1428571   0.2222222), wk =   0.0063492
        k(   63) = (   0.0000000  -0.1428571   0.3333333), wk =   0.0063492
        k(   64) = (   0.0000000  -0.1428571   0.4444444), wk =   0.0063492
        k(   65) = (   0.0000000  -0.2857143   0.1111111), wk =   0.0063492
        k(   66) = (   0.0000000  -0.2857143   0.2222222), wk =   0.0063492
        k(   67) = (   0.0000000  -0.2857143   0.3333333), wk =   0.0063492
        k(   68) = (   0.0000000  -0.2857143   0.4444444), wk =   0.0063492
        k(   69) = (   0.0000000  -0.4285714   0.1111111), wk =   0.0063492
        k(   70) = (   0.0000000  -0.4285714   0.2222222), wk =   0.0063492
        k(   71) = (   0.0000000  -0.4285714   0.3333333), wk =   0.0063492
        k(   72) = (   0.0000000  -0.4285714   0.4444444), wk =   0.0063492
        k(   73) = (  -0.2000000   0.0000000   0.1111111), wk =   0.0063492
        k(   74) = (  -0.2000000   0.0000000   0.2222222), wk =   0.0063492
        k(   75) = (  -0.2000000   0.0000000   0.3333333), wk =   0.0063492
        k(   76) = (  -0.2000000   0.0000000   0.4444444), wk =   0.0063492
        k(   77) = (  -0.2000000   0.1428571   0.0000000), wk =   0.0063492
        k(   78) = (  -0.2000000  -0.1428571   0.1111111), wk =   0.0063492
        k(   79) = (  -0.2000000   0.1428571  -0.1111111), wk =   0.0063492
        k(   80) = (   0.2000000  -0.1428571  -0.1111111), wk =   0.0063492
        k(   81) = (  -0.2000000  -0.1428571   0.2222222), wk =   0.0063492
        k(   82) = (  -0.2000000   0.1428571  -0.2222222), wk =   0.0063492
        k(   83) = (   0.2000000  -0.1428571  -0.2222222), wk =   0.0063492
        k(   84) = (  -0.2000000  -0.1428571   0.3333333), wk =   0.0063492
        k(   85) = (  -0.2000000   0.1428571  -0.3333333), wk =   0.0063492
        k(   86) = (   0.2000000  -0.1428571  -0.3333333), wk =   0.0063492
        k(   87) = (  -0.2000000  -0.1428571   0.4444444), wk =   0.0063492
        k(   88) = (  -0.2000000   0.1428571  -0.4444444), wk =   0.0063492
        k(   89) = (   0.2000000  -0.1428571  -0.4444444), wk =   0.0063492
        k(   90) = (  -0.2000000   0.2857143   0.0000000), wk =   0.0063492
        k(   91) = (  -0.2000000  -0.2857143   0.1111111), wk =   0.0063492
        k(   92) = (  -0.2000000   0.2857143  -0.1111111), wk =   0.0063492
        k(   93) = (   0.2000000  -0.2857143  -0.1111111), wk =   0.0063492
        k(   94) = (  -0.2000000  -0.2857143   0.2222222), wk =   0.0063492
        k(   95) = (  -0.2000000   0.2857143  -0.2222222), wk =   0.0063492
        k(   96) = (   0.2000000  -0.2857143  -0.2222222), wk =   0.0063492
        k(   97) = (  -0.2000000  -0.2857143   0.3333333), wk =   0.0063492
        k(   98) = (  -0.2000000   0.2857143  -0.3333333), wk =   0.0063492
        k(   99) = (   0.2000000  -0.2857143  -0.3333333), wk =   0.0063492
        k(  100) = (  -0.2000000  -0.2857143   0.4444444), wk =   0.0063492
        k(  101) = (  -0.2000000   0.2857143  -0.4444444), wk =   0.0063492
        k(  102) = (   0.2000000  -0.2857143  -0.4444444), wk =   0.0063492
        k(  103) = (  -0.2000000   0.4285714   0.0000000), wk =   0.0063492
        k(  104) = (  -0.2000000  -0.4285714   0.1111111), wk =   0.0063492
        k(  105) = (  -0.2000000   0.4285714  -0.1111111), wk =   0.0063492
        k(  106) = (   0.2000000  -0.4285714  -0.1111111), wk =   0.0063492
        k(  107) = (  -0.2000000  -0.4285714   0.2222222), wk =   0.0063492
        k(  108) = (  -0.2000000   0.4285714  -0.2222222), wk =   0.0063492
        k(  109) = (   0.2000000  -0.4285714  -0.2222222), wk =   0.0063492
        k(  110) = (  -0.2000000  -0.4285714   0.3333333), wk =   0.0063492
        k(  111) = (  -0.2000000   0.4285714  -0.3333333), wk =   0.0063492
        k(  112) = (   0.2000000  -0.4285714  -0.3333333), wk =   0.0063492
        k(  113) = (  -0.2000000  -0.4285714   0.4444444), wk =   0.0063492
        k(  114) = (  -0.2000000   0.4285714  -0.4444444), wk =   0.0063492
        k(  115) = (   0.2000000  -0.4285714  -0.4444444), wk =   0.0063492
        k(  116) = (  -0.4000000   0.0000000   0.1111111), wk =   0.0063492
        k(  117) = (  -0.4000000   0.0000000   0.2222222), wk =   0.0063492
        k(  118) = (  -0.4000000   0.0000000   0.3333333), wk =   0.0063492
        k(  119) = (  -0.4000000   0.0000000   0.4444444), wk =   0.0063492
        k(  120) = (  -0.4000000   0.1428571   0.0000000), wk =   0.0063492
        k(  121) = (  -0.4000000  -0.1428571   0.1111111), wk =   0.0063492
        k(  122) = (  -0.4000000   0.1428571  -0.1111111), wk =   0.0063492
        k(  123) = (   0.4000000  -0.1428571  -0.1111111), wk =   0.0063492
        k(  124) = (  -0.4000000  -0.1428571   0.2222222), wk =   0.0063492
        k(  125) = (  -0.4000000   0.1428571  -0.2222222), wk =   0.0063492
        k(  126) = (   0.4000000  -0.1428571  -0.2222222), wk =   0.0063492
        k(  127) = (  -0.4000000  -0.1428571   0.3333333), wk =   0.0063492
        k(  128) = (  -0.4000000   0.1428571  -0.3333333), wk =   0.0063492
        k(  129) = (   0.4000000  -0.1428571  -0.3333333), wk =   0.0063492
        k(  130) = (  -0.4000000  -0.1428571   0.4444444), wk =   0.0063492
        k(  131) = (  -0.4000000   0.1428571  -0.4444444), wk =   0.0063492
        k(  132) = (   0.4000000  -0.1428571  -0.4444444), wk =   0.0063492
        k(  133) = (  -0.4000000   0.2857143   0.0000000), wk =   0.0063492
        k(  134) = (  -0.4000000  -0.2857143   0.1111111), wk =   0.0063492
        k(  135) = (  -0.4000000   0.2857143  -0.1111111), wk =   0.0063492
        k(  136) = (   0.4000000  -0.2857143  -0.1111111), wk =   0.0063492
        k(  137) = (  -0.4000000  -0.2857143   0.2222222), wk =   0.0063492
        k(  138) = (  -0.4000000   0.2857143  -0.2222222), wk =   0.0063492
        k(  139) = (   0.4000000  -0.2857143  -0.2222222), wk =   0.0063492
        k(  140) = (  -0.4000000  -0.2857143   0.3333333), wk =   0.0063492
        k(  141) = (  -0.4000000   0.2857143  -0.3333333), wk =   0.0063492
        k(  142) = (   0.4000000  -0.2857143  -0.3333333), wk =   0.0063492
        k(  143) = (  -0.4000000  -0.2857143   0.4444444), wk =   0.0063492
        k(  144) = (  -0.4000000   0.2857143  -0.4444444), wk =   0.0063492
        k(  145) = (   0.4000000  -0.2857143  -0.4444444), wk =   0.0063492
        k(  146) = (  -0.4000000   0.4285714   0.0000000), wk =   0.0063492
        k(  147) = (  -0.4000000  -0.4285714   0.1111111), wk =   0.0063492
        k(  148) = (  -0.4000000   0.4285714  -0.1111111), wk =   0.0063492
        k(  149) = (   0.4000000  -0.4285714  -0.1111111), wk =   0.0063492
        k(  150) = (  -0.4000000  -0.4285714   0.2222222), wk =   0.0063492
        k(  151) = (  -0.4000000   0.4285714  -0.2222222), wk =   0.0063492
        k(  152) = (   0.4000000  -0.4285714  -0.2222222), wk =   0.0063492
        k(  153) = (  -0.4000000  -0.4285714   0.3333333), wk =   0.0063492
        k(  154) = (  -0.4000000   0.4285714  -0.3333333), wk =   0.0063492
        k(  155) = (   0.4000000  -0.4285714  -0.3333333), wk =   0.0063492
        k(  156) = (  -0.4000000  -0.4285714   0.4444444), wk =   0.0063492
        k(  157) = (  -0.4000000   0.4285714  -0.4444444), wk =   0.0063492
        k(  158) = (   0.4000000  -0.4285714  -0.4444444), wk =   0.0063492

     Dense  grid:  1428783 G-vectors     FFT dimensions: ( 216, 128, 108)

     Smooth grid:   322201 G-vectors     FFT dimensions: ( 135,  80,  64)

     Dynamical RAM for                 wfc:       4.37 MB

     Dynamical RAM for     wfc (w. buffer):    1386.83 MB

     Dynamical RAM for           str. fact:       5.45 MB

     Dynamical RAM for           local pot:       0.00 MB

     Dynamical RAM for          nlocal pot:      10.75 MB

     Dynamical RAM for                qrad:      10.54 MB

     Dynamical RAM for          rho,v,vnew:      17.03 MB

     Dynamical RAM for               rhoin:       5.68 MB

     Dynamical RAM for            rho*nmix:      43.60 MB

     Dynamical RAM for           G-vectors:       5.26 MB

     Dynamical RAM for          h,s,v(r/c):       2.38 MB

     Dynamical RAM for          <psi|beta>:       0.49 MB

     Dynamical RAM for                 psi:       8.75 MB

     Dynamical RAM for                hpsi:       8.75 MB

     Dynamical RAM for                spsi:       8.75 MB

     Dynamical RAM for      wfcinit/wfcrot:      10.95 MB

     Dynamical RAM for           addusdens:     276.61 MB

     Dynamical RAM for          addusforce:     317.61 MB

     Dynamical RAM for         addusstress:     275.93 MB

     Estimated static dynamical RAM per process >       1.47 GB

     Estimated max dynamical RAM per process >       1.78 GB

     Estimated total dynamical RAM >      28.41 GB

     Check: negative core charge=   -0.000003
     Generating pointlists ...
     new r_m :   0.0760 (alat units)  1.5451 (a.u.) for type    1
     new r_m :   0.0887 (alat units)  1.8022 (a.u.) for type    2
     new r_m :   0.0610 (alat units)  1.2405 (a.u.) for type    3
     new r_m :   0.0610 (alat units)  1.2405 (a.u.) for type    4

     Initial potential from superposition of free atoms

     starting charge  188.99132, renormalised to  189.00000
     Starting wfcs are  137 randomized atomic wfcs
     Checking if some PAW data can be deallocated... 
       PAW data deallocated on   13 nodes for type:  1
       PAW data deallocated on    4 nodes for type:  3

     total cpu time spent up to now is      212.9 secs

     Self-consistent Calculation

     iteration #  1     ecut=   100.00 Ry     beta= 0.40
     Davidson diagonalization with overlap
     ethr =  1.00E-02,  avg # of iterations =  2.8

     negative rho (up, down):  0.000E+00 8.590E-05

     total cpu time spent up to now is      805.6 secs

     total energy              =   -2123.60306701 Ry
     estimated scf accuracy    <       7.24997068 Ry

     total magnetization       =    19.00 Bohr mag/cell
     absolute magnetization    =    19.00 Bohr mag/cell

     iteration #  2     ecut=   100.00 Ry     beta= 0.40
     Davidson diagonalization with overlap
     ethr =  3.84E-03,  avg # of iterations =  2.0

     negative rho (up, down):  0.000E+00 3.909E-05

     total cpu time spent up to now is     1387.4 secs

     total energy              =   -2120.05536581 Ry
     estimated scf accuracy    <      53.66713481 Ry

     total magnetization       =     6.54 Bohr mag/cell
     absolute magnetization    =     8.10 Bohr mag/cell

     iteration #  3     ecut=   100.00 Ry     beta= 0.40
     Davidson diagonalization with overlap
     ethr =  3.84E-03,  avg # of iterations =  3.2

     negative rho (up, down):  0.000E+00 2.624E-05

     total cpu time spent up to now is     1904.8 secs

     total energy              =   -2123.08425751 Ry
     estimated scf accuracy    <      56.29862373 Ry

     total magnetization       =     4.46 Bohr mag/cell
     absolute magnetization    =     8.57 Bohr mag/cell

     iteration #  4     ecut=   100.00 Ry     beta= 0.40
     Davidson diagonalization with overlap
     ethr =  3.84E-03,  avg # of iterations =  1.5

     negative rho (up, down):  0.000E+00 2.448E-05

     total cpu time spent up to now is     2371.7 secs

     total energy              =   -2124.45893578 Ry
     estimated scf accuracy    <      35.55662400 Ry

     total magnetization       =     9.00 Bohr mag/cell
     absolute magnetization    =     9.31 Bohr mag/cell

     iteration #  5     ecut=   100.00 Ry     beta= 0.40
     Davidson diagonalization with overlap
     ethr =  3.84E-03,  avg # of iterations =  1.7

     negative rho (up, down):  0.000E+00 5.125E-05

     total cpu time spent up to now is     2849.6 secs

     total energy              =   -2125.63173944 Ry
     estimated scf accuracy    <       5.61405003 Ry

     total magnetization       =    16.73 Bohr mag/cell
     absolute magnetization    =    16.79 Bohr mag/cell

     iteration #  6     ecut=   100.00 Ry     beta= 0.40
     Davidson diagonalization with overlap
     ethr =  2.97E-03,  avg # of iterations =  1.5

     negative rho (up, down):  0.000E+00 1.564E-04

     total cpu time spent up to now is     3317.7 secs

     total energy              =   -2125.97945684 Ry
     estimated scf accuracy    <       1.22865115 Ry

     total magnetization       =    19.09 Bohr mag/cell
     absolute magnetization    =    19.09 Bohr mag/cell

     iteration #  7     ecut=   100.00 Ry     beta= 0.40
     Davidson diagonalization with overlap
     ethr =  6.50E-04,  avg # of iterations =  1.0

     negative rho (up, down):  0.000E+00 3.177E-04

     total cpu time spent up to now is     3769.4 secs

     total energy              =   -2125.98587601 Ry
     estimated scf accuracy    <       0.62159659 Ry

     total magnetization       =    19.00 Bohr mag/cell
     absolute magnetization    =    19.00 Bohr mag/cell

     iteration #  8     ecut=   100.00 Ry     beta= 0.40
     Davidson diagonalization with overlap
     ethr =  3.29E-04,  avg # of iterations =  1.2

     negative rho (up, down):  0.000E+00 4.121E-04

     total cpu time spent up to now is     4226.1 secs

     total energy              =   -2125.97493944 Ry
     estimated scf accuracy    <       0.27555536 Ry

     total magnetization       =    19.00 Bohr mag/cell
     absolute magnetization    =    19.00 Bohr mag/cell

     iteration #  9     ecut=   100.00 Ry     beta= 0.40
     Davidson diagonalization with overlap
     c_bands:  1 eigenvalues not converged
     ethr =  1.46E-04,  avg # of iterations =  5.6

     negative rho (up, down):  0.000E+00 5.042E-04

     total cpu time spent up to now is     4751.9 secs

     total energy              =   -2125.97989716 Ry
     estimated scf accuracy    <       0.27579685 Ry

     total magnetization       =    19.00 Bohr mag/cell
     absolute magnetization    =    19.01 Bohr mag/cell

     iteration # 10     ecut=   100.00 Ry     beta= 0.40
     Davidson diagonalization with overlap
     ethr =  1.46E-04,  avg # of iterations =  1.2

     negative rho (up, down):  0.000E+00 9.148E-04

     total cpu time spent up to now is     5206.4 secs

     total energy              =   -2125.97140505 Ry
     estimated scf accuracy    <       0.33813993 Ry

     total magnetization       =    19.00 Bohr mag/cell
     absolute magnetization    =    19.01 Bohr mag/cell

     iteration # 11     ecut=   100.00 Ry     beta= 0.40
     Davidson diagonalization with overlap
     ethr =  1.46E-04,  avg # of iterations =  1.6

     negative rho (up, down):  0.000E+00 9.692E-04

     total cpu time spent up to now is     5674.3 secs

     total energy              =   -2125.99449060 Ry
     estimated scf accuracy    <       0.21764925 Ry

     total magnetization       =    19.00 Bohr mag/cell
     absolute magnetization    =    19.03 Bohr mag/cell

     iteration # 12     ecut=   100.00 Ry     beta= 0.40
     Davidson diagonalization with overlap
     ethr =  1.15E-04,  avg # of iterations =  1.4

     negative rho (up, down):  0.000E+00 9.647E-04

     total cpu time spent up to now is     6135.0 secs

     total energy              =   -2125.99472798 Ry
     estimated scf accuracy    <       0.15378637 Ry

     total magnetization       =    19.00 Bohr mag/cell
     absolute magnetization    =    19.03 Bohr mag/cell

     iteration # 13     ecut=   100.00 Ry     beta= 0.40
     Davidson diagonalization with overlap
     ethr =  8.14E-05,  avg # of iterations =  2.5

     negative rho (up, down):  0.000E+00 9.609E-04

     total cpu time spent up to now is     6617.3 secs

     total energy              =   -2125.99510543 Ry
     estimated scf accuracy    <       0.07535815 Ry

     total magnetization       =    19.00 Bohr mag/cell
     absolute magnetization    =    19.04 Bohr mag/cell

     iteration # 14     ecut=   100.00 Ry     beta= 0.40
     Davidson diagonalization with overlap
     c_bands:  1 eigenvalues not converged
     c_bands:  1 eigenvalues not converged
     c_bands:  1 eigenvalues not converged
     c_bands:  1 eigenvalues not converged
     c_bands:  3 eigenvalues not converged
     c_bands:  2 eigenvalues not converged
     c_bands:  1 eigenvalues not converged
     c_bands:  1 eigenvalues not converged
     c_bands:  1 eigenvalues not converged
     c_bands:  1 eigenvalues not converged
     c_bands:  1 eigenvalues not converged
     c_bands:  1 eigenvalues not converged
     c_bands:  1 eigenvalues not converged
     c_bands:  1 eigenvalues not converged
     c_bands:  1 eigenvalues not converged
     c_bands:  2 eigenvalues not converged
     c_bands:  1 eigenvalues not converged
     c_bands:  1 eigenvalues not converged
     c_bands:  1 eigenvalues not converged
     c_bands:  2 eigenvalues not converged
     c_bands:  2 eigenvalues not converged
     c_bands:  2 eigenvalues not converged
     c_bands:  1 eigenvalues not converged
     c_bands:  1 eigenvalues not converged
     c_bands:  1 eigenvalues not converged
     c_bands:  2 eigenvalues not converged
     c_bands:  1 eigenvalues not converged
     ethr =  3.99E-05,  avg # of iterations = 10.7

     negative rho (up, down):  0.000E+00 9.629E-04

     total cpu time spent up to now is     7216.6 secs

     total energy              =   -2125.99429302 Ry
     estimated scf accuracy    <       0.05015938 Ry

     total magnetization       =    19.00 Bohr mag/cell
     absolute magnetization    =    19.04 Bohr mag/cell

     iteration # 15     ecut=   100.00 Ry     beta= 0.40
     Davidson diagonalization with overlap
     c_bands:  1 eigenvalues not converged
     c_bands:  3 eigenvalues not converged
     c_bands:  1 eigenvalues not converged
     c_bands:  1 eigenvalues not converged
     c_bands:  1 eigenvalues not converged
     c_bands:  1 eigenvalues not converged
     c_bands:  1 eigenvalues not converged
     c_bands:  1 eigenvalues not converged
     ethr =  2.65E-05,  avg # of iterations =  3.5

     negative rho (up, down):  0.000E+00 9.869E-04

     total cpu time spent up to now is     7706.7 secs

     total energy              =   -2125.99583044 Ry
     estimated scf accuracy    <       0.01818526 Ry

     total magnetization       =    19.00 Bohr mag/cell
     absolute magnetization    =    19.05 Bohr mag/cell

     iteration # 16     ecut=   100.00 Ry     beta= 0.40
     Davidson diagonalization with overlap
     c_bands:  1 eigenvalues not converged
     c_bands:  1 eigenvalues not converged
     c_bands:  1 eigenvalues not converged
     c_bands:  1 eigenvalues not converged
     c_bands:  2 eigenvalues not converged
     c_bands:  1 eigenvalues not converged
     c_bands:  1 eigenvalues not converged
     c_bands:  1 eigenvalues not converged
     c_bands:  1 eigenvalues not converged
     c_bands:  1 eigenvalues not converged
     c_bands:  1 eigenvalues not converged
     c_bands:  1 eigenvalues not converged
     c_bands:  1 eigenvalues not converged
     c_bands:  1 eigenvalues not converged
     c_bands:  1 eigenvalues not converged
     c_bands:  1 eigenvalues not converged
     c_bands:  1 eigenvalues not converged
     c_bands:  1 eigenvalues not converged
     c_bands:  1 eigenvalues not converged
     c_bands:  1 eigenvalues not converged
     c_bands:  1 eigenvalues not converged
     ethr =  9.62E-06,  avg # of iterations =  8.8

     negative rho (up, down):  0.000E+00 9.856E-04

     total cpu time spent up to now is     8277.7 secs

     total energy              =   -2125.99626071 Ry
     estimated scf accuracy    <       0.00255644 Ry

     total magnetization       =    19.00 Bohr mag/cell
     absolute magnetization    =    19.05 Bohr mag/cell

     iteration # 17     ecut=   100.00 Ry     beta= 0.40
     Davidson diagonalization with overlap
     c_bands:  1 eigenvalues not converged
     c_bands:  1 eigenvalues not converged
     c_bands:  1 eigenvalues not converged
     c_bands:  2 eigenvalues not converged
     c_bands:  1 eigenvalues not converged
     c_bands:  1 eigenvalues not converged
     c_bands:  1 eigenvalues not converged
     c_bands:  1 eigenvalues not converged
     c_bands:  1 eigenvalues not converged
     c_bands:  1 eigenvalues not converged
     c_bands:  1 eigenvalues not converged
     c_bands:  1 eigenvalues not converged
     c_bands:  1 eigenvalues not converged
     c_bands:  1 eigenvalues not converged
     c_bands:  1 eigenvalues not converged
     c_bands:  1 eigenvalues not converged
     c_bands:  1 eigenvalues not converged
     c_bands:  1 eigenvalues not converged
     c_bands:  1 eigenvalues not converged
     c_bands:  1 eigenvalues not converged
     c_bands:  1 eigenvalues not converged
     c_bands:  1 eigenvalues not converged
     c_bands:  1 eigenvalues not converged
     c_bands:  1 eigenvalues not converged
     c_bands:  1 eigenvalues not converged
     c_bands:  1 eigenvalues not converged
     c_bands:  1 eigenvalues not converged
     c_bands:  1 eigenvalues not converged
     c_bands:  1 eigenvalues not converged
     c_bands:  1 eigenvalues not converged
     c_bands:  1 eigenvalues not converged
     c_bands:  1 eigenvalues not converged
     c_bands:  1 eigenvalues not converged
     c_bands:  1 eigenvalues not converged
     c_bands:  1 eigenvalues not converged
     c_bands:  1 eigenvalues not converged
     c_bands:  1 eigenvalues not converged
     c_bands:  1 eigenvalues not converged
     c_bands:  1 eigenvalues not converged
     c_bands:  1 eigenvalues not converged
     c_bands:  1 eigenvalues not converged
     c_bands:  1 eigenvalues not converged
     ethr =  1.35E-06,  avg # of iterations = 12.2

     negative rho (up, down):  0.000E+00 9.854E-04

     total cpu time spent up to now is     8920.3 secs

     total energy              =   -2125.99653663 Ry
     estimated scf accuracy    <       0.00015496 Ry

     total magnetization       =    19.00 Bohr mag/cell
     absolute magnetization    =    19.05 Bohr mag/cell

     iteration # 18     ecut=   100.00 Ry     beta= 0.40
     Davidson diagonalization with overlap
     c_bands:  1 eigenvalues not converged
     ethr =  8.20E-08,  avg # of iterations =  5.8

     negative rho (up, down):  0.000E+00 9.771E-04

     total cpu time spent up to now is     9819.1 secs

     total energy              =   -2125.99669295 Ry
     estimated scf accuracy    <       0.00018727 Ry

     total magnetization       =    19.00 Bohr mag/cell
     absolute magnetization    =    19.06 Bohr mag/cell

     iteration # 19     ecut=   100.00 Ry     beta= 0.40
     Davidson diagonalization with overlap
     ethr =  8.20E-08,  avg # of iterations =  1.6

     negative rho (up, down):  0.000E+00 9.772E-04

     total cpu time spent up to now is    10283.4 secs

     total energy              =   -2125.99671150 Ry
     estimated scf accuracy    <       0.00008473 Ry

     total magnetization       =    19.00 Bohr mag/cell
     absolute magnetization    =    19.06 Bohr mag/cell

     iteration # 20     ecut=   100.00 Ry     beta= 0.40
     Davidson diagonalization with overlap
     ethr =  4.48E-08,  avg # of iterations =  1.0

     negative rho (up, down):  0.000E+00 9.736E-04

     total cpu time spent up to now is    10730.5 secs

     total energy              =   -2125.99671910 Ry
     estimated scf accuracy    <       0.00005117 Ry

     total magnetization       =    19.00 Bohr mag/cell
     absolute magnetization    =    19.06 Bohr mag/cell

     iteration # 21     ecut=   100.00 Ry     beta= 0.40
     Davidson diagonalization with overlap
     ethr =  2.71E-08,  avg # of iterations =  1.5

     negative rho (up, down):  0.000E+00 9.729E-04

     total cpu time spent up to now is    11194.4 secs

     total energy              =   -2125.99672020 Ry
     estimated scf accuracy    <       0.00008571 Ry

     total magnetization       =    19.00 Bohr mag/cell
     absolute magnetization    =    19.06 Bohr mag/cell

     iteration # 22     ecut=   100.00 Ry     beta= 0.40
     Davidson diagonalization with overlap
     ethr =  2.71E-08,  avg # of iterations =  1.5

     negative rho (up, down):  0.000E+00 9.731E-04

     total cpu time spent up to now is    11658.4 secs

     total energy              =   -2125.99672508 Ry
     estimated scf accuracy    <       0.00000558 Ry

     total magnetization       =    19.00 Bohr mag/cell
     absolute magnetization    =    19.06 Bohr mag/cell

     iteration # 23     ecut=   100.00 Ry     beta= 0.40
     Davidson diagonalization with overlap
     ethr =  2.95E-09,  avg # of iterations =  2.1

     negative rho (up, down):  0.000E+00 9.740E-04

     total cpu time spent up to now is    12146.5 secs

     total energy              =   -2125.99672549 Ry
     estimated scf accuracy    <       0.00000436 Ry

     total magnetization       =    19.00 Bohr mag/cell
     absolute magnetization    =    19.06 Bohr mag/cell

     iteration # 24     ecut=   100.00 Ry     beta= 0.40
     Davidson diagonalization with overlap
     ethr =  2.30E-09,  avg # of iterations =  2.0

     negative rho (up, down):  0.000E+00 9.749E-04

     total cpu time spent up to now is    12637.3 secs

     total energy              =   -2125.99672678 Ry
     estimated scf accuracy    <       0.00000221 Ry

     total magnetization       =    19.00 Bohr mag/cell
     absolute magnetization    =    19.06 Bohr mag/cell

     iteration # 25     ecut=   100.00 Ry     beta= 0.40
     Davidson diagonalization with overlap
     ethr =  1.17E-09,  avg # of iterations =  1.5

     negative rho (up, down):  0.000E+00 9.751E-04

     total cpu time spent up to now is    13100.7 secs

     total energy              =   -2125.99672697 Ry
     estimated scf accuracy    <       0.00000025 Ry

     total magnetization       =    19.00 Bohr mag/cell
     absolute magnetization    =    19.06 Bohr mag/cell

     iteration # 26     ecut=   100.00 Ry     beta= 0.40
     Davidson diagonalization with overlap
     ethr =  1.32E-10,  avg # of iterations =  5.0

     negative rho (up, down):  0.000E+00 9.753E-04

     total cpu time spent up to now is    13857.6 secs

     total energy              =   -2125.99672714 Ry
     estimated scf accuracy    <       0.00000047 Ry

     total magnetization       =    19.00 Bohr mag/cell
     absolute magnetization    =    19.06 Bohr mag/cell

     iteration # 27     ecut=   100.00 Ry     beta= 0.40
     Davidson diagonalization with overlap
     ethr =  1.32E-10,  avg # of iterations =  1.0

     negative rho (up, down):  0.000E+00 9.752E-04

     total cpu time spent up to now is    14304.7 secs

     total energy              =   -2125.99672717 Ry
     estimated scf accuracy    <       0.00000012 Ry

     total magnetization       =    19.00 Bohr mag/cell
     absolute magnetization    =    19.06 Bohr mag/cell

     iteration # 28     ecut=   100.00 Ry     beta= 0.40
     Davidson diagonalization with overlap
     ethr =  6.54E-11,  avg # of iterations =  1.5

     negative rho (up, down):  0.000E+00 9.752E-04

     total cpu time spent up to now is    14768.8 secs

     total energy              =   -2125.99672718 Ry
     estimated scf accuracy    <       0.00000010 Ry

     total magnetization       =    19.00 Bohr mag/cell
     absolute magnetization    =    19.06 Bohr mag/cell

     iteration # 29     ecut=   100.00 Ry     beta= 0.40
     Davidson diagonalization with overlap
     ethr =  5.55E-11,  avg # of iterations =  1.0

     negative rho (up, down):  0.000E+00 9.752E-04

     total cpu time spent up to now is    15216.4 secs

     total energy              =   -2125.99672720 Ry
     estimated scf accuracy    <       0.00000002 Ry

     total magnetization       =    19.00 Bohr mag/cell
     absolute magnetization    =    19.06 Bohr mag/cell

     iteration # 30     ecut=   100.00 Ry     beta= 0.40
     Davidson diagonalization with overlap
     ethr =  1.30E-11,  avg # of iterations =  1.6

     negative rho (up, down):  0.000E+00 9.751E-04

     total cpu time spent up to now is    15683.6 secs

     total energy              =   -2125.99672720 Ry
     estimated scf accuracy    <       0.00000004 Ry

     total magnetization       =    19.00 Bohr mag/cell
     absolute magnetization    =    19.06 Bohr mag/cell

     iteration # 31     ecut=   100.00 Ry     beta= 0.40
     Davidson diagonalization with overlap
     ethr =  1.30E-11,  avg # of iterations =  1.3

     negative rho (up, down):  0.000E+00 9.751E-04

     total cpu time spent up to now is    16142.8 secs

     total energy              =   -2125.99672720 Ry
     estimated scf accuracy    <       0.00000002 Ry

     total magnetization       =    19.00 Bohr mag/cell
     absolute magnetization    =    19.06 Bohr mag/cell

     iteration # 32     ecut=   100.00 Ry     beta= 0.40
     Davidson diagonalization with overlap
     ethr =  8.21E-12,  avg # of iterations =  1.4

     negative rho (up, down):  0.000E+00 9.751E-04

     total cpu time spent up to now is    16606.2 secs

     total energy              =   -2125.99672720 Ry
     estimated scf accuracy    <       0.00000001 Ry

     total magnetization       =    19.00 Bohr mag/cell
     absolute magnetization    =    19.06 Bohr mag/cell

     iteration # 33     ecut=   100.00 Ry     beta= 0.40
     Davidson diagonalization with overlap
     ethr =  5.88E-12,  avg # of iterations =  1.0

     negative rho (up, down):  0.000E+00 9.751E-04

     total cpu time spent up to now is    17054.5 secs

     total energy              =   -2125.99672720 Ry
     estimated scf accuracy    <          2.4E-09 Ry

     total magnetization       =    19.00 Bohr mag/cell
     absolute magnetization    =    19.06 Bohr mag/cell

     iteration # 34     ecut=   100.00 Ry     beta= 0.40
     Davidson diagonalization with overlap
     ethr =  1.28E-12,  avg # of iterations =  3.9

     negative rho (up, down):  0.000E+00 9.751E-04

     total cpu time spent up to now is    17599.1 secs

     total energy              =   -2125.99672720 Ry
     estimated scf accuracy    <          2.9E-09 Ry

     total magnetization       =    19.00 Bohr mag/cell
     absolute magnetization    =    19.06 Bohr mag/cell

     iteration # 35     ecut=   100.00 Ry     beta= 0.40
     Davidson diagonalization with overlap
     ethr =  1.28E-12,  avg # of iterations =  1.8

     negative rho (up, down):  0.000E+00 9.751E-04

     total cpu time spent up to now is    18074.8 secs

     total energy              =   -2125.99672720 Ry
     estimated scf accuracy    <          1.4E-09 Ry

     total magnetization       =    19.00 Bohr mag/cell
     absolute magnetization    =    19.06 Bohr mag/cell

     iteration # 36     ecut=   100.00 Ry     beta= 0.40
     Davidson diagonalization with overlap
     ethr =  7.57E-13,  avg # of iterations =  2.0

     negative rho (up, down):  0.000E+00 9.751E-04

     total cpu time spent up to now is    18569.3 secs

     total energy              =   -2125.99672721 Ry
     estimated scf accuracy    <          8.1E-10 Ry

     total magnetization       =    19.00 Bohr mag/cell
     absolute magnetization    =    19.06 Bohr mag/cell

     iteration # 37     ecut=   100.00 Ry     beta= 0.40
     Davidson diagonalization with overlap
     ethr =  4.27E-13,  avg # of iterations =  1.8

     negative rho (up, down):  0.000E+00 9.751E-04

     total cpu time spent up to now is    19050.2 secs

     total energy              =   -2125.99672721 Ry
     estimated scf accuracy    <          3.4E-10 Ry

     total magnetization       =    19.00 Bohr mag/cell
     absolute magnetization    =    19.06 Bohr mag/cell

     iteration # 38     ecut=   100.00 Ry     beta= 0.40
     Davidson diagonalization with overlap
     ethr =  1.81E-13,  avg # of iterations =  3.0

     negative rho (up, down):  0.000E+00 9.751E-04

     Magnetic moment per site:
     atom:    1    charge:    7.9283    magn:    0.0004    constr:    0.0000
     atom:    2    charge:   12.9830    magn:    3.7038    constr:    0.0000
     atom:    3    charge:   12.9904    magn:    3.6866    constr:    0.0000
     atom:    4    charge:   13.0162    magn:    3.6264    constr:    0.0000
     atom:    5    charge:   12.9902    magn:    3.6904    constr:    0.0000
     atom:    6    charge:    0.9112    magn:    0.0095    constr:    0.0000
     atom:    7    charge:    0.9154    magn:    0.0077    constr:    0.0000
     atom:    8    charge:    0.9134    magn:    0.0102    constr:    0.0000
     atom:    9    charge:    0.9100    magn:    0.0080    constr:    0.0000
     atom:   10    charge:    4.3932    magn:    0.1453    constr:    0.0000
     atom:   11    charge:    4.4104    magn:    0.0895    constr:    0.0000
     atom:   12    charge:    4.3968    magn:    0.1347    constr:    0.0000
     atom:   13    charge:    4.3933    magn:    0.1087    constr:    0.0000
     atom:   14    charge:    4.3856    magn:    0.1149    constr:    0.0000
     atom:   15    charge:    4.3928    magn:    0.1379    constr:    0.0000
     atom:   16    charge:    4.3945    magn:    0.0826    constr:    0.0000
     atom:   17    charge:    4.3886    magn:    0.1493    constr:    0.0000
     atom:   18    charge:    4.3665    magn:    0.1527    constr:    0.0000
     atom:   19    charge:    4.3679    magn:    0.1291    constr:    0.0000
     atom:   20    charge:    4.3730    magn:    0.1530    constr:    0.0000
     atom:   21    charge:    4.3677    magn:    0.1363    constr:    0.0000
     atom:   22    charge:    4.3706    magn:    0.1414    constr:    0.0000
     atom:   23    charge:    4.3756    magn:    0.1196    constr:    0.0000
     atom:   24    charge:    4.3670    magn:    0.1558    constr:    0.0000
     atom:   25    charge:    4.3725    magn:    0.1342    constr:    0.0000

     total cpu time spent up to now is    19561.2 secs

     End of self-consistent calculation

 ------ SPIN UP ------------


          k = 0.0000 0.0000 0.0000 ( 40357 PWs)   bands (ev):

   -86.5075 -86.4546 -86.4423 -86.2200 -52.6017 -52.5817 -52.5684 -52.4782
   -52.4591 -52.4244 -52.3997 -52.3483 -52.3421 -52.3376 -52.1737 -51.9948
   -46.1266 -18.1210 -18.0675 -18.0636 -16.5545 -16.4216 -16.2707 -16.1910
   -14.4405 -14.3904 -14.3124 -14.2267 -14.1933 -14.1634 -14.1420 -14.0914
   -14.0736 -14.0416 -13.9801 -13.8971  -4.9864  -4.5589  -4.5285  -4.1918
    -2.8791  -2.5955  -2.5344  -2.3570  -2.1372  -2.0920  -1.9659  -1.9496
    -1.8000  -1.7118  -1.4226  -1.1813  -1.0696  -1.0490  -0.6525  -0.6103
    -0.5102  -0.4524  -0.3168  -0.1460  -0.1389  -0.0574  -0.0202   0.0112
     0.0639   0.2295   0.2587   0.4382   0.6777   0.7111   0.8362   0.9164
     0.9220   1.0206   1.1087   1.1755   1.2193   1.3114   1.4134   1.4570
     1.5544   1.6438   1.6962   1.7527   1.7852   1.9631   1.9978   2.0924
     2.2075   2.2493   2.3505   2.3632   2.3709   2.6071   2.6965   2.7995
     2.8172   2.9251   2.9603   3.0454   3.0951   3.1722   3.4678   3.5633
     7.2515   9.1891   9.7689  10.0744  10.4034  11.0232  11.2477  11.4267
    11.6791  11.9219

     occupation numbers 
     1.0000   1.0000   1.0000   1.0000   1.0000   1.0000   1.0000   1.0000
     1.0000   1.0000   1.0000   1.0000   1.0000   1.0000   1.0000   1.0000
     1.0000   1.0000   1.0000   1.0000   1.0000   1.0000   1.0000   1.0000
     1.0000   1.0000   1.0000   1.0000   1.0000   1.0000   1.0000   1.0000
     1.0000   1.0000   1.0000   1.0000   1.0000   1.0000   1.0000   1.0000
     1.0000   1.0000   1.0000   1.0000   1.0000   1.0000   1.0000   1.0000
     1.0000   1.0000   1.0000   1.0000   1.0000   1.0000   1.0000   1.0000
     1.0000   1.0000   1.0000   1.0000   1.0000   1.0000   1.0000   1.0000
     1.0000   1.0000   1.0000   1.0000   1.0000   1.0000   1.0000   1.0000
     1.0000   1.0000   1.0000   1.0000   1.0000   1.0000   1.0000   1.0000
     1.0000   1.0000   1.0000   1.0000   1.0000   1.0000   1.0000   1.0000
     1.0000   1.0000   1.0000   1.0000   1.0000   1.0000   1.0000   1.0000
     1.0000   1.0000   1.0000   1.0000   1.0000   1.0000   1.0000   1.0000
     0.0000   0.0000   0.0000   0.0000   0.0000   0.0000   0.0000   0.0000
     0.0000   0.0000

          k = 0.0000 0.0000 0.2337 ( 40255 PWs)   bands (ev):

   -86.5075 -86.4546 -86.4423 -86.2200 -52.6017 -52.5817 -52.5684 -52.4782
   -52.4591 -52.4244 -52.3997 -52.3483 -52.3421 -52.3376 -52.1737 -51.9948
   -46.1266 -18.1211 -18.0694 -18.0633 -16.5423 -16.4153 -16.2659 -16.1884
   -14.4481 -14.3972 -14.3222 -14.2311 -14.1973 -14.1666 -14.1384 -14.0942
   -14.0701 -14.0456 -13.9840 -13.9003  -4.9665  -4.5575  -4.5230  -4.2005
    -2.8422  -2.5744  -2.5283  -2.3470  -2.1355  -2.0986  -1.9901  -1.8830
    -1.7915  -1.6817  -1.4619  -1.1589  -1.1090  -1.0303  -0.6411  -0.5880
    -0.5087  -0.4161  -0.3120  -0.1493  -0.1476  -0.0714  -0.0438   0.0327
     0.0632   0.2326   0.2538   0.4329   0.6322   0.6520   0.7992   0.8585
     0.9049   1.0453   1.0998   1.1572   1.2028   1.2655   1.4460   1.5142
     1.5767   1.6347   1.7042   1.7245   1.8224   1.9256   2.0183   2.0528
     2.1748   2.2517   2.3096   2.3692   2.3775   2.6398   2.7006   2.8056
     2.8262   2.9418   2.9769   3.0398   3.0929   3.1837   3.4466   3.5442
     7.3953   9.2689   9.7951  10.0874  10.4405  10.9612  11.1987  11.4588
    11.6083  11.8847

     occupation numbers 
     1.0000   1.0000   1.0000   1.0000   1.0000   1.0000   1.0000   1.0000
     1.0000   1.0000   1.0000   1.0000   1.0000   1.0000   1.0000   1.0000
     1.0000   1.0000   1.0000   1.0000   1.0000   1.0000   1.0000   1.0000
     1.0000   1.0000   1.0000   1.0000   1.0000   1.0000   1.0000   1.0000
     1.0000   1.0000   1.0000   1.0000   1.0000   1.0000   1.0000   1.0000
     1.0000   1.0000   1.0000   1.0000   1.0000   1.0000   1.0000   1.0000
     1.0000   1.0000   1.0000   1.0000   1.0000   1.0000   1.0000   1.0000
     1.0000   1.0000   1.0000   1.0000   1.0000   1.0000   1.0000   1.0000
     1.0000   1.0000   1.0000   1.0000   1.0000   1.0000   1.0000   1.0000
     1.0000   1.0000   1.0000   1.0000   1.0000   1.0000   1.0000   1.0000
     1.0000   1.0000   1.0000   1.0000   1.0000   1.0000   1.0000   1.0000
     1.0000   1.0000   1.0000   1.0000   1.0000   1.0000   1.0000   1.0000
     1.0000   1.0000   1.0000   1.0000   1.0000   1.0000   1.0000   1.0000
     0.0000   0.0000   0.0000   0.0000   0.0000   0.0000   0.0000   0.0000
     0.0000   0.0000

          k = 0.0000 0.0000 0.4675 ( 40285 PWs)   bands (ev):

   -86.5075 -86.4546 -86.4423 -86.2200 -52.6017 -52.5817 -52.5684 -52.4782
   -52.4591 -52.4244 -52.3997 -52.3483 -52.3421 -52.3376 -52.1737 -51.9948
   -46.1266 -18.1214 -18.0740 -18.0625 -16.5092 -16.4000 -16.2530 -16.1826
   -14.4691 -14.4160 -14.3451 -14.2446 -14.2096 -14.1738 -14.1276 -14.0985
   -14.0607 -14.0542 -13.9947 -13.9092  -4.9094  -4.5583  -4.5080  -4.2315
    -2.7412  -2.5331  -2.4969  -2.3362  -2.1355  -2.0898  -1.9925  -1.7873
    -1.7424  -1.6058  -1.5621  -1.2227  -1.0786  -0.9698  -0.5987  -0.5434
    -0.4830  -0.3355  -0.2995  -0.1781  -0.1545  -0.1122  -0.0798   0.0497
     0.0736   0.2262   0.2589   0.4087   0.4786   0.5927   0.6964   0.7758
     0.8297   0.8988   1.1072   1.1348   1.1857   1.3020   1.4423   1.5258
     1.5800   1.6570   1.7109   1.7549   1.7641   1.8562   1.9442   2.0701
     2.1298   2.2797   2.2932   2.4053   2.4451   2.6555   2.7129   2.8194
     2.8695   2.9812   3.0061   3.0497   3.0845   3.2073   3.3814   3.4865
     7.7780   9.4840   9.8326  10.1307  10.5579  10.8474  11.0635  11.4219
    11.4701  11.7027

     occupation numbers 
     1.0000   1.0000   1.0000   1.0000   1.0000   1.0000   1.0000   1.0000
     1.0000   1.0000   1.0000   1.0000   1.0000   1.0000   1.0000   1.0000
     1.0000   1.0000   1.0000   1.0000   1.0000   1.0000   1.0000   1.0000
     1.0000   1.0000   1.0000   1.0000   1.0000   1.0000   1.0000   1.0000
     1.0000   1.0000   1.0000   1.0000   1.0000   1.0000   1.0000   1.0000
     1.0000   1.0000   1.0000   1.0000   1.0000   1.0000   1.0000   1.0000
     1.0000   1.0000   1.0000   1.0000   1.0000   1.0000   1.0000   1.0000
     1.0000   1.0000   1.0000   1.0000   1.0000   1.0000   1.0000   1.0000
     1.0000   1.0000   1.0000   1.0000   1.0000   1.0000   1.0000   1.0000
     1.0000   1.0000   1.0000   1.0000   1.0000   1.0000   1.0000   1.0000
     1.0000   1.0000   1.0000   1.0000   1.0000   1.0000   1.0000   1.0000
     1.0000   1.0000   1.0000   1.0000   1.0000   1.0000   1.0000   1.0000
     1.0000   1.0000   1.0000   1.0000   1.0000   1.0000   1.0000   1.0000
     0.0000   0.0000   0.0000   0.0000   0.0000   0.0000   0.0000   0.0000
     0.0000   0.0000

          k = 0.0000 0.0000 0.7012 ( 40253 PWs)   bands (ev):

   -86.5075 -86.4546 -86.4423 -86.2200 -52.6017 -52.5817 -52.5684 -52.4782
   -52.4591 -52.4244 -52.3997 -52.3483 -52.3421 -52.3376 -52.1737 -51.9948
   -46.1266 -18.1220 -18.0791 -18.0615 -16.4659 -16.3863 -16.2363 -16.1787
   -14.4954 -14.4402 -14.3683 -14.2659 -14.2252 -14.1786 -14.1127 -14.0997
   -14.0630 -14.0481 -14.0096 -13.9210  -4.8245  -4.5744  -4.4847  -4.2866
    -2.6188  -2.5039  -2.4332  -2.3409  -2.1321  -2.0467  -1.9817  -1.7580
    -1.6700  -1.6200  -1.5012  -1.3625  -0.9504  -0.8511  -0.5291  -0.4918
    -0.4379  -0.3239  -0.2431  -0.2322  -0.1915  -0.1495  -0.0886   0.0560
     0.0830   0.1941   0.2948   0.3320   0.3590   0.4783   0.5298   0.5845
     0.7723   0.8698   1.0840   1.0930   1.1554   1.3814   1.4458   1.4909
     1.5502   1.5822   1.6282   1.7121   1.7686   1.8208   1.8560   2.0126
     2.1895   2.3055   2.3492   2.5655   2.5882   2.6349   2.7332   2.8265
     2.9019   3.0195   3.0448   3.0645   3.1031   3.2232   3.2710   3.3924
     8.2987   9.6895   9.8353  10.2315  10.6637  10.7556  10.9107  11.2906
    11.3731  11.5489

     occupation numbers 
     1.0000   1.0000   1.0000   1.0000   1.0000   1.0000   1.0000   1.0000
     1.0000   1.0000   1.0000   1.0000   1.0000   1.0000   1.0000   1.0000
     1.0000   1.0000   1.0000   1.0000   1.0000   1.0000   1.0000   1.0000
     1.0000   1.0000   1.0000   1.0000   1.0000   1.0000   1.0000   1.0000
     1.0000   1.0000   1.0000   1.0000   1.0000   1.0000   1.0000   1.0000
     1.0000   1.0000   1.0000   1.0000   1.0000   1.0000   1.0000   1.0000
     1.0000   1.0000   1.0000   1.0000   1.0000   1.0000   1.0000   1.0000
     1.0000   1.0000   1.0000   1.0000   1.0000   1.0000   1.0000   1.0000
     1.0000   1.0000   1.0000   1.0000   1.0000   1.0000   1.0000   1.0000
     1.0000   1.0000   1.0000   1.0000   1.0000   1.0000   1.0000   1.0000
     1.0000   1.0000   1.0000   1.0000   1.0000   1.0000   1.0000   1.0000
     1.0000   1.0000   1.0000   1.0000   1.0000   1.0000   1.0000   1.0000
     1.0000   1.0000   1.0000   1.0000   1.0000   1.0000   1.0000   1.0000
     0.0000   0.0000   0.0000   0.0000   0.0000   0.0000   0.0000   0.0000
     0.0000   0.0000

          k = 0.0000 0.0000 0.9349 ( 40286 PWs)   bands (ev):

   -86.5075 -86.4546 -86.4423 -86.2200 -52.6017 -52.5817 -52.5684 -52.4782
   -52.4591 -52.4244 -52.3997 -52.3483 -52.3421 -52.3376 -52.1737 -51.9948
   -46.1266 -18.1224 -18.0822 -18.0609 -16.4292 -16.3845 -16.2223 -16.1793
   -14.5136 -14.4573 -14.3825 -14.2840 -14.2341 -14.1801 -14.1041 -14.0947
   -14.0674 -14.0403 -14.0213 -13.9302  -4.7345  -4.6174  -4.4553  -4.3434
    -2.5381  -2.4928  -2.3815  -2.3436  -2.1155  -1.9894  -1.9674  -1.8542
    -1.6226  -1.5378  -1.5003  -1.4250  -0.7775  -0.6632  -0.5030  -0.4503
    -0.4250  -0.3958  -0.3142  -0.2836  -0.2245  -0.0808  -0.0502   0.0176
     0.1153   0.1730   0.2170   0.2347   0.3277   0.3496   0.3980   0.5117
     0.7820   0.9253   1.0180   1.0632   1.1912   1.3361   1.3768   1.4358
     1.5296   1.5682   1.6295   1.6644   1.7349   1.7953   1.8400   1.9953
     2.2079   2.3152   2.4078   2.5874   2.7108   2.7494   2.8270   2.8403
     2.9084   3.0007   3.0512   3.0867   3.1313   3.1664   3.2277   3.2850
     8.8543   9.3902  10.1251  10.3702  10.5023  10.6188  11.0203  11.2604
    11.3692  11.4194

     occupation numbers 
     1.0000   1.0000   1.0000   1.0000   1.0000   1.0000   1.0000   1.0000
     1.0000   1.0000   1.0000   1.0000   1.0000   1.0000   1.0000   1.0000
     1.0000   1.0000   1.0000   1.0000   1.0000   1.0000   1.0000   1.0000
     1.0000   1.0000   1.0000   1.0000   1.0000   1.0000   1.0000   1.0000
     1.0000   1.0000   1.0000   1.0000   1.0000   1.0000   1.0000   1.0000
     1.0000   1.0000   1.0000   1.0000   1.0000   1.0000   1.0000   1.0000
     1.0000   1.0000   1.0000   1.0000   1.0000   1.0000   1.0000   1.0000
     1.0000   1.0000   1.0000   1.0000   1.0000   1.0000   1.0000   1.0000
     1.0000   1.0000   1.0000   1.0000   1.0000   1.0000   1.0000   1.0000
     1.0000   1.0000   1.0000   1.0000   1.0000   1.0000   1.0000   1.0000
     1.0000   1.0000   1.0000   1.0000   1.0000   1.0000   1.0000   1.0000
     1.0000   1.0000   1.0000   1.0000   1.0000   1.0000   1.0000   1.0000
     1.0000   1.0000   1.0000   1.0000   1.0000   1.0000   1.0000   1.0000
     0.0000   0.0000   0.0000   0.0000   0.0000   0.0000   0.0000   0.0000
     0.0000   0.0000

          k = 0.0000 0.2391 0.0000 ( 40305 PWs)   bands (ev):

   -86.5075 -86.4546 -86.4423 -86.2200 -52.6017 -52.5817 -52.5684 -52.4782
   -52.4591 -52.4244 -52.3997 -52.3483 -52.3421 -52.3376 -52.1737 -51.9948
   -46.1266 -18.1210 -18.0676 -18.0636 -16.5412 -16.4196 -16.2702 -16.2041
   -14.4406 -14.3879 -14.3118 -14.2327 -14.2089 -14.1884 -14.1311 -14.1045
   -14.0465 -14.0299 -13.9782 -13.8993  -4.9645  -4.5754  -4.5107  -4.1999
    -2.8577  -2.6004  -2.5252  -2.3609  -2.1358  -2.0777  -1.9469  -1.9335
    -1.7630  -1.7095  -1.4115  -1.1647  -1.1170  -1.0103  -0.6140  -0.5756
    -0.4965  -0.4659  -0.3980  -0.2671  -0.1671  -0.0674   0.0127   0.0683
     0.1653   0.2152   0.2612   0.4223   0.5753   0.6200   0.6860   0.8519
     0.9565   1.1114   1.1323   1.1463   1.2500   1.3196   1.3423   1.4579
     1.5735   1.6495   1.6930   1.7368   1.8461   1.9974   2.0311   2.0893
     2.1984   2.2367   2.2707   2.3749   2.4531   2.6068   2.6836   2.7514
     2.8209   2.9238   2.9525   3.0062   3.1033   3.2155   3.4775   3.5456
     7.4037   9.2758   9.8260   9.9706  10.4598  10.9885  11.3272  11.4995
    11.6116  11.9092

     occupation numbers 
     1.0000   1.0000   1.0000   1.0000   1.0000   1.0000   1.0000   1.0000
     1.0000   1.0000   1.0000   1.0000   1.0000   1.0000   1.0000   1.0000
     1.0000   1.0000   1.0000   1.0000   1.0000   1.0000   1.0000   1.0000
     1.0000   1.0000   1.0000   1.0000   1.0000   1.0000   1.0000   1.0000
     1.0000   1.0000   1.0000   1.0000   1.0000   1.0000   1.0000   1.0000
     1.0000   1.0000   1.0000   1.0000   1.0000   1.0000   1.0000   1.0000
     1.0000   1.0000   1.0000   1.0000   1.0000   1.0000   1.0000   1.0000
     1.0000   1.0000   1.0000   1.0000   1.0000   1.0000   1.0000   1.0000
     1.0000   1.0000   1.0000   1.0000   1.0000   1.0000   1.0000   1.0000
     1.0000   1.0000   1.0000   1.0000   1.0000   1.0000   1.0000   1.0000
     1.0000   1.0000   1.0000   1.0000   1.0000   1.0000   1.0000   1.0000
     1.0000   1.0000   1.0000   1.0000   1.0000   1.0000   1.0000   1.0000
     1.0000   1.0000   1.0000   1.0000   1.0000   1.0000   1.0000   1.0000
     0.0000   0.0000   0.0000   0.0000   0.0000   0.0000   0.0000   0.0000
     0.0000   0.0000

          k = 0.0000 0.2391 0.2337 ( 40274 PWs)   bands (ev):

   -86.5075 -86.4546 -86.4423 -86.2200 -52.6017 -52.5817 -52.5684 -52.4782
   -52.4591 -52.4244 -52.3997 -52.3483 -52.3421 -52.3376 -52.1737 -51.9948
   -46.1266 -18.1211 -18.0695 -18.0633 -16.5286 -16.4132 -16.2657 -16.2012
   -14.4484 -14.3949 -14.3224 -14.2364 -14.2133 -14.1883 -14.1366 -14.1009
   -14.0503 -14.0305 -13.9790 -13.9015  -4.9452  -4.5711  -4.5079  -4.2073
    -2.8222  -2.5782  -2.5186  -2.3499  -2.1361  -2.0841  -1.9584  -1.8777
    -1.7508  -1.6874  -1.4505  -1.1678  -1.1254  -0.9988  -0.5988  -0.5579
    -0.5177  -0.4244  -0.3892  -0.2653  -0.1635  -0.0493  -0.0021   0.0543
     0.1517   0.2214   0.2565   0.4218   0.5288   0.5829   0.6522   0.8279
     0.9776   1.0572   1.1262   1.1758   1.2220   1.2684   1.3810   1.4963
     1.5272   1.6657   1.6869   1.7364   1.8541   1.9384   2.0312   2.0834
     2.1566   2.2340   2.2857   2.3735   2.4432   2.6265   2.6903   2.7809
     2.8271   2.9402   2.9553   3.0222   3.0998   3.2149   3.4653   3.5284
     7.5411   9.3539   9.8560  10.0027  10.4887  10.9434  11.2690  11.4925
    11.5812  11.8570

     occupation numbers 
     1.0000   1.0000   1.0000   1.0000   1.0000   1.0000   1.0000   1.0000
     1.0000   1.0000   1.0000   1.0000   1.0000   1.0000   1.0000   1.0000
     1.0000   1.0000   1.0000   1.0000   1.0000   1.0000   1.0000   1.0000
     1.0000   1.0000   1.0000   1.0000   1.0000   1.0000   1.0000   1.0000
     1.0000   1.0000   1.0000   1.0000   1.0000   1.0000   1.0000   1.0000
     1.0000   1.0000   1.0000   1.0000   1.0000   1.0000   1.0000   1.0000
     1.0000   1.0000   1.0000   1.0000   1.0000   1.0000   1.0000   1.0000
     1.0000   1.0000   1.0000   1.0000   1.0000   1.0000   1.0000   1.0000
     1.0000   1.0000   1.0000   1.0000   1.0000   1.0000   1.0000   1.0000
     1.0000   1.0000   1.0000   1.0000   1.0000   1.0000   1.0000   1.0000
     1.0000   1.0000   1.0000   1.0000   1.0000   1.0000   1.0000   1.0000
     1.0000   1.0000   1.0000   1.0000   1.0000   1.0000   1.0000   1.0000
     1.0000   1.0000   1.0000   1.0000   1.0000   1.0000   1.0000   1.0000
     0.0000   0.0000   0.0000   0.0000   0.0000   0.0000   0.0000   0.0000
     0.0000   0.0000

          k = 0.0000 0.2391 0.4675 ( 40259 PWs)   bands (ev):

   -86.5075 -86.4546 -86.4423 -86.2200 -52.6017 -52.5817 -52.5684 -52.4782
   -52.4591 -52.4244 -52.3997 -52.3483 -52.3421 -52.3376 -52.1737 -51.9948
   -46.1266 -18.1214 -18.0742 -18.0625 -16.4965 -16.3974 -16.2537 -16.1934
   -14.4699 -14.4139 -14.3471 -14.2468 -14.2262 -14.1888 -14.1454 -14.0922
   -14.0578 -14.0291 -13.9857 -13.9085  -4.8900  -4.5666  -4.4962  -4.2360
    -2.7246  -2.5299  -2.4913  -2.3351  -2.1362  -2.0734  -1.9591  -1.7700
    -1.7288  -1.6075  -1.5498  -1.2506  -1.0703  -0.9584  -0.5557  -0.5337
    -0.5033  -0.4104  -0.3270  -0.2559  -0.1493  -0.0518  -0.0378   0.0421
     0.1252   0.2283   0.2510   0.3961   0.4168   0.5220   0.6052   0.8150
     0.8365   0.9792   1.0561   1.1701   1.2157   1.2820   1.4143   1.4636
     1.5598   1.6527   1.6867   1.7215   1.7951   1.8578   1.9629   2.0412
     2.1141   2.2295   2.3685   2.4035   2.4714   2.6380   2.7140   2.8103
     2.8608   2.9521   2.9842   3.0758   3.0924   3.2195   3.4274   3.4823
     7.9100   9.5679   9.9043  10.0840  10.5929  10.8546  11.1263  11.3834
    11.5212  11.7192

     occupation numbers 
     1.0000   1.0000   1.0000   1.0000   1.0000   1.0000   1.0000   1.0000
     1.0000   1.0000   1.0000   1.0000   1.0000   1.0000   1.0000   1.0000
     1.0000   1.0000   1.0000   1.0000   1.0000   1.0000   1.0000   1.0000
     1.0000   1.0000   1.0000   1.0000   1.0000   1.0000   1.0000   1.0000
     1.0000   1.0000   1.0000   1.0000   1.0000   1.0000   1.0000   1.0000
     1.0000   1.0000   1.0000   1.0000   1.0000   1.0000   1.0000   1.0000
     1.0000   1.0000   1.0000   1.0000   1.0000   1.0000   1.0000   1.0000
     1.0000   1.0000   1.0000   1.0000   1.0000   1.0000   1.0000   1.0000
     1.0000   1.0000   1.0000   1.0000   1.0000   1.0000   1.0000   1.0000
     1.0000   1.0000   1.0000   1.0000   1.0000   1.0000   1.0000   1.0000
     1.0000   1.0000   1.0000   1.0000   1.0000   1.0000   1.0000   1.0000
     1.0000   1.0000   1.0000   1.0000   1.0000   1.0000   1.0000   1.0000
     1.0000   1.0000   1.0000   1.0000   1.0000   1.0000   1.0000   1.0000
     0.0000   0.0000   0.0000   0.0000   0.0000   0.0000   0.0000   0.0000
     0.0000   0.0000

          k = 0.0000 0.2391 0.7012 ( 40257 PWs)   bands (ev):

   -86.5075 -86.4546 -86.4423 -86.2200 -52.6017 -52.5817 -52.5684 -52.4782
   -52.4591 -52.4244 -52.3997 -52.3483 -52.3421 -52.3376 -52.1737 -51.9948
   -46.1266 -18.1219 -18.0792 -18.0616 -16.4557 -16.3821 -16.2386 -16.1857
   -14.4969 -14.4390 -14.3715 -14.2660 -14.2417 -14.1892 -14.1464 -14.0805
   -14.0656 -14.0265 -13.9955 -13.9181  -4.8086  -4.5762  -4.4758  -4.2873
    -2.6054  -2.4957  -2.4313  -2.3349  -2.1279  -2.0357  -1.9460  -1.7351
    -1.6634  -1.6195  -1.4996  -1.3694  -0.9708  -0.8736  -0.5441  -0.4746
    -0.4587  -0.4373  -0.2785  -0.1795  -0.1268  -0.1080  -0.0714   0.0561
     0.0922   0.2186   0.2588   0.2895   0.3715   0.4584   0.5300   0.5827
     0.7942   0.8780   0.9902   1.1359   1.2259   1.3494   1.3737   1.4570
     1.5162   1.5871   1.6709   1.7054   1.7367   1.8093   1.8702   1.9985
     2.1396   2.2322   2.4068   2.5037   2.6060   2.6399   2.7426   2.8164
     2.8722   2.9886   3.0344   3.0853   3.1347   3.2221   3.3660   3.4119
     8.4171   9.7904   9.9065  10.2163  10.6949  10.8244  10.9349  11.2669
    11.3930  11.5594

     occupation numbers 
     1.0000   1.0000   1.0000   1.0000   1.0000   1.0000   1.0000   1.0000
     1.0000   1.0000   1.0000   1.0000   1.0000   1.0000   1.0000   1.0000
[...]
     atom   14 type  3   force =     0.05293297    0.00032729   -0.01981853
     atom   15 type  3   force =    -0.04765549    0.00054291   -0.02665800
     atom   16 type  3   force =    -0.05586945   -0.00152365    0.00860837
     atom   17 type  3   force =     0.04764923   -0.00011499    0.02063665
     atom   18 type  3   force =    -0.02051440   -0.04764322    0.02585005
     atom   19 type  3   force =     0.02036555    0.04919240    0.02710892
     atom   20 type  3   force =     0.02038617   -0.04436178   -0.02289688
     atom   21 type  3   force =    -0.02090350    0.04478838   -0.02594443
     atom   22 type  3   force =     0.02280922    0.04708873   -0.02422812
     atom   23 type  3   force =    -0.02422374   -0.04468474   -0.02005504
     atom   24 type  3   force =    -0.02030138    0.04708872    0.02647148
     atom   25 type  3   force =     0.02170141   -0.04535808    0.02954529
     The non-local contrib.  to forces
     atom    1 type  2   force =     0.06937060    0.03428626   -0.00803928
     atom    2 type  1   force =     0.08121062    0.03272005    0.11760743
     atom    3 type  1   force =     0.03679609   -0.00178343    0.09554679
     atom    4 type  1   force =    -0.18378407   -0.06690681   -0.08253105
     atom    5 type  1   force =    -0.02379869    0.01514436   -0.09125099
     atom    6 type  4   force =    -0.02964180    0.00054144   -0.03253062
     atom    7 type  4   force =     0.04262416   -0.00118638   -0.00722005
     atom    8 type  4   force =     0.01214441    0.00703052    0.03560426
     atom    9 type  4   force =    -0.00672035    0.00032247    0.03634115
     atom   10 type  3   force =     0.33865649   -0.02085201   -1.50616961
     atom   11 type  3   force =    -0.12731751   -0.01893282   -1.43182685
     atom   12 type  3   force =    -0.42320547    0.01935408    1.50920011
     atom   13 type  3   force =     0.27845650   -0.01309926    1.50877612
     atom   14 type  3   force =     1.25155912   -0.02017865   -0.65466202
     atom   15 type  3   force =    -1.21694876    0.01989683   -0.79258639
     atom   16 type  3   force =    -1.23390585   -0.04694049    0.33109650
     atom   17 type  3   force =     1.19687548   -0.00939034    0.65696576
     atom   18 type  3   force =    -0.53861934   -1.12114458    0.77058259
     atom   19 type  3   force =     0.51914637    1.18739058    0.79180650
     atom   20 type  3   force =     0.52884597   -1.10375446   -0.68014580
     atom   21 type  3   force =    -0.53078419    1.08135098   -0.77126100
     atom   22 type  3   force =     0.59936873    1.12903157   -0.71060056
     atom   23 type  3   force =    -0.66731524   -1.05305866   -0.61349755
     atom   24 type  3   force =    -0.53264569    1.10753354    0.78207191
     atom   25 type  3   force =     0.56751990   -1.13808026    0.84206401
     The ionic contribution  to forces
     atom    1 type  2   force =    -2.39417229    0.29820804    1.13900304
     atom    2 type  1   force =    -0.17406181   -0.23288818   -0.36795497
     atom    3 type  1   force =    -8.12822388    0.63186280   -0.43079934
     atom    4 type  1   force =     2.91631142    0.79106428    0.10990797
     atom    5 type  1   force =     8.25350329   -0.98081324    0.70377615
     atom    6 type  4   force =    -3.37049349   -0.03270378    0.29325094
     atom    7 type  4   force =     0.69580176    0.74579426    0.53078490
     atom    8 type  4   force =     4.64538769   -0.02054866   -0.42981412
     atom    9 type  4   force =    -2.39669038   -0.86360691   -0.71934911
     atom   10 type  3   force =    -9.67873274    0.06720520    2.54904040
     atom   11 type  3   force =     3.89960688    1.29714519    1.21508914
     atom   12 type  3   force =    11.24533266   -0.17570968   -2.65848097
     atom   13 type  3   force =    -7.57837210   -1.04263748   -2.12722287
     atom   14 type  3   force =     0.38229785   -1.03844392    4.89070014
     atom   15 type  3   force =    -1.96435241   -0.11272489    6.35526526
     atom   16 type  3   force =    -1.52802804    1.72470067   -2.21117370
     atom   17 type  3   force =     3.32372429    0.10747384   -5.61944256
     atom   18 type  3   force =    -4.10146023    2.65819782   -2.75979750
     atom   19 type  3   force =     0.32336187   -3.91713180   -1.94662253
     atom   20 type  3   force =     4.90611209    3.62413423    2.11883477
     atom   21 type  3   force =    -1.96198271   -1.79246753    2.31937565
     atom   22 type  3   force =     4.98911459   -3.72393820    2.48560929
     atom   23 type  3   force =     0.50446124    1.14913493    0.17801796
     atom   24 type  3   force =    -3.88165488   -2.51285684   -2.82460228
     atom   25 type  3   force =     1.07320935    3.35154985   -2.79339564
     The local contribution  to forces
     atom    1 type  2   force =     2.31998850   -0.34206513   -1.12949195
     atom    2 type  1   force =     0.08526866    0.19832009    0.24384154
     atom    3 type  1   force =     8.08871347   -0.62966203    0.33192207
     atom    4 type  1   force =    -2.71982605   -0.72016006   -0.02136918
     atom    5 type  1   force =    -8.22686539    0.96536981   -0.60966208
     atom    6 type  4   force =     3.40216486    0.03217587   -0.26052253
     atom    7 type  4   force =    -0.73698183   -0.74405404   -0.52162945
     atom    8 type  4   force =    -4.66161619    0.01432244    0.39285893
     atom    9 type  4   force =     2.40437223    0.86371484    0.68170778
     atom   10 type  3   force =     9.35332571   -0.04674017   -1.11025268
     atom   11 type  3   force =    -3.77543184   -1.27859413    0.15068152
     atom   12 type  3   force =   -10.83864076    0.15766240    1.21761010
     atom   13 type  3   force =     7.30919249    1.05500131    0.68821853
     atom   14 type  3   force =    -1.56940269    1.05872660   -4.26259378
     atom   15 type  3   force =     3.12243793    0.09356809   -5.59736470
     atom   16 type  3   force =     2.69472590   -1.67969238    1.89220367
     atom   17 type  3   force =    -4.46185363   -0.09828960    4.98983621
     atom   18 type  3   force =     4.61450142   -1.59522273    2.02256664
     atom   19 type  3   force =    -0.81734495    2.79011911    1.18965626
     atom   20 type  3   force =    -5.40956871   -2.57507204   -1.46818623
     atom   21 type  3   force =     2.46689239    0.76605195   -1.58164552
     atom   22 type  3   force =    -5.55997152    2.65257533   -1.80613408
     atom   23 type  3   force =     0.13233788   -0.15068030    0.40943189
     atom   24 type  3   force =     4.38899958    1.46278508    2.07664315
     atom   25 type  3   force =    -1.61373374   -2.26941836    1.98912354
     The core correction contribution to forces
     atom    1 type  2   force =     0.00000000    0.00000000    0.00000000
     atom    2 type  1   force =    -0.00086710   -0.00022494   -0.00040737
     atom    3 type  1   force =     0.00005165    0.00007449    0.00029835
     atom    4 type  1   force =     0.00275834    0.00057307   -0.00033584
     atom    5 type  1   force =    -0.00003917   -0.00017707    0.00001269
     atom    6 type  4   force =     0.00204872   -0.00004917    0.00244975
     atom    7 type  4   force =    -0.00281381   -0.00004750    0.00057513
     atom    8 type  4   force =    -0.00096064   -0.00044452   -0.00258948
     atom    9 type  4   force =     0.00040427    0.00036353   -0.00245906
     atom   10 type  3   force =    -0.00386661    0.00020456    0.01420735
     atom   11 type  3   force =     0.00187676    0.00016829    0.01338703
     atom   12 type  3   force =     0.00467379   -0.00021136   -0.01419617
     atom   13 type  3   force =    -0.00330230    0.00013318   -0.01420916
     atom   14 type  3   force =    -0.01152154    0.00022377    0.00673782
     atom   15 type  3   force =     0.01121422   -0.00019662    0.00802636
     atom   16 type  3   force =     0.01133686    0.00040892   -0.00351834
     atom   17 type  3   force =    -0.01109448    0.00009154   -0.00672288
     atom   18 type  3   force =     0.00506439    0.01053136   -0.00749942
     atom   19 type  3   force =    -0.00480018   -0.01118184   -0.00773361
     atom   20 type  3   force =    -0.00500173    0.01033057    0.00660034
     atom   21 type  3   force =     0.00497034   -0.01014689    0.00758626
     atom   22 type  3   force =    -0.00570126   -0.01057918    0.00689722
     atom   23 type  3   force =     0.00629167    0.00992003    0.00599247
     atom   24 type  3   force =     0.00500027   -0.01037736   -0.00763901
     atom   25 type  3   force =    -0.00529635    0.01058780   -0.00824887
     The Hubbard contrib.    to forces
     atom    1 type  2   force =     0.00000000    0.00000000    0.00000000
     atom    2 type  1   force =     0.00000000    0.00000000    0.00000000
     atom    3 type  1   force =     0.00000000    0.00000000    0.00000000
     atom    4 type  1   force =     0.00000000    0.00000000    0.00000000
     atom    5 type  1   force =     0.00000000    0.00000000    0.00000000
     atom    6 type  4   force =     0.00000000    0.00000000    0.00000000
     atom    7 type  4   force =     0.00000000    0.00000000    0.00000000
     atom    8 type  4   force =     0.00000000    0.00000000    0.00000000
     atom    9 type  4   force =     0.00000000    0.00000000    0.00000000
     atom   10 type  3   force =     0.00000000    0.00000000    0.00000000
     atom   11 type  3   force =     0.00000000    0.00000000    0.00000000
     atom   12 type  3   force =     0.00000000    0.00000000    0.00000000
     atom   13 type  3   force =     0.00000000    0.00000000    0.00000000
     atom   14 type  3   force =     0.00000000    0.00000000    0.00000000
     atom   15 type  3   force =     0.00000000    0.00000000    0.00000000
     atom   16 type  3   force =     0.00000000    0.00000000    0.00000000
     atom   17 type  3   force =     0.00000000    0.00000000    0.00000000
     atom   18 type  3   force =     0.00000000    0.00000000    0.00000000
     atom   19 type  3   force =     0.00000000    0.00000000    0.00000000
     atom   20 type  3   force =     0.00000000    0.00000000    0.00000000
     atom   21 type  3   force =     0.00000000    0.00000000    0.00000000
     atom   22 type  3   force =     0.00000000    0.00000000    0.00000000
     atom   23 type  3   force =     0.00000000    0.00000000    0.00000000
     atom   24 type  3   force =     0.00000000    0.00000000    0.00000000
     atom   25 type  3   force =     0.00000000    0.00000000    0.00000000
     The SCF correction term to forces
     atom    1 type  2   force =     0.00000332   -0.00000045   -0.00000011
     atom    2 type  1   force =     0.00000116   -0.00000026    0.00000007
     atom    3 type  1   force =     0.00000057    0.00000007    0.00000026
     atom    4 type  1   force =     0.00000210    0.00000021   -0.00000174
     atom    5 type  1   force =    -0.00000147   -0.00000006    0.00000094
     atom    6 type  4   force =    -0.00000077    0.00000001   -0.00000008
     atom    7 type  4   force =     0.00000211    0.00000008    0.00000018
     atom    8 type  4   force =    -0.00000231    0.00000002    0.00000031
     atom    9 type  4   force =     0.00000100   -0.00000005    0.00000008
     atom   10 type  3   force =    -0.00000002   -0.00000004    0.00000099
     atom   11 type  3   force =     0.00000508    0.00000003   -0.00000264
     atom   12 type  3   force =    -0.00000201   -0.00000001   -0.00000056
     atom   13 type  3   force =     0.00000150   -0.00000007   -0.00000040
     atom   14 type  3   force =     0.00000042   -0.00000008   -0.00000057
     atom   15 type  3   force =    -0.00000628   -0.00000007    0.00000158
     atom   16 type  3   force =     0.00000187    0.00000007    0.00000036
     atom   17 type  3   force =    -0.00000223   -0.00000000    0.00000022
     atom   18 type  3   force =    -0.00000046   -0.00000466   -0.00000216
     atom   19 type  3   force =     0.00000264   -0.00000322    0.00000241
     atom   20 type  3   force =    -0.00000126    0.00000036    0.00000015
     atom   21 type  3   force =     0.00000087    0.00000029    0.00000029
     atom   22 type  3   force =    -0.00000113   -0.00000036    0.00000013
     atom   23 type  3   force =     0.00000091   -0.00000031    0.00000030
     atom   24 type  3   force =    -0.00000046    0.00000474   -0.00000217
     atom   25 type  3   force =     0.00000245    0.00000332    0.00000236

     Total force =     0.224959     Total SCF correction =     0.000015


     Computing stress (Cartesian axis) and pressure


     negative rho (up, down):  0.000E+00 9.751E-04
          total   stress  (Ry/bohr**3)                   (kbar)     P=     -141.93
  -0.00119286   0.00000676  -0.00001839         -175.48        0.99       -2.71
   0.00000676  -0.00086632   0.00001321            0.99     -127.44        1.94
  -0.00001839   0.00001321  -0.00083521           -2.71        1.94     -122.86

     kinetic stress (kbar)  23622.53      8.12     -6.32
                                8.12  23854.05      3.30
                               -6.32      3.30  23676.70

     local   stress (kbar)  -5036.37   1525.73    946.23
                             1525.73 -13460.38   -577.38
                              946.23   -577.38  -8436.47

     nonloc. stress (kbar)  -5979.63      1.07     -0.54
                                1.07  -5937.29     -0.55
                               -0.54     -0.55  -5945.02

     hartree stress (kbar)  11708.69   -624.24   -384.28
                             -624.24  16357.27    232.82
                             -384.28    232.82  13749.39

     exc-cor stress (kbar)  -2510.44     -0.83     -0.68
                               -0.83  -2516.84      0.34
                               -0.68      0.34  -2514.39

     corecor stress (kbar)  -2820.09      0.24      0.75
                                0.24  -2820.20     -0.03
                                0.75     -0.03  -2821.21

     ewald   stress (kbar) -19160.17   -909.10   -557.87
                             -909.10 -15604.05    343.46
                             -557.87    343.46 -17831.87

     hubbard stress (kbar)      0.00      0.00      0.00
                                0.00      0.00      0.00
                                0.00      0.00      0.00

     DFT-D   stress (kbar)      0.00      0.00      0.00
                                0.00      0.00      0.00
                                0.00      0.00      0.00

     XDM     stress (kbar)      0.00      0.00      0.00
                                0.00      0.00      0.00
                                0.00      0.00      0.00

     dft-nl  stress (kbar)      0.00      0.00      0.00
                                0.00      0.00      0.00
                                0.00      0.00      0.00

     TS-vdW  stress (kbar)      0.00      0.00      0.00
                                0.00      0.00      0.00
                                0.00      0.00      0.00



     init_run     :    206.27s CPU    212.35s WALL (       1 calls)
     electrons    :  18851.94s CPU  19348.38s WALL (       1 calls)
     forces       :     71.06s CPU     72.41s WALL (       1 calls)
     stress       :    688.19s CPU    691.52s WALL (       1 calls)

     Called by init_run:
     wfcinit      :    194.11s CPU    199.75s WALL (       1 calls)
     wfcinit:atom :      2.60s CPU      2.63s WALL (     316 calls)
     wfcinit:wfcr :    181.21s CPU    186.77s WALL (     316 calls)
     potinit      :      4.31s CPU      4.40s WALL (       1 calls)
     hinit0       :      4.31s CPU      4.35s WALL (       1 calls)

     Called by electrons:
     c_bands      :  15213.91s CPU  15582.40s WALL (      38 calls)
     sum_band     :   3487.40s CPU   3600.15s WALL (      38 calls)
     v_of_rho     :     35.43s CPU     36.70s WALL (      39 calls)
     v_h          :      1.70s CPU      1.78s WALL (      39 calls)
     v_xc         :     35.46s CPU     36.71s WALL (      41 calls)
     newd         :     76.99s CPU     90.65s WALL (      39 calls)
     PAW_pot      :     30.53s CPU     30.61s WALL (      39 calls)
     mix_rho      :      7.94s CPU      8.27s WALL (      38 calls)

     Called by c_bands:
     init_us_2    :    264.48s CPU    266.18s WALL (   24964 calls)
     cegterg      :  14697.90s CPU  15063.22s WALL (   12008 calls)

     Called by sum_band:
     sum_band:wei :      0.55s CPU      0.55s WALL (      38 calls)
     sum_band:loo :   3290.83s CPU   3385.12s WALL (      38 calls)
     sum_band:buf :     71.53s CPU     72.19s WALL (   12008 calls)
     sum_band:ini :    128.24s CPU    128.97s WALL (   12008 calls)
     sum_band:cal :    383.49s CPU    391.28s WALL (   12008 calls)
     sum_band:bec :      3.49s CPU      3.60s WALL (   12008 calls)
     addusdens    :    192.38s CPU    210.66s WALL (      38 calls)
     addusd:skk   :      1.22s CPU      1.25s WALL (     114 calls)
     addusd:dgemm :     23.37s CPU     35.62s WALL (     228 calls)
     addusd:qvan2 :    166.52s CPU    167.28s WALL (     228 calls)

     Called by *egterg:
     cdiaghg      :    435.07s CPU    439.41s WALL (   45439 calls)
     cegterg:over :    723.14s CPU    735.21s WALL (   33431 calls)
     cegterg:upda :    502.55s CPU    507.47s WALL (   33431 calls)
     cegterg:last :    901.07s CPU    910.27s WALL (   20410 calls)
     h_psi        :  10793.95s CPU  11117.91s WALL (   45755 calls)
     s_psi        :    897.86s CPU    907.22s WALL (   45755 calls)
     g_psi        :     50.35s CPU     50.80s WALL (   33431 calls)

     Called by h_psi:
     h_psi:calbec :    944.93s CPU    962.25s WALL (   45755 calls)
     vloc_psi     :   8779.93s CPU   9075.37s WALL (   45755 calls)
     add_vuspsi   :    914.56s CPU    924.59s WALL (   45755 calls)

     General routines
     calbec       :   1376.33s CPU   1402.59s WALL (   59343 calls)
     fft          :     29.50s CPU     31.46s WALL (    1013 calls)
     ffts         :      0.53s CPU      0.57s WALL (     154 calls)
     fftw         :   8053.01s CPU   8360.93s WALL ( 7410754 calls)
     interpolate  :      2.71s CPU      2.87s WALL (      78 calls)

     Parallel routines
     fft_scatt_xy :   1927.42s CPU   2015.35s WALL ( 7411921 calls)
     fft_scatt_yz :   1128.96s CPU   1193.76s WALL ( 7411921 calls)

     PAW routines
     PAW_pot      :     30.53s CPU     30.61s WALL (      39 calls)

     PWSCF        :      5h30m CPU      5h38m WALL


   This run was terminated on:  13:21:58  17Dec2022            

=------------------------------------------------------------------------------=
   JOB DONE.
=------------------------------------------------------------------------------=
Note: The following floating-point exceptions are signalling: IEEE_INVALID_FLAG IEEE_UNDERFLOW_FLAG IEEE_DENORMAL
Note: The following floating-point exceptions are signalling: IEEE_INVALID_FLAG IEEE_DENORMAL
Note: The following floating-point exceptions are signalling: IEEE_DENORMAL
Note: The following floating-point exceptions are signalling: IEEE_DENORMAL
Note: The following floating-point exceptions are signalling: IEEE_DENORMAL
Note: The following floating-point exceptions are signalling: IEEE_DENORMAL
Note: The following floating-point exceptions are signalling: IEEE_DENORMAL
Note: The following floating-point exceptions are signalling: IEEE_DENORMAL
Note: The following floating-point exceptions are signalling: IEEE_INVALID_FLAG IEEE_DENORMAL
Note: The following floating-point exceptions are signalling: IEEE_INVALID_FLAG IEEE_DENORMAL
Note: The following floating-point exceptions are signalling: IEEE_DENORMAL
Note: The following floating-point exceptions are signalling: IEEE_DENORMAL
Note: The following floating-point exceptions are signalling: IEEE_DENORMAL
Note: The following floating-point exceptions are signalling: IEEE_DENORMAL
