
     Program PWSCF v.6.7MaX starts on 17Dec2022 at  6:57:21 

     This program is part of the open-source Quantum ESPRESSO suite
     for quantum simulation of materials; please cite
         "P. Giannozzi et al., J. Phys.:Condens. Matter 21 395502 (2009);
         "P. Giannozzi et al., J. Phys.:Condens. Matter 29 465901 (2017);
          URL http://www.quantum-espresso.org", 
     in publications or presentations arising from this work. More details at
     http://www.quantum-espresso.org/quote

     Parallel version (MPI), running on    16 processors

     MPI processes distributed on     1 nodes
     R & G space division:  proc/nbgrp/npool/nimage =      16
     Reading input from scale_3d-03.in

     Current dimensions of program PWSCF are:
     Max number of different atomic species (ntypx) = 10
     Max number of k-points (npk) =  40000
     Max angular momentum in pseudopotentials (lmaxx) =  3
     Message from routine read_pp_mesh:
     mesh size missing, using the one in header
     file Fe.pbe-spn-kjpaw_psl.0.2.1.UPF: wavefunction(s)  3D renormalized
     file O.pbe-n-kjpaw_psl.0.1.UPF: wavefunction(s)  2P renormalized

     Subspace diagonalization in iterative solution of the eigenvalue problem:
     a serial algorithm will be used


     Parallelization info
     --------------------
     sticks:   dense  smooth     PW     G-vecs:    dense   smooth      PW
     Min        1282     474    127                85050    19170    2691
     Max        1283     475    129                85053    19173    2692
     Sum       20521    7599   2049              1360823   306739   43063



     bravais-lattice index     =            0
     lattice parameter (alat)  =      19.9928  a.u.
     unit-cell volume          =    2270.1860 (a.u.)^3
     number of atoms/cell      =           25
     number of atomic types    =            4
     number of electrons       =       189.00
     number of Kohn-Sham states=          114
     kinetic-energy cutoff     =     100.0000  Ry
     charge density cutoff     =    1080.0000  Ry
     scf convergence threshold =      2.0E-10
     mixing beta               =       0.4000
     number of iterations used =            8  plain     mixing
     Exchange-correlation= PBE
                           (   1   4   3   4   0   0   0)

     celldm(1)=  19.992808  celldm(2)=   0.000000  celldm(3)=   0.000000
     celldm(4)=   0.000000  celldm(5)=   0.000000  celldm(6)=   0.000000

     crystal axes: (cart. coord. in units of alat)
               a(1) = (   1.000000   0.000000   0.000000 )  
               a(2) = (   0.000000   0.597590   0.000000 )  
               a(3) = (   0.000000   0.000000   0.475375 )  

     reciprocal axes: (cart. coord. in units 2 pi/alat)
               b(1) = (  1.000000  0.000000  0.000000 )  
               b(2) = (  0.000000  1.673388  0.000000 )  
               b(3) = (  0.000000  0.000000  2.103600 )  


     PseudoPot. # 1 for Fe read from file:
     /opt/QEpot/SSSP_precision_pseudos/Fe.pbe-spn-kjpaw_psl.0.2.1.UPF
     MD5 check sum: e86618425769142926afa95317d90200
     Pseudo is Projector augmented-wave + core cor, Zval = 16.0
     Generated using "atomic" code by A. Dal Corso  v.5.0.99 svn rev. 10869
     Shape of augmentation charge: PSQ
     Using radial grid of 1191 points,  6 beta functions with: 
                l(1) =   0
                l(2) =   0
                l(3) =   1
                l(4) =   1
                l(5) =   2
                l(6) =   2
     Q(r) pseudized with 0 coefficients 


     PseudoPot. # 2 for Na read from file:
     /opt/QEpot/SSSP_precision_pseudos/Na_ONCV_PBE-1.0.oncvpsp.upf
     MD5 check sum: 24a298df0a6742ae313db96548fdb2a4
     Pseudo is Norm-conserving, Zval =  9.0
     Generated using ONCVPSP code by D. R. Hamann
     Using radial grid of 1992 points,  4 beta functions with: 
                l(1) =   0
                l(2) =   0
                l(3) =   1
                l(4) =   1

     PseudoPot. # 3 for O  read from file:
     /opt/QEpot/SSSP_precision_pseudos/O.pbe-n-kjpaw_psl.0.1.UPF
     MD5 check sum: 0234752ac141de4415c5fc33072bef88
     Pseudo is Projector augmented-wave + core cor, Zval =  6.0
     Generated using "atomic" code by A. Dal Corso  v.5.0.99 svn rev. 10869
     Shape of augmentation charge: BESSEL
     Using radial grid of 1095 points,  4 beta functions with: 
                l(1) =   0
                l(2) =   0
                l(3) =   1
                l(4) =   1
     Q(r) pseudized with 0 coefficients 


     PseudoPot. # 4 for P  read from file:
     /opt/QEpot/SSSP_precision_pseudos/P.pbe-n-rrkjus_psl.1.0.0.UPF
     MD5 check sum: 8b930f418f0a4573dca56cd030ffe088
     Pseudo is Ultrasoft + core correction, Zval =  5.0
     Generated using "atomic" code by A. Dal Corso  v.5.1
     Using radial grid of 1147 points,  6 beta functions with: 
                l(1) =   0
                l(2) =   0
                l(3) =   1
                l(4) =   1
                l(5) =   2
                l(6) =   2
     Q(r) pseudized with 0 coefficients 


     atomic species   valence    mass     pseudopotential
        Fe            16.00    55.84500     Fe( 1.00)
        Na             9.00    22.98977     Na( 1.00)
        O              6.00    15.99940     O ( 1.00)
        P              5.00    30.97376     P ( 1.00)

     Starting magnetic structure 
     atomic species   magnetization
        Fe           0.312
        Na           0.000
        O            0.000
        P            0.000

     No symmetry found


                                    s                        frac. trans.

      isym =  1     identity                                     

 cryst.   s( 1) = (     1          0          0      )
                  (     0          1          0      )
                  (     0          0          1      )

 cart.    s( 1) = (  1.0000000  0.0000000  0.0000000 )
                  (  0.0000000  1.0000000  0.0000000 )
                  (  0.0000000  0.0000000  1.0000000 )


   Cartesian axes

     site n.     atom                  positions (alat units)
         1           Na  tau(   1) = (   0.5426070   0.0859532   0.2217513  )
         2           Fe  tau(   2) = (   0.2774940   0.4493392   0.4716742  )
         3           Fe  tau(   3) = (   0.2102570   0.1513026   0.2332097  )
         4           Fe  tau(   4) = (   0.7280950   0.1558240   0.0019267  )
         5           Fe  tau(   5) = (   0.7825800   0.4471329   0.2433694  )
         6           P   tau(   6) = (   0.1059480   0.4497037   0.2111038  )
         7           P   tau(   7) = (   0.3878490   0.1534736   0.4484426  )
         8           P   tau(   8) = (   0.8915560   0.1498511   0.2648222  )
         9           P   tau(   9) = (   0.6054980   0.4485934   0.0284869  )
        10           O   tau(  10) = (   0.1317880   0.4508200   0.3570436  )
        11           O   tau(  11) = (   0.3634070   0.1505341   0.1192698  )
        12           O   tau(  12) = (   0.8709790   0.1504480   0.1182672  )
        13           O   tau(  13) = (   0.6302560   0.4517624   0.3576407  )
        14           O   tau(  14) = (   0.4595490   0.4517152   0.0576764  )
        15           O   tau(  15) = (   0.0359180   0.1490371   0.2976972  )
        16           O   tau(  16) = (   0.5363260   0.1525480   0.4260871  )
        17           O   tau(  17) = (   0.9593080   0.4497545   0.1854235  )
        18           O   tau(  18) = (   0.1755980   0.5656971   0.1419619  )
        19           O   tau(  19) = (   0.3240220   0.0365731   0.3760924  )
        20           O   tau(  20) = (   0.8190690   0.2665412   0.3311613  )
        21           O   tau(  21) = (   0.6753190   0.3316797   0.0965103  )
        22           O   tau(  22) = (   0.8159810   0.0356331   0.3307454  )
        23           O   tau(  23) = (   0.6759010   0.5648444   0.0980638  )
        24           O   tau(  24) = (   0.1746370   0.3324698   0.1431926  )
        25           O   tau(  25) = (   0.3201310   0.2697330   0.3806094  )

   Crystallographic axes

     site n.     atom                  positions (cryst. coord.)
         1           Na  tau(   1) = (  0.5426070  0.1438330  0.4664760  )
         2           Fe  tau(   2) = (  0.2774940  0.7519190  0.9922140  )
         3           Fe  tau(   3) = (  0.2102570  0.2531880  0.4905800  )
         4           Fe  tau(   4) = (  0.7280950  0.2607540  0.0040530  )
         5           Fe  tau(   5) = (  0.7825800  0.7482270  0.5119520  )
         6           P   tau(   6) = (  0.1059480  0.7525290  0.4440780  )
         7           P   tau(   7) = (  0.3878490  0.2568210  0.9433440  )
         8           P   tau(   8) = (  0.8915560  0.2507590  0.5570800  )
         9           P   tau(   9) = (  0.6054980  0.7506710  0.0599250  )
        10           O   tau(  10) = (  0.1317880  0.7543970  0.7510770  )
        11           O   tau(  11) = (  0.3634070  0.2519020  0.2508960  )
        12           O   tau(  12) = (  0.8709790  0.2517580  0.2487870  )
        13           O   tau(  13) = (  0.6302560  0.7559740  0.7523330  )
        14           O   tau(  14) = (  0.4595490  0.7558950  0.1213280  )
        15           O   tau(  15) = (  0.0359180  0.2493970  0.6262360  )
        16           O   tau(  16) = (  0.5363260  0.2552720  0.8963170  )
        17           O   tau(  17) = (  0.9593080  0.7526140  0.3900570  )
        18           O   tau(  18) = (  0.1755980  0.9466310  0.2986310  )
        19           O   tau(  19) = (  0.3240220  0.0612010  0.7911480  )
        20           O   tau(  20) = (  0.8190690  0.4460270  0.6966310  )
        21           O   tau(  21) = (  0.6753190  0.5550290  0.2030190  )
        22           O   tau(  22) = (  0.8159810  0.0596280  0.6957560  )
        23           O   tau(  23) = (  0.6759010  0.9452040  0.2062870  )
        24           O   tau(  24) = (  0.1746370  0.5563510  0.3012200  )
        25           O   tau(  25) = (  0.3201310  0.4513680  0.8006500  )

     number of k points=   158  Marzari-Vanderbilt smearing, width (Ry)=  0.0073
                       cart. coord. in units 2pi/alat
        k(    1) = (   0.0000000   0.0000000   0.0000000), wk =   0.0031746
        k(    2) = (   0.0000000   0.0000000   0.2337334), wk =   0.0063492
        k(    3) = (   0.0000000   0.0000000   0.4674667), wk =   0.0063492
        k(    4) = (   0.0000000   0.0000000   0.7012001), wk =   0.0063492
        k(    5) = (   0.0000000   0.0000000   0.9349334), wk =   0.0063492
        k(    6) = (   0.0000000   0.2390555   0.0000000), wk =   0.0063492
        k(    7) = (   0.0000000   0.2390555   0.2337334), wk =   0.0063492
        k(    8) = (   0.0000000   0.2390555   0.4674667), wk =   0.0063492
        k(    9) = (   0.0000000   0.2390555   0.7012001), wk =   0.0063492
        k(   10) = (   0.0000000   0.2390555   0.9349334), wk =   0.0063492
        k(   11) = (   0.0000000   0.4781110   0.0000000), wk =   0.0063492
        k(   12) = (   0.0000000   0.4781110   0.2337334), wk =   0.0063492
        k(   13) = (   0.0000000   0.4781110   0.4674667), wk =   0.0063492
        k(   14) = (   0.0000000   0.4781110   0.7012001), wk =   0.0063492
        k(   15) = (   0.0000000   0.4781110   0.9349334), wk =   0.0063492
        k(   16) = (   0.0000000   0.7171664   0.0000000), wk =   0.0063492
        k(   17) = (   0.0000000   0.7171664   0.2337334), wk =   0.0063492
        k(   18) = (   0.0000000   0.7171664   0.4674667), wk =   0.0063492
        k(   19) = (   0.0000000   0.7171664   0.7012001), wk =   0.0063492
        k(   20) = (   0.0000000   0.7171664   0.9349334), wk =   0.0063492
        k(   21) = (   0.2000000   0.0000000   0.0000000), wk =   0.0063492
        k(   22) = (   0.2000000   0.0000000   0.2337334), wk =   0.0063492
        k(   23) = (   0.2000000   0.0000000   0.4674667), wk =   0.0063492
        k(   24) = (   0.2000000   0.0000000   0.7012001), wk =   0.0063492
        k(   25) = (   0.2000000   0.0000000   0.9349334), wk =   0.0063492
        k(   26) = (   0.2000000   0.2390555   0.0000000), wk =   0.0063492
        k(   27) = (   0.2000000   0.2390555   0.2337334), wk =   0.0063492
        k(   28) = (   0.2000000   0.2390555   0.4674667), wk =   0.0063492
        k(   29) = (   0.2000000   0.2390555   0.7012001), wk =   0.0063492
        k(   30) = (   0.2000000   0.2390555   0.9349334), wk =   0.0063492
        k(   31) = (   0.2000000   0.4781110   0.0000000), wk =   0.0063492
        k(   32) = (   0.2000000   0.4781110   0.2337334), wk =   0.0063492
        k(   33) = (   0.2000000   0.4781110   0.4674667), wk =   0.0063492
        k(   34) = (   0.2000000   0.4781110   0.7012001), wk =   0.0063492
        k(   35) = (   0.2000000   0.4781110   0.9349334), wk =   0.0063492
        k(   36) = (   0.2000000   0.7171664   0.0000000), wk =   0.0063492
        k(   37) = (   0.2000000   0.7171664   0.2337334), wk =   0.0063492
        k(   38) = (   0.2000000   0.7171664   0.4674667), wk =   0.0063492
        k(   39) = (   0.2000000   0.7171664   0.7012001), wk =   0.0063492
        k(   40) = (   0.2000000   0.7171664   0.9349334), wk =   0.0063492
        k(   41) = (   0.4000000   0.0000000   0.0000000), wk =   0.0063492
        k(   42) = (   0.4000000   0.0000000   0.2337334), wk =   0.0063492
        k(   43) = (   0.4000000   0.0000000   0.4674667), wk =   0.0063492
        k(   44) = (   0.4000000   0.0000000   0.7012001), wk =   0.0063492
        k(   45) = (   0.4000000   0.0000000   0.9349334), wk =   0.0063492
        k(   46) = (   0.4000000   0.2390555   0.0000000), wk =   0.0063492
        k(   47) = (   0.4000000   0.2390555   0.2337334), wk =   0.0063492
        k(   48) = (   0.4000000   0.2390555   0.4674667), wk =   0.0063492
        k(   49) = (   0.4000000   0.2390555   0.7012001), wk =   0.0063492
        k(   50) = (   0.4000000   0.2390555   0.9349334), wk =   0.0063492
        k(   51) = (   0.4000000   0.4781110   0.0000000), wk =   0.0063492
        k(   52) = (   0.4000000   0.4781110   0.2337334), wk =   0.0063492
        k(   53) = (   0.4000000   0.4781110   0.4674667), wk =   0.0063492
        k(   54) = (   0.4000000   0.4781110   0.7012001), wk =   0.0063492
        k(   55) = (   0.4000000   0.4781110   0.9349334), wk =   0.0063492
        k(   56) = (   0.4000000   0.7171664   0.0000000), wk =   0.0063492
        k(   57) = (   0.4000000   0.7171664   0.2337334), wk =   0.0063492
        k(   58) = (   0.4000000   0.7171664   0.4674667), wk =   0.0063492
        k(   59) = (   0.4000000   0.7171664   0.7012001), wk =   0.0063492
        k(   60) = (   0.4000000   0.7171664   0.9349334), wk =   0.0063492
        k(   61) = (   0.0000000  -0.2390555   0.2337334), wk =   0.0063492
        k(   62) = (   0.0000000  -0.2390555   0.4674667), wk =   0.0063492
        k(   63) = (   0.0000000  -0.2390555   0.7012001), wk =   0.0063492
        k(   64) = (   0.0000000  -0.2390555   0.9349334), wk =   0.0063492
        k(   65) = (   0.0000000  -0.4781110   0.2337334), wk =   0.0063492
        k(   66) = (   0.0000000  -0.4781110   0.4674667), wk =   0.0063492
        k(   67) = (   0.0000000  -0.4781110   0.7012001), wk =   0.0063492
        k(   68) = (   0.0000000  -0.4781110   0.9349334), wk =   0.0063492
        k(   69) = (   0.0000000  -0.7171664   0.2337334), wk =   0.0063492
        k(   70) = (   0.0000000  -0.7171664   0.4674667), wk =   0.0063492
        k(   71) = (   0.0000000  -0.7171664   0.7012001), wk =   0.0063492
        k(   72) = (   0.0000000  -0.7171664   0.9349334), wk =   0.0063492
        k(   73) = (  -0.2000000   0.0000000   0.2337334), wk =   0.0063492
        k(   74) = (  -0.2000000   0.0000000   0.4674667), wk =   0.0063492
        k(   75) = (  -0.2000000   0.0000000   0.7012001), wk =   0.0063492
        k(   76) = (  -0.2000000   0.0000000   0.9349334), wk =   0.0063492
        k(   77) = (  -0.2000000   0.2390555   0.0000000), wk =   0.0063492
        k(   78) = (  -0.2000000  -0.2390555   0.2337334), wk =   0.0063492
        k(   79) = (  -0.2000000   0.2390555  -0.2337334), wk =   0.0063492
        k(   80) = (   0.2000000  -0.2390555  -0.2337334), wk =   0.0063492
        k(   81) = (  -0.2000000  -0.2390555   0.4674667), wk =   0.0063492
        k(   82) = (  -0.2000000   0.2390555  -0.4674667), wk =   0.0063492
        k(   83) = (   0.2000000  -0.2390555  -0.4674667), wk =   0.0063492
        k(   84) = (  -0.2000000  -0.2390555   0.7012001), wk =   0.0063492
        k(   85) = (  -0.2000000   0.2390555  -0.7012001), wk =   0.0063492
        k(   86) = (   0.2000000  -0.2390555  -0.7012001), wk =   0.0063492
        k(   87) = (  -0.2000000  -0.2390555   0.9349334), wk =   0.0063492
        k(   88) = (  -0.2000000   0.2390555  -0.9349334), wk =   0.0063492
        k(   89) = (   0.2000000  -0.2390555  -0.9349334), wk =   0.0063492
        k(   90) = (  -0.2000000   0.4781110   0.0000000), wk =   0.0063492
        k(   91) = (  -0.2000000  -0.4781110   0.2337334), wk =   0.0063492
        k(   92) = (  -0.2000000   0.4781110  -0.2337334), wk =   0.0063492
        k(   93) = (   0.2000000  -0.4781110  -0.2337334), wk =   0.0063492
        k(   94) = (  -0.2000000  -0.4781110   0.4674667), wk =   0.0063492
        k(   95) = (  -0.2000000   0.4781110  -0.4674667), wk =   0.0063492
        k(   96) = (   0.2000000  -0.4781110  -0.4674667), wk =   0.0063492
        k(   97) = (  -0.2000000  -0.4781110   0.7012001), wk =   0.0063492
        k(   98) = (  -0.2000000   0.4781110  -0.7012001), wk =   0.0063492
        k(   99) = (   0.2000000  -0.4781110  -0.7012001), wk =   0.0063492
        k(  100) = (  -0.2000000  -0.4781110   0.9349334), wk =   0.0063492
        k(  101) = (  -0.2000000   0.4781110  -0.9349334), wk =   0.0063492
        k(  102) = (   0.2000000  -0.4781110  -0.9349334), wk =   0.0063492
        k(  103) = (  -0.2000000   0.7171664   0.0000000), wk =   0.0063492
        k(  104) = (  -0.2000000  -0.7171664   0.2337334), wk =   0.0063492
        k(  105) = (  -0.2000000   0.7171664  -0.2337334), wk =   0.0063492
        k(  106) = (   0.2000000  -0.7171664  -0.2337334), wk =   0.0063492
        k(  107) = (  -0.2000000  -0.7171664   0.4674667), wk =   0.0063492
        k(  108) = (  -0.2000000   0.7171664  -0.4674667), wk =   0.0063492
        k(  109) = (   0.2000000  -0.7171664  -0.4674667), wk =   0.0063492
        k(  110) = (  -0.2000000  -0.7171664   0.7012001), wk =   0.0063492
        k(  111) = (  -0.2000000   0.7171664  -0.7012001), wk =   0.0063492
        k(  112) = (   0.2000000  -0.7171664  -0.7012001), wk =   0.0063492
        k(  113) = (  -0.2000000  -0.7171664   0.9349334), wk =   0.0063492
        k(  114) = (  -0.2000000   0.7171664  -0.9349334), wk =   0.0063492
        k(  115) = (   0.2000000  -0.7171664  -0.9349334), wk =   0.0063492
        k(  116) = (  -0.4000000   0.0000000   0.2337334), wk =   0.0063492
        k(  117) = (  -0.4000000   0.0000000   0.4674667), wk =   0.0063492
        k(  118) = (  -0.4000000   0.0000000   0.7012001), wk =   0.0063492
        k(  119) = (  -0.4000000   0.0000000   0.9349334), wk =   0.0063492
        k(  120) = (  -0.4000000   0.2390555   0.0000000), wk =   0.0063492
        k(  121) = (  -0.4000000  -0.2390555   0.2337334), wk =   0.0063492
        k(  122) = (  -0.4000000   0.2390555  -0.2337334), wk =   0.0063492
        k(  123) = (   0.4000000  -0.2390555  -0.2337334), wk =   0.0063492
        k(  124) = (  -0.4000000  -0.2390555   0.4674667), wk =   0.0063492
        k(  125) = (  -0.4000000   0.2390555  -0.4674667), wk =   0.0063492
        k(  126) = (   0.4000000  -0.2390555  -0.4674667), wk =   0.0063492
        k(  127) = (  -0.4000000  -0.2390555   0.7012001), wk =   0.0063492
        k(  128) = (  -0.4000000   0.2390555  -0.7012001), wk =   0.0063492
        k(  129) = (   0.4000000  -0.2390555  -0.7012001), wk =   0.0063492
        k(  130) = (  -0.4000000  -0.2390555   0.9349334), wk =   0.0063492
        k(  131) = (  -0.4000000   0.2390555  -0.9349334), wk =   0.0063492
        k(  132) = (   0.4000000  -0.2390555  -0.9349334), wk =   0.0063492
        k(  133) = (  -0.4000000   0.4781110   0.0000000), wk =   0.0063492
        k(  134) = (  -0.4000000  -0.4781110   0.2337334), wk =   0.0063492
        k(  135) = (  -0.4000000   0.4781110  -0.2337334), wk =   0.0063492
        k(  136) = (   0.4000000  -0.4781110  -0.2337334), wk =   0.0063492
        k(  137) = (  -0.4000000  -0.4781110   0.4674667), wk =   0.0063492
        k(  138) = (  -0.4000000   0.4781110  -0.4674667), wk =   0.0063492
        k(  139) = (   0.4000000  -0.4781110  -0.4674667), wk =   0.0063492
        k(  140) = (  -0.4000000  -0.4781110   0.7012001), wk =   0.0063492
        k(  141) = (  -0.4000000   0.4781110  -0.7012001), wk =   0.0063492
        k(  142) = (   0.4000000  -0.4781110  -0.7012001), wk =   0.0063492
        k(  143) = (  -0.4000000  -0.4781110   0.9349334), wk =   0.0063492
        k(  144) = (  -0.4000000   0.4781110  -0.9349334), wk =   0.0063492
        k(  145) = (   0.4000000  -0.4781110  -0.9349334), wk =   0.0063492
        k(  146) = (  -0.4000000   0.7171664   0.0000000), wk =   0.0063492
        k(  147) = (  -0.4000000  -0.7171664   0.2337334), wk =   0.0063492
        k(  148) = (  -0.4000000   0.7171664  -0.2337334), wk =   0.0063492
        k(  149) = (   0.4000000  -0.7171664  -0.2337334), wk =   0.0063492
        k(  150) = (  -0.4000000  -0.7171664   0.4674667), wk =   0.0063492
        k(  151) = (  -0.4000000   0.7171664  -0.4674667), wk =   0.0063492
        k(  152) = (   0.4000000  -0.7171664  -0.4674667), wk =   0.0063492
        k(  153) = (  -0.4000000  -0.7171664   0.7012001), wk =   0.0063492
        k(  154) = (  -0.4000000   0.7171664  -0.7012001), wk =   0.0063492
        k(  155) = (   0.4000000  -0.7171664  -0.7012001), wk =   0.0063492
        k(  156) = (  -0.4000000  -0.7171664   0.9349334), wk =   0.0063492
        k(  157) = (  -0.4000000   0.7171664  -0.9349334), wk =   0.0063492
        k(  158) = (   0.4000000  -0.7171664  -0.9349334), wk =   0.0063492

                       cryst. coord.
        k(    1) = (   0.0000000   0.0000000   0.0000000), wk =   0.0031746
        k(    2) = (   0.0000000   0.0000000   0.1111111), wk =   0.0063492
        k(    3) = (   0.0000000   0.0000000   0.2222222), wk =   0.0063492
        k(    4) = (   0.0000000   0.0000000   0.3333333), wk =   0.0063492
        k(    5) = (   0.0000000   0.0000000   0.4444444), wk =   0.0063492
        k(    6) = (   0.0000000   0.1428571   0.0000000), wk =   0.0063492
        k(    7) = (   0.0000000   0.1428571   0.1111111), wk =   0.0063492
        k(    8) = (   0.0000000   0.1428571   0.2222222), wk =   0.0063492
        k(    9) = (   0.0000000   0.1428571   0.3333333), wk =   0.0063492
        k(   10) = (   0.0000000   0.1428571   0.4444444), wk =   0.0063492
        k(   11) = (   0.0000000   0.2857143   0.0000000), wk =   0.0063492
        k(   12) = (   0.0000000   0.2857143   0.1111111), wk =   0.0063492
        k(   13) = (   0.0000000   0.2857143   0.2222222), wk =   0.0063492
        k(   14) = (   0.0000000   0.2857143   0.3333333), wk =   0.0063492
        k(   15) = (   0.0000000   0.2857143   0.4444444), wk =   0.0063492
        k(   16) = (   0.0000000   0.4285714   0.0000000), wk =   0.0063492
        k(   17) = (   0.0000000   0.4285714   0.1111111), wk =   0.0063492
        k(   18) = (   0.0000000   0.4285714   0.2222222), wk =   0.0063492
        k(   19) = (   0.0000000   0.4285714   0.3333333), wk =   0.0063492
        k(   20) = (   0.0000000   0.4285714   0.4444444), wk =   0.0063492
        k(   21) = (   0.2000000   0.0000000   0.0000000), wk =   0.0063492
        k(   22) = (   0.2000000   0.0000000   0.1111111), wk =   0.0063492
        k(   23) = (   0.2000000   0.0000000   0.2222222), wk =   0.0063492
        k(   24) = (   0.2000000   0.0000000   0.3333333), wk =   0.0063492
        k(   25) = (   0.2000000   0.0000000   0.4444444), wk =   0.0063492
        k(   26) = (   0.2000000   0.1428571   0.0000000), wk =   0.0063492
        k(   27) = (   0.2000000   0.1428571   0.1111111), wk =   0.0063492
        k(   28) = (   0.2000000   0.1428571   0.2222222), wk =   0.0063492
        k(   29) = (   0.2000000   0.1428571   0.3333333), wk =   0.0063492
        k(   30) = (   0.2000000   0.1428571   0.4444444), wk =   0.0063492
        k(   31) = (   0.2000000   0.2857143   0.0000000), wk =   0.0063492
        k(   32) = (   0.2000000   0.2857143   0.1111111), wk =   0.0063492
        k(   33) = (   0.2000000   0.2857143   0.2222222), wk =   0.0063492
        k(   34) = (   0.2000000   0.2857143   0.3333333), wk =   0.0063492
        k(   35) = (   0.2000000   0.2857143   0.4444444), wk =   0.0063492
        k(   36) = (   0.2000000   0.4285714   0.0000000), wk =   0.0063492
        k(   37) = (   0.2000000   0.4285714   0.1111111), wk =   0.0063492
        k(   38) = (   0.2000000   0.4285714   0.2222222), wk =   0.0063492
        k(   39) = (   0.2000000   0.4285714   0.3333333), wk =   0.0063492
        k(   40) = (   0.2000000   0.4285714   0.4444444), wk =   0.0063492
        k(   41) = (   0.4000000   0.0000000   0.0000000), wk =   0.0063492
        k(   42) = (   0.4000000   0.0000000   0.1111111), wk =   0.0063492
        k(   43) = (   0.4000000   0.0000000   0.2222222), wk =   0.0063492
        k(   44) = (   0.4000000   0.0000000   0.3333333), wk =   0.0063492
        k(   45) = (   0.4000000   0.0000000   0.4444444), wk =   0.0063492
        k(   46) = (   0.4000000   0.1428571   0.0000000), wk =   0.0063492
        k(   47) = (   0.4000000   0.1428571   0.1111111), wk =   0.0063492
        k(   48) = (   0.4000000   0.1428571   0.2222222), wk =   0.0063492
        k(   49) = (   0.4000000   0.1428571   0.3333333), wk =   0.0063492
        k(   50) = (   0.4000000   0.1428571   0.4444444), wk =   0.0063492
        k(   51) = (   0.4000000   0.2857143   0.0000000), wk =   0.0063492
        k(   52) = (   0.4000000   0.2857143   0.1111111), wk =   0.0063492
        k(   53) = (   0.4000000   0.2857143   0.2222222), wk =   0.0063492
        k(   54) = (   0.4000000   0.2857143   0.3333333), wk =   0.0063492
        k(   55) = (   0.4000000   0.2857143   0.4444444), wk =   0.0063492
        k(   56) = (   0.4000000   0.4285714   0.0000000), wk =   0.0063492
        k(   57) = (   0.4000000   0.4285714   0.1111111), wk =   0.0063492
        k(   58) = (   0.4000000   0.4285714   0.2222222), wk =   0.0063492
        k(   59) = (   0.4000000   0.4285714   0.3333333), wk =   0.0063492
        k(   60) = (   0.4000000   0.4285714   0.4444444), wk =   0.0063492
        k(   61) = (   0.0000000  -0.1428571   0.1111111), wk =   0.0063492
        k(   62) = (   0.0000000  -0.1428571   0.2222222), wk =   0.0063492
        k(   63) = (   0.0000000  -0.1428571   0.3333333), wk =   0.0063492
        k(   64) = (   0.0000000  -0.1428571   0.4444444), wk =   0.0063492
        k(   65) = (   0.0000000  -0.2857143   0.1111111), wk =   0.0063492
        k(   66) = (   0.0000000  -0.2857143   0.2222222), wk =   0.0063492
        k(   67) = (   0.0000000  -0.2857143   0.3333333), wk =   0.0063492
        k(   68) = (   0.0000000  -0.2857143   0.4444444), wk =   0.0063492
        k(   69) = (   0.0000000  -0.4285714   0.1111111), wk =   0.0063492
        k(   70) = (   0.0000000  -0.4285714   0.2222222), wk =   0.0063492
        k(   71) = (   0.0000000  -0.4285714   0.3333333), wk =   0.0063492
        k(   72) = (   0.0000000  -0.4285714   0.4444444), wk =   0.0063492
        k(   73) = (  -0.2000000   0.0000000   0.1111111), wk =   0.0063492
        k(   74) = (  -0.2000000   0.0000000   0.2222222), wk =   0.0063492
        k(   75) = (  -0.2000000   0.0000000   0.3333333), wk =   0.0063492
        k(   76) = (  -0.2000000   0.0000000   0.4444444), wk =   0.0063492
        k(   77) = (  -0.2000000   0.1428571   0.0000000), wk =   0.0063492
        k(   78) = (  -0.2000000  -0.1428571   0.1111111), wk =   0.0063492
        k(   79) = (  -0.2000000   0.1428571  -0.1111111), wk =   0.0063492
        k(   80) = (   0.2000000  -0.1428571  -0.1111111), wk =   0.0063492
        k(   81) = (  -0.2000000  -0.1428571   0.2222222), wk =   0.0063492
        k(   82) = (  -0.2000000   0.1428571  -0.2222222), wk =   0.0063492
        k(   83) = (   0.2000000  -0.1428571  -0.2222222), wk =   0.0063492
        k(   84) = (  -0.2000000  -0.1428571   0.3333333), wk =   0.0063492
        k(   85) = (  -0.2000000   0.1428571  -0.3333333), wk =   0.0063492
        k(   86) = (   0.2000000  -0.1428571  -0.3333333), wk =   0.0063492
        k(   87) = (  -0.2000000  -0.1428571   0.4444444), wk =   0.0063492
        k(   88) = (  -0.2000000   0.1428571  -0.4444444), wk =   0.0063492
        k(   89) = (   0.2000000  -0.1428571  -0.4444444), wk =   0.0063492
        k(   90) = (  -0.2000000   0.2857143   0.0000000), wk =   0.0063492
        k(   91) = (  -0.2000000  -0.2857143   0.1111111), wk =   0.0063492
        k(   92) = (  -0.2000000   0.2857143  -0.1111111), wk =   0.0063492
        k(   93) = (   0.2000000  -0.2857143  -0.1111111), wk =   0.0063492
        k(   94) = (  -0.2000000  -0.2857143   0.2222222), wk =   0.0063492
        k(   95) = (  -0.2000000   0.2857143  -0.2222222), wk =   0.0063492
        k(   96) = (   0.2000000  -0.2857143  -0.2222222), wk =   0.0063492
        k(   97) = (  -0.2000000  -0.2857143   0.3333333), wk =   0.0063492
        k(   98) = (  -0.2000000   0.2857143  -0.3333333), wk =   0.0063492
        k(   99) = (   0.2000000  -0.2857143  -0.3333333), wk =   0.0063492
        k(  100) = (  -0.2000000  -0.2857143   0.4444444), wk =   0.0063492
        k(  101) = (  -0.2000000   0.2857143  -0.4444444), wk =   0.0063492
        k(  102) = (   0.2000000  -0.2857143  -0.4444444), wk =   0.0063492
        k(  103) = (  -0.2000000   0.4285714   0.0000000), wk =   0.0063492
        k(  104) = (  -0.2000000  -0.4285714   0.1111111), wk =   0.0063492
        k(  105) = (  -0.2000000   0.4285714  -0.1111111), wk =   0.0063492
        k(  106) = (   0.2000000  -0.4285714  -0.1111111), wk =   0.0063492
        k(  107) = (  -0.2000000  -0.4285714   0.2222222), wk =   0.0063492
        k(  108) = (  -0.2000000   0.4285714  -0.2222222), wk =   0.0063492
        k(  109) = (   0.2000000  -0.4285714  -0.2222222), wk =   0.0063492
        k(  110) = (  -0.2000000  -0.4285714   0.3333333), wk =   0.0063492
        k(  111) = (  -0.2000000   0.4285714  -0.3333333), wk =   0.0063492
        k(  112) = (   0.2000000  -0.4285714  -0.3333333), wk =   0.0063492
        k(  113) = (  -0.2000000  -0.4285714   0.4444444), wk =   0.0063492
        k(  114) = (  -0.2000000   0.4285714  -0.4444444), wk =   0.0063492
        k(  115) = (   0.2000000  -0.4285714  -0.4444444), wk =   0.0063492
        k(  116) = (  -0.4000000   0.0000000   0.1111111), wk =   0.0063492
        k(  117) = (  -0.4000000   0.0000000   0.2222222), wk =   0.0063492
        k(  118) = (  -0.4000000   0.0000000   0.3333333), wk =   0.0063492
        k(  119) = (  -0.4000000   0.0000000   0.4444444), wk =   0.0063492
        k(  120) = (  -0.4000000   0.1428571   0.0000000), wk =   0.0063492
        k(  121) = (  -0.4000000  -0.1428571   0.1111111), wk =   0.0063492
        k(  122) = (  -0.4000000   0.1428571  -0.1111111), wk =   0.0063492
        k(  123) = (   0.4000000  -0.1428571  -0.1111111), wk =   0.0063492
        k(  124) = (  -0.4000000  -0.1428571   0.2222222), wk =   0.0063492
        k(  125) = (  -0.4000000   0.1428571  -0.2222222), wk =   0.0063492
        k(  126) = (   0.4000000  -0.1428571  -0.2222222), wk =   0.0063492
        k(  127) = (  -0.4000000  -0.1428571   0.3333333), wk =   0.0063492
        k(  128) = (  -0.4000000   0.1428571  -0.3333333), wk =   0.0063492
        k(  129) = (   0.4000000  -0.1428571  -0.3333333), wk =   0.0063492
        k(  130) = (  -0.4000000  -0.1428571   0.4444444), wk =   0.0063492
        k(  131) = (  -0.4000000   0.1428571  -0.4444444), wk =   0.0063492
        k(  132) = (   0.4000000  -0.1428571  -0.4444444), wk =   0.0063492
        k(  133) = (  -0.4000000   0.2857143   0.0000000), wk =   0.0063492
        k(  134) = (  -0.4000000  -0.2857143   0.1111111), wk =   0.0063492
        k(  135) = (  -0.4000000   0.2857143  -0.1111111), wk =   0.0063492
        k(  136) = (   0.4000000  -0.2857143  -0.1111111), wk =   0.0063492
        k(  137) = (  -0.4000000  -0.2857143   0.2222222), wk =   0.0063492
        k(  138) = (  -0.4000000   0.2857143  -0.2222222), wk =   0.0063492
        k(  139) = (   0.4000000  -0.2857143  -0.2222222), wk =   0.0063492
        k(  140) = (  -0.4000000  -0.2857143   0.3333333), wk =   0.0063492
        k(  141) = (  -0.4000000   0.2857143  -0.3333333), wk =   0.0063492
        k(  142) = (   0.4000000  -0.2857143  -0.3333333), wk =   0.0063492
        k(  143) = (  -0.4000000  -0.2857143   0.4444444), wk =   0.0063492
        k(  144) = (  -0.4000000   0.2857143  -0.4444444), wk =   0.0063492
        k(  145) = (   0.4000000  -0.2857143  -0.4444444), wk =   0.0063492
        k(  146) = (  -0.4000000   0.4285714   0.0000000), wk =   0.0063492
        k(  147) = (  -0.4000000  -0.4285714   0.1111111), wk =   0.0063492
        k(  148) = (  -0.4000000   0.4285714  -0.1111111), wk =   0.0063492
        k(  149) = (   0.4000000  -0.4285714  -0.1111111), wk =   0.0063492
        k(  150) = (  -0.4000000  -0.4285714   0.2222222), wk =   0.0063492
        k(  151) = (  -0.4000000   0.4285714  -0.2222222), wk =   0.0063492
        k(  152) = (   0.4000000  -0.4285714  -0.2222222), wk =   0.0063492
        k(  153) = (  -0.4000000  -0.4285714   0.3333333), wk =   0.0063492
        k(  154) = (  -0.4000000   0.4285714  -0.3333333), wk =   0.0063492
        k(  155) = (   0.4000000  -0.4285714  -0.3333333), wk =   0.0063492
        k(  156) = (  -0.4000000  -0.4285714   0.4444444), wk =   0.0063492
        k(  157) = (  -0.4000000   0.4285714  -0.4444444), wk =   0.0063492
        k(  158) = (   0.4000000  -0.4285714  -0.4444444), wk =   0.0063492

     Dense  grid:  1360823 G-vectors     FFT dimensions: ( 216, 125, 100)

     Smooth grid:   306739 G-vectors     FFT dimensions: ( 128,  80,  64)

     Dynamical RAM for                 wfc:       4.17 MB

     Dynamical RAM for     wfc (w. buffer):    1321.21 MB

     Dynamical RAM for           str. fact:       5.19 MB

     Dynamical RAM for           local pot:       0.00 MB

     Dynamical RAM for          nlocal pot:      10.24 MB

     Dynamical RAM for                qrad:      10.54 MB

     Dynamical RAM for          rho,v,vnew:      16.44 MB

     Dynamical RAM for               rhoin:       5.48 MB

     Dynamical RAM for            rho*nmix:      41.53 MB

     Dynamical RAM for           G-vectors:       5.01 MB

     Dynamical RAM for          h,s,v(r/c):       2.38 MB

     Dynamical RAM for          <psi|beta>:       0.49 MB

     Dynamical RAM for                 psi:       8.34 MB

     Dynamical RAM for                hpsi:       8.34 MB

     Dynamical RAM for                spsi:       8.34 MB

     Dynamical RAM for      wfcinit/wfcrot:      10.45 MB

     Dynamical RAM for           addusdens:     263.45 MB

     Dynamical RAM for          addusforce:     302.51 MB

     Dynamical RAM for         addusstress:     262.80 MB

     Estimated static dynamical RAM per process >       1.40 GB

     Estimated max dynamical RAM per process >       1.69 GB

     Estimated total dynamical RAM >      27.08 GB

     Check: negative core charge=   -0.000003
     Generating pointlists ...
     new r_m :   0.0760 (alat units)  1.5202 (a.u.) for type    1
     new r_m :   0.0887 (alat units)  1.7732 (a.u.) for type    2
     new r_m :   0.0610 (alat units)  1.2205 (a.u.) for type    3
     new r_m :   0.0610 (alat units)  1.2205 (a.u.) for type    4

     Initial potential from superposition of free atoms

     starting charge  188.99132, renormalised to  189.00000
     Starting wfcs are  137 randomized atomic wfcs
     Checking if some PAW data can be deallocated... 
       PAW data deallocated on   13 nodes for type:  1
       PAW data deallocated on    4 nodes for type:  3

     total cpu time spent up to now is      117.8 secs

     Self-consistent Calculation

     iteration #  1     ecut=   100.00 Ry     beta= 0.40
     Davidson diagonalization with overlap
     ethr =  1.00E-02,  avg # of iterations =  2.9

     negative rho (up, down):  0.000E+00 9.929E-05

     total cpu time spent up to now is      456.8 secs

     total energy              =   -2123.77031528 Ry
     estimated scf accuracy    <       7.11372506 Ry

     total magnetization       =    19.00 Bohr mag/cell
     absolute magnetization    =    19.00 Bohr mag/cell

     iteration #  2     ecut=   100.00 Ry     beta= 0.40
     Davidson diagonalization with overlap
     ethr =  3.76E-03,  avg # of iterations =  2.0

     negative rho (up, down):  0.000E+00 3.422E-05

     total cpu time spent up to now is      774.0 secs

     total energy              =   -2120.31474150 Ry
     estimated scf accuracy    <      50.85649303 Ry

     total magnetization       =     6.64 Bohr mag/cell
     absolute magnetization    =     8.28 Bohr mag/cell

     iteration #  3     ecut=   100.00 Ry     beta= 0.40
     Davidson diagonalization with overlap
     ethr =  3.76E-03,  avg # of iterations =  3.1

     negative rho (up, down):  0.000E+00 2.470E-05

     total cpu time spent up to now is     1066.7 secs

     total energy              =   -2123.25604685 Ry
     estimated scf accuracy    <      58.77496654 Ry

     total magnetization       =     3.95 Bohr mag/cell
     absolute magnetization    =     7.96 Bohr mag/cell

     iteration #  4     ecut=   100.00 Ry     beta= 0.40
     Davidson diagonalization with overlap
     ethr =  3.76E-03,  avg # of iterations =  1.5

     negative rho (up, down):  0.000E+00 2.265E-05

     total cpu time spent up to now is     1322.7 secs

     total energy              =   -2124.46171328 Ry
     estimated scf accuracy    <      30.58764364 Ry

     total magnetization       =     9.00 Bohr mag/cell
     absolute magnetization    =     9.37 Bohr mag/cell

     iteration #  5     ecut=   100.00 Ry     beta= 0.40
     Davidson diagonalization with overlap
     ethr =  3.76E-03,  avg # of iterations =  1.7

     negative rho (up, down):  0.000E+00 6.438E-05

     total cpu time spent up to now is     1583.7 secs

     total energy              =   -2125.84708489 Ry
     estimated scf accuracy    <       3.66407241 Ry

     total magnetization       =    17.37 Bohr mag/cell
     absolute magnetization    =    17.40 Bohr mag/cell

     iteration #  6     ecut=   100.00 Ry     beta= 0.40
     Davidson diagonalization with overlap
     ethr =  1.94E-03,  avg # of iterations =  1.5

     negative rho (up, down):  0.000E+00 1.900E-04

     total cpu time spent up to now is     1838.0 secs

     total energy              =   -2126.04730809 Ry
     estimated scf accuracy    <       0.85784848 Ry

     total magnetization       =    19.00 Bohr mag/cell
     absolute magnetization    =    19.00 Bohr mag/cell

     iteration #  7     ecut=   100.00 Ry     beta= 0.40
     Davidson diagonalization with overlap
     ethr =  4.54E-04,  avg # of iterations =  1.6

     negative rho (up, down):  0.000E+00 2.860E-04

     total cpu time spent up to now is     2092.3 secs

     total energy              =   -2126.04560793 Ry
     estimated scf accuracy    <       0.47560408 Ry

     total magnetization       =    19.00 Bohr mag/cell
     absolute magnetization    =    19.00 Bohr mag/cell

     iteration #  8     ecut=   100.00 Ry     beta= 0.40
     Davidson diagonalization with overlap
     ethr =  2.52E-04,  avg # of iterations =  1.9

     negative rho (up, down):  0.000E+00 4.373E-04

     total cpu time spent up to now is     2354.1 secs

     total energy              =   -2126.06311578 Ry
     estimated scf accuracy    <       0.27899009 Ry

     total magnetization       =    19.00 Bohr mag/cell
     absolute magnetization    =    19.00 Bohr mag/cell

     iteration #  9     ecut=   100.00 Ry     beta= 0.40
     Davidson diagonalization with overlap
     c_bands:  1 eigenvalues not converged
     ethr =  1.48E-04,  avg # of iterations =  6.5

     negative rho (up, down):  0.000E+00 7.269E-04

     total cpu time spent up to now is     2678.4 secs

     total energy              =   -2126.07134271 Ry
     estimated scf accuracy    <       0.29699151 Ry

     total magnetization       =    19.00 Bohr mag/cell
     absolute magnetization    =    19.01 Bohr mag/cell

     iteration # 10     ecut=   100.00 Ry     beta= 0.40
     Davidson diagonalization with overlap
     ethr =  1.48E-04,  avg # of iterations =  1.4

     negative rho (up, down):  0.000E+00 8.762E-04

     total cpu time spent up to now is     2929.8 secs

     total energy              =   -2126.07869215 Ry
     estimated scf accuracy    <       0.17274331 Ry

     total magnetization       =    19.00 Bohr mag/cell
     absolute magnetization    =    19.02 Bohr mag/cell

     iteration # 11     ecut=   100.00 Ry     beta= 0.40
     Davidson diagonalization with overlap
     c_bands:  1 eigenvalues not converged
     c_bands:  1 eigenvalues not converged
     c_bands:  1 eigenvalues not converged
     c_bands:  2 eigenvalues not converged
     c_bands:  1 eigenvalues not converged
     c_bands:  1 eigenvalues not converged
     ethr =  9.14E-05,  avg # of iterations =  4.6

     negative rho (up, down):  0.000E+00 9.186E-04

     total cpu time spent up to now is     3227.2 secs

     total energy              =   -2126.08357640 Ry
     estimated scf accuracy    <       0.07820658 Ry

     total magnetization       =    19.00 Bohr mag/cell
     absolute magnetization    =    19.03 Bohr mag/cell

     iteration # 12     ecut=   100.00 Ry     beta= 0.40
     Davidson diagonalization with overlap
     c_bands:  1 eigenvalues not converged
     c_bands:  1 eigenvalues not converged
     c_bands:  1 eigenvalues not converged
     c_bands:  1 eigenvalues not converged
     c_bands:  1 eigenvalues not converged
     c_bands:  1 eigenvalues not converged
     c_bands:  1 eigenvalues not converged
     c_bands:  1 eigenvalues not converged
     c_bands:  1 eigenvalues not converged
     c_bands:  1 eigenvalues not converged
     c_bands:  1 eigenvalues not converged
     c_bands:  3 eigenvalues not converged
     c_bands:  1 eigenvalues not converged
     c_bands:  1 eigenvalues not converged
     c_bands:  2 eigenvalues not converged
     c_bands:  2 eigenvalues not converged
     ethr =  4.14E-05,  avg # of iterations = 10.2

     negative rho (up, down):  0.000E+00 9.329E-04

     total cpu time spent up to now is     3605.0 secs

     total energy              =   -2126.08456820 Ry
     estimated scf accuracy    <       0.04906258 Ry

     total magnetization       =    19.00 Bohr mag/cell
     absolute magnetization    =    19.03 Bohr mag/cell

     iteration # 13     ecut=   100.00 Ry     beta= 0.40
     Davidson diagonalization with overlap
     c_bands:  1 eigenvalues not converged
     c_bands:  1 eigenvalues not converged
     c_bands:  1 eigenvalues not converged
     c_bands:  1 eigenvalues not converged
     c_bands:  1 eigenvalues not converged
     c_bands:  1 eigenvalues not converged
     ethr =  2.60E-05,  avg # of iterations =  3.0

     negative rho (up, down):  0.000E+00 9.697E-04

     total cpu time spent up to now is     3877.7 secs

     total energy              =   -2126.08641885 Ry
     estimated scf accuracy    <       0.01055518 Ry

     total magnetization       =    19.00 Bohr mag/cell
     absolute magnetization    =    19.04 Bohr mag/cell

     iteration # 14     ecut=   100.00 Ry     beta= 0.40
     Davidson diagonalization with overlap
     c_bands:  1 eigenvalues not converged
     c_bands:  1 eigenvalues not converged
     c_bands:  1 eigenvalues not converged
     c_bands:  1 eigenvalues not converged
     c_bands:  1 eigenvalues not converged
     c_bands:  1 eigenvalues not converged
     c_bands:  1 eigenvalues not converged
     c_bands:  1 eigenvalues not converged
     c_bands:  1 eigenvalues not converged
     c_bands:  1 eigenvalues not converged
     c_bands:  1 eigenvalues not converged
     c_bands:  1 eigenvalues not converged
     c_bands:  1 eigenvalues not converged
     c_bands:  1 eigenvalues not converged
     c_bands:  1 eigenvalues not converged
     c_bands:  1 eigenvalues not converged
     c_bands:  1 eigenvalues not converged
     c_bands:  1 eigenvalues not converged
     c_bands:  1 eigenvalues not converged
     c_bands:  1 eigenvalues not converged
     c_bands:  1 eigenvalues not converged
     c_bands:  1 eigenvalues not converged
     c_bands:  1 eigenvalues not converged
     c_bands:  1 eigenvalues not converged
     c_bands:  1 eigenvalues not converged
     c_bands:  1 eigenvalues not converged
     c_bands:  1 eigenvalues not converged
     c_bands:  1 eigenvalues not converged
     c_bands:  1 eigenvalues not converged
     c_bands:  1 eigenvalues not converged
     c_bands:  1 eigenvalues not converged
     c_bands:  1 eigenvalues not converged
     c_bands:  1 eigenvalues not converged
     c_bands:  1 eigenvalues not converged
     c_bands:  1 eigenvalues not converged
     c_bands:  1 eigenvalues not converged
     ethr =  5.58E-06,  avg # of iterations = 11.9

     negative rho (up, down):  0.000E+00 9.696E-04

     total cpu time spent up to now is     4283.3 secs

     total energy              =   -2126.08668786 Ry
     estimated scf accuracy    <       0.01703390 Ry

     total magnetization       =    19.00 Bohr mag/cell
     absolute magnetization    =    19.05 Bohr mag/cell

     iteration # 15     ecut=   100.00 Ry     beta= 0.40
     Davidson diagonalization with overlap
     ethr =  5.58E-06,  avg # of iterations =  1.2

     negative rho (up, down):  0.000E+00 9.679E-04

     total cpu time spent up to now is     4524.2 secs

     total energy              =   -2126.08686409 Ry
     estimated scf accuracy    <       0.00405185 Ry

     total magnetization       =    19.00 Bohr mag/cell
     absolute magnetization    =    19.05 Bohr mag/cell

     iteration # 16     ecut=   100.00 Ry     beta= 0.40
     Davidson diagonalization with overlap
     c_bands:  1 eigenvalues not converged
     c_bands:  1 eigenvalues not converged
     c_bands:  1 eigenvalues not converged
     c_bands:  1 eigenvalues not converged
     ethr =  2.14E-06,  avg # of iterations =  3.1

     negative rho (up, down):  0.000E+00 9.671E-04

     total cpu time spent up to now is     4799.0 secs

     total energy              =   -2126.08706867 Ry
     estimated scf accuracy    <       0.00021401 Ry

     total magnetization       =    19.00 Bohr mag/cell
     absolute magnetization    =    19.05 Bohr mag/cell

     iteration # 17     ecut=   100.00 Ry     beta= 0.40
     Davidson diagonalization with overlap
     c_bands:  1 eigenvalues not converged
     c_bands:  1 eigenvalues not converged
     c_bands:  1 eigenvalues not converged
     c_bands:  1 eigenvalues not converged
     ethr =  1.13E-07,  avg # of iterations =  6.9

     negative rho (up, down):  0.000E+00 9.577E-04

     total cpu time spent up to now is     5356.5 secs

     total energy              =   -2126.08728189 Ry
     estimated scf accuracy    <       0.00013536 Ry

     total magnetization       =    19.00 Bohr mag/cell
     absolute magnetization    =    19.05 Bohr mag/cell

     iteration # 18     ecut=   100.00 Ry     beta= 0.40
     Davidson diagonalization with overlap
     ethr =  7.16E-08,  avg # of iterations =  1.0

     negative rho (up, down):  0.000E+00 9.519E-04

     total cpu time spent up to now is     5592.6 secs

     total energy              =   -2126.08729167 Ry
     estimated scf accuracy    <       0.00009533 Ry

     total magnetization       =    19.00 Bohr mag/cell
     absolute magnetization    =    19.05 Bohr mag/cell

     iteration # 19     ecut=   100.00 Ry     beta= 0.40
     Davidson diagonalization with overlap
     ethr =  5.04E-08,  avg # of iterations =  1.0

     negative rho (up, down):  0.000E+00 9.479E-04

     total cpu time spent up to now is     5827.2 secs

     total energy              =   -2126.08729820 Ry
     estimated scf accuracy    <       0.00001529 Ry

     total magnetization       =    19.00 Bohr mag/cell
     absolute magnetization    =    19.05 Bohr mag/cell

     iteration # 20     ecut=   100.00 Ry     beta= 0.40
     Davidson diagonalization with overlap
     ethr =  8.09E-09,  avg # of iterations =  2.0

     negative rho (up, down):  0.000E+00 9.479E-04

     total cpu time spent up to now is     6097.7 secs

     total energy              =   -2126.08730024 Ry
     estimated scf accuracy    <       0.00002021 Ry

     total magnetization       =    19.00 Bohr mag/cell
     absolute magnetization    =    19.05 Bohr mag/cell

     iteration # 21     ecut=   100.00 Ry     beta= 0.40
     Davidson diagonalization with overlap
     ethr =  8.09E-09,  avg # of iterations =  1.0

     negative rho (up, down):  0.000E+00 9.484E-04

     total cpu time spent up to now is     6331.9 secs

     total energy              =   -2126.08730119 Ry
     estimated scf accuracy    <       0.00000552 Ry

     total magnetization       =    19.00 Bohr mag/cell
     absolute magnetization    =    19.05 Bohr mag/cell

     iteration # 22     ecut=   100.00 Ry     beta= 0.40
     Davidson diagonalization with overlap
     ethr =  2.92E-09,  avg # of iterations =  2.0

     negative rho (up, down):  0.000E+00 9.491E-04

     total cpu time spent up to now is     6602.0 secs

     total energy              =   -2126.08730203 Ry
     estimated scf accuracy    <       0.00000181 Ry

     total magnetization       =    19.00 Bohr mag/cell
     absolute magnetization    =    19.05 Bohr mag/cell

     iteration # 23     ecut=   100.00 Ry     beta= 0.40
     Davidson diagonalization with overlap
     ethr =  9.60E-10,  avg # of iterations =  3.3

     negative rho (up, down):  0.000E+00 9.493E-04

     total cpu time spent up to now is     6893.1 secs

     total energy              =   -2126.08730231 Ry
     estimated scf accuracy    <       0.00000027 Ry

     total magnetization       =    19.00 Bohr mag/cell
     absolute magnetization    =    19.05 Bohr mag/cell

     iteration # 24     ecut=   100.00 Ry     beta= 0.40
     Davidson diagonalization with overlap
     ethr =  1.44E-10,  avg # of iterations =  4.9

     negative rho (up, down):  0.000E+00 9.498E-04

     total cpu time spent up to now is     7305.2 secs

     total energy              =   -2126.08730247 Ry
     estimated scf accuracy    <       0.00000057 Ry

     total magnetization       =    19.00 Bohr mag/cell
     absolute magnetization    =    19.05 Bohr mag/cell

     iteration # 25     ecut=   100.00 Ry     beta= 0.40
     Davidson diagonalization with overlap
     ethr =  1.44E-10,  avg # of iterations =  1.0

     negative rho (up, down):  0.000E+00 9.496E-04

     total cpu time spent up to now is     7540.5 secs

     total energy              =   -2126.08730249 Ry
     estimated scf accuracy    <       0.00000049 Ry

     total magnetization       =    19.00 Bohr mag/cell
     absolute magnetization    =    19.05 Bohr mag/cell

     iteration # 26     ecut=   100.00 Ry     beta= 0.40
     Davidson diagonalization with overlap
     ethr =  1.44E-10,  avg # of iterations =  1.1

     negative rho (up, down):  0.000E+00 9.498E-04

     total cpu time spent up to now is     7776.9 secs

     total energy              =   -2126.08730252 Ry
     estimated scf accuracy    <       0.00000003 Ry

     total magnetization       =    19.00 Bohr mag/cell
     absolute magnetization    =    19.05 Bohr mag/cell

     iteration # 27     ecut=   100.00 Ry     beta= 0.40
     Davidson diagonalization with overlap
     ethr =  1.40E-11,  avg # of iterations =  1.5

     negative rho (up, down):  0.000E+00 9.498E-04

     total cpu time spent up to now is     8029.0 secs

     total energy              =   -2126.08730252 Ry
     estimated scf accuracy    <       0.00000003 Ry

     total magnetization       =    19.00 Bohr mag/cell
     absolute magnetization    =    19.05 Bohr mag/cell

     iteration # 28     ecut=   100.00 Ry     beta= 0.40
     Davidson diagonalization with overlap
     ethr =  1.40E-11,  avg # of iterations =  1.0

     negative rho (up, down):  0.000E+00 9.499E-04

     total cpu time spent up to now is     8264.9 secs

     total energy              =   -2126.08730253 Ry
     estimated scf accuracy    <          6.3E-09 Ry

     total magnetization       =    19.00 Bohr mag/cell
     absolute magnetization    =    19.05 Bohr mag/cell

     iteration # 29     ecut=   100.00 Ry     beta= 0.40
     Davidson diagonalization with overlap
     ethr =  3.33E-12,  avg # of iterations =  2.5

     negative rho (up, down):  0.000E+00 9.499E-04

     total cpu time spent up to now is     8537.4 secs

     total energy              =   -2126.08730253 Ry
     estimated scf accuracy    <          3.2E-09 Ry

     total magnetization       =    19.00 Bohr mag/cell
     absolute magnetization    =    19.05 Bohr mag/cell

     iteration # 30     ecut=   100.00 Ry     beta= 0.40
     Davidson diagonalization with overlap
     ethr =  1.69E-12,  avg # of iterations =  2.5

     negative rho (up, down):  0.000E+00 9.499E-04

     total cpu time spent up to now is     8816.6 secs

     total energy              =   -2126.08730253 Ry
     estimated scf accuracy    <          1.8E-09 Ry

     total magnetization       =    19.00 Bohr mag/cell
     absolute magnetization    =    19.05 Bohr mag/cell

     iteration # 31     ecut=   100.00 Ry     beta= 0.40
     Davidson diagonalization with overlap
     ethr =  9.71E-13,  avg # of iterations =  1.8

     negative rho (up, down):  0.000E+00 9.498E-04

     total cpu time spent up to now is     9074.6 secs

     total energy              =   -2126.08730253 Ry
     estimated scf accuracy    <          9.5E-10 Ry

     total magnetization       =    19.00 Bohr mag/cell
     absolute magnetization    =    19.05 Bohr mag/cell

     iteration # 32     ecut=   100.00 Ry     beta= 0.40
     Davidson diagonalization with overlap
     ethr =  5.04E-13,  avg # of iterations =  2.9

     negative rho (up, down):  0.000E+00 9.498E-04

     total cpu time spent up to now is     9365.1 secs

     total energy              =   -2126.08730253 Ry
     estimated scf accuracy    <          2.9E-10 Ry

     total magnetization       =    19.00 Bohr mag/cell
     absolute magnetization    =    19.05 Bohr mag/cell

     iteration # 33     ecut=   100.00 Ry     beta= 0.40
     Davidson diagonalization with overlap
     ethr =  1.52E-13,  avg # of iterations =  3.3

     negative rho (up, down):  0.000E+00 9.498E-04

     Magnetic moment per site:
     atom:    1    charge:    7.9170    magn:    0.0005    constr:    0.0000
     atom:    2    charge:   12.9162    magn:    3.6857    constr:    0.0000
     atom:    3    charge:   12.9235    magn:    3.6688    constr:    0.0000
     atom:    4    charge:   12.9501    magn:    3.6056    constr:    0.0000
     atom:    5    charge:   12.9238    magn:    3.6720    constr:    0.0000
     atom:    6    charge:    0.8801    magn:    0.0102    constr:    0.0000
     atom:    7    charge:    0.8842    magn:    0.0081    constr:    0.0000
     atom:    8    charge:    0.8825    magn:    0.0108    constr:    0.0000
     atom:    9    charge:    0.8787    magn:    0.0085    constr:    0.0000
     atom:   10    charge:    4.3329    magn:    0.1407    constr:    0.0000
     atom:   11    charge:    4.3496    magn:    0.0880    constr:    0.0000
     atom:   12    charge:    4.3360    magn:    0.1316    constr:    0.0000
     atom:   13    charge:    4.3323    magn:    0.1056    constr:    0.0000
     atom:   14    charge:    4.3242    magn:    0.1113    constr:    0.0000
     atom:   15    charge:    4.3318    magn:    0.1343    constr:    0.0000
     atom:   16    charge:    4.3325    magn:    0.0813    constr:    0.0000
     atom:   17    charge:    4.3276    magn:    0.1446    constr:    0.0000
     atom:   18    charge:    4.3054    magn:    0.1512    constr:    0.0000
     atom:   19    charge:    4.3066    magn:    0.1282    constr:    0.0000
     atom:   20    charge:    4.3120    magn:    0.1523    constr:    0.0000
     atom:   21    charge:    4.3063    magn:    0.1353    constr:    0.0000
     atom:   22    charge:    4.3100    magn:    0.1409    constr:    0.0000
     atom:   23    charge:    4.3141    magn:    0.1194    constr:    0.0000
     atom:   24    charge:    4.3059    magn:    0.1541    constr:    0.0000
     atom:   25    charge:    4.3114    magn:    0.1332    constr:    0.0000

     total cpu time spent up to now is     9673.7 secs

     End of self-consistent calculation

 ------ SPIN UP ------------


          k = 0.0000 0.0000 0.0000 ( 38251 PWs)   bands (ev):

   -85.9028 -85.8509 -85.8458 -85.6093 -52.0027 -51.9839 -51.9675 -51.8713
   -51.8558 -51.8178 -51.7990 -51.7495 -51.7457 -51.7456 -51.5638 -51.3875
   -45.5729 -17.5803 -17.5331 -17.5245 -16.3928 -16.2427 -16.0843 -15.9938
   -14.1411 -14.0950 -14.0046 -13.9164 -13.8738 -13.8491 -13.8257 -13.7703
   -13.7580 -13.7070 -13.6500 -13.5627  -4.5775  -4.1120  -4.0688  -3.6889
    -2.5923  -2.2752  -2.2112  -2.0366  -1.8347  -1.7602  -1.6324  -1.6228
    -1.4694  -1.3516  -1.0856  -0.8392  -0.7020  -0.6954  -0.2341  -0.1767
    -0.1056  -0.0315   0.1099   0.2738   0.3117   0.3930   0.4287   0.4894
     0.5702   0.7603   0.7815   0.9412   1.1151   1.1583   1.2478   1.3000
     1.4188   1.4591   1.6045   1.6749   1.7377   1.7739   1.8347   1.9585
     2.0432   2.1248   2.1525   2.2689   2.3745   2.3982   2.5104   2.6038
     2.7178   2.7599   2.8401   2.8561   2.9096   3.1196   3.1758   3.2985
     3.4045   3.4242   3.5013   3.6001   3.6895   3.7826   4.0837   4.1843
     8.1227  10.1100  10.6585  10.9982  11.2421  12.0063  12.1301  12.3044
    12.5438  12.7609

     occupation numbers 
     1.0000   1.0000   1.0000   1.0000   1.0000   1.0000   1.0000   1.0000
     1.0000   1.0000   1.0000   1.0000   1.0000   1.0000   1.0000   1.0000
     1.0000   1.0000   1.0000   1.0000   1.0000   1.0000   1.0000   1.0000
     1.0000   1.0000   1.0000   1.0000   1.0000   1.0000   1.0000   1.0000
     1.0000   1.0000   1.0000   1.0000   1.0000   1.0000   1.0000   1.0000
     1.0000   1.0000   1.0000   1.0000   1.0000   1.0000   1.0000   1.0000
     1.0000   1.0000   1.0000   1.0000   1.0000   1.0000   1.0000   1.0000
     1.0000   1.0000   1.0000   1.0000   1.0000   1.0000   1.0000   1.0000
     1.0000   1.0000   1.0000   1.0000   1.0000   1.0000   1.0000   1.0000
     1.0000   1.0000   1.0000   1.0000   1.0000   1.0000   1.0000   1.0000
     1.0000   1.0000   1.0000   1.0000   1.0000   1.0000   1.0000   1.0000
     1.0000   1.0000   1.0000   1.0000   1.0000   1.0000   1.0000   1.0000
     1.0000   1.0000   1.0000   1.0000   1.0000   1.0000   1.0000   1.0000
     0.0000   0.0000   0.0000   0.0000   0.0000   0.0000   0.0000   0.0000
     0.0000   0.0000

          k = 0.0000 0.0000 0.2337 ( 38277 PWs)   bands (ev):

   -85.9028 -85.8509 -85.8458 -85.6093 -52.0027 -51.9839 -51.9675 -51.8713
   -51.8558 -51.8178 -51.7990 -51.7495 -51.7457 -51.7456 -51.5638 -51.3875
   -45.5729 -17.5805 -17.5356 -17.5245 -16.3787 -16.2358 -16.0790 -15.9912
   -14.1497 -14.1013 -14.0161 -13.9210 -13.8779 -13.8523 -13.8217 -13.7737
   -13.7543 -13.7119 -13.6543 -13.5663  -4.5558  -4.1089  -4.0640  -3.6986
    -2.5515  -2.2521  -2.2069  -2.0249  -1.8297  -1.7739  -1.6607  -1.5464
    -1.4610  -1.3199  -1.1279  -0.8151  -0.7422  -0.6778  -0.2219  -0.1604
    -0.1033   0.0063   0.1115   0.2704   0.3035   0.3682   0.4137   0.5127
     0.5654   0.7600   0.7741   0.9307   1.0848   1.1053   1.1925   1.2625
     1.4331   1.5114   1.5467   1.6443   1.7071   1.7322   1.8648   1.9935
     2.0630   2.1256   2.1772   2.2482   2.3815   2.4475   2.4705   2.5622
     2.7084   2.7303   2.8498   2.8583   2.8783   3.1658   3.1827   3.3010
     3.4112   3.4398   3.5322   3.5960   3.6803   3.7862   4.0605   4.1634
     8.2693  10.1865  10.6982  11.0074  11.2880  11.8962  12.1445  12.2996
    12.4617  12.7457

     occupation numbers 
     1.0000   1.0000   1.0000   1.0000   1.0000   1.0000   1.0000   1.0000
     1.0000   1.0000   1.0000   1.0000   1.0000   1.0000   1.0000   1.0000
     1.0000   1.0000   1.0000   1.0000   1.0000   1.0000   1.0000   1.0000
     1.0000   1.0000   1.0000   1.0000   1.0000   1.0000   1.0000   1.0000
     1.0000   1.0000   1.0000   1.0000   1.0000   1.0000   1.0000   1.0000
     1.0000   1.0000   1.0000   1.0000   1.0000   1.0000   1.0000   1.0000
     1.0000   1.0000   1.0000   1.0000   1.0000   1.0000   1.0000   1.0000
     1.0000   1.0000   1.0000   1.0000   1.0000   1.0000   1.0000   1.0000
     1.0000   1.0000   1.0000   1.0000   1.0000   1.0000   1.0000   1.0000
     1.0000   1.0000   1.0000   1.0000   1.0000   1.0000   1.0000   1.0000
     1.0000   1.0000   1.0000   1.0000   1.0000   1.0000   1.0000   1.0000
     1.0000   1.0000   1.0000   1.0000   1.0000   1.0000   1.0000   1.0000
     1.0000   1.0000   1.0000   1.0000   1.0000   1.0000   1.0000   1.0000
     0.0000   0.0000   0.0000   0.0000   0.0000   0.0000   0.0000   0.0000
     0.0000   0.0000

          k = 0.0000 0.0000 0.4675 ( 38350 PWs)   bands (ev):

   -85.9028 -85.8509 -85.8458 -85.6093 -52.0027 -51.9839 -51.9675 -51.8713
   -51.8558 -51.8178 -51.7990 -51.7495 -51.7457 -51.7456 -51.5638 -51.3875
   -45.5729 -17.5815 -17.5421 -17.5236 -16.3407 -16.2190 -16.0652 -15.9855
   -14.1735 -14.1192 -14.0426 -13.9355 -13.8904 -13.8603 -13.8100 -13.7791
   -13.7439 -13.7228 -13.6661 -13.5760  -4.4934  -4.1078  -4.0485  -3.7346
    -2.4392  -2.2122  -2.1725  -2.0120  -1.8155  -1.7844  -1.6614  -1.4542
    -1.3968  -1.2467  -1.2277  -0.8603  -0.7333  -0.6181  -0.1802  -0.1260
    -0.0781   0.0832   0.1239   0.2658   0.2758   0.3338   0.3549   0.5431
     0.5678   0.7346   0.7861   0.8918   0.9591   1.0233   1.1449   1.2054
     1.2758   1.3932   1.5870   1.6147   1.6832   1.7230   1.9034   1.9648
     2.0989   2.1330   2.1854   2.2713   2.2826   2.3862   2.4707   2.5718
     2.6168   2.7590   2.8697   2.8971   2.9365   3.1882   3.2235   3.3085
     3.4458   3.4948   3.5806   3.5869   3.6650   3.7975   3.9893   4.1001
     8.6608  10.3919  10.7722  11.0515  11.4168  11.7554  11.9935  12.2568
    12.3039  12.4695

     occupation numbers 
     1.0000   1.0000   1.0000   1.0000   1.0000   1.0000   1.0000   1.0000
     1.0000   1.0000   1.0000   1.0000   1.0000   1.0000   1.0000   1.0000
     1.0000   1.0000   1.0000   1.0000   1.0000   1.0000   1.0000   1.0000
     1.0000   1.0000   1.0000   1.0000   1.0000   1.0000   1.0000   1.0000
     1.0000   1.0000   1.0000   1.0000   1.0000   1.0000   1.0000   1.0000
     1.0000   1.0000   1.0000   1.0000   1.0000   1.0000   1.0000   1.0000
     1.0000   1.0000   1.0000   1.0000   1.0000   1.0000   1.0000   1.0000
     1.0000   1.0000   1.0000   1.0000   1.0000   1.0000   1.0000   1.0000
     1.0000   1.0000   1.0000   1.0000   1.0000   1.0000   1.0000   1.0000
     1.0000   1.0000   1.0000   1.0000   1.0000   1.0000   1.0000   1.0000
     1.0000   1.0000   1.0000   1.0000   1.0000   1.0000   1.0000   1.0000
     1.0000   1.0000   1.0000   1.0000   1.0000   1.0000   1.0000   1.0000
     1.0000   1.0000   1.0000   1.0000   1.0000   1.0000   1.0000   1.0000
     0.0000   0.0000   0.0000   0.0000   0.0000   0.0000   0.0000   0.0000
     0.0000   0.0000

          k = 0.0000 0.0000 0.7012 ( 38330 PWs)   bands (ev):

   -85.9028 -85.8509 -85.8458 -85.6093 -52.0027 -51.9839 -51.9675 -51.8713
   -51.8558 -51.8178 -51.7990 -51.7495 -51.7457 -51.7456 -51.5638 -51.3875
   -45.5729 -17.5835 -17.5488 -17.5222 -16.2916 -16.2033 -16.0477 -15.9817
   -14.2030 -14.1435 -14.0691 -13.9589 -13.9065 -13.8660 -13.7938 -13.7799
   -13.7342 -13.7297 -13.6826 -13.5889  -4.4003  -4.1255  -4.0222  -3.7989
    -2.3053  -2.1841  -2.1014  -2.0150  -1.8068  -1.7493  -1.6479  -1.4379
    -1.3436  -1.2552  -1.1257  -1.0094  -0.6013  -0.4994  -0.1157  -0.0840
    -0.0348   0.0784   0.1817   0.2134   0.2546   0.2907   0.3353   0.5454
     0.5841   0.6795   0.7962   0.8203   0.8360   0.9258   1.0014   1.0800
     1.2264   1.2764   1.5137   1.5861   1.6533   1.8331   1.8884   2.0294
     2.0437   2.0915   2.1166   2.1597   2.2867   2.3246   2.3816   2.5318
     2.6503   2.7830   2.9299   3.0482   3.1259   3.2056   3.2314   3.3184
     3.4907   3.5410   3.5773   3.6185   3.6891   3.8064   3.8690   3.9955
     9.1968  10.6242  10.7612  11.1666  11.5343  11.6433  11.8457  12.0869
    12.1927  12.2942

     occupation numbers 
     1.0000   1.0000   1.0000   1.0000   1.0000   1.0000   1.0000   1.0000
     1.0000   1.0000   1.0000   1.0000   1.0000   1.0000   1.0000   1.0000
     1.0000   1.0000   1.0000   1.0000   1.0000   1.0000   1.0000   1.0000
     1.0000   1.0000   1.0000   1.0000   1.0000   1.0000   1.0000   1.0000
     1.0000   1.0000   1.0000   1.0000   1.0000   1.0000   1.0000   1.0000
     1.0000   1.0000   1.0000   1.0000   1.0000   1.0000   1.0000   1.0000
     1.0000   1.0000   1.0000   1.0000   1.0000   1.0000   1.0000   1.0000
     1.0000   1.0000   1.0000   1.0000   1.0000   1.0000   1.0000   1.0000
     1.0000   1.0000   1.0000   1.0000   1.0000   1.0000   1.0000   1.0000
     1.0000   1.0000   1.0000   1.0000   1.0000   1.0000   1.0000   1.0000
     1.0000   1.0000   1.0000   1.0000   1.0000   1.0000   1.0000   1.0000
     1.0000   1.0000   1.0000   1.0000   1.0000   1.0000   1.0000   1.0000
     1.0000   1.0000   1.0000   1.0000   1.0000   1.0000   1.0000   1.0000
     0.0000   0.0000   0.0000   0.0000   0.0000   0.0000   0.0000   0.0000
     0.0000   0.0000

          k = 0.0000 0.0000 0.9349 ( 38332 PWs)   bands (ev):

   -85.9028 -85.8509 -85.8458 -85.6093 -52.0027 -51.9839 -51.9675 -51.8713
   -51.8558 -51.8178 -51.7990 -51.7495 -51.7457 -51.7456 -51.5638 -51.3875
   -45.5729 -17.5854 -17.5525 -17.5212 -16.2508 -16.2001 -16.0337 -15.9824
   -14.2233 -14.1614 -14.0849 -13.9788 -13.9158 -13.8680 -13.7857 -13.7722
   -13.7397 -13.7217 -13.6961 -13.5989  -4.3001  -4.1744  -3.9881  -3.8657
    -2.2249  -2.1699  -2.0456  -2.0087  -1.7911  -1.6725  -1.6506  -1.5487
    -1.2870  -1.1702  -1.1498  -1.0422  -0.4198  -0.3048  -0.1295  -0.0632
    -0.0093   0.0196   0.1242   0.1492   0.2098   0.3328   0.4177   0.4905
     0.6074   0.6408   0.6563   0.7282   0.7963   0.8679   0.8863   1.0392
     1.2606   1.3004   1.4119   1.5333   1.6701   1.7975   1.9199   1.9835
     2.0216   2.0589   2.1014   2.1616   2.2018   2.2797   2.3649   2.5165
     2.6641   2.7898   2.9841   3.1708   3.2019   3.2423   3.3239   3.3962
     3.4972   3.5096   3.6234   3.6509   3.7054   3.7444   3.8075   3.8729
     9.7754  10.3366  10.9971  11.3218  11.3964  11.5722  11.8479  12.0478
    12.1919  12.2234

     occupation numbers 
     1.0000   1.0000   1.0000   1.0000   1.0000   1.0000   1.0000   1.0000
     1.0000   1.0000   1.0000   1.0000   1.0000   1.0000   1.0000   1.0000
     1.0000   1.0000   1.0000   1.0000   1.0000   1.0000   1.0000   1.0000
     1.0000   1.0000   1.0000   1.0000   1.0000   1.0000   1.0000   1.0000
     1.0000   1.0000   1.0000   1.0000   1.0000   1.0000   1.0000   1.0000
     1.0000   1.0000   1.0000   1.0000   1.0000   1.0000   1.0000   1.0000
     1.0000   1.0000   1.0000   1.0000   1.0000   1.0000   1.0000   1.0000
     1.0000   1.0000   1.0000   1.0000   1.0000   1.0000   1.0000   1.0000
     1.0000   1.0000   1.0000   1.0000   1.0000   1.0000   1.0000   1.0000
     1.0000   1.0000   1.0000   1.0000   1.0000   1.0000   1.0000   1.0000
     1.0000   1.0000   1.0000   1.0000   1.0000   1.0000   1.0000   1.0000
     1.0000   1.0000   1.0000   1.0000   1.0000   1.0000   1.0000   1.0000
     1.0000   1.0000   1.0000   1.0000   1.0000   1.0000   1.0000   1.0000
     0.0000   0.0000   0.0000   0.0000   0.0000   0.0000   0.0000   0.0000
     0.0000   0.0000

          k = 0.0000 0.2391 0.0000 ( 38300 PWs)   bands (ev):

   -85.9028 -85.8509 -85.8458 -85.6093 -52.0027 -51.9839 -51.9675 -51.8713
   -51.8558 -51.8178 -51.7990 -51.7495 -51.7457 -51.7457 -51.5638 -51.3875
   -45.5729 -17.5802 -17.5334 -17.5245 -16.3779 -16.2405 -16.0835 -16.0085
   -14.1419 -14.0926 -14.0041 -13.9213 -13.9010 -13.8700 -13.8114 -13.7874
   -13.7207 -13.6992 -13.6476 -13.5651  -4.5537  -4.1317  -4.0467  -3.6976
    -2.5687  -2.2810  -2.2033  -2.0409  -1.8212  -1.7500  -1.6197  -1.6053
    -1.4289  -1.3510  -1.0697  -0.8209  -0.7605  -0.6470  -0.1961  -0.1497
    -0.0907  -0.0505   0.0211   0.1478   0.2474   0.4179   0.4979   0.5292
     0.6679   0.7505   0.7778   0.9220   1.0446   1.0582   1.1214   1.2358
     1.4069   1.5898   1.6322   1.6895   1.7383   1.7894   1.8294   1.9002
     2.0606   2.1135   2.1418   2.2140   2.3069   2.5102   2.5630   2.6179
     2.6816   2.7309   2.7698   2.9018   2.9849   3.1218   3.1687   3.3060
     3.3509   3.4254   3.5103   3.6042   3.6421   3.8109   4.1079   4.1712
     8.2770  10.1984  10.7249  10.9024  11.3122  11.9940  12.1561  12.3846
    12.4662  12.7409

     occupation numbers 
     1.0000   1.0000   1.0000   1.0000   1.0000   1.0000   1.0000   1.0000
     1.0000   1.0000   1.0000   1.0000   1.0000   1.0000   1.0000   1.0000
     1.0000   1.0000   1.0000   1.0000   1.0000   1.0000   1.0000   1.0000
     1.0000   1.0000   1.0000   1.0000   1.0000   1.0000   1.0000   1.0000
     1.0000   1.0000   1.0000   1.0000   1.0000   1.0000   1.0000   1.0000
     1.0000   1.0000   1.0000   1.0000   1.0000   1.0000   1.0000   1.0000
     1.0000   1.0000   1.0000   1.0000   1.0000   1.0000   1.0000   1.0000
     1.0000   1.0000   1.0000   1.0000   1.0000   1.0000   1.0000   1.0000
     1.0000   1.0000   1.0000   1.0000   1.0000   1.0000   1.0000   1.0000
     1.0000   1.0000   1.0000   1.0000   1.0000   1.0000   1.0000   1.0000
     1.0000   1.0000   1.0000   1.0000   1.0000   1.0000   1.0000   1.0000
     1.0000   1.0000   1.0000   1.0000   1.0000   1.0000   1.0000   1.0000
     1.0000   1.0000   1.0000   1.0000   1.0000   1.0000   1.0000   1.0000
     0.0000   0.0000   0.0000   0.0000   0.0000   0.0000   0.0000   0.0000
     0.0000   0.0000

          k = 0.0000 0.2391 0.2337 ( 38294 PWs)   bands (ev):

   -85.9028 -85.8509 -85.8458 -85.6093 -52.0027 -51.9839 -51.9675 -51.8713
   -51.8558 -51.8178 -51.7990 -51.7495 -51.7457 -51.7456 -51.5638 -51.3875
   -45.5729 -17.5805 -17.5360 -17.5245 -16.3631 -16.2335 -16.0787 -16.0056
   -14.1508 -14.0988 -14.0167 -13.9261 -13.9030 -13.8711 -13.8185 -13.7827
   -13.7241 -13.7013 -13.6485 -13.5675  -4.5326  -4.1259  -4.0445  -3.7059
    -2.5297  -2.2566  -2.1980  -2.0284  -1.8188  -1.7624  -1.6338  -1.5418
    -1.4177  -1.3266  -1.1125  -0.8185  -0.7721  -0.6384  -0.1813  -0.1382
    -0.1100  -0.0118   0.0306   0.1525   0.2524   0.4325   0.4892   0.5113
     0.6472   0.7504   0.7751   0.9181   0.9977   1.0250   1.0963   1.2183
     1.4510   1.5546   1.6283   1.6595   1.6959   1.7385   1.8436   1.9754
     2.0048   2.1191   2.1568   2.2299   2.3238   2.4550   2.5352   2.6185
     2.6546   2.7329   2.7834   2.8873   2.9713   3.1577   3.1751   3.3126
     3.3778   3.4349   3.5474   3.5912   3.6389   3.8070   4.0930   4.1531
     8.4171  10.2728  10.7676  10.9369  11.3423  11.9074  12.1674  12.3137
    12.4488  12.6822

     occupation numbers 
     1.0000   1.0000   1.0000   1.0000   1.0000   1.0000   1.0000   1.0000
     1.0000   1.0000   1.0000   1.0000   1.0000   1.0000   1.0000   1.0000
     1.0000   1.0000   1.0000   1.0000   1.0000   1.0000   1.0000   1.0000
     1.0000   1.0000   1.0000   1.0000   1.0000   1.0000   1.0000   1.0000
     1.0000   1.0000   1.0000   1.0000   1.0000   1.0000   1.0000   1.0000
     1.0000   1.0000   1.0000   1.0000   1.0000   1.0000   1.0000   1.0000
     1.0000   1.0000   1.0000   1.0000   1.0000   1.0000   1.0000   1.0000
     1.0000   1.0000   1.0000   1.0000   1.0000   1.0000   1.0000   1.0000
     1.0000   1.0000   1.0000   1.0000   1.0000   1.0000   1.0000   1.0000
     1.0000   1.0000   1.0000   1.0000   1.0000   1.0000   1.0000   1.0000
     1.0000   1.0000   1.0000   1.0000   1.0000   1.0000   1.0000   1.0000
     1.0000   1.0000   1.0000   1.0000   1.0000   1.0000   1.0000   1.0000
     1.0000   1.0000   1.0000   1.0000   1.0000   1.0000   1.0000   1.0000
     0.0000   0.0000   0.0000   0.0000   0.0000   0.0000   0.0000   0.0000
     0.0000   0.0000

          k = 0.0000 0.2391 0.4675 ( 38323 PWs)   bands (ev):

   -85.9028 -85.8509 -85.8458 -85.6093 -52.0027 -51.9839 -51.9675 -51.8713
   -51.8558 -51.8178 -51.7990 -51.7495 -51.7457 -51.7456 -51.5638 -51.3875
   -45.5729 -17.5815 -17.5424 -17.5236 -16.3261 -16.2159 -16.0662 -15.9976
   -14.1751 -14.1166 -14.0455 -13.9384 -13.9126 -13.8733 -13.8300 -13.7727
   -13.7307 -13.7030 -13.6561 -13.5750  -4.4720  -4.1184  -4.0334  -3.7393
    -2.4212  -2.2071  -2.1689  -2.0113  -1.8132  -1.7617  -1.6343  -1.4291
    -1.3885  -1.2429  -1.2194  -0.8960  -0.7213  -0.6038  -0.1504  -0.1285
    -0.0813  -0.0123   0.1004   0.1765   0.2656   0.4062   0.4403   0.5273
     0.6103   0.7444   0.7694   0.8810   0.8922   0.9845   1.0488   1.2115
     1.3186   1.4692   1.5410   1.6552   1.7013   1.7157   1.8688   1.9427
     2.0478   2.1310   2.1748   2.2193   2.3013   2.3513   2.4645   2.5538
     2.6268   2.7228   2.8691   2.9395   2.9722   3.1959   3.2065   3.3176
     3.4267   3.4801   3.5503   3.6083   3.6544   3.8069   4.0485   4.1043
     8.7948  10.4762  10.8508  11.0242  11.4491  11.7878  12.0236  12.2169
    12.3625  12.5114

     occupation numbers 
     1.0000   1.0000   1.0000   1.0000   1.0000   1.0000   1.0000   1.0000
     1.0000   1.0000   1.0000   1.0000   1.0000   1.0000   1.0000   1.0000
     1.0000   1.0000   1.0000   1.0000   1.0000   1.0000   1.0000   1.0000
     1.0000   1.0000   1.0000   1.0000   1.0000   1.0000   1.0000   1.0000
     1.0000   1.0000   1.0000   1.0000   1.0000   1.0000   1.0000   1.0000
     1.0000   1.0000   1.0000   1.0000   1.0000   1.0000   1.0000   1.0000
     1.0000   1.0000   1.0000   1.0000   1.0000   1.0000   1.0000   1.0000
     1.0000   1.0000   1.0000   1.0000   1.0000   1.0000   1.0000   1.0000
     1.0000   1.0000   1.0000   1.0000   1.0000   1.0000   1.0000   1.0000
     1.0000   1.0000   1.0000   1.0000   1.0000   1.0000   1.0000   1.0000
     1.0000   1.0000   1.0000   1.0000   1.0000   1.0000   1.0000   1.0000
     1.0000   1.0000   1.0000   1.0000   1.0000   1.0000   1.0000   1.0000
     1.0000   1.0000   1.0000   1.0000   1.0000   1.0000   1.0000   1.0000
     0.0000   0.0000   0.0000   0.0000   0.0000   0.0000   0.0000   0.0000
     0.0000   0.0000

          k = 0.0000 0.2391 0.7012 ( 38349 PWs)   bands (ev):

   -85.9028 -85.8509 -85.8458 -85.6093 -52.0027 -51.9839 -51.9675 -51.8713
   -51.8558 -51.8178 -51.7990 -51.7495 -51.7457 -51.7456 -51.5638 -51.3875
   -45.5729 -17.5834 -17.5489 -17.5223 -16.2800 -16.1983 -16.0510 -15.9895
   -14.2052 -14.1419 -14.0734 -13.9599 -13.9264 -13.8752 -13.8322 -13.7592
   -13.7387 -13.7018 -13.6674 -13.5854  -4.3825  -4.1278  -4.0116  -3.7997
    -2.2900  -2.1752  -2.0991  -2.0097  -1.8031  -1.7262  -1.6208  -1.4116
    -1.3338  -1.2583  -1.1252  -1.0188  -0.6209  -0.5221  -0.1653  -0.0728
    -0.0591  -0.0107   0.1523   0.2686   0.3076   0.3262   0.3873   0.5473
     0.5744   0.7123   0.7439   0.7965   0.8472   0.9405   0.9717   1.0621
     1.2290   1.3121   1.4507   1.6222   1.6999   1.8032   1.8384   1.9605
     2.0290   2.0898   2.1601   2.1965   2.2318   2.3015   2.3667   2.5153
     2.6277   2.7226   2.9573   3.0251   3.1054   3.2120   3.2353   3.3252
     3.4383   3.5235   3.5588   3.6239   3.7145   3.8081   3.9766   4.0303
     9.3169  10.7257  10.8359  11.1701  11.5754  11.7163  11.8588  12.0778
    12.2005  12.3266

     occupation numbers 
     1.0000   1.0000   1.0000   1.0000   1.0000   1.0000   1.0000   1.0000
     1.0000   1.0000   1.0000   1.0000   1.0000   1.0000   1.0000   1.0000
     1.0000   1.0000   1.0000   1.0000   1.0000   1.0000   1.0000   1.0000
     1.0000   1.0000   1.0000   1.0000   1.0000   1.0000   1.0000   1.0000
     1.0000   1.0000   1.0000   1.0000   1.0000   1.0000   1.0000   1.0000
     1.0000   1.0000   1.0000   1.0000   1.0000   1.0000   1.0000   1.0000
     1.0000   1.0000   1.0000   1.0000   1.0000   1.0000   1.0000   1.0000
     1.0000   1.0000   1.0000   1.0000   1.0000   1.0000   1.0000   1.0000
     1.0000   1.0000   1.0000   1.0000   1.0000   1.0000   1.0000   1.0000
     1.0000   1.0000   1.0000   1.0000   1.0000   1.0000   1.0000   1.0000
     1.0000   1.0000   1.0000   1.0000   1.0000   1.0000   1.0000   1.0000
     1.0000   1.0000   1.0000   1.0000   1.0000   1.0000   1.0000   1.0000
     1.0000   1.0000   1.0000   1.0000   1.0000   1.0000   1.0000   1.0000
     0.0000   0.0000   0.0000   0.0000   0.0000   0.0000   0.0000   0.0000
     0.0000   0.0000

          k = 0.0000 0.2391 0.9349 ( 38302 PWs)   bands (ev):

   -85.9028 -85.8509 -85.8458 -85.6093 -52.0027 -51.9839 -51.9675 -51.8713
   -51.8558 -51.8178 -51.7990 -51.7495 -51.7457 -51.7456 -51.5638 -51.3875
   -45.5729 -17.5852 -17.5525 -17.5213 -16.2435 -16.1933 -16.0383 -15.9859
   -14.2261 -14.1606 -14.0903 -13.9796 -13.9326 -13.8763 -13.8287 -13.7487
   -13.7420 -13.7036 -13.6754 -13.5940  -4.2886  -4.1661  -3.9837  -3.8612
    -2.2091  -2.1599  -2.0422  -2.0064  -1.7825  -1.6687  -1.6122  -1.5144
    -1.2926  -1.1767  -1.1418  -1.0332  -0.4860  -0.3755  -0.2389  -0.1868
     0.0273   0.0962   0.1784   0.2214   0.2517   0.3945   0.4394   0.4827
     0.5862   0.6196   0.6945   0.7570   0.8007   0.8316   0.9008   0.9732
     1.2595   1.3016   1.3785   1.5436   1.6999   1.7869   1.8698   1.9276
     2.0056   2.0531   2.1141   2.1641   2.2218   2.2915   2.3523   2.4945
     2.6288   2.7205   2.9799   3.1372   3.2060   3.2352   3.2689   3.3376
     3.4144   3.5094   3.5933   3.6678   3.7630   3.8106   3.8970   3.9629
     9.8871  10.4427  11.0743  11.3635  11.4629  11.6192  11.8771  12.0362
    12.1659  12.2181

     occupation numbers 
     1.0000   1.0000   1.0000   1.0000   1.0000   1.0000   1.0000   1.0000
     1.0000   1.0000   1.0000   1.0000   1.0000   1.0000   1.0000   1.0000
     1.0000   1.0000   1.0000   1.0000   1.0000   1.0000   1.0000   1.0000
     1.0000   1.0000   1.0000   1.0000   1.0000   1.0000   1.0000   1.0000
     1.0000   1.0000   1.0000   1.0000   1.0000   1.0000   1.0000   1.0000
     1.0000   1.0000   1.0000   1.0000   1.0000   1.0000   1.0000   1.0000
     1.0000   1.0000   1.0000   1.0000   1.0000   1.0000   1.0000   1.0000
     1.0000   1.0000   1.0000   1.0000   1.0000   1.0000   1.0000   1.0000
     1.0000   1.0000   1.0000   1.0000   1.0000   1.0000   1.0000   1.0000
     1.0000   1.0000   1.0000   1.0000   1.0000   1.0000   1.0000   1.0000
     1.0000   1.0000   1.0000   1.0000   1.0000   1.0000   1.0000   1.0000
     1.0000   1.0000   1.0000   1.0000   1.0000   1.0000   1.0000   1.0000
     1.0000   1.0000   1.0000   1.0000   1.0000   1.0000   1.0000   1.0000
     0.0000   0.0000   0.0000   0.0000   0.0000   0.0000   0.0000   0.0000
     0.0000   0.0000

          k = 0.0000 0.4781 0.0000 ( 38338 PWs)   bands (ev):

   -85.9028 -85.8509 -85.8458 -85.6093 -52.0027 -51.9839 -51.9675 -51.8713
   -51.8558 -51.8178 -51.7990 -51.7495 -51.7457 -51.7456 -51.5638 -51.3875
   -45.5729 -17.5801 -17.5340 -17.5246 -16.3380 -16.2356 -16.0898 -16.0398
   -14.1440 -14.0850 -14.0016 -13.9689 -13.9210 -13.8774 -13.8225 -13.7719
   -13.7156 -13.6617 -13.6437 -13.5676  -4.4890  -4.1888  -3.9862  -3.7277
[...]
     atom   13 type  3   force =     0.00309162   -0.00012567    0.02952469
     atom   14 type  3   force =     0.02848290    0.00087398   -0.01043543
     atom   15 type  3   force =    -0.02460124    0.00023977   -0.01516624
     atom   16 type  3   force =    -0.03139277   -0.00055754    0.00431405
     atom   17 type  3   force =     0.02556667    0.00004479    0.01128912
     atom   18 type  3   force =    -0.01065393   -0.02639150    0.01413391
     atom   19 type  3   force =     0.01114956    0.02683565    0.01478907
     atom   20 type  3   force =     0.01135654   -0.02349210   -0.01316404
     atom   21 type  3   force =    -0.01173750    0.02447042   -0.01425221
     atom   22 type  3   force =     0.01226815    0.02568624   -0.01384601
     atom   23 type  3   force =    -0.01279024   -0.02476952   -0.01098542
     atom   24 type  3   force =    -0.01058505    0.02616051    0.01468793
     atom   25 type  3   force =     0.01160195   -0.02392552    0.01649104
     The non-local contrib.  to forces
     atom    1 type  2   force =     0.06995145    0.03508111   -0.00812860
     atom    2 type  1   force =     0.07879827    0.03221695    0.12203451
     atom    3 type  1   force =     0.04145436   -0.00173799    0.09969415
     atom    4 type  1   force =    -0.18139205   -0.06693131   -0.08811098
     atom    5 type  1   force =    -0.02865609    0.01509836   -0.09511933
     atom    6 type  4   force =    -0.02826292    0.00052006   -0.03546024
     atom    7 type  4   force =     0.04334289   -0.00150760   -0.00941091
     atom    8 type  4   force =     0.00998383    0.00728342    0.03837419
     atom    9 type  4   force =    -0.00534873   -0.00033517    0.03884313
     atom   10 type  3   force =     0.32461379   -0.02064244   -1.50102119
     atom   11 type  3   force =    -0.11858647   -0.01728174   -1.42871860
     atom   12 type  3   force =    -0.40847568    0.01911702    1.50448722
     atom   13 type  3   force =     0.26347041   -0.01312476    1.50303707
     atom   14 type  3   force =     1.24669322   -0.01914364   -0.64006921
     atom   15 type  3   force =    -1.21296341    0.01937266   -0.77705797
     atom   16 type  3   force =    -1.22861088   -0.04521078    0.32504003
     atom   17 type  3   force =     1.19206225   -0.00904162    0.64201769
     atom   18 type  3   force =    -0.53908206   -1.11684765    0.76768222
     atom   19 type  3   force =     0.52161854    1.18533645    0.78936639
     atom   20 type  3   force =     0.52988470   -1.10116897   -0.67768731
     atom   21 type  3   force =    -0.53253766    1.07905672   -0.76738926
     atom   22 type  3   force =     0.59978332    1.12640559   -0.70880966
     atom   23 type  3   force =    -0.66371606   -1.05245318   -0.61574344
     atom   24 type  3   force =    -0.53275382    1.10402543    0.77838267
     atom   25 type  3   force =     0.56897578   -1.13748381    0.83724838
     The ionic contribution  to forces
     atom    1 type  2   force =    -2.47331316    0.30806549    1.17665350
     atom    2 type  1   force =    -0.17981553   -0.24058645   -0.38011795
     atom    3 type  1   force =    -8.39690744    0.65274942   -0.44503969
     atom    4 type  1   force =     3.01271193    0.81721341    0.11354105
     atom    5 type  1   force =     8.52632804   -1.01323464    0.72703992
     atom    6 type  4   force =    -3.48190728   -0.03378483    0.30294453
     atom    7 type  4   force =     0.71880192    0.77044696    0.54833032
     atom    8 type  4   force =     4.79894390   -0.02122791   -0.44402190
     atom    9 type  4   force =    -2.47591449   -0.89215398   -0.74312764
     atom   10 type  3   force =    -9.99866935    0.06942671    2.63330053
     atom   11 type  3   force =     4.02851084    1.34002314    1.25525468
     atom   12 type  3   force =    11.61705422   -0.18151787   -2.74635874
     atom   13 type  3   force =    -7.82887997   -1.07710251   -2.19753957
     atom   14 type  3   force =     0.39493495   -1.07277034    5.05236531
     atom   15 type  3   force =    -2.02928532   -0.11645108    6.56534256
     atom   16 type  3   force =    -1.57853797    1.78171174   -2.28426545
     atom   17 type  3   force =     3.43359209    0.11102646   -5.80519678
     atom   18 type  3   force =    -4.23703658    2.74606623   -2.85102434
     atom   19 type  3   force =     0.33405080   -4.04661506   -2.01096937
     atom   20 type  3   force =     5.06828671    3.74393227    2.18887418
     atom   21 type  3   force =    -2.02683729   -1.85171867    2.39604407
     atom   22 type  3   force =     5.15403292   -3.84703532    2.56777267
     atom   23 type  3   force =     0.52113652    1.18712031    0.18390245
     atom   24 type  3   force =    -4.00996542   -2.59592091   -2.91797129
     atom   25 type  3   force =     1.10868496    3.46233744   -2.88573309
     The local contribution  to forces
     atom    1 type  2   force =     2.39979022   -0.35326999   -1.16696164
     atom    2 type  1   force =     0.09612298    0.20771975    0.25404656
     atom    3 type  1   force =     8.35373375   -0.65063119    0.34340549
     atom    4 type  1   force =    -2.82451621   -0.74815228   -0.02080005
     atom    5 type  1   force =    -8.49561236    0.99830130   -0.63053604
     atom    6 type  4   force =     3.51059121    0.03343819   -0.26938634
     atom    7 type  4   force =    -0.75873840   -0.76822145   -0.53825101
     atom    8 type  4   force =    -4.81219038    0.01493368    0.40650524
     atom    9 type  4   force =     2.48181307    0.89230596    0.70511625
     atom   10 type  3   force =     9.68343060   -0.04880483   -1.17447298
     atom   11 type  3   force =    -3.91279567   -1.32279660    0.13288663
     atom   12 type  3   force =   -11.21977434    0.16355517    1.28471017
     atom   13 type  3   force =     7.57157879    1.08997627    0.73768005
     atom   14 type  3   force =    -1.60212164    1.09258607   -4.42910665
     atom   15 type  3   force =     3.20690205    0.09750281   -5.81106283
     atom   16 type  3   force =     2.76491071   -1.73743518    1.96689715
     atom   17 type  3   force =    -4.58945408   -0.10202384    5.18083543
     atom   18 type  3   force =     4.76058130   -1.66572637    2.10471244
     atom   19 type  3   force =    -0.83987100    2.89888527    1.24386021
     atom   20 type  3   force =    -5.58197856   -2.67619148   -1.53070967
     atom   21 type  3   force =     2.54282760    0.80689814   -1.65020688
     atom   22 type  3   force =    -5.73604111    2.75649321   -1.87946526
     atom   23 type  3   force =     0.12375764   -0.16900481    0.41503657
     atom   24 type  3   force =     4.52731712    1.52802994    2.16164081
     atom   25 type  3   force =    -1.66094349   -2.35898150    2.07292084
     The core correction contribution to forces
     atom    1 type  2   force =     0.00000000    0.00000000    0.00000000
     atom    2 type  1   force =    -0.00096162   -0.00025960   -0.00039314
     atom    3 type  1   force =     0.00000265    0.00006799    0.00031798
     atom    4 type  1   force =     0.00295729    0.00062405   -0.00027399
     atom    5 type  1   force =    -0.00001071   -0.00019129    0.00005499
     atom    6 type  4   force =     0.00204814   -0.00004913    0.00258155
     atom    7 type  4   force =    -0.00288339   -0.00005534    0.00063435
     atom    8 type  4   force =    -0.00094358   -0.00045288   -0.00269925
     atom    9 type  4   force =     0.00038904    0.00044762   -0.00253617
     atom   10 type  3   force =    -0.00363766    0.00019596    0.01366271
     atom   11 type  3   force =     0.00177136    0.00014605    0.01287373
     atom   12 type  3   force =     0.00441392   -0.00020318   -0.01365373
     atom   13 type  3   force =    -0.00307860    0.00012525   -0.01364808
     atom   14 type  3   force =    -0.01103030    0.00020181    0.00638027
     atom   15 type  3   force =     0.01074871   -0.00018483    0.00761766
     atom   16 type  3   force =     0.01083827    0.00037646   -0.00335291
     atom   17 type  3   force =    -0.01062959    0.00008370   -0.00636110
     atom   18 type  3   force =     0.00488466    0.01011377   -0.00723160
     atom   19 type  3   force =    -0.00465222   -0.01077337   -0.00746152
     atom   20 type  3   force =    -0.00483154    0.00993942    0.00636162
     atom   21 type  3   force =     0.00480949   -0.00976209    0.00730817
     atom   22 type  3   force =    -0.00550247   -0.01018088    0.00665929
     atom   23 type  3   force =     0.00603146    0.00956479    0.00582698
     atom   24 type  3   force =     0.00481837   -0.00997178   -0.00735943
     atom   25 type  3   force =    -0.00511874    0.01020468   -0.00793843
     The Hubbard contrib.    to forces
     atom    1 type  2   force =     0.00000000    0.00000000    0.00000000
     atom    2 type  1   force =     0.00000000    0.00000000    0.00000000
     atom    3 type  1   force =     0.00000000    0.00000000    0.00000000
     atom    4 type  1   force =     0.00000000    0.00000000    0.00000000
     atom    5 type  1   force =     0.00000000    0.00000000    0.00000000
     atom    6 type  4   force =     0.00000000    0.00000000    0.00000000
     atom    7 type  4   force =     0.00000000    0.00000000    0.00000000
     atom    8 type  4   force =     0.00000000    0.00000000    0.00000000
     atom    9 type  4   force =     0.00000000    0.00000000    0.00000000
     atom   10 type  3   force =     0.00000000    0.00000000    0.00000000
     atom   11 type  3   force =     0.00000000    0.00000000    0.00000000
     atom   12 type  3   force =     0.00000000    0.00000000    0.00000000
     atom   13 type  3   force =     0.00000000    0.00000000    0.00000000
     atom   14 type  3   force =     0.00000000    0.00000000    0.00000000
     atom   15 type  3   force =     0.00000000    0.00000000    0.00000000
     atom   16 type  3   force =     0.00000000    0.00000000    0.00000000
     atom   17 type  3   force =     0.00000000    0.00000000    0.00000000
     atom   18 type  3   force =     0.00000000    0.00000000    0.00000000
     atom   19 type  3   force =     0.00000000    0.00000000    0.00000000
     atom   20 type  3   force =     0.00000000    0.00000000    0.00000000
     atom   21 type  3   force =     0.00000000    0.00000000    0.00000000
     atom   22 type  3   force =     0.00000000    0.00000000    0.00000000
     atom   23 type  3   force =     0.00000000    0.00000000    0.00000000
     atom   24 type  3   force =     0.00000000    0.00000000    0.00000000
     atom   25 type  3   force =     0.00000000    0.00000000    0.00000000
     The SCF correction term to forces
     atom    1 type  2   force =     0.00000597    0.00000116   -0.00000058
     atom    2 type  1   force =     0.00000724    0.00000039   -0.00000013
     atom    3 type  1   force =     0.00000210   -0.00000016    0.00000085
     atom    4 type  1   force =    -0.00000472   -0.00000021   -0.00000061
     atom    5 type  1   force =    -0.00000647   -0.00000027   -0.00000070
     atom    6 type  4   force =    -0.00000216    0.00000003    0.00000076
     atom    7 type  4   force =     0.00000390   -0.00000008   -0.00000003
     atom    8 type  4   force =    -0.00000433   -0.00000000    0.00000058
     atom    9 type  4   force =     0.00000177   -0.00000028    0.00000017
     atom   10 type  3   force =    -0.00000303    0.00000007   -0.00000128
     atom   11 type  3   force =     0.00000406   -0.00000005    0.00000022
     atom   12 type  3   force =    -0.00000731    0.00000019   -0.00000300
     atom   13 type  3   force =     0.00000098   -0.00000006    0.00000105
     atom   14 type  3   force =     0.00000666   -0.00000004    0.00000067
     atom   15 type  3   force =    -0.00000328    0.00000007    0.00000016
     atom   16 type  3   force =     0.00000710    0.00000009    0.00000106
     atom   17 type  3   force =    -0.00000401   -0.00000004   -0.00000030
     atom   18 type  3   force =    -0.00000127    0.00000238    0.00000102
     atom   19 type  3   force =     0.00000343    0.00000224   -0.00000081
     atom   20 type  3   force =    -0.00000479   -0.00000348    0.00000297
     atom   21 type  3   force =     0.00000035   -0.00000381   -0.00000249
     atom   22 type  3   force =    -0.00000452    0.00000351    0.00000278
     atom   23 type  3   force =     0.00000018    0.00000324   -0.00000215
     atom   24 type  3   force =    -0.00000132   -0.00000231    0.00000099
     atom   25 type  3   force =     0.00000342   -0.00000248   -0.00000082

     Total force =     0.122620     Total SCF correction =     0.000024


     Computing stress (Cartesian axis) and pressure


     negative rho (up, down):  0.000E+00 9.498E-04
          total   stress  (Ry/bohr**3)                   (kbar)     P=      -90.78
  -0.00080583  -0.00000146  -0.00002239         -118.54       -0.22       -3.29
  -0.00000146  -0.00056882   0.00001738           -0.22      -83.68        2.56
  -0.00002239   0.00001738  -0.00047661           -3.29        2.56      -70.11

     kinetic stress (kbar)  24949.89      7.67     -7.36
                                7.67  25181.05      4.00
                               -7.36      4.00  24998.23

     local   stress (kbar)  -4752.42   1621.10   1005.85
                             1621.10 -13757.03   -612.95
                             1005.85   -612.95  -8406.98

     nonloc. stress (kbar)  -6336.90      1.33     -0.25
                                1.33  -6288.14     -0.74
                               -0.25     -0.74  -6294.70

     hartree stress (kbar)  12080.07   -659.47   -406.24
                             -659.47  17051.16    245.36
                             -406.24    245.36  14280.34

     exc-cor stress (kbar)  -2648.76     -0.91     -0.74
                               -0.91  -2655.65      0.37
                               -0.74      0.37  -2653.11

     corecor stress (kbar)  -2962.61      0.28      0.81
                                0.28  -2962.36     -0.03
                                0.81     -0.03  -2963.67

     ewald   stress (kbar) -20447.80   -970.20   -595.36
                             -970.20 -16652.70    366.54
                             -595.36    366.54 -19030.24

     hubbard stress (kbar)      0.00      0.00      0.00
                                0.00      0.00      0.00
                                0.00      0.00      0.00

     DFT-D   stress (kbar)      0.00      0.00      0.00
                                0.00      0.00      0.00
                                0.00      0.00      0.00

     XDM     stress (kbar)      0.00      0.00      0.00
                                0.00      0.00      0.00
                                0.00      0.00      0.00

     dft-nl  stress (kbar)      0.00      0.00      0.00
                                0.00      0.00      0.00
                                0.00      0.00      0.00

     TS-vdW  stress (kbar)      0.00      0.00      0.00
                                0.00      0.00      0.00
                                0.00      0.00      0.00



     init_run     :    112.37s CPU    117.40s WALL (       1 calls)
     electrons    :   9121.98s CPU   9555.96s WALL (       1 calls)
     forces       :     50.45s CPU     51.61s WALL (       1 calls)
     stress       :    630.93s CPU    633.56s WALL (       1 calls)

     Called by init_run:
     wfcinit      :    103.97s CPU    108.66s WALL (       1 calls)
     wfcinit:atom :      2.71s CPU      2.76s WALL (     316 calls)
     wfcinit:wfcr :     93.21s CPU     97.76s WALL (     316 calls)
     potinit      :      2.78s CPU      2.87s WALL (       1 calls)
     hinit0       :      2.67s CPU      2.72s WALL (       1 calls)

     Called by electrons:
     c_bands      :   7713.03s CPU   8046.55s WALL (      33 calls)
     sum_band     :   1298.21s CPU   1391.30s WALL (      33 calls)
     v_of_rho     :     24.71s CPU     25.65s WALL (      34 calls)
     v_h          :      1.23s CPU      1.30s WALL (      34 calls)
     v_xc         :     24.86s CPU     25.78s WALL (      36 calls)
     newd         :     63.76s CPU     70.01s WALL (      34 calls)
     PAW_pot      :     17.23s CPU     17.28s WALL (      34 calls)
     mix_rho      :      5.53s CPU      5.76s WALL (      33 calls)

     Called by c_bands:
     init_us_2    :    206.24s CPU    211.14s WALL (   21804 calls)
     cegterg      :   7366.00s CPU   7694.46s WALL (   10428 calls)

     Called by sum_band:
     sum_band:wei :      0.30s CPU      0.30s WALL (      33 calls)
     sum_band:loo :   1173.83s CPU   1254.02s WALL (      33 calls)
     sum_band:buf :     49.30s CPU     49.96s WALL (   10428 calls)
     sum_band:ini :    102.11s CPU    104.44s WALL (   10428 calls)
     sum_band:cal :    227.36s CPU    233.05s WALL (   10428 calls)
     sum_band:bec :      1.82s CPU      1.87s WALL (   10428 calls)
     addusdens    :    115.89s CPU    128.60s WALL (      33 calls)
     addusd:skk   :      0.65s CPU      0.66s WALL (      99 calls)
     addusd:dgemm :     18.53s CPU     28.52s WALL (     198 calls)
     addusd:qvan2 :     95.40s CPU     96.25s WALL (     198 calls)

     Called by *egterg:
     cdiaghg      :    308.50s CPU    314.63s WALL (   41323 calls)
     cegterg:over :    479.72s CPU    487.85s WALL (   30895 calls)
     cegterg:upda :    501.35s CPU    506.30s WALL (   30895 calls)
     cegterg:last :    815.93s CPU    822.64s WALL (   18237 calls)
     h_psi        :   4035.85s CPU   4329.70s WALL (   41639 calls)
     s_psi        :    877.15s CPU    884.32s WALL (   41639 calls)
     g_psi        :     42.16s CPU     43.08s WALL (   30895 calls)

     Called by h_psi:
     h_psi:calbec :    592.13s CPU    606.51s WALL (   41639 calls)
     vloc_psi     :   2443.49s CPU   2713.17s WALL (   41639 calls)
     add_vuspsi   :    897.63s CPU    905.87s WALL (   41639 calls)

     General routines
     calbec       :    853.18s CPU    874.11s WALL (   53647 calls)
     fft          :     25.81s CPU     27.22s WALL (     888 calls)
     ffts         :      0.24s CPU      0.27s WALL (     134 calls)
     fftw         :   2479.14s CPU   2746.79s WALL ( 6518900 calls)
     interpolate  :      1.92s CPU      2.03s WALL (      68 calls)

     Parallel routines
     fft_scatt_xy :    412.22s CPU    454.92s WALL ( 6519922 calls)
     fft_scatt_yz :    830.71s CPU    930.29s WALL ( 6519922 calls)

     PAW routines
     PAW_pot      :     17.23s CPU     17.28s WALL (      34 calls)

     PWSCF        :      2h45m CPU      2h52m WALL


   This run was terminated on:   9:50: 0  17Dec2022            

=------------------------------------------------------------------------------=
   JOB DONE.
=------------------------------------------------------------------------------=
Note: The following floating-point exceptions are signalling: IEEE_UNDERFLOW_FLAG IEEE_DENORMAL
Note: The following floating-point exceptions are signalling: IEEE_DENORMAL
Note: The following floating-point exceptions are signalling: IEEE_DENORMAL
Note: The following floating-point exceptions are signalling: IEEE_DENORMAL
Note: The following floating-point exceptions are signalling: IEEE_INVALID_FLAG IEEE_DENORMAL
Note: The following floating-point exceptions are signalling: IEEE_DENORMAL
Note: The following floating-point exceptions are signalling: IEEE_DENORMAL
Note: The following floating-point exceptions are signalling: IEEE_DENORMAL
Note: The following floating-point exceptions are signalling: IEEE_DENORMAL
Note: The following floating-point exceptions are signalling: IEEE_DENORMAL
Note: The following floating-point exceptions are signalling: IEEE_DENORMAL
Note: The following floating-point exceptions are signalling: IEEE_DENORMAL
Note: The following floating-point exceptions are signalling: IEEE_DENORMAL
