
     Program PWSCF v.6.7MaX starts on 16Dec2022 at 20:39:41 

     This program is part of the open-source Quantum ESPRESSO suite
     for quantum simulation of materials; please cite
         "P. Giannozzi et al., J. Phys.:Condens. Matter 21 395502 (2009);
         "P. Giannozzi et al., J. Phys.:Condens. Matter 29 465901 (2017);
          URL http://www.quantum-espresso.org", 
     in publications or presentations arising from this work. More details at
     http://www.quantum-espresso.org/quote

     Parallel version (MPI), running on    16 processors

     MPI processes distributed on     1 nodes
     R & G space division:  proc/nbgrp/npool/nimage =      16
     Reading input from scale_1da-01.in

     Current dimensions of program PWSCF are:
     Max number of different atomic species (ntypx) = 10
     Max number of k-points (npk) =  40000
     Max angular momentum in pseudopotentials (lmaxx) =  3
     Message from routine read_pp_mesh:
     mesh size missing, using the one in header
     file Fe.pbe-spn-kjpaw_psl.0.2.1.UPF: wavefunction(s)  3D renormalized
     file O.pbe-n-kjpaw_psl.0.1.UPF: wavefunction(s)  2P renormalized

     Subspace diagonalization in iterative solution of the eigenvalue problem:
     a serial algorithm will be used


     Parallelization info
     --------------------
     sticks:   dense  smooth     PW     G-vecs:    dense   smooth      PW
     Min        1200     445    119                78232    17636    2477
     Max        1201     446    120                78233    17637    2480
     Sum       19205    7123   1917              1251717   282189   39655



     bravais-lattice index     =            0
     lattice parameter (alat)  =      19.0096  a.u.
     unit-cell volume          =    2088.3459 (a.u.)^3
     number of atoms/cell      =           25
     number of atomic types    =            4
     number of electrons       =       189.00
     number of Kohn-Sham states=          114
     kinetic-energy cutoff     =     100.0000  Ry
     charge density cutoff     =    1080.0000  Ry
     scf convergence threshold =      2.0E-10
     mixing beta               =       0.4000
     number of iterations used =            8  plain     mixing
     Exchange-correlation= PBE
                           (   1   4   3   4   0   0   0)

     celldm(1)=  19.009555  celldm(2)=   0.000000  celldm(3)=   0.000000
     celldm(4)=   0.000000  celldm(5)=   0.000000  celldm(6)=   0.000000

     crystal axes: (cart. coord. in units of alat)
               a(1) = (   1.000000   0.000000   0.000000 )  
               a(2) = (   0.000000   0.618196   0.000000 )  
               a(3) = (   0.000000   0.000000   0.491768 )  

     reciprocal axes: (cart. coord. in units 2 pi/alat)
               b(1) = (  1.000000  0.000000  0.000000 )  
               b(2) = (  0.000000  1.617609  0.000000 )  
               b(3) = (  0.000000  0.000000  2.033480 )  


     PseudoPot. # 1 for Fe read from file:
     /opt/QEpot/SSSP_precision_pseudos/Fe.pbe-spn-kjpaw_psl.0.2.1.UPF
     MD5 check sum: e86618425769142926afa95317d90200
     Pseudo is Projector augmented-wave + core cor, Zval = 16.0
     Generated using "atomic" code by A. Dal Corso  v.5.0.99 svn rev. 10869
     Shape of augmentation charge: PSQ
     Using radial grid of 1191 points,  6 beta functions with: 
                l(1) =   0
                l(2) =   0
                l(3) =   1
                l(4) =   1
                l(5) =   2
                l(6) =   2
     Q(r) pseudized with 0 coefficients 


     PseudoPot. # 2 for Na read from file:
     /opt/QEpot/SSSP_precision_pseudos/Na_ONCV_PBE-1.0.oncvpsp.upf
     MD5 check sum: 24a298df0a6742ae313db96548fdb2a4
     Pseudo is Norm-conserving, Zval =  9.0
     Generated using ONCVPSP code by D. R. Hamann
     Using radial grid of 1992 points,  4 beta functions with: 
                l(1) =   0
                l(2) =   0
                l(3) =   1
                l(4) =   1

     PseudoPot. # 3 for O  read from file:
     /opt/QEpot/SSSP_precision_pseudos/O.pbe-n-kjpaw_psl.0.1.UPF
     MD5 check sum: 0234752ac141de4415c5fc33072bef88
     Pseudo is Projector augmented-wave + core cor, Zval =  6.0
     Generated using "atomic" code by A. Dal Corso  v.5.0.99 svn rev. 10869
     Shape of augmentation charge: BESSEL
     Using radial grid of 1095 points,  4 beta functions with: 
                l(1) =   0
                l(2) =   0
                l(3) =   1
                l(4) =   1
     Q(r) pseudized with 0 coefficients 


     PseudoPot. # 4 for P  read from file:
     /opt/QEpot/SSSP_precision_pseudos/P.pbe-n-rrkjus_psl.1.0.0.UPF
     MD5 check sum: 8b930f418f0a4573dca56cd030ffe088
     Pseudo is Ultrasoft + core correction, Zval =  5.0
     Generated using "atomic" code by A. Dal Corso  v.5.1
     Using radial grid of 1147 points,  6 beta functions with: 
                l(1) =   0
                l(2) =   0
                l(3) =   1
                l(4) =   1
                l(5) =   2
                l(6) =   2
     Q(r) pseudized with 0 coefficients 


     atomic species   valence    mass     pseudopotential
        Fe            16.00    55.84500     Fe( 1.00)
        Na             9.00    22.98977     Na( 1.00)
        O              6.00    15.99940     O ( 1.00)
        P              5.00    30.97376     P ( 1.00)

     Starting magnetic structure 
     atomic species   magnetization
        Fe           0.312
        Na           0.000
        O            0.000
        P            0.000

     No symmetry found


                                    s                        frac. trans.

      isym =  1     identity                                     

 cryst.   s( 1) = (     1          0          0      )
                  (     0          1          0      )
                  (     0          0          1      )

 cart.    s( 1) = (  1.0000000  0.0000000  0.0000000 )
                  (  0.0000000  1.0000000  0.0000000 )
                  (  0.0000000  0.0000000  1.0000000 )


   Cartesian axes

     site n.     atom                  positions (alat units)
         1           Na  tau(   1) = (   0.5426070   0.0889171   0.2293979  )
         2           Fe  tau(   2) = (   0.2774940   0.4648337   0.4879388  )
         3           Fe  tau(   3) = (   0.2102570   0.1565199   0.2412514  )
         4           Fe  tau(   4) = (   0.7280950   0.1611972   0.0019931  )
         5           Fe  tau(   5) = (   0.7825800   0.4625513   0.2517615  )
         6           P   tau(   6) = (   0.1059480   0.4652108   0.2183832  )
         7           P   tau(   7) = (   0.3878490   0.1587658   0.4639062  )
         8           P   tau(   8) = (   0.8915560   0.1550183   0.2739540  )
         9           P   tau(   9) = (   0.6054980   0.4640622   0.0294692  )
        10           O   tau(  10) = (   0.1317880   0.4663656   0.3693554  )
        11           O   tau(  11) = (   0.3634070   0.1557249   0.1233826  )
        12           O   tau(  12) = (   0.8709790   0.1556359   0.1223454  )
        13           O   tau(  13) = (   0.6302560   0.4673405   0.3699731  )
        14           O   tau(  14) = (   0.4595490   0.4672916   0.0596652  )
        15           O   tau(  15) = (   0.0359180   0.1541763   0.3079627  )
        16           O   tau(  16) = (   0.5363260   0.1578082   0.4407798  )
        17           O   tau(  17) = (   0.9593080   0.4652633   0.1918175  )
        18           O   tau(  18) = (   0.1755980   0.5852039   0.1468571  )
        19           O   tau(  19) = (   0.3240220   0.0378342   0.3890611  )
        20           O   tau(  20) = (   0.8190690   0.2757323   0.3425807  )
        21           O   tau(  21) = (   0.6753190   0.3431170   0.0998382  )
        22           O   tau(  22) = (   0.8159810   0.0368618   0.3421504  )
        23           O   tau(  23) = (   0.6759010   0.5843218   0.1014453  )
        24           O   tau(  24) = (   0.1746370   0.3439342   0.1481303  )
        25           O   tau(  25) = (   0.3201310   0.2790341   0.3937339  )

   Crystallographic axes

     site n.     atom                  positions (cryst. coord.)
         1           Na  tau(   1) = (  0.5426070  0.1438330  0.4664760  )
         2           Fe  tau(   2) = (  0.2774940  0.7519190  0.9922140  )
         3           Fe  tau(   3) = (  0.2102570  0.2531880  0.4905800  )
         4           Fe  tau(   4) = (  0.7280950  0.2607540  0.0040530  )
         5           Fe  tau(   5) = (  0.7825800  0.7482270  0.5119520  )
         6           P   tau(   6) = (  0.1059480  0.7525290  0.4440780  )
         7           P   tau(   7) = (  0.3878490  0.2568210  0.9433440  )
         8           P   tau(   8) = (  0.8915560  0.2507590  0.5570800  )
         9           P   tau(   9) = (  0.6054980  0.7506710  0.0599250  )
        10           O   tau(  10) = (  0.1317880  0.7543970  0.7510770  )
        11           O   tau(  11) = (  0.3634070  0.2519020  0.2508960  )
        12           O   tau(  12) = (  0.8709790  0.2517580  0.2487870  )
        13           O   tau(  13) = (  0.6302560  0.7559740  0.7523330  )
        14           O   tau(  14) = (  0.4595490  0.7558950  0.1213280  )
        15           O   tau(  15) = (  0.0359180  0.2493970  0.6262360  )
        16           O   tau(  16) = (  0.5363260  0.2552720  0.8963170  )
        17           O   tau(  17) = (  0.9593080  0.7526140  0.3900570  )
        18           O   tau(  18) = (  0.1755980  0.9466310  0.2986310  )
        19           O   tau(  19) = (  0.3240220  0.0612010  0.7911480  )
        20           O   tau(  20) = (  0.8190690  0.4460270  0.6966310  )
        21           O   tau(  21) = (  0.6753190  0.5550290  0.2030190  )
        22           O   tau(  22) = (  0.8159810  0.0596280  0.6957560  )
        23           O   tau(  23) = (  0.6759010  0.9452040  0.2062870  )
        24           O   tau(  24) = (  0.1746370  0.5563510  0.3012200  )
        25           O   tau(  25) = (  0.3201310  0.4513680  0.8006500  )

     number of k points=   158  Marzari-Vanderbilt smearing, width (Ry)=  0.0073
                       cart. coord. in units 2pi/alat
        k(    1) = (   0.0000000   0.0000000   0.0000000), wk =   0.0031746
        k(    2) = (   0.0000000   0.0000000   0.2259422), wk =   0.0063492
        k(    3) = (   0.0000000   0.0000000   0.4518845), wk =   0.0063492
        k(    4) = (   0.0000000   0.0000000   0.6778267), wk =   0.0063492
        k(    5) = (   0.0000000   0.0000000   0.9037690), wk =   0.0063492
        k(    6) = (   0.0000000   0.2310870   0.0000000), wk =   0.0063492
        k(    7) = (   0.0000000   0.2310870   0.2259422), wk =   0.0063492
        k(    8) = (   0.0000000   0.2310870   0.4518845), wk =   0.0063492
        k(    9) = (   0.0000000   0.2310870   0.6778267), wk =   0.0063492
        k(   10) = (   0.0000000   0.2310870   0.9037690), wk =   0.0063492
        k(   11) = (   0.0000000   0.4621739   0.0000000), wk =   0.0063492
        k(   12) = (   0.0000000   0.4621739   0.2259422), wk =   0.0063492
        k(   13) = (   0.0000000   0.4621739   0.4518845), wk =   0.0063492
        k(   14) = (   0.0000000   0.4621739   0.6778267), wk =   0.0063492
        k(   15) = (   0.0000000   0.4621739   0.9037690), wk =   0.0063492
        k(   16) = (   0.0000000   0.6932609   0.0000000), wk =   0.0063492
        k(   17) = (   0.0000000   0.6932609   0.2259422), wk =   0.0063492
        k(   18) = (   0.0000000   0.6932609   0.4518845), wk =   0.0063492
        k(   19) = (   0.0000000   0.6932609   0.6778267), wk =   0.0063492
        k(   20) = (   0.0000000   0.6932609   0.9037690), wk =   0.0063492
        k(   21) = (   0.2000000   0.0000000   0.0000000), wk =   0.0063492
        k(   22) = (   0.2000000   0.0000000   0.2259422), wk =   0.0063492
        k(   23) = (   0.2000000   0.0000000   0.4518845), wk =   0.0063492
        k(   24) = (   0.2000000   0.0000000   0.6778267), wk =   0.0063492
        k(   25) = (   0.2000000   0.0000000   0.9037690), wk =   0.0063492
        k(   26) = (   0.2000000   0.2310870   0.0000000), wk =   0.0063492
        k(   27) = (   0.2000000   0.2310870   0.2259422), wk =   0.0063492
        k(   28) = (   0.2000000   0.2310870   0.4518845), wk =   0.0063492
        k(   29) = (   0.2000000   0.2310870   0.6778267), wk =   0.0063492
        k(   30) = (   0.2000000   0.2310870   0.9037690), wk =   0.0063492
        k(   31) = (   0.2000000   0.4621739   0.0000000), wk =   0.0063492
        k(   32) = (   0.2000000   0.4621739   0.2259422), wk =   0.0063492
        k(   33) = (   0.2000000   0.4621739   0.4518845), wk =   0.0063492
        k(   34) = (   0.2000000   0.4621739   0.6778267), wk =   0.0063492
        k(   35) = (   0.2000000   0.4621739   0.9037690), wk =   0.0063492
        k(   36) = (   0.2000000   0.6932609   0.0000000), wk =   0.0063492
        k(   37) = (   0.2000000   0.6932609   0.2259422), wk =   0.0063492
        k(   38) = (   0.2000000   0.6932609   0.4518845), wk =   0.0063492
        k(   39) = (   0.2000000   0.6932609   0.6778267), wk =   0.0063492
        k(   40) = (   0.2000000   0.6932609   0.9037690), wk =   0.0063492
        k(   41) = (   0.4000000   0.0000000   0.0000000), wk =   0.0063492
        k(   42) = (   0.4000000   0.0000000   0.2259422), wk =   0.0063492
        k(   43) = (   0.4000000   0.0000000   0.4518845), wk =   0.0063492
        k(   44) = (   0.4000000   0.0000000   0.6778267), wk =   0.0063492
        k(   45) = (   0.4000000   0.0000000   0.9037690), wk =   0.0063492
        k(   46) = (   0.4000000   0.2310870   0.0000000), wk =   0.0063492
        k(   47) = (   0.4000000   0.2310870   0.2259422), wk =   0.0063492
        k(   48) = (   0.4000000   0.2310870   0.4518845), wk =   0.0063492
        k(   49) = (   0.4000000   0.2310870   0.6778267), wk =   0.0063492
        k(   50) = (   0.4000000   0.2310870   0.9037690), wk =   0.0063492
        k(   51) = (   0.4000000   0.4621739   0.0000000), wk =   0.0063492
        k(   52) = (   0.4000000   0.4621739   0.2259422), wk =   0.0063492
        k(   53) = (   0.4000000   0.4621739   0.4518845), wk =   0.0063492
        k(   54) = (   0.4000000   0.4621739   0.6778267), wk =   0.0063492
        k(   55) = (   0.4000000   0.4621739   0.9037690), wk =   0.0063492
        k(   56) = (   0.4000000   0.6932609   0.0000000), wk =   0.0063492
        k(   57) = (   0.4000000   0.6932609   0.2259422), wk =   0.0063492
        k(   58) = (   0.4000000   0.6932609   0.4518845), wk =   0.0063492
        k(   59) = (   0.4000000   0.6932609   0.6778267), wk =   0.0063492
        k(   60) = (   0.4000000   0.6932609   0.9037690), wk =   0.0063492
        k(   61) = (   0.0000000  -0.2310870   0.2259422), wk =   0.0063492
        k(   62) = (   0.0000000  -0.2310870   0.4518845), wk =   0.0063492
        k(   63) = (   0.0000000  -0.2310870   0.6778267), wk =   0.0063492
        k(   64) = (   0.0000000  -0.2310870   0.9037690), wk =   0.0063492
        k(   65) = (   0.0000000  -0.4621739   0.2259422), wk =   0.0063492
        k(   66) = (   0.0000000  -0.4621739   0.4518845), wk =   0.0063492
        k(   67) = (   0.0000000  -0.4621739   0.6778267), wk =   0.0063492
        k(   68) = (   0.0000000  -0.4621739   0.9037690), wk =   0.0063492
        k(   69) = (   0.0000000  -0.6932609   0.2259422), wk =   0.0063492
        k(   70) = (   0.0000000  -0.6932609   0.4518845), wk =   0.0063492
        k(   71) = (   0.0000000  -0.6932609   0.6778267), wk =   0.0063492
        k(   72) = (   0.0000000  -0.6932609   0.9037690), wk =   0.0063492
        k(   73) = (  -0.2000000   0.0000000   0.2259422), wk =   0.0063492
        k(   74) = (  -0.2000000   0.0000000   0.4518845), wk =   0.0063492
        k(   75) = (  -0.2000000   0.0000000   0.6778267), wk =   0.0063492
        k(   76) = (  -0.2000000   0.0000000   0.9037690), wk =   0.0063492
        k(   77) = (  -0.2000000   0.2310870   0.0000000), wk =   0.0063492
        k(   78) = (  -0.2000000  -0.2310870   0.2259422), wk =   0.0063492
        k(   79) = (  -0.2000000   0.2310870  -0.2259422), wk =   0.0063492
        k(   80) = (   0.2000000  -0.2310870  -0.2259422), wk =   0.0063492
        k(   81) = (  -0.2000000  -0.2310870   0.4518845), wk =   0.0063492
        k(   82) = (  -0.2000000   0.2310870  -0.4518845), wk =   0.0063492
        k(   83) = (   0.2000000  -0.2310870  -0.4518845), wk =   0.0063492
        k(   84) = (  -0.2000000  -0.2310870   0.6778267), wk =   0.0063492
        k(   85) = (  -0.2000000   0.2310870  -0.6778267), wk =   0.0063492
        k(   86) = (   0.2000000  -0.2310870  -0.6778267), wk =   0.0063492
        k(   87) = (  -0.2000000  -0.2310870   0.9037690), wk =   0.0063492
        k(   88) = (  -0.2000000   0.2310870  -0.9037690), wk =   0.0063492
        k(   89) = (   0.2000000  -0.2310870  -0.9037690), wk =   0.0063492
        k(   90) = (  -0.2000000   0.4621739   0.0000000), wk =   0.0063492
        k(   91) = (  -0.2000000  -0.4621739   0.2259422), wk =   0.0063492
        k(   92) = (  -0.2000000   0.4621739  -0.2259422), wk =   0.0063492
        k(   93) = (   0.2000000  -0.4621739  -0.2259422), wk =   0.0063492
        k(   94) = (  -0.2000000  -0.4621739   0.4518845), wk =   0.0063492
        k(   95) = (  -0.2000000   0.4621739  -0.4518845), wk =   0.0063492
        k(   96) = (   0.2000000  -0.4621739  -0.4518845), wk =   0.0063492
        k(   97) = (  -0.2000000  -0.4621739   0.6778267), wk =   0.0063492
        k(   98) = (  -0.2000000   0.4621739  -0.6778267), wk =   0.0063492
        k(   99) = (   0.2000000  -0.4621739  -0.6778267), wk =   0.0063492
        k(  100) = (  -0.2000000  -0.4621739   0.9037690), wk =   0.0063492
        k(  101) = (  -0.2000000   0.4621739  -0.9037690), wk =   0.0063492
        k(  102) = (   0.2000000  -0.4621739  -0.9037690), wk =   0.0063492
        k(  103) = (  -0.2000000   0.6932609   0.0000000), wk =   0.0063492
        k(  104) = (  -0.2000000  -0.6932609   0.2259422), wk =   0.0063492
        k(  105) = (  -0.2000000   0.6932609  -0.2259422), wk =   0.0063492
        k(  106) = (   0.2000000  -0.6932609  -0.2259422), wk =   0.0063492
        k(  107) = (  -0.2000000  -0.6932609   0.4518845), wk =   0.0063492
        k(  108) = (  -0.2000000   0.6932609  -0.4518845), wk =   0.0063492
        k(  109) = (   0.2000000  -0.6932609  -0.4518845), wk =   0.0063492
        k(  110) = (  -0.2000000  -0.6932609   0.6778267), wk =   0.0063492
        k(  111) = (  -0.2000000   0.6932609  -0.6778267), wk =   0.0063492
        k(  112) = (   0.2000000  -0.6932609  -0.6778267), wk =   0.0063492
        k(  113) = (  -0.2000000  -0.6932609   0.9037690), wk =   0.0063492
        k(  114) = (  -0.2000000   0.6932609  -0.9037690), wk =   0.0063492
        k(  115) = (   0.2000000  -0.6932609  -0.9037690), wk =   0.0063492
        k(  116) = (  -0.4000000   0.0000000   0.2259422), wk =   0.0063492
        k(  117) = (  -0.4000000   0.0000000   0.4518845), wk =   0.0063492
        k(  118) = (  -0.4000000   0.0000000   0.6778267), wk =   0.0063492
        k(  119) = (  -0.4000000   0.0000000   0.9037690), wk =   0.0063492
        k(  120) = (  -0.4000000   0.2310870   0.0000000), wk =   0.0063492
        k(  121) = (  -0.4000000  -0.2310870   0.2259422), wk =   0.0063492
        k(  122) = (  -0.4000000   0.2310870  -0.2259422), wk =   0.0063492
        k(  123) = (   0.4000000  -0.2310870  -0.2259422), wk =   0.0063492
        k(  124) = (  -0.4000000  -0.2310870   0.4518845), wk =   0.0063492
        k(  125) = (  -0.4000000   0.2310870  -0.4518845), wk =   0.0063492
        k(  126) = (   0.4000000  -0.2310870  -0.4518845), wk =   0.0063492
        k(  127) = (  -0.4000000  -0.2310870   0.6778267), wk =   0.0063492
        k(  128) = (  -0.4000000   0.2310870  -0.6778267), wk =   0.0063492
        k(  129) = (   0.4000000  -0.2310870  -0.6778267), wk =   0.0063492
        k(  130) = (  -0.4000000  -0.2310870   0.9037690), wk =   0.0063492
        k(  131) = (  -0.4000000   0.2310870  -0.9037690), wk =   0.0063492
        k(  132) = (   0.4000000  -0.2310870  -0.9037690), wk =   0.0063492
        k(  133) = (  -0.4000000   0.4621739   0.0000000), wk =   0.0063492
        k(  134) = (  -0.4000000  -0.4621739   0.2259422), wk =   0.0063492
        k(  135) = (  -0.4000000   0.4621739  -0.2259422), wk =   0.0063492
        k(  136) = (   0.4000000  -0.4621739  -0.2259422), wk =   0.0063492
        k(  137) = (  -0.4000000  -0.4621739   0.4518845), wk =   0.0063492
        k(  138) = (  -0.4000000   0.4621739  -0.4518845), wk =   0.0063492
        k(  139) = (   0.4000000  -0.4621739  -0.4518845), wk =   0.0063492
        k(  140) = (  -0.4000000  -0.4621739   0.6778267), wk =   0.0063492
        k(  141) = (  -0.4000000   0.4621739  -0.6778267), wk =   0.0063492
        k(  142) = (   0.4000000  -0.4621739  -0.6778267), wk =   0.0063492
        k(  143) = (  -0.4000000  -0.4621739   0.9037690), wk =   0.0063492
        k(  144) = (  -0.4000000   0.4621739  -0.9037690), wk =   0.0063492
        k(  145) = (   0.4000000  -0.4621739  -0.9037690), wk =   0.0063492
        k(  146) = (  -0.4000000   0.6932609   0.0000000), wk =   0.0063492
        k(  147) = (  -0.4000000  -0.6932609   0.2259422), wk =   0.0063492
        k(  148) = (  -0.4000000   0.6932609  -0.2259422), wk =   0.0063492
        k(  149) = (   0.4000000  -0.6932609  -0.2259422), wk =   0.0063492
        k(  150) = (  -0.4000000  -0.6932609   0.4518845), wk =   0.0063492
        k(  151) = (  -0.4000000   0.6932609  -0.4518845), wk =   0.0063492
        k(  152) = (   0.4000000  -0.6932609  -0.4518845), wk =   0.0063492
        k(  153) = (  -0.4000000  -0.6932609   0.6778267), wk =   0.0063492
        k(  154) = (  -0.4000000   0.6932609  -0.6778267), wk =   0.0063492
        k(  155) = (   0.4000000  -0.6932609  -0.6778267), wk =   0.0063492
        k(  156) = (  -0.4000000  -0.6932609   0.9037690), wk =   0.0063492
        k(  157) = (  -0.4000000   0.6932609  -0.9037690), wk =   0.0063492
        k(  158) = (   0.4000000  -0.6932609  -0.9037690), wk =   0.0063492

                       cryst. coord.
        k(    1) = (   0.0000000   0.0000000   0.0000000), wk =   0.0031746
        k(    2) = (   0.0000000   0.0000000   0.1111111), wk =   0.0063492
        k(    3) = (   0.0000000   0.0000000   0.2222222), wk =   0.0063492
        k(    4) = (   0.0000000   0.0000000   0.3333333), wk =   0.0063492
        k(    5) = (   0.0000000   0.0000000   0.4444444), wk =   0.0063492
        k(    6) = (   0.0000000   0.1428571   0.0000000), wk =   0.0063492
        k(    7) = (   0.0000000   0.1428571   0.1111111), wk =   0.0063492
        k(    8) = (   0.0000000   0.1428571   0.2222222), wk =   0.0063492
        k(    9) = (   0.0000000   0.1428571   0.3333333), wk =   0.0063492
        k(   10) = (   0.0000000   0.1428571   0.4444444), wk =   0.0063492
        k(   11) = (   0.0000000   0.2857143   0.0000000), wk =   0.0063492
        k(   12) = (   0.0000000   0.2857143   0.1111111), wk =   0.0063492
        k(   13) = (   0.0000000   0.2857143   0.2222222), wk =   0.0063492
        k(   14) = (   0.0000000   0.2857143   0.3333333), wk =   0.0063492
        k(   15) = (   0.0000000   0.2857143   0.4444444), wk =   0.0063492
        k(   16) = (   0.0000000   0.4285714   0.0000000), wk =   0.0063492
        k(   17) = (   0.0000000   0.4285714   0.1111111), wk =   0.0063492
        k(   18) = (   0.0000000   0.4285714   0.2222222), wk =   0.0063492
        k(   19) = (   0.0000000   0.4285714   0.3333333), wk =   0.0063492
        k(   20) = (   0.0000000   0.4285714   0.4444444), wk =   0.0063492
        k(   21) = (   0.2000000   0.0000000   0.0000000), wk =   0.0063492
        k(   22) = (   0.2000000   0.0000000   0.1111111), wk =   0.0063492
        k(   23) = (   0.2000000   0.0000000   0.2222222), wk =   0.0063492
        k(   24) = (   0.2000000   0.0000000   0.3333333), wk =   0.0063492
        k(   25) = (   0.2000000   0.0000000   0.4444444), wk =   0.0063492
        k(   26) = (   0.2000000   0.1428571   0.0000000), wk =   0.0063492
        k(   27) = (   0.2000000   0.1428571   0.1111111), wk =   0.0063492
        k(   28) = (   0.2000000   0.1428571   0.2222222), wk =   0.0063492
        k(   29) = (   0.2000000   0.1428571   0.3333333), wk =   0.0063492
        k(   30) = (   0.2000000   0.1428571   0.4444444), wk =   0.0063492
        k(   31) = (   0.2000000   0.2857143   0.0000000), wk =   0.0063492
        k(   32) = (   0.2000000   0.2857143   0.1111111), wk =   0.0063492
        k(   33) = (   0.2000000   0.2857143   0.2222222), wk =   0.0063492
        k(   34) = (   0.2000000   0.2857143   0.3333333), wk =   0.0063492
        k(   35) = (   0.2000000   0.2857143   0.4444444), wk =   0.0063492
        k(   36) = (   0.2000000   0.4285714   0.0000000), wk =   0.0063492
        k(   37) = (   0.2000000   0.4285714   0.1111111), wk =   0.0063492
        k(   38) = (   0.2000000   0.4285714   0.2222222), wk =   0.0063492
        k(   39) = (   0.2000000   0.4285714   0.3333333), wk =   0.0063492
        k(   40) = (   0.2000000   0.4285714   0.4444444), wk =   0.0063492
        k(   41) = (   0.4000000   0.0000000   0.0000000), wk =   0.0063492
        k(   42) = (   0.4000000   0.0000000   0.1111111), wk =   0.0063492
        k(   43) = (   0.4000000   0.0000000   0.2222222), wk =   0.0063492
        k(   44) = (   0.4000000   0.0000000   0.3333333), wk =   0.0063492
        k(   45) = (   0.4000000   0.0000000   0.4444444), wk =   0.0063492
        k(   46) = (   0.4000000   0.1428571   0.0000000), wk =   0.0063492
        k(   47) = (   0.4000000   0.1428571   0.1111111), wk =   0.0063492
        k(   48) = (   0.4000000   0.1428571   0.2222222), wk =   0.0063492
        k(   49) = (   0.4000000   0.1428571   0.3333333), wk =   0.0063492
        k(   50) = (   0.4000000   0.1428571   0.4444444), wk =   0.0063492
        k(   51) = (   0.4000000   0.2857143   0.0000000), wk =   0.0063492
        k(   52) = (   0.4000000   0.2857143   0.1111111), wk =   0.0063492
        k(   53) = (   0.4000000   0.2857143   0.2222222), wk =   0.0063492
        k(   54) = (   0.4000000   0.2857143   0.3333333), wk =   0.0063492
        k(   55) = (   0.4000000   0.2857143   0.4444444), wk =   0.0063492
        k(   56) = (   0.4000000   0.4285714   0.0000000), wk =   0.0063492
        k(   57) = (   0.4000000   0.4285714   0.1111111), wk =   0.0063492
        k(   58) = (   0.4000000   0.4285714   0.2222222), wk =   0.0063492
        k(   59) = (   0.4000000   0.4285714   0.3333333), wk =   0.0063492
        k(   60) = (   0.4000000   0.4285714   0.4444444), wk =   0.0063492
        k(   61) = (   0.0000000  -0.1428571   0.1111111), wk =   0.0063492
        k(   62) = (   0.0000000  -0.1428571   0.2222222), wk =   0.0063492
        k(   63) = (   0.0000000  -0.1428571   0.3333333), wk =   0.0063492
        k(   64) = (   0.0000000  -0.1428571   0.4444444), wk =   0.0063492
        k(   65) = (   0.0000000  -0.2857143   0.1111111), wk =   0.0063492
        k(   66) = (   0.0000000  -0.2857143   0.2222222), wk =   0.0063492
        k(   67) = (   0.0000000  -0.2857143   0.3333333), wk =   0.0063492
        k(   68) = (   0.0000000  -0.2857143   0.4444444), wk =   0.0063492
        k(   69) = (   0.0000000  -0.4285714   0.1111111), wk =   0.0063492
        k(   70) = (   0.0000000  -0.4285714   0.2222222), wk =   0.0063492
        k(   71) = (   0.0000000  -0.4285714   0.3333333), wk =   0.0063492
        k(   72) = (   0.0000000  -0.4285714   0.4444444), wk =   0.0063492
        k(   73) = (  -0.2000000   0.0000000   0.1111111), wk =   0.0063492
        k(   74) = (  -0.2000000   0.0000000   0.2222222), wk =   0.0063492
        k(   75) = (  -0.2000000   0.0000000   0.3333333), wk =   0.0063492
        k(   76) = (  -0.2000000   0.0000000   0.4444444), wk =   0.0063492
        k(   77) = (  -0.2000000   0.1428571   0.0000000), wk =   0.0063492
        k(   78) = (  -0.2000000  -0.1428571   0.1111111), wk =   0.0063492
        k(   79) = (  -0.2000000   0.1428571  -0.1111111), wk =   0.0063492
        k(   80) = (   0.2000000  -0.1428571  -0.1111111), wk =   0.0063492
        k(   81) = (  -0.2000000  -0.1428571   0.2222222), wk =   0.0063492
        k(   82) = (  -0.2000000   0.1428571  -0.2222222), wk =   0.0063492
        k(   83) = (   0.2000000  -0.1428571  -0.2222222), wk =   0.0063492
        k(   84) = (  -0.2000000  -0.1428571   0.3333333), wk =   0.0063492
        k(   85) = (  -0.2000000   0.1428571  -0.3333333), wk =   0.0063492
        k(   86) = (   0.2000000  -0.1428571  -0.3333333), wk =   0.0063492
        k(   87) = (  -0.2000000  -0.1428571   0.4444444), wk =   0.0063492
        k(   88) = (  -0.2000000   0.1428571  -0.4444444), wk =   0.0063492
        k(   89) = (   0.2000000  -0.1428571  -0.4444444), wk =   0.0063492
        k(   90) = (  -0.2000000   0.2857143   0.0000000), wk =   0.0063492
        k(   91) = (  -0.2000000  -0.2857143   0.1111111), wk =   0.0063492
        k(   92) = (  -0.2000000   0.2857143  -0.1111111), wk =   0.0063492
        k(   93) = (   0.2000000  -0.2857143  -0.1111111), wk =   0.0063492
        k(   94) = (  -0.2000000  -0.2857143   0.2222222), wk =   0.0063492
        k(   95) = (  -0.2000000   0.2857143  -0.2222222), wk =   0.0063492
        k(   96) = (   0.2000000  -0.2857143  -0.2222222), wk =   0.0063492
        k(   97) = (  -0.2000000  -0.2857143   0.3333333), wk =   0.0063492
        k(   98) = (  -0.2000000   0.2857143  -0.3333333), wk =   0.0063492
        k(   99) = (   0.2000000  -0.2857143  -0.3333333), wk =   0.0063492
        k(  100) = (  -0.2000000  -0.2857143   0.4444444), wk =   0.0063492
        k(  101) = (  -0.2000000   0.2857143  -0.4444444), wk =   0.0063492
        k(  102) = (   0.2000000  -0.2857143  -0.4444444), wk =   0.0063492
        k(  103) = (  -0.2000000   0.4285714   0.0000000), wk =   0.0063492
        k(  104) = (  -0.2000000  -0.4285714   0.1111111), wk =   0.0063492
        k(  105) = (  -0.2000000   0.4285714  -0.1111111), wk =   0.0063492
        k(  106) = (   0.2000000  -0.4285714  -0.1111111), wk =   0.0063492
        k(  107) = (  -0.2000000  -0.4285714   0.2222222), wk =   0.0063492
        k(  108) = (  -0.2000000   0.4285714  -0.2222222), wk =   0.0063492
        k(  109) = (   0.2000000  -0.4285714  -0.2222222), wk =   0.0063492
        k(  110) = (  -0.2000000  -0.4285714   0.3333333), wk =   0.0063492
        k(  111) = (  -0.2000000   0.4285714  -0.3333333), wk =   0.0063492
        k(  112) = (   0.2000000  -0.4285714  -0.3333333), wk =   0.0063492
        k(  113) = (  -0.2000000  -0.4285714   0.4444444), wk =   0.0063492
        k(  114) = (  -0.2000000   0.4285714  -0.4444444), wk =   0.0063492
        k(  115) = (   0.2000000  -0.4285714  -0.4444444), wk =   0.0063492
        k(  116) = (  -0.4000000   0.0000000   0.1111111), wk =   0.0063492
        k(  117) = (  -0.4000000   0.0000000   0.2222222), wk =   0.0063492
        k(  118) = (  -0.4000000   0.0000000   0.3333333), wk =   0.0063492
        k(  119) = (  -0.4000000   0.0000000   0.4444444), wk =   0.0063492
        k(  120) = (  -0.4000000   0.1428571   0.0000000), wk =   0.0063492
        k(  121) = (  -0.4000000  -0.1428571   0.1111111), wk =   0.0063492
        k(  122) = (  -0.4000000   0.1428571  -0.1111111), wk =   0.0063492
        k(  123) = (   0.4000000  -0.1428571  -0.1111111), wk =   0.0063492
        k(  124) = (  -0.4000000  -0.1428571   0.2222222), wk =   0.0063492
        k(  125) = (  -0.4000000   0.1428571  -0.2222222), wk =   0.0063492
        k(  126) = (   0.4000000  -0.1428571  -0.2222222), wk =   0.0063492
        k(  127) = (  -0.4000000  -0.1428571   0.3333333), wk =   0.0063492
        k(  128) = (  -0.4000000   0.1428571  -0.3333333), wk =   0.0063492
        k(  129) = (   0.4000000  -0.1428571  -0.3333333), wk =   0.0063492
        k(  130) = (  -0.4000000  -0.1428571   0.4444444), wk =   0.0063492
        k(  131) = (  -0.4000000   0.1428571  -0.4444444), wk =   0.0063492
        k(  132) = (   0.4000000  -0.1428571  -0.4444444), wk =   0.0063492
        k(  133) = (  -0.4000000   0.2857143   0.0000000), wk =   0.0063492
        k(  134) = (  -0.4000000  -0.2857143   0.1111111), wk =   0.0063492
        k(  135) = (  -0.4000000   0.2857143  -0.1111111), wk =   0.0063492
        k(  136) = (   0.4000000  -0.2857143  -0.1111111), wk =   0.0063492
        k(  137) = (  -0.4000000  -0.2857143   0.2222222), wk =   0.0063492
        k(  138) = (  -0.4000000   0.2857143  -0.2222222), wk =   0.0063492
        k(  139) = (   0.4000000  -0.2857143  -0.2222222), wk =   0.0063492
        k(  140) = (  -0.4000000  -0.2857143   0.3333333), wk =   0.0063492
        k(  141) = (  -0.4000000   0.2857143  -0.3333333), wk =   0.0063492
        k(  142) = (   0.4000000  -0.2857143  -0.3333333), wk =   0.0063492
        k(  143) = (  -0.4000000  -0.2857143   0.4444444), wk =   0.0063492
        k(  144) = (  -0.4000000   0.2857143  -0.4444444), wk =   0.0063492
        k(  145) = (   0.4000000  -0.2857143  -0.4444444), wk =   0.0063492
        k(  146) = (  -0.4000000   0.4285714   0.0000000), wk =   0.0063492
        k(  147) = (  -0.4000000  -0.4285714   0.1111111), wk =   0.0063492
        k(  148) = (  -0.4000000   0.4285714  -0.1111111), wk =   0.0063492
        k(  149) = (   0.4000000  -0.4285714  -0.1111111), wk =   0.0063492
        k(  150) = (  -0.4000000  -0.4285714   0.2222222), wk =   0.0063492
        k(  151) = (  -0.4000000   0.4285714  -0.2222222), wk =   0.0063492
        k(  152) = (   0.4000000  -0.4285714  -0.2222222), wk =   0.0063492
        k(  153) = (  -0.4000000  -0.4285714   0.3333333), wk =   0.0063492
        k(  154) = (  -0.4000000   0.4285714  -0.3333333), wk =   0.0063492
        k(  155) = (   0.4000000  -0.4285714  -0.3333333), wk =   0.0063492
        k(  156) = (  -0.4000000  -0.4285714   0.4444444), wk =   0.0063492
        k(  157) = (  -0.4000000   0.4285714  -0.4444444), wk =   0.0063492
        k(  158) = (   0.4000000  -0.4285714  -0.4444444), wk =   0.0063492

     Dense  grid:  1251717 G-vectors     FFT dimensions: ( 200, 125, 100)

     Smooth grid:   282189 G-vectors     FFT dimensions: ( 125,  75,  60)

     Dynamical RAM for                 wfc:       3.83 MB

     Dynamical RAM for     wfc (w. buffer):    1215.33 MB

     Dynamical RAM for           str. fact:       4.77 MB

     Dynamical RAM for           local pot:       0.00 MB

     Dynamical RAM for          nlocal pot:       9.42 MB

     Dynamical RAM for                qrad:      10.54 MB

     Dynamical RAM for          rho,v,vnew:      15.17 MB

     Dynamical RAM for               rhoin:       5.06 MB

     Dynamical RAM for            rho*nmix:      38.20 MB

     Dynamical RAM for           G-vectors:       4.61 MB

     Dynamical RAM for          h,s,v(r/c):       2.38 MB

     Dynamical RAM for          <psi|beta>:       0.49 MB

     Dynamical RAM for                 psi:       7.67 MB

     Dynamical RAM for                hpsi:       7.67 MB

     Dynamical RAM for                spsi:       7.67 MB

     Dynamical RAM for      wfcinit/wfcrot:       9.65 MB

     Dynamical RAM for           addusdens:     242.33 MB

     Dynamical RAM for          addusforce:     278.27 MB

     Dynamical RAM for         addusstress:     241.73 MB

     Estimated static dynamical RAM per process >       1.29 GB

     Estimated max dynamical RAM per process >       1.56 GB

     Estimated total dynamical RAM >      24.93 GB

     Check: negative core charge=   -0.000003
     Generating pointlists ...
     new r_m :   0.0770 (alat units)  1.4635 (a.u.) for type    1
     new r_m :   0.0902 (alat units)  1.7147 (a.u.) for type    2
     new r_m :   0.0612 (alat units)  1.1630 (a.u.) for type    3
     new r_m :   0.0612 (alat units)  1.1630 (a.u.) for type    4

     Initial potential from superposition of free atoms

     starting charge  188.99132, renormalised to  189.00000
     Starting wfcs are  137 randomized atomic wfcs
     Checking if some PAW data can be deallocated... 
       PAW data deallocated on   13 nodes for type:  1
       PAW data deallocated on    4 nodes for type:  3

     total cpu time spent up to now is      109.6 secs

     Self-consistent Calculation

     iteration #  1     ecut=   100.00 Ry     beta= 0.40
     Davidson diagonalization with overlap
     ethr =  1.00E-02,  avg # of iterations =  3.0

     negative rho (up, down):  0.000E+00 7.638E-05

     total cpu time spent up to now is      428.6 secs

     total energy              =   -2123.92839645 Ry
     estimated scf accuracy    <       6.93023334 Ry

     total magnetization       =    19.00 Bohr mag/cell
     absolute magnetization    =    19.00 Bohr mag/cell

     iteration #  2     ecut=   100.00 Ry     beta= 0.40
     Davidson diagonalization with overlap
     ethr =  3.67E-03,  avg # of iterations =  2.0

     negative rho (up, down):  0.000E+00 1.550E-05

     total cpu time spent up to now is      722.1 secs

     total energy              =   -2120.81421281 Ry
     estimated scf accuracy    <      44.09456607 Ry

     total magnetization       =     7.37 Bohr mag/cell
     absolute magnetization    =     8.87 Bohr mag/cell

     iteration #  3     ecut=   100.00 Ry     beta= 0.40
     Davidson diagonalization with overlap
     ethr =  3.67E-03,  avg # of iterations =  3.0

     negative rho (up, down):  0.000E+00 1.516E-05

     total cpu time spent up to now is      991.8 secs

     total energy              =   -2123.50456251 Ry
     estimated scf accuracy    <      59.57050735 Ry

     total magnetization       =     3.19 Bohr mag/cell
     absolute magnetization    =     7.40 Bohr mag/cell

     iteration #  4     ecut=   100.00 Ry     beta= 0.40
     Davidson diagonalization with overlap
     ethr =  3.67E-03,  avg # of iterations =  1.5

     negative rho (up, down):  0.000E+00 1.787E-05

     total cpu time spent up to now is     1229.1 secs

     total energy              =   -2124.54605805 Ry
     estimated scf accuracy    <      28.42553621 Ry

     total magnetization       =     9.00 Bohr mag/cell
     absolute magnetization    =     9.39 Bohr mag/cell

     iteration #  5     ecut=   100.00 Ry     beta= 0.40
     Davidson diagonalization with overlap
     ethr =  3.67E-03,  avg # of iterations =  1.9

     negative rho (up, down):  0.000E+00 8.161E-05

     total cpu time spent up to now is     1480.1 secs

     total energy              =   -2125.92781584 Ry
     estimated scf accuracy    <       2.73512890 Ry

     total magnetization       =    18.06 Bohr mag/cell
     absolute magnetization    =    18.07 Bohr mag/cell

     iteration #  6     ecut=   100.00 Ry     beta= 0.40
     Davidson diagonalization with overlap
     ethr =  1.45E-03,  avg # of iterations =  1.7

     negative rho (up, down):  0.000E+00 1.738E-04

     total cpu time spent up to now is     1722.4 secs

     total energy              =   -2126.08230587 Ry
     estimated scf accuracy    <       0.62359481 Ry

     total magnetization       =    19.01 Bohr mag/cell
     absolute magnetization    =    19.01 Bohr mag/cell

     iteration #  7     ecut=   100.00 Ry     beta= 0.40
     Davidson diagonalization with overlap
     ethr =  3.30E-04,  avg # of iterations =  2.2

     negative rho (up, down):  0.000E+00 2.980E-04

     total cpu time spent up to now is     1969.9 secs

     total energy              =   -2126.09264909 Ry
     estimated scf accuracy    <       0.24957982 Ry

     total magnetization       =    19.00 Bohr mag/cell
     absolute magnetization    =    19.00 Bohr mag/cell

     iteration #  8     ecut=   100.00 Ry     beta= 0.40
     Davidson diagonalization with overlap
     c_bands:  1 eigenvalues not converged
     c_bands:  1 eigenvalues not converged
     ethr =  1.32E-04,  avg # of iterations = 10.6

     negative rho (up, down):  0.000E+00 4.576E-04

     total cpu time spent up to now is     2322.3 secs

     total energy              =   -2126.09315036 Ry
     estimated scf accuracy    <       0.19876199 Ry

     total magnetization       =    19.00 Bohr mag/cell
     absolute magnetization    =    19.00 Bohr mag/cell

     iteration #  9     ecut=   100.00 Ry     beta= 0.40
     Davidson diagonalization with overlap
     c_bands:  1 eigenvalues not converged
     ethr =  1.05E-04,  avg # of iterations =  3.1

     negative rho (up, down):  0.000E+00 7.657E-04

     total cpu time spent up to now is     2577.3 secs

     total energy              =   -2126.11120563 Ry
     estimated scf accuracy    <       0.10327334 Ry

     total magnetization       =    19.00 Bohr mag/cell
     absolute magnetization    =    19.01 Bohr mag/cell

     iteration # 10     ecut=   100.00 Ry     beta= 0.40
     Davidson diagonalization with overlap
     c_bands:  1 eigenvalues not converged
     c_bands:  1 eigenvalues not converged
     c_bands:  1 eigenvalues not converged
     ethr =  5.46E-05,  avg # of iterations =  4.5

     negative rho (up, down):  0.000E+00 8.889E-04

     total cpu time spent up to now is     2851.5 secs

     total energy              =   -2126.11680428 Ry
     estimated scf accuracy    <       0.02299079 Ry

     total magnetization       =    19.00 Bohr mag/cell
     absolute magnetization    =    19.02 Bohr mag/cell

     iteration # 11     ecut=   100.00 Ry     beta= 0.40
     Davidson diagonalization with overlap
     c_bands:  1 eigenvalues not converged
     c_bands:  1 eigenvalues not converged
     c_bands:  1 eigenvalues not converged
     c_bands:  1 eigenvalues not converged
     c_bands:  1 eigenvalues not converged
     c_bands:  1 eigenvalues not converged
     c_bands:  1 eigenvalues not converged
     c_bands:  1 eigenvalues not converged
     c_bands:  1 eigenvalues not converged
     c_bands:  1 eigenvalues not converged
     c_bands:  1 eigenvalues not converged
     c_bands:  2 eigenvalues not converged
     ethr =  1.22E-05,  avg # of iterations = 12.6

     negative rho (up, down):  0.000E+00 9.457E-04

     total cpu time spent up to now is     3250.8 secs

     total energy              =   -2126.11848933 Ry
     estimated scf accuracy    <       0.05163247 Ry

     total magnetization       =    19.00 Bohr mag/cell
     absolute magnetization    =    19.03 Bohr mag/cell

     iteration # 12     ecut=   100.00 Ry     beta= 0.40
     Davidson diagonalization with overlap
     ethr =  1.22E-05,  avg # of iterations =  1.1

     negative rho (up, down):  0.000E+00 9.747E-04

     total cpu time spent up to now is     3471.1 secs

     total energy              =   -2126.12032310 Ry
     estimated scf accuracy    <       0.00228772 Ry

     total magnetization       =    19.00 Bohr mag/cell
     absolute magnetization    =    19.03 Bohr mag/cell

     iteration # 13     ecut=   100.00 Ry     beta= 0.40
     Davidson diagonalization with overlap
     c_bands:  1 eigenvalues not converged
     c_bands:  1 eigenvalues not converged
     c_bands:  1 eigenvalues not converged
     c_bands:  1 eigenvalues not converged
     c_bands:  1 eigenvalues not converged
     c_bands:  1 eigenvalues not converged
     ethr =  1.21E-06,  avg # of iterations =  7.1

     negative rho (up, down):  0.000E+00 9.735E-04

     total cpu time spent up to now is     3874.3 secs

     total energy              =   -2126.12107285 Ry
     estimated scf accuracy    <       0.01150660 Ry

     total magnetization       =    19.00 Bohr mag/cell
     absolute magnetization    =    19.04 Bohr mag/cell

     iteration # 14     ecut=   100.00 Ry     beta= 0.40
     Davidson diagonalization with overlap
     ethr =  1.21E-06,  avg # of iterations =  1.1

     negative rho (up, down):  0.000E+00 9.783E-04

     total cpu time spent up to now is     4095.5 secs

     total energy              =   -2126.12127077 Ry
     estimated scf accuracy    <       0.00064945 Ry

     total magnetization       =    19.00 Bohr mag/cell
     absolute magnetization    =    19.04 Bohr mag/cell

     iteration # 15     ecut=   100.00 Ry     beta= 0.40
     Davidson diagonalization with overlap
     ethr =  3.44E-07,  avg # of iterations =  1.0

     negative rho (up, down):  0.000E+00 9.761E-04

     total cpu time spent up to now is     4314.5 secs

     total energy              =   -2126.12131413 Ry
     estimated scf accuracy    <       0.00070685 Ry

     total magnetization       =    19.00 Bohr mag/cell
     absolute magnetization    =    19.04 Bohr mag/cell

     iteration # 16     ecut=   100.00 Ry     beta= 0.40
     Davidson diagonalization with overlap
     ethr =  3.44E-07,  avg # of iterations =  1.0

     negative rho (up, down):  0.000E+00 9.640E-04

     total cpu time spent up to now is     4532.3 secs

     total energy              =   -2126.12133295 Ry
     estimated scf accuracy    <       0.00010185 Ry

     total magnetization       =    19.00 Bohr mag/cell
     absolute magnetization    =    19.04 Bohr mag/cell

     iteration # 17     ecut=   100.00 Ry     beta= 0.40
     Davidson diagonalization with overlap
     ethr =  5.39E-08,  avg # of iterations =  1.2

     negative rho (up, down):  0.000E+00 9.609E-04

     total cpu time spent up to now is     4755.7 secs

     total energy              =   -2126.12134071 Ry
     estimated scf accuracy    <       0.00001416 Ry

     total magnetization       =    19.00 Bohr mag/cell
     absolute magnetization    =    19.04 Bohr mag/cell

     iteration # 18     ecut=   100.00 Ry     beta= 0.40
     Davidson diagonalization with overlap
     ethr =  7.49E-09,  avg # of iterations =  4.4

     negative rho (up, down):  0.000E+00 9.593E-04

     total cpu time spent up to now is     5099.2 secs

     total energy              =   -2126.12134637 Ry
     estimated scf accuracy    <       0.00000241 Ry

     total magnetization       =    19.00 Bohr mag/cell
     absolute magnetization    =    19.04 Bohr mag/cell

     iteration # 19     ecut=   100.00 Ry     beta= 0.40
     Davidson diagonalization with overlap
     ethr =  1.28E-09,  avg # of iterations =  2.5

     negative rho (up, down):  0.000E+00 9.597E-04

     total cpu time spent up to now is     5386.9 secs

     total energy              =   -2126.12134720 Ry
     estimated scf accuracy    <       0.00000393 Ry

     total magnetization       =    19.00 Bohr mag/cell
     absolute magnetization    =    19.04 Bohr mag/cell

     iteration # 20     ecut=   100.00 Ry     beta= 0.40
     Davidson diagonalization with overlap
     ethr =  1.28E-09,  avg # of iterations =  1.3

     negative rho (up, down):  0.000E+00 9.594E-04

     total cpu time spent up to now is     5615.1 secs

     total energy              =   -2126.12134752 Ry
     estimated scf accuracy    <       0.00000139 Ry

     total magnetization       =    19.00 Bohr mag/cell
     absolute magnetization    =    19.04 Bohr mag/cell

     iteration # 21     ecut=   100.00 Ry     beta= 0.40
     Davidson diagonalization with overlap
     ethr =  7.35E-10,  avg # of iterations =  2.0

     negative rho (up, down):  0.000E+00 9.600E-04

     total cpu time spent up to now is     5865.5 secs

     total energy              =   -2126.12134772 Ry
     estimated scf accuracy    <       0.00000052 Ry

     total magnetization       =    19.00 Bohr mag/cell
     absolute magnetization    =    19.04 Bohr mag/cell

     iteration # 22     ecut=   100.00 Ry     beta= 0.40
     Davidson diagonalization with overlap
     ethr =  2.73E-10,  avg # of iterations =  1.8

     negative rho (up, down):  0.000E+00 9.602E-04

     total cpu time spent up to now is     6108.7 secs

     total energy              =   -2126.12134775 Ry
     estimated scf accuracy    <       0.00000084 Ry

     total magnetization       =    19.00 Bohr mag/cell
     absolute magnetization    =    19.04 Bohr mag/cell

     iteration # 23     ecut=   100.00 Ry     beta= 0.40
     Davidson diagonalization with overlap
     ethr =  2.73E-10,  avg # of iterations =  1.0

     negative rho (up, down):  0.000E+00 9.600E-04

     total cpu time spent up to now is     6326.4 secs

     total energy              =   -2126.12134778 Ry
     estimated scf accuracy    <       0.00000017 Ry

     total magnetization       =    19.00 Bohr mag/cell
     absolute magnetization    =    19.04 Bohr mag/cell

     iteration # 24     ecut=   100.00 Ry     beta= 0.40
     Davidson diagonalization with overlap
     ethr =  9.08E-11,  avg # of iterations =  2.0

     negative rho (up, down):  0.000E+00 9.600E-04

     total cpu time spent up to now is     6581.6 secs

     total energy              =   -2126.12134781 Ry
     estimated scf accuracy    <       0.00000004 Ry

     total magnetization       =    19.00 Bohr mag/cell
     absolute magnetization    =    19.04 Bohr mag/cell

     iteration # 25     ecut=   100.00 Ry     beta= 0.40
     Davidson diagonalization with overlap
     ethr =  2.00E-11,  avg # of iterations =  3.4

     negative rho (up, down):  0.000E+00 9.600E-04

     total cpu time spent up to now is     6873.7 secs

     total energy              =   -2126.12134782 Ry
     estimated scf accuracy    <       0.00000002 Ry

     total magnetization       =    19.00 Bohr mag/cell
     absolute magnetization    =    19.04 Bohr mag/cell

     iteration # 26     ecut=   100.00 Ry     beta= 0.40
     Davidson diagonalization with overlap
     ethr =  1.01E-11,  avg # of iterations =  1.4

     negative rho (up, down):  0.000E+00 9.600E-04

     total cpu time spent up to now is     7103.8 secs

     total energy              =   -2126.12134782 Ry
     estimated scf accuracy    <       0.00000003 Ry

     total magnetization       =    19.00 Bohr mag/cell
     absolute magnetization    =    19.04 Bohr mag/cell

     iteration # 27     ecut=   100.00 Ry     beta= 0.40
     Davidson diagonalization with overlap
     ethr =  1.01E-11,  avg # of iterations =  1.1

     negative rho (up, down):  0.000E+00 9.600E-04

     total cpu time spent up to now is     7325.0 secs

     total energy              =   -2126.12134783 Ry
     estimated scf accuracy    <          1.3E-09 Ry

     total magnetization       =    19.00 Bohr mag/cell
     absolute magnetization    =    19.04 Bohr mag/cell

     iteration # 28     ecut=   100.00 Ry     beta= 0.40
     Davidson diagonalization with overlap
     ethr =  6.68E-13,  avg # of iterations =  4.2

     negative rho (up, down):  0.000E+00 9.600E-04

     total cpu time spent up to now is     7687.1 secs

     total energy              =   -2126.12134783 Ry
     estimated scf accuracy    <          1.3E-09 Ry

     total magnetization       =    19.00 Bohr mag/cell
     absolute magnetization    =    19.04 Bohr mag/cell

     iteration # 29     ecut=   100.00 Ry     beta= 0.40
     Davidson diagonalization with overlap
     ethr =  6.68E-13,  avg # of iterations =  2.0

     negative rho (up, down):  0.000E+00 9.600E-04

     total cpu time spent up to now is     7938.6 secs

     total energy              =   -2126.12134783 Ry
     estimated scf accuracy    <          7.6E-10 Ry

     total magnetization       =    19.00 Bohr mag/cell
     absolute magnetization    =    19.04 Bohr mag/cell

     iteration # 30     ecut=   100.00 Ry     beta= 0.40
     Davidson diagonalization with overlap
     ethr =  4.00E-13,  avg # of iterations =  2.0

     negative rho (up, down):  0.000E+00 9.600E-04

     total cpu time spent up to now is     8188.4 secs

     total energy              =   -2126.12134783 Ry
     estimated scf accuracy    <          5.6E-10 Ry

     total magnetization       =    19.00 Bohr mag/cell
     absolute magnetization    =    19.04 Bohr mag/cell

     iteration # 31     ecut=   100.00 Ry     beta= 0.40
     Davidson diagonalization with overlap
     ethr =  2.94E-13,  avg # of iterations =  1.0

     negative rho (up, down):  0.000E+00 9.600E-04

     Magnetic moment per site:
     atom:    1    charge:    7.8873    magn:    0.0006    constr:    0.0000
     atom:    2    charge:   12.7513    magn:    3.6250    constr:    0.0000
     atom:    3    charge:   12.7585    magn:    3.6087    constr:    0.0000
     atom:    4    charge:   12.7842    magn:    3.5404    constr:    0.0000
     atom:    5    charge:   12.7581    magn:    3.6126    constr:    0.0000
     atom:    6    charge:    0.7717    magn:    0.0103    constr:    0.0000
     atom:    7    charge:    0.7740    magn:    0.0081    constr:    0.0000
     atom:    8    charge:    0.7743    magn:    0.0109    constr:    0.0000
     atom:    9    charge:    0.7702    magn:    0.0086    constr:    0.0000
     atom:   10    charge:    4.1095    magn:    0.1341    constr:    0.0000
     atom:   11    charge:    4.1257    magn:    0.0871    constr:    0.0000
     atom:   12    charge:    4.1116    magn:    0.1266    constr:    0.0000
     atom:   13    charge:    4.1067    magn:    0.1029    constr:    0.0000
     atom:   14    charge:    4.1348    magn:    0.1026    constr:    0.0000
     atom:   15    charge:    4.1443    magn:    0.1233    constr:    0.0000
     atom:   16    charge:    4.1398    magn:    0.0787    constr:    0.0000
     atom:   17    charge:    4.1412    magn:    0.1317    constr:    0.0000
     atom:   18    charge:    4.0829    magn:    0.1472    constr:    0.0000
     atom:   19    charge:    4.0831    magn:    0.1257    constr:    0.0000
     atom:   20    charge:    4.0894    magn:    0.1489    constr:    0.0000
     atom:   21    charge:    4.0831    magn:    0.1329    constr:    0.0000
     atom:   22    charge:    4.0877    magn:    0.1375    constr:    0.0000
     atom:   23    charge:    4.0918    magn:    0.1186    constr:    0.0000
     atom:   24    charge:    4.0831    magn:    0.1500    constr:    0.0000
     atom:   25    charge:    4.0882    magn:    0.1301    constr:    0.0000

     total cpu time spent up to now is     8406.1 secs

     End of self-consistent calculation

 ------ SPIN UP ------------


          k = 0.0000 0.0000 0.0000 ( 35285 PWs)   bands (ev):

   -84.7390 -84.7155 -84.7107 -84.4329 -50.8877 -50.8372 -50.8275 -50.7015
   -50.6925 -50.6813 -50.6686 -50.6488 -50.5963 -50.5936 -50.3860 -50.2315
   -44.6278 -16.6863 -16.6220 -16.6155 -16.1055 -15.9085 -15.7268 -15.6436
   -13.7827 -13.6064 -13.4605 -13.4339 -13.4126 -13.3403 -13.1805 -13.1546
   -13.1000 -13.0787 -12.9613 -12.8596  -3.9066  -3.4426  -3.2253  -2.8265
    -2.1355  -1.8189  -1.5280  -1.3938  -1.2902  -1.1782  -1.0633  -0.9737
    -0.8011  -0.7613  -0.4695  -0.1839  -0.0011   0.0142   0.5468   0.5741
     0.6648   0.7309   0.9252   0.9845   1.0507   1.1084   1.2115   1.2779
     1.3875   1.6860   1.7203   1.8186   1.8515   1.8972   1.9879   2.0723
     2.1375   2.2981   2.5222   2.5804   2.6149   2.6381   2.7465   2.8416
     2.8829   3.0207   3.1161   3.1868   3.2336   3.4237   3.5533   3.5773
     3.6062   3.7501   3.7880   3.8614   3.9737   4.0810   4.1213   4.2640
     4.3371   4.5430   4.5625   4.7056   4.8999   5.0733   5.2187   5.3228
     9.7301  11.7619  12.1971  12.6230  12.8792  13.3080  13.8895  14.0086
    14.1022  14.2995

     occupation numbers 
     1.0000   1.0000   1.0000   1.0000   1.0000   1.0000   1.0000   1.0000
     1.0000   1.0000   1.0000   1.0000   1.0000   1.0000   1.0000   1.0000
     1.0000   1.0000   1.0000   1.0000   1.0000   1.0000   1.0000   1.0000
     1.0000   1.0000   1.0000   1.0000   1.0000   1.0000   1.0000   1.0000
     1.0000   1.0000   1.0000   1.0000   1.0000   1.0000   1.0000   1.0000
     1.0000   1.0000   1.0000   1.0000   1.0000   1.0000   1.0000   1.0000
     1.0000   1.0000   1.0000   1.0000   1.0000   1.0000   1.0000   1.0000
     1.0000   1.0000   1.0000   1.0000   1.0000   1.0000   1.0000   1.0000
     1.0000   1.0000   1.0000   1.0000   1.0000   1.0000   1.0000   1.0000
     1.0000   1.0000   1.0000   1.0000   1.0000   1.0000   1.0000   1.0000
     1.0000   1.0000   1.0000   1.0000   1.0000   1.0000   1.0000   1.0000
     1.0000   1.0000   1.0000   1.0000   1.0000   1.0000   1.0000   1.0000
     1.0000   1.0000   1.0000   1.0000   1.0000   1.0000   1.0000   1.0000
     0.0000   0.0000   0.0000   0.0000   0.0000   0.0000   0.0000   0.0000
     0.0000   0.0000

          k = 0.0000 0.0000 0.2259 ( 35287 PWs)   bands (ev):

   -84.7390 -84.7155 -84.7107 -84.4329 -50.8877 -50.8372 -50.8275 -50.7015
   -50.6925 -50.6813 -50.6686 -50.6488 -50.5963 -50.5936 -50.3860 -50.2315
   -44.6278 -16.6899 -16.6285 -16.6136 -16.0860 -15.9018 -15.7214 -15.6414
   -13.7810 -13.6084 -13.4746 -13.4329 -13.4179 -13.3453 -13.1856 -13.1578
   -13.0957 -13.0906 -12.9663 -12.8637  -3.8814  -3.4342  -3.2249  -2.8404
    -2.0896  -1.7959  -1.5297  -1.3846  -1.2836  -1.1987  -1.0401  -0.9448
    -0.7937  -0.7251  -0.5156  -0.1564  -0.0218   0.0178   0.5445   0.5845
     0.6746   0.7671   0.9200   0.9953   1.0502   1.0713   1.1950   1.3231
     1.3725   1.6773   1.6975   1.7795   1.8335   1.8676   1.9482   1.9890
     2.2681   2.3113   2.4432   2.5318   2.6045   2.6487   2.6973   2.8686
     2.9009   2.9849   3.1135   3.2410   3.3243   3.4262   3.4819   3.5516
     3.5910   3.7565   3.7845   3.8199   3.9680   4.0832   4.1870   4.2662
     4.3648   4.5512   4.5818   4.7036   4.8992   5.0544   5.1931   5.3003
     9.8809  11.8301  12.2663  12.6205  12.9348  13.2726  13.7927  13.9834
    14.0053  14.2391

     occupation numbers 
     1.0000   1.0000   1.0000   1.0000   1.0000   1.0000   1.0000   1.0000
     1.0000   1.0000   1.0000   1.0000   1.0000   1.0000   1.0000   1.0000
     1.0000   1.0000   1.0000   1.0000   1.0000   1.0000   1.0000   1.0000
     1.0000   1.0000   1.0000   1.0000   1.0000   1.0000   1.0000   1.0000
     1.0000   1.0000   1.0000   1.0000   1.0000   1.0000   1.0000   1.0000
     1.0000   1.0000   1.0000   1.0000   1.0000   1.0000   1.0000   1.0000
     1.0000   1.0000   1.0000   1.0000   1.0000   1.0000   1.0000   1.0000
     1.0000   1.0000   1.0000   1.0000   1.0000   1.0000   1.0000   1.0000
     1.0000   1.0000   1.0000   1.0000   1.0000   1.0000   1.0000   1.0000
     1.0000   1.0000   1.0000   1.0000   1.0000   1.0000   1.0000   1.0000
     1.0000   1.0000   1.0000   1.0000   1.0000   1.0000   1.0000   1.0000
     1.0000   1.0000   1.0000   1.0000   1.0000   1.0000   1.0000   1.0000
     1.0000   1.0000   1.0000   1.0000   1.0000   1.0000   1.0000   1.0000
     0.0000   0.0000   0.0000   0.0000   0.0000   0.0000   0.0000   0.0000
     0.0000   0.0000

          k = 0.0000 0.0000 0.4519 ( 35272 PWs)   bands (ev):

   -84.7390 -84.7155 -84.7107 -84.4329 -50.8877 -50.8372 -50.8275 -50.7015
   -50.6925 -50.6813 -50.6686 -50.6488 -50.5963 -50.5936 -50.3860 -50.2315
   -44.6278 -16.7022 -16.6377 -16.6106 -16.0375 -15.8842 -15.7079 -15.6368
   -13.7761 -13.6163 -13.5090 -13.4418 -13.4229 -13.3534 -13.2169 -13.1477
   -13.1203 -13.0839 -12.9804 -12.8750  -3.8100  -3.4204  -3.2196  -2.8879
    -1.9657  -1.7381  -1.5322  -1.3788  -1.2595  -1.2149  -1.0235  -0.8302
    -0.7679  -0.6483  -0.6242  -0.1357  -0.0647   0.0814   0.5464   0.6205
     0.6994   0.8410   0.9369   0.9970   1.0361   1.0487   1.1397   1.3505
     1.3907   1.6190   1.6748   1.7197   1.7654   1.8198   1.8498   1.9133
     2.1784   2.2627   2.4337   2.4982   2.5601   2.5729   2.7593   2.8279
     2.9417   2.9694   3.1990   3.2530   3.2828   3.4183   3.4462   3.4954
     3.6186   3.6711   3.7918   3.9096   3.9990   4.0963   4.2639   4.2960
     4.4418   4.5212   4.6412   4.7239   4.8940   5.0113   5.1154   5.2318
    10.2868  12.0097  12.4391  12.6598  13.0458  13.2212  13.5228  13.7952
    13.8905  13.9775

     occupation numbers 
     1.0000   1.0000   1.0000   1.0000   1.0000   1.0000   1.0000   1.0000
     1.0000   1.0000   1.0000   1.0000   1.0000   1.0000   1.0000   1.0000
     1.0000   1.0000   1.0000   1.0000   1.0000   1.0000   1.0000   1.0000
     1.0000   1.0000   1.0000   1.0000   1.0000   1.0000   1.0000   1.0000
     1.0000   1.0000   1.0000   1.0000   1.0000   1.0000   1.0000   1.0000
     1.0000   1.0000   1.0000   1.0000   1.0000   1.0000   1.0000   1.0000
     1.0000   1.0000   1.0000   1.0000   1.0000   1.0000   1.0000   1.0000
     1.0000   1.0000   1.0000   1.0000   1.0000   1.0000   1.0000   1.0000
     1.0000   1.0000   1.0000   1.0000   1.0000   1.0000   1.0000   1.0000
     1.0000   1.0000   1.0000   1.0000   1.0000   1.0000   1.0000   1.0000
     1.0000   1.0000   1.0000   1.0000   1.0000   1.0000   1.0000   1.0000
     1.0000   1.0000   1.0000   1.0000   1.0000   1.0000   1.0000   1.0000
     1.0000   1.0000   1.0000   1.0000   1.0000   1.0000   1.0000   1.0000
     0.0000   0.0000   0.0000   0.0000   0.0000   0.0000   0.0000   0.0000
     0.0000   0.0000

          k = 0.0000 0.0000 0.6778 ( 35290 PWs)   bands (ev):

   -84.7390 -84.7155 -84.7107 -84.4329 -50.8877 -50.8372 -50.8275 -50.7015
   -50.6925 -50.6813 -50.6686 -50.6488 -50.5963 -50.5936 -50.3860 -50.2315
   -44.6278 -16.7198 -16.6416 -16.6073 -15.9820 -15.8628 -15.6933 -15.6334
   -13.7691 -13.6319 -13.5475 -13.4597 -13.4203 -13.3575 -13.2591 -13.1570
   -13.1245 -13.0692 -13.0004 -12.8897  -3.7057  -3.4259  -3.2029  -2.9650
    -1.8226  -1.6791  -1.5170  -1.3912  -1.2156  -1.1951  -1.0051  -0.8337
    -0.6955  -0.6641  -0.5367  -0.2888   0.0787   0.2146   0.5564   0.6842
     0.7472   0.8428   0.9415   0.9925   1.0198   1.0552   1.1007   1.3684
     1.3942   1.5062   1.5634   1.6344   1.7589   1.7822   1.8303   1.8685
     1.8979   2.1258   2.3551   2.4503   2.4780   2.7237   2.7410   2.9057
     2.9652   3.0158   3.0585   3.1525   3.3126   3.3196   3.4355   3.4757
     3.6204   3.6496   3.9015   4.0457   4.0826   4.1928   4.2628   4.3588
     4.4700   4.5623   4.6830   4.7639   4.8837   4.9651   4.9954   5.1186
    10.8490  12.2310  12.5256  12.8055  13.0058  13.2519  13.3924  13.6099
    13.6648  13.6969

     occupation numbers 
     1.0000   1.0000   1.0000   1.0000   1.0000   1.0000   1.0000   1.0000
     1.0000   1.0000   1.0000   1.0000   1.0000   1.0000   1.0000   1.0000
     1.0000   1.0000   1.0000   1.0000   1.0000   1.0000   1.0000   1.0000
     1.0000   1.0000   1.0000   1.0000   1.0000   1.0000   1.0000   1.0000
     1.0000   1.0000   1.0000   1.0000   1.0000   1.0000   1.0000   1.0000
     1.0000   1.0000   1.0000   1.0000   1.0000   1.0000   1.0000   1.0000
     1.0000   1.0000   1.0000   1.0000   1.0000   1.0000   1.0000   1.0000
     1.0000   1.0000   1.0000   1.0000   1.0000   1.0000   1.0000   1.0000
     1.0000   1.0000   1.0000   1.0000   1.0000   1.0000   1.0000   1.0000
     1.0000   1.0000   1.0000   1.0000   1.0000   1.0000   1.0000   1.0000
     1.0000   1.0000   1.0000   1.0000   1.0000   1.0000   1.0000   1.0000
     1.0000   1.0000   1.0000   1.0000   1.0000   1.0000   1.0000   1.0000
     1.0000   1.0000   1.0000   1.0000   1.0000   1.0000   1.0000   1.0000
     0.0000   0.0000   0.0000   0.0000   0.0000   0.0000   0.0000   0.0000
     0.0000   0.0000

          k = 0.0000 0.0000 0.9038 ( 35316 PWs)   bands (ev):

   -84.7390 -84.7155 -84.7107 -84.4329 -50.8877 -50.8372 -50.8275 -50.7015
   -50.6925 -50.6813 -50.6686 -50.6488 -50.5963 -50.5936 -50.3860 -50.2315
   -44.6278 -16.7319 -16.6424 -16.6052 -15.9450 -15.8474 -15.6848 -15.6326
   -13.7631 -13.6472 -13.5725 -13.4688 -13.4181 -13.3597 -13.2871 -13.1799
   -13.1048 -13.0598 -13.0175 -12.9009  -3.5979  -3.4669  -3.1769  -3.0378
    -1.7385  -1.6528  -1.4886  -1.3986  -1.1719  -1.1114  -1.0147  -0.9785
    -0.6120  -0.5754  -0.4651  -0.4485   0.2725   0.4272   0.5585   0.6935
     0.7711   0.8114   0.8926   0.9141   0.9426   1.0452   1.1742   1.3359
     1.4134   1.4385   1.4977   1.5327   1.6311   1.7455   1.8014   1.8573
     1.9480   2.1207   2.1895   2.3246   2.4955   2.6559   2.8839   2.9411
     2.9747   3.0096   3.0707   3.0890   3.1809   3.2653   3.4490   3.4745
     3.6168   3.6553   4.0252   4.0886   4.1114   4.2401   4.3807   4.4215
     4.4671   4.6893   4.6986   4.7758   4.8052   4.9006   4.9471   4.9983
    11.4692  12.0681  12.5474  12.8650  13.1272  13.2091  13.3808  13.4803
    13.6454  13.6604

     occupation numbers 
     1.0000   1.0000   1.0000   1.0000   1.0000   1.0000   1.0000   1.0000
     1.0000   1.0000   1.0000   1.0000   1.0000   1.0000   1.0000   1.0000
     1.0000   1.0000   1.0000   1.0000   1.0000   1.0000   1.0000   1.0000
     1.0000   1.0000   1.0000   1.0000   1.0000   1.0000   1.0000   1.0000
     1.0000   1.0000   1.0000   1.0000   1.0000   1.0000   1.0000   1.0000
     1.0000   1.0000   1.0000   1.0000   1.0000   1.0000   1.0000   1.0000
     1.0000   1.0000   1.0000   1.0000   1.0000   1.0000   1.0000   1.0000
     1.0000   1.0000   1.0000   1.0000   1.0000   1.0000   1.0000   1.0000
     1.0000   1.0000   1.0000   1.0000   1.0000   1.0000   1.0000   1.0000
     1.0000   1.0000   1.0000   1.0000   1.0000   1.0000   1.0000   1.0000
     1.0000   1.0000   1.0000   1.0000   1.0000   1.0000   1.0000   1.0000
     1.0000   1.0000   1.0000   1.0000   1.0000   1.0000   1.0000   1.0000
     1.0000   1.0000   1.0000   1.0000   1.0000   1.0000   1.0000   1.0000
     0.0000   0.0000   0.0000   0.0000   0.0000   0.0000   0.0000   0.0000
     0.0000   0.0000

          k = 0.0000 0.2311 0.0000 ( 35259 PWs)   bands (ev):

   -84.7390 -84.7155 -84.7107 -84.4329 -50.8877 -50.8372 -50.8275 -50.7015
   -50.6925 -50.6813 -50.6686 -50.6488 -50.5963 -50.5936 -50.3860 -50.2315
   -44.6278 -16.6866 -16.6226 -16.6156 -16.0876 -15.9057 -15.7259 -15.6620
   -13.7813 -13.6042 -13.4698 -13.4553 -13.4129 -13.3388 -13.1834 -13.1439
   -13.1015 -13.0604 -12.9631 -12.8645  -3.8835  -3.4627  -3.2010  -2.8332
    -2.1154  -1.8255  -1.5313  -1.4006  -1.2506  -1.1680  -1.0604  -0.9622
    -0.7935  -0.7209  -0.4342  -0.1582  -0.0791   0.0768   0.5488   0.5985
     0.6449   0.7171   0.8122   0.9078   0.9494   1.1628   1.2540   1.3331
     1.4806   1.6824   1.7277   1.7832   1.8478   1.8831   1.9129   1.9655
     2.1682   2.3162   2.4862   2.5534   2.6197   2.6731   2.7889   2.8155
     2.9592   2.9875   3.0578   3.0956   3.2454   3.4305   3.5372   3.5595
     3.6322   3.6920   3.7431   3.9395   4.0190   4.0781   4.1440   4.2776
     4.3386   4.5196   4.6005   4.6704   4.8881   4.9884   5.3071   5.3537
     9.8815  11.8488  12.2723  12.5810  12.9118  13.3874  13.8397  13.9789
    14.0425  14.2635

     occupation numbers 
     1.0000   1.0000   1.0000   1.0000   1.0000   1.0000   1.0000   1.0000
     1.0000   1.0000   1.0000   1.0000   1.0000   1.0000   1.0000   1.0000
     1.0000   1.0000   1.0000   1.0000   1.0000   1.0000   1.0000   1.0000
     1.0000   1.0000   1.0000   1.0000   1.0000   1.0000   1.0000   1.0000
     1.0000   1.0000   1.0000   1.0000   1.0000   1.0000   1.0000   1.0000
     1.0000   1.0000   1.0000   1.0000   1.0000   1.0000   1.0000   1.0000
     1.0000   1.0000   1.0000   1.0000   1.0000   1.0000   1.0000   1.0000
     1.0000   1.0000   1.0000   1.0000   1.0000   1.0000   1.0000   1.0000
     1.0000   1.0000   1.0000   1.0000   1.0000   1.0000   1.0000   1.0000
     1.0000   1.0000   1.0000   1.0000   1.0000   1.0000   1.0000   1.0000
     1.0000   1.0000   1.0000   1.0000   1.0000   1.0000   1.0000   1.0000
     1.0000   1.0000   1.0000   1.0000   1.0000   1.0000   1.0000   1.0000
     1.0000   1.0000   1.0000   1.0000   1.0000   1.0000   1.0000   1.0000
     0.0000   0.0000   0.0000   0.0000   0.0000   0.0000   0.0000   0.0000
     0.0000   0.0000

          k = 0.0000 0.2311 0.2259 ( 35237 PWs)   bands (ev):

   -84.7390 -84.7155 -84.7107 -84.4329 -50.8877 -50.8372 -50.8275 -50.7015
   -50.6925 -50.6813 -50.6686 -50.6488 -50.5963 -50.5936 -50.3860 -50.2315
   -44.6278 -16.6910 -16.6291 -16.6136 -16.0659 -15.8976 -15.7226 -15.6603
   -13.7795 -13.6057 -13.4766 -13.4598 -13.4204 -13.3446 -13.1987 -13.1384
   -13.1104 -13.0606 -12.9658 -12.8674  -3.8589  -3.4527  -3.2026  -2.8456
    -2.0718  -1.8015  -1.5304  -1.3897  -1.2461  -1.1869  -1.0306  -0.9398
    -0.7551  -0.7200  -0.4842  -0.1512  -0.0840   0.0822   0.5247   0.6041
     0.6820   0.7375   0.8236   0.9172   0.9509   1.1582   1.2799   1.3192
     1.4465   1.6768   1.7132   1.7512   1.8215   1.8439   1.8756   1.9395
     2.2590   2.3371   2.4373   2.5229   2.6142   2.6480   2.7201   2.8349
     2.9262   2.9998   3.0477   3.1781   3.2680   3.4430   3.4716   3.5418
     3.5856   3.7154   3.7693   3.8959   4.0205   4.0898   4.1824   4.2835
     4.3650   4.5192   4.6278   4.6851   4.8668   4.9778   5.2870   5.3373
    10.0259  11.9143  12.3441  12.6116  12.9439  13.3440  13.7590  13.9105
    14.0199  14.1749

     occupation numbers 
     1.0000   1.0000   1.0000   1.0000   1.0000   1.0000   1.0000   1.0000
     1.0000   1.0000   1.0000   1.0000   1.0000   1.0000   1.0000   1.0000
     1.0000   1.0000   1.0000   1.0000   1.0000   1.0000   1.0000   1.0000
     1.0000   1.0000   1.0000   1.0000   1.0000   1.0000   1.0000   1.0000
     1.0000   1.0000   1.0000   1.0000   1.0000   1.0000   1.0000   1.0000
     1.0000   1.0000   1.0000   1.0000   1.0000   1.0000   1.0000   1.0000
     1.0000   1.0000   1.0000   1.0000   1.0000   1.0000   1.0000   1.0000
     1.0000   1.0000   1.0000   1.0000   1.0000   1.0000   1.0000   1.0000
     1.0000   1.0000   1.0000   1.0000   1.0000   1.0000   1.0000   1.0000
     1.0000   1.0000   1.0000   1.0000   1.0000   1.0000   1.0000   1.0000
     1.0000   1.0000   1.0000   1.0000   1.0000   1.0000   1.0000   1.0000
     1.0000   1.0000   1.0000   1.0000   1.0000   1.0000   1.0000   1.0000
     1.0000   1.0000   1.0000   1.0000   1.0000   1.0000   1.0000   1.0000
     0.0000   0.0000   0.0000   0.0000   0.0000   0.0000   0.0000   0.0000
     0.0000   0.0000

          k = 0.0000 0.2311 0.4519 ( 35268 PWs)   bands (ev):

   -84.7390 -84.7155 -84.7107 -84.4329 -50.8877 -50.8372 -50.8275 -50.7015
   -50.6925 -50.6813 -50.6686 -50.6488 -50.5963 -50.5936 -50.3860 -50.2315
   -44.6278 -16.7034 -16.6377 -16.6107 -16.0189 -15.8767 -15.7132 -15.6531
   -13.7739 -13.6128 -13.5066 -13.4601 -13.4364 -13.3559 -13.2352 -13.1426
   -13.1211 -13.0554 -12.9765 -12.8761  -3.7891  -3.4336  -3.2015  -2.8909
    -1.9529  -1.7405  -1.5272  -1.3777  -1.2296  -1.1931  -1.0104  -0.8285
    -0.7331  -0.6469  -0.6027  -0.2020  -0.0341   0.1057   0.5024   0.6304
     0.7203   0.7446   0.9074   0.9453   0.9651   1.1191   1.2569   1.3610
     1.3930   1.6241   1.6642   1.7166   1.7583   1.7804   1.8093   1.9158
     2.2020   2.2576   2.4656   2.4916   2.5487   2.6092   2.6947   2.8381
     2.8745   3.0247   3.1351   3.2241   3.2742   3.3116   3.4404   3.5179
     3.5489   3.7158   3.8319   3.8783   4.0335   4.1341   4.2507   4.3062
     4.4351   4.5056   4.6224   4.7574   4.8185   4.9678   5.2331   5.2908
    10.4185  12.0917  12.5245  12.6996  13.0293  13.2726  13.5324  13.7522
    13.9112  14.0447

     occupation numbers 
     1.0000   1.0000   1.0000   1.0000   1.0000   1.0000   1.0000   1.0000
     1.0000   1.0000   1.0000   1.0000   1.0000   1.0000   1.0000   1.0000
     1.0000   1.0000   1.0000   1.0000   1.0000   1.0000   1.0000   1.0000
     1.0000   1.0000   1.0000   1.0000   1.0000   1.0000   1.0000   1.0000
     1.0000   1.0000   1.0000   1.0000   1.0000   1.0000   1.0000   1.0000
     1.0000   1.0000   1.0000   1.0000   1.0000   1.0000   1.0000   1.0000
     1.0000   1.0000   1.0000   1.0000   1.0000   1.0000   1.0000   1.0000
     1.0000   1.0000   1.0000   1.0000   1.0000   1.0000   1.0000   1.0000
     1.0000   1.0000   1.0000   1.0000   1.0000   1.0000   1.0000   1.0000
     1.0000   1.0000   1.0000   1.0000   1.0000   1.0000   1.0000   1.0000
     1.0000   1.0000   1.0000   1.0000   1.0000   1.0000   1.0000   1.0000
     1.0000   1.0000   1.0000   1.0000   1.0000   1.0000   1.0000   1.0000
     1.0000   1.0000   1.0000   1.0000   1.0000   1.0000   1.0000   1.0000
     0.0000   0.0000   0.0000   0.0000   0.0000   0.0000   0.0000   0.0000
     0.0000   0.0000

          k = 0.0000 0.2311 0.6778 ( 35293 PWs)   bands (ev):

   -84.7390 -84.7155 -84.7107 -84.4329 -50.8877 -50.8372 -50.8275 -50.7015
   -50.6925 -50.6813 -50.6686 -50.6488 -50.5963 -50.5936 -50.3860 -50.2315
   -44.6278 -16.7201 -16.6415 -16.6076 -15.9686 -15.8512 -15.7032 -15.6442
   -13.7659 -13.6279 -13.5451 -13.4651 -13.4417 -13.3653 -13.2787 -13.1750
   -13.1041 -13.0458 -12.9932 -12.8878  -3.6882  -3.4296  -3.1916  -2.9653
    -1.8140  -1.6741  -1.5112  -1.3829  -1.1997  -1.1575  -0.9900  -0.7989
    -0.7049  -0.6537  -0.5322  -0.3132   0.0738   0.1852   0.4939   0.6624
     0.6803   0.8045   0.9438   1.0104   1.0535   1.0911   1.1987   1.3299
     1.4162   1.4988   1.5656   1.6607   1.7328   1.7595   1.7982   1.8843
     1.9345   2.1069   2.3377   2.4881   2.5010   2.6957   2.7273   2.8515
     2.8963   2.9989   3.1186   3.2002   3.2349   3.3037   3.3265   3.5149
     3.5685   3.6617   3.9305   4.0318   4.0620   4.1861   4.2703   4.3474
     4.4629   4.5339   4.6141   4.7372   4.8688   4.9611   5.1528   5.2209
    10.9672  12.3190  12.6300  12.8483  13.0552  13.2886  13.4063  13.5808
    13.6671  13.7278

     occupation numbers 
     1.0000   1.0000   1.0000   1.0000   1.0000   1.0000   1.0000   1.0000
     1.0000   1.0000   1.0000   1.0000   1.0000   1.0000   1.0000   1.0000
     1.0000   1.0000   1.0000   1.0000   1.0000   1.0000   1.0000   1.0000
     1.0000   1.0000   1.0000   1.0000   1.0000   1.0000   1.0000   1.0000
     1.0000   1.0000   1.0000   1.0000   1.0000   1.0000   1.0000   1.0000
     1.0000   1.0000   1.0000   1.0000   1.0000   1.0000   1.0000   1.0000
     1.0000   1.0000   1.0000   1.0000   1.0000   1.0000   1.0000   1.0000
     1.0000   1.0000   1.0000   1.0000   1.0000   1.0000   1.0000   1.0000
     1.0000   1.0000   1.0000   1.0000   1.0000   1.0000   1.0000   1.0000
     1.0000   1.0000   1.0000   1.0000   1.0000   1.0000   1.0000   1.0000
     1.0000   1.0000   1.0000   1.0000   1.0000   1.0000   1.0000   1.0000
     1.0000   1.0000   1.0000   1.0000   1.0000   1.0000   1.0000   1.0000
     1.0000   1.0000   1.0000   1.0000   1.0000   1.0000   1.0000   1.0000
     0.0000   0.0000   0.0000   0.0000   0.0000   0.0000   0.0000   0.0000
     0.0000   0.0000

          k = 0.0000 0.2311 0.9038 ( 35298 PWs)   bands (ev):

   -84.7390 -84.7155 -84.7107 -84.4329 -50.8877 -50.8372 -50.8275 -50.7015
   -50.6925 -50.6813 -50.6686 -50.6488 -50.5963 -50.5936 -50.3860 -50.2315
   -44.6278 -16.7310 -16.6423 -16.6055 -15.9362 -15.8376 -15.6932 -15.6387
   -13.7594 -13.6432 -13.5706 -13.4697 -13.4371 -13.3737 -13.3062 -13.1978
   -13.0868 -13.0401 -13.0080 -12.8970  -3.5864  -3.4589  -3.1733  -3.0342
    -1.7307  -1.6403  -1.4849  -1.3890  -1.1568  -1.0769  -0.9971  -0.9388
    -0.6396  -0.5718  -0.4742  -0.4211   0.2196   0.3392   0.4704   0.5358
     0.7363   0.8932   0.9223   1.0077   1.0753   1.1116   1.1868   1.2689
     1.3998   1.4327   1.5143   1.5968   1.6462   1.7465   1.7609   1.8275
     1.9368   2.0862   2.1845   2.3569   2.5194   2.6518   2.8346   2.8674
     2.9453   3.0090   3.0490   3.1264   3.2017   3.2760   3.3403   3.5131
     3.5784   3.6413   4.0305   4.0678   4.1452   4.2364   4.3155   4.3541
     4.4258   4.5387   4.6454   4.7178   4.9294   4.9638   5.0778   5.1549
    11.5783  12.1789  12.6300  12.9579  13.1603  13.2609  13.4184  13.5115
    13.5625  13.6969

     occupation numbers 
     1.0000   1.0000   1.0000   1.0000   1.0000   1.0000   1.0000   1.0000
     1.0000   1.0000   1.0000   1.0000   1.0000   1.0000   1.0000   1.0000
     1.0000   1.0000   1.0000   1.0000   1.0000   1.0000   1.0000   1.0000
     1.0000   1.0000   1.0000   1.0000   1.0000   1.0000   1.0000   1.0000
     1.0000   1.0000   1.0000   1.0000   1.0000   1.0000   1.0000   1.0000
     1.0000   1.0000   1.0000   1.0000   1.0000   1.0000   1.0000   1.0000
     1.0000   1.0000   1.0000   1.0000   1.0000   1.0000   1.0000   1.0000
     1.0000   1.0000   1.0000   1.0000   1.0000   1.0000   1.0000   1.0000
     1.0000   1.0000   1.0000   1.0000   1.0000   1.0000   1.0000   1.0000
     1.0000   1.0000   1.0000   1.0000   1.0000   1.0000   1.0000   1.0000
     1.0000   1.0000   1.0000   1.0000   1.0000   1.0000   1.0000   1.0000
     1.0000   1.0000   1.0000   1.0000   1.0000   1.0000   1.0000   1.0000
     1.0000   1.0000   1.0000   1.0000   1.0000   1.0000   1.0000   1.0000
     0.0000   0.0000   0.0000   0.0000   0.0000   0.0000   0.0000   0.0000
     0.0000   0.0000

          k = 0.0000 0.4622 0.0000 ( 35247 PWs)   bands (ev):

   -84.7390 -84.7155 -84.7107 -84.4329 -50.8877 -50.8372 -50.8275 -50.7015
   -50.6925 -50.6813 -50.6686 -50.6488 -50.5963 -50.5936 -50.3860 -50.2315
   -44.6278 -16.6872 -16.6239 -16.6158 -16.0400 -15.8994 -15.7353 -15.6994
   -13.7747 -13.6004 -13.5384 -13.4479 -13.4105 -13.3329 -13.2015 -13.1320
   -13.0912 -13.0198 -12.9731 -12.8750  -3.8207  -3.5189  -3.1363  -2.8605
    -2.0635  -1.8441  -1.5360  -1.4135  -1.1983  -1.1140  -1.0453  -0.8967
    -0.8115  -0.5939  -0.3887  -0.2165  -0.0595   0.1784   0.5046   0.5715
     0.6107   0.6858   0.7189   0.8033   0.8780   1.1530   1.2817   1.4473
     1.5189   1.5602   1.6211   1.7103   1.7767   1.8516   1.9534   2.0167
     2.2301   2.3050   2.4693   2.5062   2.6011   2.6518   2.7108   2.7828
     2.9517   3.0093   3.0455   3.1324   3.2465   3.3817   3.4480   3.4928
     3.5671   3.6373   3.9175   3.9811   4.0470   4.1160   4.1708   4.3162
     4.3375   4.4536   4.5275   4.6454   4.7984   5.1217   5.3588   5.3910
    10.2958  12.0523  12.2293  12.4846  13.0716  13.5691  13.6888  13.8269
    14.1751  14.2568

     occupation numbers 
     1.0000   1.0000   1.0000   1.0000   1.0000   1.0000   1.0000   1.0000
     1.0000   1.0000   1.0000   1.0000   1.0000   1.0000   1.0000   1.0000
     1.0000   1.0000   1.0000   1.0000   1.0000   1.0000   1.0000   1.0000
     1.0000   1.0000   1.0000   1.0000   1.0000   1.0000   1.0000   1.0000
     1.0000   1.0000   1.0000   1.0000   1.0000   1.0000   1.0000   1.0000
     1.0000   1.0000   1.0000   1.0000   1.0000   1.0000   1.0000   1.0000
     1.0000   1.0000   1.0000   1.0000   1.0000   1.0000   1.0000   1.0000
     1.0000   1.0000   1.0000   1.0000   1.0000   1.0000   1.0000   1.0000
     1.0000   1.0000   1.0000   1.0000   1.0000   1.0000   1.0000   1.0000
     1.0000   1.0000   1.0000   1.0000   1.0000   1.0000   1.0000   1.0000
     1.0000   1.0000   1.0000   1.0000   1.0000   1.0000   1.0000   1.0000
     1.0000   1.0000   1.0000   1.0000   1.0000   1.0000   1.0000   1.0000
     1.0000   1.0000   1.0000   1.0000   1.0000   1.0000   1.0000   1.0000
     0.0000   0.0000   0.0000   0.0000   0.0000   0.0000   0.0000   0.0000
     0.0000   0.0000

          k = 0.0000 0.4622 0.2259 ( 35249 PWs)   bands (ev):

   -84.7390 -84.7155 -84.7107 -84.4329 -50.8877 -50.8372 -50.8275 -50.7015
   -50.6925 -50.6813 -50.6686 -50.6488 -50.5963 -50.5936 -50.3860 -50.2315
   -44.6278 -16.6915 -16.6295 -16.6143 -16.0192 -15.8896 -15.7371 -15.6934
   -13.7723 -13.6010 -13.5365 -13.4569 -13.4211 -13.3419 -13.2213 -13.1389
   -13.0896 -13.0187 -12.9727 -12.8757  -3.7975  -3.5054  -3.1412  -2.8701
    -2.0256  -1.8178  -1.5283  -1.4009  -1.1989  -1.1223  -1.0003  -0.8977
    -0.7640  -0.6084  -0.4331  -0.2496  -0.0371   0.1751   0.4640   0.5573
     0.6270   0.6946   0.7674   0.8443   0.8952   1.1854   1.2632   1.4139
     1.4575   1.5571   1.6160   1.6957   1.7606   1.8466   1.9323   2.0376
     2.2424   2.3429   2.4222   2.5332   2.6089   2.6419   2.7053   2.7534
     2.8975   2.9830   3.0394   3.1228   3.2560   3.3793   3.4313   3.4811
     3.5016   3.6731   3.9199   3.9809   4.0502   4.1331   4.1851   4.3250
     4.3545   4.4543   4.5131   4.6283   4.8430   5.1164   5.3430   5.3893
    10.4243  12.1106  12.3017  12.5629  13.0955  13.5049  13.6683  13.7833
    14.0830  14.1490

     occupation numbers 
     1.0000   1.0000   1.0000   1.0000   1.0000   1.0000   1.0000   1.0000
[...]
     atom   11 type  3   force =     0.00197809    0.00185600   -0.00302641
     atom   12 type  3   force =     0.01146097    0.00023694    0.00632799
     atom   13 type  3   force =    -0.00890337    0.00035533    0.00172544
     atom   14 type  3   force =    -0.07503921    0.00253003    0.01897795
     atom   15 type  3   force =     0.07304718   -0.00103155    0.02370485
     atom   16 type  3   force =     0.07271044    0.00058986   -0.01355302
     atom   17 type  3   force =    -0.06859098    0.00066431   -0.01980211
     atom   18 type  3   force =     0.00828070    0.00345737   -0.00278491
     atom   19 type  3   force =    -0.00631624   -0.00388636   -0.00308580
     atom   20 type  3   force =    -0.00709917    0.00668154    0.00005290
     atom   21 type  3   force =     0.00604591   -0.00349647    0.00240547
     atom   22 type  3   force =    -0.00994206   -0.00586907    0.00077376
     atom   23 type  3   force =     0.01054411    0.00216122    0.00061435
     atom   24 type  3   force =     0.00802764   -0.00301830   -0.00232995
     atom   25 type  3   force =    -0.00763063    0.00527728   -0.00242499
     The non-local contrib.  to forces
     atom    1 type  2   force =     0.07485990    0.04256090    0.01168485
     atom    2 type  1   force =     0.06480189    0.02956259    0.12084525
     atom    3 type  1   force =     0.05632552   -0.00142336    0.09461282
     atom    4 type  1   force =    -0.15960931   -0.06642719   -0.09653071
     atom    5 type  1   force =    -0.04327444    0.01623219   -0.09273873
     atom    6 type  4   force =     0.03368763    0.00030717   -0.01148269
     atom    7 type  4   force =    -0.01418211   -0.00418809    0.01374574
     atom    8 type  4   force =    -0.05015822    0.00907686    0.00854732
     atom    9 type  4   force =     0.05546370   -0.00117128    0.01282404
     atom   10 type  3   force =     0.31630238   -0.01955846   -1.45651447
     atom   11 type  3   force =    -0.12726265   -0.01833316   -1.38360205
     atom   12 type  3   force =    -0.39462408    0.01874837    1.46180827
     atom   13 type  3   force =     0.25970521   -0.01433313    1.45897342
     atom   14 type  3   force =     1.19884417   -0.02253888   -0.65291616
     atom   15 type  3   force =    -1.16822611    0.01873693   -0.78196848
     atom   16 type  3   force =    -1.18497210   -0.03883379    0.34923907
     atom   17 type  3   force =     1.14996325   -0.00871928    0.64554711
     atom   18 type  3   force =    -0.51337985   -1.14129286    0.76497941
     atom   19 type  3   force =     0.50501016    1.20956323    0.77658094
     atom   20 type  3   force =     0.50647220   -1.12934711   -0.68127993
     atom   21 type  3   force =    -0.51075810    1.10654411   -0.76346155
     atom   22 type  3   force =     0.56873742    1.15769200   -0.71834919
     atom   23 type  3   force =    -0.63109292   -1.08119798   -0.62016438
     atom   24 type  3   force =    -0.50748675    1.12913937    0.77368592
     atom   25 type  3   force =     0.54693928   -1.16966097    0.82974475
     The ionic contribution  to forces
     atom    1 type  2   force =    -2.21480499    0.24831467    1.36009105
     atom    2 type  1   force =    -0.92383617   -0.33508359   -0.59194827
     atom    3 type  1   force =    -7.93765869    0.81294030   -0.74505505
     atom    4 type  1   force =     3.82170550    0.97510157    0.13504869
     atom    5 type  1   force =     7.75792090   -1.22459169    1.03586265
     atom    6 type  4   force =    -2.68567020   -0.04677778    0.54212190
     atom    7 type  4   force =    -0.08289860    0.81082205    0.79378028
     atom    8 type  4   force =     4.11180282    0.01348579   -0.73118468
     atom    9 type  4   force =    -1.71267261   -0.93199841   -1.01778340
     atom   10 type  3   force =   -10.35611095    0.06743900    2.32379024
     atom   11 type  3   force =     4.11024072    1.50183018    0.73064258
     atom   12 type  3   force =    12.04436177   -0.17890835   -2.46796931
     atom   13 type  3   force =    -8.19257947   -1.11697576   -1.87323001
     atom   14 type  3   force =     0.47190103   -1.08785304    5.69685567
     atom   15 type  3   force =    -2.11047035   -0.13267203    7.34575352
     atom   16 type  3   force =    -1.61359674    1.81406413   -2.73306827
     atom   17 type  3   force =     3.58251546    0.11826288   -6.49904769
     atom   18 type  3   force =    -4.10878415    2.94365494   -2.92400834
     atom   19 type  3   force =     0.04096995   -4.36773421   -1.91366125
     atom   20 type  3   force =     4.89032257    4.07879768    2.25265276
     atom   21 type  3   force =    -1.85762371   -1.99938489    2.42239214
     atom   22 type  3   force =     5.07904904   -4.17034768    2.71498576
     atom   23 type  3   force =     0.80518965    1.24010466    0.03349907
     atom   24 type  3   force =    -3.82156871   -2.80073955   -2.98048963
     atom   25 type  3   force =     0.90229595    3.76824913   -2.91003041
     The local contribution  to forces
     atom    1 type  2   force =     2.14255843   -0.30265872   -1.36426877
     atom    2 type  1   force =     0.84933953    0.30602654    0.47310506
     atom    3 type  1   force =     7.89696113   -0.81025821    0.64775187
     atom    4 type  1   force =    -3.66126331   -0.90829951   -0.04014343
     atom    5 type  1   force =    -7.73125117    1.20771550   -0.94147900
     atom    6 type  4   force =     2.72376334    0.04662216   -0.51873022
     atom    7 type  4   force =     0.03708725   -0.80563011   -0.79497677
     atom    8 type  4   force =    -4.13645445   -0.01931995    0.70379335
     atom    9 type  4   force =     1.72786511    0.93123178    0.99091590
     atom   10 type  3   force =    10.03342894   -0.04708017   -0.88449547
     atom   11 type  3   force =    -3.98277770   -1.48177227    0.63800273
     atom   12 type  3   force =   -11.64227219    0.16058432    1.02520962
     atom   13 type  3   force =     7.92679675    1.13154002    0.42864649
     atom   14 type  3   force =    -1.73679568    1.11272406   -5.03084881
     atom   15 type  3   force =     3.34295165    0.11305904   -6.54698664
     atom   16 type  3   force =     2.86245078   -1.77494212    2.37351498
     atom   17 type  3   force =    -4.79234659   -0.10894901    5.83946234
     atom   18 type  3   force =     4.62613950   -1.80869974    2.16309295
     atom   19 type  3   force =    -0.54810533    3.16474108    1.14096211
     atom   20 type  3   force =    -5.39962455   -2.95242933   -1.57739775
     atom   21 type  3   force =     2.37014998    0.89884041   -1.66343319
     atom   22 type  3   force =    -5.65291065    3.01670116   -2.00227713
     atom   23 type  3   force =    -0.16886458   -0.16608700    0.58168402
     atom   24 type  3   force =     4.33283603    1.67825072    2.21143005
     atom   25 type  3   force =    -1.45229940   -2.60328401    2.08533129
     The core correction contribution to forces
     atom    1 type  2   force =     0.00000000    0.00000000    0.00000000
     atom    2 type  1   force =    -0.00065201   -0.00027903   -0.00023386
     atom    3 type  1   force =    -0.00008381    0.00007681    0.00074026
     atom    4 type  1   force =     0.00282858    0.00064281   -0.00052884
     atom    5 type  1   force =     0.00032198   -0.00017316   -0.00030844
     atom    6 type  4   force =    -0.00379651   -0.00002952    0.00012711
     atom    7 type  4   force =     0.00285739    0.00010047   -0.00172824
     atom    8 type  4   force =     0.00455715   -0.00060401    0.00033066
     atom    9 type  4   force =    -0.00534016    0.00061091    0.00014627
     atom   10 type  3   force =    -0.00330468    0.00017267    0.01269776
     atom   11 type  3   force =     0.00177385    0.00013106    0.01193321
     atom   12 type  3   force =     0.00399677   -0.00018760   -0.01271948
     atom   13 type  3   force =    -0.00282757    0.00012407   -0.01266333
     atom   14 type  3   force =    -0.00898884    0.00019774    0.00588906
     atom   15 type  3   force =     0.00879574   -0.00015556    0.00690604
     atom   16 type  3   force =     0.00882649    0.00030149   -0.00323851
     atom   17 type  3   force =    -0.00872178    0.00006956   -0.00576359
     atom   18 type  3   force =     0.00430456    0.00979893   -0.00684624
     atom   19 type  3   force =    -0.00419385   -0.01045386   -0.00696889
     atom   20 type  3   force =    -0.00426897    0.00965995    0.00607884
     atom   21 type  3   force =     0.00427677   -0.00949664    0.00690891
     atom   22 type  3   force =    -0.00481753   -0.00991454    0.00641531
     atom   23 type  3   force =     0.00531103    0.00934183    0.00559644
     atom   24 type  3   force =     0.00424645   -0.00967304   -0.00695358
     atom   25 type  3   force =    -0.00456917    0.00997006   -0.00747192
     The Hubbard contrib.    to forces
     atom    1 type  2   force =     0.00000000    0.00000000    0.00000000
     atom    2 type  1   force =     0.00000000    0.00000000    0.00000000
     atom    3 type  1   force =     0.00000000    0.00000000    0.00000000
     atom    4 type  1   force =     0.00000000    0.00000000    0.00000000
     atom    5 type  1   force =     0.00000000    0.00000000    0.00000000
     atom    6 type  4   force =     0.00000000    0.00000000    0.00000000
     atom    7 type  4   force =     0.00000000    0.00000000    0.00000000
     atom    8 type  4   force =     0.00000000    0.00000000    0.00000000
     atom    9 type  4   force =     0.00000000    0.00000000    0.00000000
     atom   10 type  3   force =     0.00000000    0.00000000    0.00000000
     atom   11 type  3   force =     0.00000000    0.00000000    0.00000000
     atom   12 type  3   force =     0.00000000    0.00000000    0.00000000
     atom   13 type  3   force =     0.00000000    0.00000000    0.00000000
     atom   14 type  3   force =     0.00000000    0.00000000    0.00000000
     atom   15 type  3   force =     0.00000000    0.00000000    0.00000000
     atom   16 type  3   force =     0.00000000    0.00000000    0.00000000
     atom   17 type  3   force =     0.00000000    0.00000000    0.00000000
     atom   18 type  3   force =     0.00000000    0.00000000    0.00000000
     atom   19 type  3   force =     0.00000000    0.00000000    0.00000000
     atom   20 type  3   force =     0.00000000    0.00000000    0.00000000
     atom   21 type  3   force =     0.00000000    0.00000000    0.00000000
     atom   22 type  3   force =     0.00000000    0.00000000    0.00000000
     atom   23 type  3   force =     0.00000000    0.00000000    0.00000000
     atom   24 type  3   force =     0.00000000    0.00000000    0.00000000
     atom   25 type  3   force =     0.00000000    0.00000000    0.00000000
     The SCF correction term to forces
     atom    1 type  2   force =     0.00000224   -0.00000051   -0.00000035
     atom    2 type  1   force =     0.00000202   -0.00000003    0.00000008
     atom    3 type  1   force =     0.00000081    0.00000002    0.00000025
     atom    4 type  1   force =    -0.00000014    0.00000014    0.00000003
     atom    5 type  1   force =    -0.00000205    0.00000009    0.00000006
     atom    6 type  4   force =    -0.00000034    0.00000000   -0.00000038
     atom    7 type  4   force =     0.00000168    0.00000004    0.00000054
     atom    8 type  4   force =    -0.00000203   -0.00000003    0.00000009
     atom    9 type  4   force =     0.00000078   -0.00000002    0.00000004
     atom   10 type  3   force =     0.00000119   -0.00000004    0.00000108
     atom   11 type  3   force =     0.00000330    0.00000002   -0.00000197
     atom   12 type  3   force =    -0.00000188    0.00000005   -0.00000021
     atom   13 type  3   force =     0.00000113   -0.00000003   -0.00000023
     atom   14 type  3   force =    -0.00000046   -0.00000002   -0.00000091
     atom   15 type  3   force =    -0.00000433   -0.00000010    0.00000130
     atom   16 type  3   force =     0.00000144   -0.00000001    0.00000059
     atom   17 type  3   force =    -0.00000189   -0.00000001    0.00000062
     atom   18 type  3   force =     0.00000006   -0.00000406   -0.00000180
     atom   19 type  3   force =     0.00000226   -0.00000276    0.00000219
     atom   20 type  3   force =    -0.00000099    0.00000019   -0.00000011
     atom   21 type  3   force =     0.00000039    0.00000038    0.00000006
     atom   22 type  3   force =    -0.00000091   -0.00000017   -0.00000009
     atom   23 type  3   force =     0.00000035   -0.00000045    0.00000009
     atom   24 type  3   force =     0.00000004    0.00000404   -0.00000180
     atom   25 type  3   force =     0.00000215    0.00000291    0.00000219

     Total force =     0.205707     Total SCF correction =     0.000012


     Computing stress (Cartesian axis) and pressure


     negative rho (up, down):  0.000E+00 9.600E-04
          total   stress  (Ry/bohr**3)                   (kbar)     P=       39.51
   0.00061922  -0.00001960  -0.00002724           91.09       -2.88       -4.01
  -0.00001960   0.00000561   0.00002345           -2.88        0.83        3.45
  -0.00002724   0.00002345   0.00018102           -4.01        3.45       26.63

     kinetic stress (kbar)  27504.35      7.15     -7.57
                                7.15  27652.65      5.07
                               -7.57      5.07  27452.63

     local   stress (kbar)  -5572.12   1811.78   1083.54
                             1811.78 -13031.61   -657.90
                             1083.54   -657.90  -7971.75

     nonloc. stress (kbar)  -7024.71      1.50      3.26
                                1.50  -6949.53     -0.71
                                3.26     -0.71  -6974.72

     hartree stress (kbar)  13313.45   -731.37   -433.06
                             -731.37  17824.00    261.59
                             -433.06    261.59  15089.38

     exc-cor stress (kbar)  -2905.24     -1.06     -0.72
                               -1.06  -2914.01      0.41
                               -0.72      0.41  -2910.78

     corecor stress (kbar)  -3225.16      0.34      0.61
                                0.34  -3223.03     -0.03
                                0.61     -0.03  -3224.03

     ewald   stress (kbar) -21999.48  -1091.22   -650.06
                            -1091.22 -19357.64    395.03
                             -650.06    395.03 -21434.10

     hubbard stress (kbar)      0.00      0.00      0.00
                                0.00      0.00      0.00
                                0.00      0.00      0.00

     DFT-D   stress (kbar)      0.00      0.00      0.00
                                0.00      0.00      0.00
                                0.00      0.00      0.00

     XDM     stress (kbar)      0.00      0.00      0.00
                                0.00      0.00      0.00
                                0.00      0.00      0.00

     dft-nl  stress (kbar)      0.00      0.00      0.00
                                0.00      0.00      0.00
                                0.00      0.00      0.00

     TS-vdW  stress (kbar)      0.00      0.00      0.00
                                0.00      0.00      0.00
                                0.00      0.00      0.00



     init_run     :    107.02s CPU    109.32s WALL (       1 calls)
     electrons    :   8162.79s CPU   8296.46s WALL (       1 calls)
     forces       :     46.10s CPU     47.22s WALL (       1 calls)
     stress       :    577.30s CPU    579.58s WALL (       1 calls)

     Called by init_run:
     wfcinit      :     99.32s CPU    101.31s WALL (       1 calls)
     wfcinit:atom :      2.61s CPU      2.67s WALL (     316 calls)
     wfcinit:wfcr :     89.08s CPU     90.89s WALL (     316 calls)
     potinit      :      2.59s CPU      2.67s WALL (       1 calls)
     hinit0       :      2.44s CPU      2.50s WALL (       1 calls)

     Called by electrons:
     c_bands      :   6942.07s CPU   7041.55s WALL (      31 calls)
     sum_band     :   1121.62s CPU   1150.30s WALL (      31 calls)
     v_of_rho     :     21.31s CPU     22.12s WALL (      32 calls)
     v_h          :      1.04s CPU      1.10s WALL (      32 calls)
     v_xc         :     21.52s CPU     22.33s WALL (      34 calls)
     newd         :     57.28s CPU     61.81s WALL (      32 calls)
     PAW_pot      :     16.36s CPU     16.41s WALL (      32 calls)
     mix_rho      :      4.80s CPU      5.01s WALL (      31 calls)

     Called by c_bands:
     init_us_2    :    175.82s CPU    180.08s WALL (   20540 calls)
     cegterg      :   6641.87s CPU   6736.77s WALL (    9796 calls)

     Called by sum_band:
     sum_band:wei :      0.28s CPU      0.28s WALL (      31 calls)
     sum_band:loo :   1010.72s CPU   1029.17s WALL (      31 calls)
     sum_band:buf :     42.00s CPU     42.58s WALL (    9796 calls)
     sum_band:ini :     86.87s CPU     88.85s WALL (    9796 calls)
     sum_band:cal :    193.97s CPU    199.27s WALL (    9796 calls)
     sum_band:bec :      1.56s CPU      1.59s WALL (    9796 calls)
     addusdens    :    108.27s CPU    118.37s WALL (      31 calls)
     addusd:skk   :      0.81s CPU      0.83s WALL (      93 calls)
     addusd:dgemm :     19.96s CPU     28.65s WALL (     186 calls)
     addusd:qvan2 :     86.35s CPU     87.04s WALL (     186 calls)

     Called by *egterg:
     cdiaghg      :    292.46s CPU    298.35s WALL (   37859 calls)
     cegterg:over :    438.31s CPU    446.38s WALL (   28063 calls)
     cegterg:upda :    431.10s CPU    435.97s WALL (   28063 calls)
     cegterg:last :    671.92s CPU    677.99s WALL (   16877 calls)
     h_psi        :   3734.47s CPU   3794.21s WALL (   38175 calls)
     s_psi        :    763.12s CPU    769.91s WALL (   38175 calls)
     g_psi        :     33.34s CPU     34.04s WALL (   28063 calls)

     Called by h_psi:
     h_psi:calbec :    509.55s CPU    522.07s WALL (   38175 calls)
     vloc_psi     :   2379.43s CPU   2418.00s WALL (   38175 calls)
     add_vuspsi   :    756.88s CPU    764.10s WALL (   38175 calls)

     General routines
     calbec       :    743.21s CPU    761.96s WALL (   49551 calls)
     fft          :     17.50s CPU     18.72s WALL (     838 calls)
     ffts         :      0.20s CPU      0.22s WALL (     126 calls)
     fftw         :   2340.49s CPU   2378.18s WALL ( 6151730 calls)
     interpolate  :      1.64s CPU      1.74s WALL (      64 calls)

     Parallel routines
     fft_scatt_xy :    273.45s CPU    277.77s WALL ( 6152694 calls)
     fft_scatt_yz :    722.03s CPU    736.05s WALL ( 6152694 calls)

     PAW routines
     PAW_pot      :     16.36s CPU     16.41s WALL (      32 calls)

     PWSCF        :      2h28m CPU      2h30m WALL


   This run was terminated on:  23:10:14  16Dec2022            

=------------------------------------------------------------------------------=
   JOB DONE.
=------------------------------------------------------------------------------=
Note: The following floating-point exceptions are signalling: IEEE_UNDERFLOW_FLAG IEEE_DENORMAL
Note: The following floating-point exceptions are signalling: IEEE_DENORMAL
Note: The following floating-point exceptions are signalling: IEEE_DENORMAL
Note: The following floating-point exceptions are signalling: IEEE_DENORMAL
Note: The following floating-point exceptions are signalling: IEEE_DENORMAL
Note: The following floating-point exceptions are signalling: IEEE_DENORMAL
Note: The following floating-point exceptions are signalling: IEEE_DENORMAL
Note: The following floating-point exceptions are signalling: IEEE_DENORMAL
Note: The following floating-point exceptions are signalling: IEEE_DENORMAL
Note: The following floating-point exceptions are signalling: IEEE_DENORMAL
Note: The following floating-point exceptions are signalling: IEEE_DENORMAL
Note: The following floating-point exceptions are signalling: IEEE_DENORMAL
