ITEM: TIMESTEP
2500
ITEM: NUMBER OF ATOMS
15
ITEM: BOX BOUNDS xy xz yz pp pp pp
-2.3141677565662233e-01 1.0234672106572837e+01 1.8425106211429456e+00
4.7997293002722685e-01 6.0149582991994457e+00 2.9485250397732594e+00
-6.0208849311375046e-01 5.0428714903637690e+00 1.8272837214147004e+00
ITEM: ATOMS id type x y z
10 1 1.22827 2.25302 0.247292
11 1 2.41126 0.890098 0.29019
4 1 1.70993 1.89214 1.67337
1 1 0.425149 1.0327 0.0818425
6 1 2.35811 2.75708 2.5017
13 1 2.02268 3.29102 0.878817
12 1 2.86219 4.11353 1.57315
8 1 3.13471 4.35007 3.14785
5 1 8.25508 3.20236 3.98412
2 1 7.69587 1.99453 3.80538
7 1 5.42411 4.10744 -0.319938
3 1 7.07628 3.65988 -0.367311
14 2 6.38379 5.32541 2.58743
9 1 9.19572 4.31132 4.56765
15 2 5.34714 3.15235 2.68194
