ITEM: TIMESTEP
500
ITEM: NUMBER OF ATOMS
15
ITEM: BOX BOUNDS xy xz yz pp pp pp
5.5873614893738210e-02 1.0280725563554219e+01 2.4511030867761132e+00
-1.3236527354881478e-01 6.4567172089204057e+00 2.6732764216718308e+00
-3.3860634293172387e-01 4.7793893401817424e+00 1.6567044275595937e+00
ITEM: ATOMS id type x y z
15 2 4.35987 1.99006 2.0636
12 1 1.54569 1.28771 0.712523
13 1 1.50399 0.74205 1.92565
1 1 4.03207 3.09963 4.40735
11 1 4.90324 1.81809 4.78812
5 1 3.09757 5.08571 -0.0440234
6 1 2.59168 3.77077 0.777521
10 1 1.88682 2.67775 0.332207
3 1 3.47152 4.39976 1.53239
8 1 3.37193 4.24589 2.75834
14 2 5.81385 3.24967 2.51
2 1 9.64674 5.59636 4.77938
4 1 8.91462 5.75739 3.30986
7 1 8.06974 6.1262 4.37636
9 1 8.97642 4.55288 4.08064
