ITEM: TIMESTEP
6000
ITEM: NUMBER OF ATOMS
15
ITEM: BOX BOUNDS xy xz yz pp pp pp
-2.0631492091201853e-01 1.0145637906661054e+01 1.8487292879379038e+00
4.7371598885740163e-01 5.9777406893751310e+00 2.8783740278111316e+00
-5.3493633229013593e-01 4.9757193295401247e+00 1.7838091704205432e+00
ITEM: ATOMS id type x y z
5 1 0.281805 0.894436 -0.461873
9 1 1.07159 2.0934 0.0613438
6 1 2.70418 2.68774 3.56914
3 1 1.79019 3.47351 0.785761
2 1 4.4093 5.14903 4.55066
8 1 3.46447 3.96998 4.11557
11 1 5.48954 4.77427 3.32229
4 1 3.70319 5.32432 2.98743
15 2 3.51863 1.64231 0.0391302
10 1 6.85144 2.29569 1.59364
1 1 6.22574 0.971675 1.10531
13 1 7.7769 3.05816 2.39979
14 2 4.57497 3.63498 0.0175824
7 1 6.69484 4.18774 2.28219
12 1 8.43059 4.3474 2.64342
