ITEM: TIMESTEP
4000
ITEM: NUMBER OF ATOMS
15
ITEM: BOX BOUNDS xy xz yz pp pp pp
-2.4574770651946620e-01 1.0238391772325931e+01 1.8865776043320255e+00
4.3563472532246372e-01 6.0254108588158406e+00 2.8938467914744206e+00
-5.4974765838282291e-01 4.9905306556328313e+00 1.7933980763263220e+00
ITEM: ATOMS id type x y z
10 1 1.13294 1.74824 0.26525
4 1 1.63557 1.54344 1.69605
6 1 2.3096 2.8053 2.62922
12 1 2.78586 4.23564 0.949883
11 1 4.50195 4.50156 0.729134
8 1 2.99 4.27825 2.43159
2 1 3.5885 5.18295 3.25431
9 1 3.1527 3.88561 4.03373
1 1 5.63919 0.666317 -0.365052
14 2 5.20802 2.68291 3.29494
5 1 8.0305 2.72758 4.05797
7 1 5.69352 4.14902 0.151936
13 1 7.39917 3.25619 1.11868
15 2 6.16617 4.34148 3.36069
3 1 9.56767 4.997 4.96167
