ITEM: TIMESTEP
5500
ITEM: NUMBER OF ATOMS
15
ITEM: BOX BOUNDS xy xz yz pp pp pp
-1.9561404628647905e-01 1.0151478632850495e+01 1.8519525425415388e+00
4.7047289590914421e-01 5.9892375352676197e+00 2.8916923740224760e+00
-5.4768533906386763e-01 4.9884683363138649e+00 1.7920629233647702e+00
ITEM: ATOMS id type x y z
5 1 0.356751 0.665963 -0.602235
11 1 4.82812 2.35892 3.2302
6 1 2.80071 2.54865 3.54536
3 1 1.58235 3.15647 0.815035
2 1 4.25441 4.92095 4.7033
12 1 2.53552 3.92301 2.73026
8 1 3.67481 3.72635 3.98115
4 1 3.49937 5.32819 3.15479
15 2 3.55774 1.95407 -0.131519
9 1 6.6013 1.87695 0.089577
13 1 7.26818 3.01338 2.19014
10 1 6.52376 1.91084 1.54307
14 2 4.3986 3.39143 -0.0739703
1 1 7.80964 4.37656 1.18737
7 1 7.47624 5.39145 2.70052
