ITEM: TIMESTEP
1000
ITEM: NUMBER OF ATOMS
15
ITEM: BOX BOUNDS xy xz yz pp pp pp
-9.5491411683683136e-02 1.0095395646657833e+01 2.3398850157738234e+00
-2.0462682490808515e-02 6.2050802716842171e+00 2.4477995492003042e+00
-1.2276827048325023e-01 4.5635512677332741e+00 1.5169700813814049e+00
ITEM: ATOMS id type x y z
12 1 1.77745 2.23597 1.71153
13 1 1.31982 0.654038 1.54832
1 1 1.05232 1.47324 0.055794
15 2 4.41229 1.8103 2.46961
5 1 2.58355 1.57053 3.88463
3 1 3.03968 4.67393 0.335467
11 1 4.22871 4.02469 0.21513
6 1 2.48273 3.72853 1.45893
8 1 3.18765 4.3064 2.43272
4 1 7.16261 1.40502 2.66492
7 1 5.32666 3.45049 -0.0788481
10 1 6.73816 3.09503 0.626241
2 1 9.22094 5.41548 4.00949
9 1 8.68813 4.07007 3.83557
14 2 5.59729 3.32117 3.05973
