ITEM: TIMESTEP
4500
ITEM: NUMBER OF ATOMS
15
ITEM: BOX BOUNDS xy xz yz pp pp pp
-2.1498120979548929e-01 1.0083780616435813e+01 1.8577157372059603e+00
4.6467423018954945e-01 5.9375078519034572e+00 2.7988639994343600e+00
-4.5882523904560912e-01 4.8996082362956219e+00 1.7345345742810221e+00
ITEM: ATOMS id type x y z
10 1 1.04392 1.47175 0.772966
11 1 2.60467 1.93653 -0.15668
13 1 1.99663 2.64769 1.22509
4 1 1.46174 1.45251 2.17665
6 1 2.22213 2.63032 2.64099
9 1 3.28055 3.35166 4.63231
12 1 2.54538 3.92845 1.66232
1 1 2.1267 4.00027 0.24824
3 1 1.18954 2.92783 -0.227682
8 1 3.02297 3.97121 3.13591
14 2 4.87705 2.81918 2.23735
7 1 6.49557 3.09745 4.75283
5 1 7.71252 2.38051 4.27947
15 2 6.02854 4.94829 2.2059
2 1 9.27036 4.97986 3.6413
