ITEM: TIMESTEP
3000
ITEM: NUMBER OF ATOMS
15
ITEM: BOX BOUNDS xy xz yz pp pp pp
-1.9165579133784005e-01 1.0137392897493408e+01 1.8741672272958070e+00
4.4812148519740647e-01 5.9915455985022206e+00 2.8593502088597411e+00
-5.1672575322687742e-01 4.9575087504768955e+00 1.7720195758876487e+00
ITEM: ATOMS id type x y z
10 1 1.35617 1.88117 0.744434
1 1 0.586822 0.774467 -0.0852859
11 1 2.57011 1.09801 0.0402929
4 1 1.49474 1.63341 2.16308
6 1 2.30716 2.90866 2.76475
13 1 2.02051 3.01357 1.09795
12 1 2.67524 4.19261 1.69228
8 1 3.04713 4.18288 3.10707
7 1 3.72317 0.706507 -0.64227
14 2 4.5109 1.89448 2.32559
5 1 8.2054 2.78955 4.16181
3 1 6.88099 3.38761 -0.378141
2 1 9.24112 5.29775 3.6711
15 2 5.62407 4.08871 2.29242
9 1 9.05731 3.96085 4.74428
