# /home/jsp1/perl4dpgen_20221025/initial/BN_mp-2653/BN_mp-2653.in

4 atoms
3 atom types

0.000000000000       2.553939200000  xlo xhi
0.000000000000       2.211776686708  ylo yhi
0.000000000000       4.226855000000  zlo zhi
-1.276968803625       0.000000000000       0.000000000000  xy xz yz

Masses

1 10.81  # B
2 15.999  # O
3 14.007  # N

Atoms  # atomic

1 1 -0.000000746052 1.474518528398 2.112260888020
2 1 1.276971142428 0.737258158311 4.225688388020
3 3 -0.000000746052 1.474518528398 0.529523486980
4 3 1.276971142428 0.737258158311 2.642950986980
