
     Program PWSCF v.6.7MaX starts on 28Sep2022 at 21:21:12 

     This program is part of the open-source Quantum ESPRESSO suite
     for quantum simulation of materials; please cite
         "P. Giannozzi et al., J. Phys.:Condens. Matter 21 395502 (2009);
         "P. Giannozzi et al., J. Phys.:Condens. Matter 29 465901 (2017);
          URL http://www.quantum-espresso.org", 
     in publications or presentations arising from this work. More details at
     http://www.quantum-espresso.org/quote

     Parallel version (MPI), running on    16 processors

     MPI processes distributed on     1 nodes
     R & G space division:  proc/nbgrp/npool/nimage =      16
     Reading input from scale_3d-02.in

     Current dimensions of program PWSCF are:
     Max number of different atomic species (ntypx) = 10
     Max number of k-points (npk) =  40000
     Max angular momentum in pseudopotentials (lmaxx) =  3
     Message from routine read_pp_mesh:
     mesh size missing, using the one in header

     Subspace diagonalization in iterative solution of the eigenvalue problem:
     a serial algorithm will be used


     Parallelization info
     --------------------
     sticks:   dense  smooth     PW     G-vecs:    dense   smooth      PW
     Min          42      31      9                 1488      923     153
     Max          43      32     10                 1495      930     156
     Sum         673     499    151                23837    14823    2467



     bravais-lattice index     =            0
     lattice parameter (alat)  =       4.7457  a.u.
     unit-cell volume          =     153.2002 (a.u.)^3
     number of atoms/cell      =            4
     number of atomic types    =            2
     number of electrons       =        16.00
     number of Kohn-Sham states=           12
     kinetic-energy cutoff     =      80.0000  Ry
     charge density cutoff     =     440.0000  Ry
     scf convergence threshold =      2.0E-10
     mixing beta               =       0.4000
     number of iterations used =            8  plain     mixing
     Exchange-correlation= PBE
                           (   1   4   3   4   0   0   0)

     celldm(1)=   4.745735  celldm(2)=   0.000000  celldm(3)=   0.000000
     celldm(4)=   0.000000  celldm(5)=   0.000000  celldm(6)=   0.000000

     crystal axes: (cart. coord. in units of alat)
               a(1) = (   1.000000   0.000000   0.000000 )  
               a(2) = (  -0.500000   0.866025   0.000000 )  
               a(3) = (   0.000000   0.000000   1.655077 )  

     reciprocal axes: (cart. coord. in units 2 pi/alat)
               b(1) = (  1.000000  0.577350 -0.000000 )  
               b(2) = (  0.000000  1.154701  0.000000 )  
               b(3) = (  0.000000 -0.000000  0.604202 )  


     PseudoPot. # 1 for B  read from file:
     /opt/QEpot/SSSP_precision_pseudos/B_pbe_v1.01.uspp.F.UPF
     MD5 check sum: d081ebb89d0c768e112975f650467a00
     Pseudo is Ultrasoft + core correction, Zval =  3.0
     Generated by new atomic code, or converted to UPF format
     Using radial grid of  781 points,  4 beta functions with: 
                l(1) =   0
                l(2) =   0
                l(3) =   1
                l(4) =   1
     Q(r) pseudized with  8 coefficients,  rinner =    1.100   1.100   1.100


     PseudoPot. # 2 for N  read from file:
     /opt/QEpot/SSSP_precision_pseudos/N.oncvpsp.upf
     MD5 check sum: 563d65bfb082928f0c9eb97172f6c357
     Pseudo is Norm-conserving + core correction, Zval =  5.0
     Generated using ONCVPSP code by D. R. Hamann
     Using radial grid of 1058 points,  4 beta functions with: 
                l(1) =   0
                l(2) =   0
                l(3) =   1
                l(4) =   1

     atomic species   valence    mass     pseudopotential
        B              3.00    10.81000     B ( 1.00)
        N              5.00    14.00700     N ( 1.00)

     No symmetry found


                                    s                        frac. trans.

      isym =  1     identity                                     

 cryst.   s( 1) = (     1          0          0      )
                  (     0          1          0      )
                  (     0          0          1      )

 cart.    s( 1) = (  1.0000000  0.0000000  0.0000000 )
                  (  0.0000000  1.0000000  0.0000000 )
                  (  0.0000000  0.0000000  1.0000000 )


   Cartesian axes

     site n.     atom                  positions (alat units)
         1           B   tau(   1) = (   0.0029423   0.5772016   0.8314331  )
         2           B   tau(   2) = (   0.5029433   0.2885259   0.0038949  )
         3           N   tau(   3) = (   0.0029423   0.5772016   0.2116930  )
         4           N   tau(   4) = (   0.5029433   0.2885259   1.0392313  )

   Crystallographic axes

     site n.     atom                  positions (cryst. coord.)
         1           B   tau(   1) = (  0.3361899  0.6664950  0.5023533  )
         2           B   tau(   2) = (  0.6695239  0.3331610  0.0023533  )
         3           N   tau(   3) = (  0.3361899  0.6664950  0.1279053  )
         4           N   tau(   4) = (  0.6695239  0.3331610  0.6279053  )

     number of k points=   252  Marzari-Vanderbilt smearing, width (Ry)=  0.0220
                       cart. coord. in units 2pi/alat
        k(    1) = (   0.0000000   0.0000000   0.0000000), wk =   0.0040000
        k(    2) = (   0.0000000   0.0000000   0.1208403), wk =   0.0080000
        k(    3) = (   0.0000000   0.0000000   0.2416807), wk =   0.0080000
        k(    4) = (   0.0000000   0.1154701   0.0000000), wk =   0.0080000
        k(    5) = (   0.0000000   0.1154701   0.1208403), wk =   0.0080000
        k(    6) = (   0.0000000   0.1154701   0.2416807), wk =   0.0080000
        k(    7) = (   0.0000000   0.2309401   0.0000000), wk =   0.0080000
        k(    8) = (   0.0000000   0.2309401   0.1208403), wk =   0.0080000
        k(    9) = (   0.0000000   0.2309401   0.2416807), wk =   0.0080000
        k(   10) = (   0.0000000   0.3464102   0.0000000), wk =   0.0080000
        k(   11) = (   0.0000000   0.3464102   0.1208403), wk =   0.0080000
        k(   12) = (   0.0000000   0.3464102   0.2416807), wk =   0.0080000
        k(   13) = (   0.0000000   0.4618802   0.0000000), wk =   0.0080000
        k(   14) = (   0.0000000   0.4618802   0.1208403), wk =   0.0080000
        k(   15) = (   0.0000000   0.4618802   0.2416807), wk =   0.0080000
        k(   16) = (   0.0000000  -0.5773503   0.0000000), wk =   0.0040000
        k(   17) = (   0.0000000  -0.5773503   0.1208403), wk =   0.0080000
        k(   18) = (   0.0000000  -0.5773503   0.2416807), wk =   0.0080000
        k(   19) = (   0.1000000   0.1732051   0.0000000), wk =   0.0080000
        k(   20) = (   0.1000000   0.1732051   0.1208403), wk =   0.0080000
        k(   21) = (   0.1000000   0.1732051   0.2416807), wk =   0.0080000
        k(   22) = (   0.1000000   0.2886751   0.0000000), wk =   0.0080000
        k(   23) = (   0.1000000   0.2886751   0.1208403), wk =   0.0080000
        k(   24) = (   0.1000000   0.2886751   0.2416807), wk =   0.0080000
        k(   25) = (   0.1000000   0.4041452   0.0000000), wk =   0.0080000
        k(   26) = (   0.1000000   0.4041452   0.1208403), wk =   0.0080000
        k(   27) = (   0.1000000   0.4041452   0.2416807), wk =   0.0080000
        k(   28) = (   0.1000000   0.5196152   0.0000000), wk =   0.0080000
        k(   29) = (   0.1000000   0.5196152   0.1208403), wk =   0.0080000
        k(   30) = (   0.1000000   0.5196152   0.2416807), wk =   0.0080000
        k(   31) = (   0.2000000   0.3464102   0.0000000), wk =   0.0080000
        k(   32) = (   0.2000000   0.3464102   0.1208403), wk =   0.0080000
        k(   33) = (   0.2000000   0.3464102   0.2416807), wk =   0.0080000
        k(   34) = (   0.2000000   0.4618802   0.0000000), wk =   0.0080000
        k(   35) = (   0.2000000   0.4618802   0.1208403), wk =   0.0080000
        k(   36) = (   0.2000000   0.4618802   0.2416807), wk =   0.0080000
        k(   37) = (   0.2000000   0.5773503   0.0000000), wk =   0.0080000
        k(   38) = (   0.2000000   0.5773503   0.1208403), wk =   0.0080000
        k(   39) = (   0.2000000   0.5773503   0.2416807), wk =   0.0080000
        k(   40) = (   0.3000000   0.5196152   0.0000000), wk =   0.0080000
        k(   41) = (   0.3000000   0.5196152   0.1208403), wk =   0.0080000
        k(   42) = (   0.3000000   0.5196152   0.2416807), wk =   0.0080000
        k(   43) = (  -0.1000000   0.0577350   0.0000000), wk =   0.0080000
        k(   44) = (   0.1000000   0.0577350   0.0000000), wk =   0.0080000
        k(   45) = (   0.0000000  -0.1154701   0.1208403), wk =   0.0080000
        k(   46) = (  -0.1000000   0.0577350   0.1208403), wk =   0.0080000
        k(   47) = (   0.1000000   0.0577350   0.1208403), wk =   0.0080000
        k(   48) = (  -0.1000000  -0.0577350   0.1208403), wk =   0.0080000
        k(   49) = (   0.1000000  -0.0577350   0.1208403), wk =   0.0080000
        k(   50) = (   0.0000000  -0.1154701   0.2416807), wk =   0.0080000
        k(   51) = (  -0.1000000   0.0577350   0.2416807), wk =   0.0080000
        k(   52) = (   0.1000000   0.0577350   0.2416807), wk =   0.0080000
        k(   53) = (  -0.1000000  -0.0577350   0.2416807), wk =   0.0080000
        k(   54) = (   0.1000000  -0.0577350   0.2416807), wk =   0.0080000
        k(   55) = (  -0.2000000   0.1154701   0.0000000), wk =   0.0080000
        k(   56) = (   0.2000000   0.1154701   0.0000000), wk =   0.0080000
        k(   57) = (   0.0000000  -0.2309401   0.1208403), wk =   0.0080000
        k(   58) = (  -0.2000000   0.1154701   0.1208403), wk =   0.0080000
        k(   59) = (   0.2000000   0.1154701   0.1208403), wk =   0.0080000
        k(   60) = (  -0.2000000  -0.1154701   0.1208403), wk =   0.0080000
        k(   61) = (   0.2000000  -0.1154701   0.1208403), wk =   0.0080000
        k(   62) = (   0.0000000  -0.2309401   0.2416807), wk =   0.0080000
        k(   63) = (  -0.2000000   0.1154701   0.2416807), wk =   0.0080000
        k(   64) = (   0.2000000   0.1154701   0.2416807), wk =   0.0080000
        k(   65) = (  -0.2000000  -0.1154701   0.2416807), wk =   0.0080000
        k(   66) = (   0.2000000  -0.1154701   0.2416807), wk =   0.0080000
        k(   67) = (  -0.3000000   0.1732051   0.0000000), wk =   0.0080000
        k(   68) = (   0.3000000   0.1732051   0.0000000), wk =   0.0080000
        k(   69) = (   0.0000000  -0.3464102   0.1208403), wk =   0.0080000
        k(   70) = (  -0.3000000   0.1732051   0.1208403), wk =   0.0080000
        k(   71) = (   0.3000000   0.1732051   0.1208403), wk =   0.0080000
        k(   72) = (  -0.3000000  -0.1732051   0.1208403), wk =   0.0080000
        k(   73) = (   0.3000000  -0.1732051   0.1208403), wk =   0.0080000
        k(   74) = (   0.0000000  -0.3464102   0.2416807), wk =   0.0080000
        k(   75) = (  -0.3000000   0.1732051   0.2416807), wk =   0.0080000
        k(   76) = (   0.3000000   0.1732051   0.2416807), wk =   0.0080000
        k(   77) = (  -0.3000000  -0.1732051   0.2416807), wk =   0.0080000
        k(   78) = (   0.3000000  -0.1732051   0.2416807), wk =   0.0080000
        k(   79) = (  -0.4000000   0.2309401   0.0000000), wk =   0.0080000
        k(   80) = (   0.4000000   0.2309401   0.0000000), wk =   0.0080000
        k(   81) = (   0.0000000  -0.4618802   0.1208403), wk =   0.0080000
        k(   82) = (  -0.4000000   0.2309401   0.1208403), wk =   0.0080000
        k(   83) = (   0.4000000   0.2309401   0.1208403), wk =   0.0080000
        k(   84) = (  -0.4000000  -0.2309401   0.1208403), wk =   0.0080000
        k(   85) = (   0.4000000  -0.2309401   0.1208403), wk =   0.0080000
        k(   86) = (   0.0000000  -0.4618802   0.2416807), wk =   0.0080000
        k(   87) = (  -0.4000000   0.2309401   0.2416807), wk =   0.0080000
        k(   88) = (   0.4000000   0.2309401   0.2416807), wk =   0.0080000
        k(   89) = (  -0.4000000  -0.2309401   0.2416807), wk =   0.0080000
        k(   90) = (   0.4000000  -0.2309401   0.2416807), wk =   0.0080000
        k(   91) = (   0.5000000  -0.2886751   0.0000000), wk =   0.0040000
        k(   92) = (  -0.5000000  -0.2886751   0.0000000), wk =   0.0040000
        k(   93) = (   0.5000000  -0.2886751   0.1208403), wk =   0.0080000
        k(   94) = (  -0.5000000  -0.2886751   0.1208403), wk =   0.0080000
        k(   95) = (   0.5000000  -0.2886751   0.2416807), wk =   0.0080000
        k(   96) = (  -0.5000000  -0.2886751   0.2416807), wk =   0.0080000
        k(   97) = (  -0.1000000   0.1732051   0.0000000), wk =   0.0080000
        k(   98) = (   0.2000000   0.0000000   0.0000000), wk =   0.0080000
        k(   99) = (  -0.1000000  -0.1732051   0.1208403), wk =   0.0080000
        k(  100) = (  -0.1000000   0.1732051  -0.1208403), wk =   0.0080000
        k(  101) = (   0.1000000  -0.1732051  -0.1208403), wk =   0.0080000
        k(  102) = (   0.2000000   0.0000000   0.1208403), wk =   0.0080000
        k(  103) = (  -0.2000000   0.0000000   0.1208403), wk =   0.0080000
        k(  104) = (  -0.1000000  -0.1732051   0.2416807), wk =   0.0080000
        k(  105) = (  -0.1000000   0.1732051  -0.2416807), wk =   0.0080000
        k(  106) = (   0.1000000  -0.1732051  -0.2416807), wk =   0.0080000
        k(  107) = (   0.2000000   0.0000000   0.2416807), wk =   0.0080000
        k(  108) = (  -0.2000000   0.0000000   0.2416807), wk =   0.0080000
        k(  109) = (  -0.1000000   0.2886751   0.0000000), wk =   0.0080000
        k(  110) = (  -0.2000000   0.2309401   0.0000000), wk =   0.0080000
        k(  111) = (   0.3000000   0.0577350   0.0000000), wk =   0.0080000
        k(  112) = (  -0.2000000  -0.2309401   0.0000000), wk =   0.0080000
        k(  113) = (   0.3000000  -0.0577350   0.0000000), wk =   0.0080000
        k(  114) = (  -0.1000000  -0.2886751   0.1208403), wk =   0.0080000
        k(  115) = (  -0.1000000   0.2886751  -0.1208403), wk =   0.0080000
        k(  116) = (   0.1000000  -0.2886751  -0.1208403), wk =   0.0080000
        k(  117) = (  -0.2000000   0.2309401   0.1208403), wk =   0.0080000
        k(  118) = (   0.3000000   0.0577350   0.1208403), wk =   0.0080000
        k(  119) = (  -0.3000000  -0.0577350   0.1208403), wk =   0.0080000
        k(  120) = (   0.2000000  -0.2309401   0.1208403), wk =   0.0080000
        k(  121) = (  -0.2000000  -0.2309401  -0.1208403), wk =   0.0080000
        k(  122) = (   0.3000000  -0.0577350  -0.1208403), wk =   0.0080000
        k(  123) = (  -0.3000000   0.0577350  -0.1208403), wk =   0.0080000
        k(  124) = (   0.2000000   0.2309401  -0.1208403), wk =   0.0080000
        k(  125) = (  -0.1000000  -0.2886751   0.2416807), wk =   0.0080000
        k(  126) = (  -0.1000000   0.2886751  -0.2416807), wk =   0.0080000
        k(  127) = (   0.1000000  -0.2886751  -0.2416807), wk =   0.0080000
        k(  128) = (  -0.2000000   0.2309401   0.2416807), wk =   0.0080000
        k(  129) = (   0.3000000   0.0577350   0.2416807), wk =   0.0080000
        k(  130) = (  -0.3000000  -0.0577350   0.2416807), wk =   0.0080000
        k(  131) = (   0.2000000  -0.2309401   0.2416807), wk =   0.0080000
        k(  132) = (  -0.2000000  -0.2309401  -0.2416807), wk =   0.0080000
        k(  133) = (   0.3000000  -0.0577350  -0.2416807), wk =   0.0080000
        k(  134) = (  -0.3000000   0.0577350  -0.2416807), wk =   0.0080000
        k(  135) = (   0.2000000   0.2309401  -0.2416807), wk =   0.0080000
        k(  136) = (  -0.1000000   0.4041452   0.0000000), wk =   0.0080000
        k(  137) = (  -0.3000000   0.2886751   0.0000000), wk =   0.0080000
        k(  138) = (   0.4000000   0.1154701   0.0000000), wk =   0.0080000
        k(  139) = (  -0.3000000  -0.2886751   0.0000000), wk =   0.0080000
        k(  140) = (   0.4000000  -0.1154701   0.0000000), wk =   0.0080000
        k(  141) = (  -0.1000000  -0.4041452   0.1208403), wk =   0.0080000
        k(  142) = (  -0.1000000   0.4041452  -0.1208403), wk =   0.0080000
        k(  143) = (   0.1000000  -0.4041452  -0.1208403), wk =   0.0080000
        k(  144) = (  -0.3000000   0.2886751   0.1208403), wk =   0.0080000
        k(  145) = (   0.4000000   0.1154701   0.1208403), wk =   0.0080000
        k(  146) = (  -0.4000000  -0.1154701   0.1208403), wk =   0.0080000
        k(  147) = (   0.3000000  -0.2886751   0.1208403), wk =   0.0080000
        k(  148) = (  -0.3000000  -0.2886751  -0.1208403), wk =   0.0080000
        k(  149) = (   0.4000000  -0.1154701  -0.1208403), wk =   0.0080000
        k(  150) = (  -0.4000000   0.1154701  -0.1208403), wk =   0.0080000
        k(  151) = (   0.3000000   0.2886751  -0.1208403), wk =   0.0080000
        k(  152) = (  -0.1000000  -0.4041452   0.2416807), wk =   0.0080000
        k(  153) = (  -0.1000000   0.4041452  -0.2416807), wk =   0.0080000
        k(  154) = (   0.1000000  -0.4041452  -0.2416807), wk =   0.0080000
        k(  155) = (  -0.3000000   0.2886751   0.2416807), wk =   0.0080000
        k(  156) = (   0.4000000   0.1154701   0.2416807), wk =   0.0080000
        k(  157) = (  -0.4000000  -0.1154701   0.2416807), wk =   0.0080000
        k(  158) = (   0.3000000  -0.2886751   0.2416807), wk =   0.0080000
        k(  159) = (  -0.3000000  -0.2886751  -0.2416807), wk =   0.0080000
        k(  160) = (   0.4000000  -0.1154701  -0.2416807), wk =   0.0080000
        k(  161) = (  -0.4000000   0.1154701  -0.2416807), wk =   0.0080000
        k(  162) = (   0.3000000   0.2886751  -0.2416807), wk =   0.0080000
        k(  163) = (  -0.1000000   0.5196152   0.0000000), wk =   0.0080000
        k(  164) = (  -0.4000000   0.3464102   0.0000000), wk =   0.0080000
        k(  165) = (   0.5000000   0.1732051   0.0000000), wk =   0.0080000
        k(  166) = (  -0.4000000  -0.3464102   0.0000000), wk =   0.0080000
        k(  167) = (   0.5000000  -0.1732051   0.0000000), wk =   0.0080000
        k(  168) = (  -0.1000000  -0.5196152   0.1208403), wk =   0.0080000
        k(  169) = (  -0.1000000   0.5196152  -0.1208403), wk =   0.0080000
        k(  170) = (   0.1000000  -0.5196152  -0.1208403), wk =   0.0080000
        k(  171) = (  -0.4000000   0.3464102   0.1208403), wk =   0.0080000
        k(  172) = (   0.5000000   0.1732051   0.1208403), wk =   0.0080000
        k(  173) = (  -0.5000000  -0.1732051   0.1208403), wk =   0.0080000
        k(  174) = (   0.4000000  -0.3464102   0.1208403), wk =   0.0080000
        k(  175) = (  -0.4000000  -0.3464102  -0.1208403), wk =   0.0080000
        k(  176) = (   0.5000000  -0.1732051  -0.1208403), wk =   0.0080000
        k(  177) = (  -0.5000000   0.1732051  -0.1208403), wk =   0.0080000
        k(  178) = (   0.4000000   0.3464102  -0.1208403), wk =   0.0080000
        k(  179) = (  -0.1000000  -0.5196152   0.2416807), wk =   0.0080000
        k(  180) = (  -0.1000000   0.5196152  -0.2416807), wk =   0.0080000
        k(  181) = (   0.1000000  -0.5196152  -0.2416807), wk =   0.0080000
        k(  182) = (  -0.4000000   0.3464102   0.2416807), wk =   0.0080000
        k(  183) = (   0.5000000   0.1732051   0.2416807), wk =   0.0080000
        k(  184) = (  -0.5000000  -0.1732051   0.2416807), wk =   0.0080000
        k(  185) = (   0.4000000  -0.3464102   0.2416807), wk =   0.0080000
        k(  186) = (  -0.4000000  -0.3464102  -0.2416807), wk =   0.0080000
        k(  187) = (   0.5000000  -0.1732051  -0.2416807), wk =   0.0080000
        k(  188) = (  -0.5000000   0.1732051  -0.2416807), wk =   0.0080000
        k(  189) = (   0.4000000   0.3464102  -0.2416807), wk =   0.0080000
        k(  190) = (  -0.2000000   0.3464102   0.0000000), wk =   0.0080000
        k(  191) = (   0.4000000   0.0000000   0.0000000), wk =   0.0080000
        k(  192) = (  -0.2000000  -0.3464102   0.1208403), wk =   0.0080000
        k(  193) = (  -0.2000000   0.3464102  -0.1208403), wk =   0.0080000
        k(  194) = (   0.2000000  -0.3464102  -0.1208403), wk =   0.0080000
        k(  195) = (   0.4000000   0.0000000   0.1208403), wk =   0.0080000
        k(  196) = (  -0.4000000   0.0000000   0.1208403), wk =   0.0080000
        k(  197) = (  -0.2000000  -0.3464102   0.2416807), wk =   0.0080000
        k(  198) = (  -0.2000000   0.3464102  -0.2416807), wk =   0.0080000
        k(  199) = (   0.2000000  -0.3464102  -0.2416807), wk =   0.0080000
        k(  200) = (   0.4000000   0.0000000   0.2416807), wk =   0.0080000
        k(  201) = (  -0.4000000   0.0000000   0.2416807), wk =   0.0080000
        k(  202) = (  -0.2000000   0.4618802   0.0000000), wk =   0.0080000
        k(  203) = (  -0.3000000   0.4041452   0.0000000), wk =   0.0080000
        k(  204) = (   0.5000000   0.0577350   0.0000000), wk =   0.0080000
        k(  205) = (  -0.3000000  -0.4041452   0.0000000), wk =   0.0080000
        k(  206) = (   0.5000000  -0.0577350   0.0000000), wk =   0.0080000
        k(  207) = (  -0.2000000  -0.4618802   0.1208403), wk =   0.0080000
        k(  208) = (  -0.2000000   0.4618802  -0.1208403), wk =   0.0080000
        k(  209) = (   0.2000000  -0.4618802  -0.1208403), wk =   0.0080000
        k(  210) = (  -0.3000000   0.4041452   0.1208403), wk =   0.0080000
        k(  211) = (   0.5000000   0.0577350   0.1208403), wk =   0.0080000
        k(  212) = (  -0.5000000  -0.0577350   0.1208403), wk =   0.0080000
        k(  213) = (   0.3000000  -0.4041452   0.1208403), wk =   0.0080000
        k(  214) = (  -0.3000000  -0.4041452  -0.1208403), wk =   0.0080000
        k(  215) = (   0.5000000  -0.0577350  -0.1208403), wk =   0.0080000
        k(  216) = (  -0.5000000   0.0577350  -0.1208403), wk =   0.0080000
        k(  217) = (   0.3000000   0.4041452  -0.1208403), wk =   0.0080000
        k(  218) = (  -0.2000000  -0.4618802   0.2416807), wk =   0.0080000
        k(  219) = (  -0.2000000   0.4618802  -0.2416807), wk =   0.0080000
        k(  220) = (   0.2000000  -0.4618802  -0.2416807), wk =   0.0080000
        k(  221) = (  -0.3000000   0.4041452   0.2416807), wk =   0.0080000
        k(  222) = (   0.5000000   0.0577350   0.2416807), wk =   0.0080000
        k(  223) = (  -0.5000000  -0.0577350   0.2416807), wk =   0.0080000
        k(  224) = (   0.3000000  -0.4041452   0.2416807), wk =   0.0080000
        k(  225) = (  -0.3000000  -0.4041452  -0.2416807), wk =   0.0080000
        k(  226) = (   0.5000000  -0.0577350  -0.2416807), wk =   0.0080000
        k(  227) = (  -0.5000000   0.0577350  -0.2416807), wk =   0.0080000
        k(  228) = (   0.3000000   0.4041452  -0.2416807), wk =   0.0080000
        k(  229) = (  -0.4000000   0.4618802   0.0000000), wk =   0.0080000
        k(  230) = (   0.6000000   0.1154701   0.0000000), wk =   0.0080000
        k(  231) = (  -0.2000000  -0.5773503   0.1208403), wk =   0.0080000
        k(  232) = (  -0.4000000   0.4618802   0.1208403), wk =   0.0080000
        k(  233) = (   0.6000000   0.1154701   0.1208403), wk =   0.0080000
        k(  234) = (  -0.6000000  -0.1154701   0.1208403), wk =   0.0080000
        k(  235) = (   0.4000000  -0.4618802   0.1208403), wk =   0.0080000
        k(  236) = (  -0.2000000  -0.5773503   0.2416807), wk =   0.0080000
        k(  237) = (  -0.4000000   0.4618802   0.2416807), wk =   0.0080000
        k(  238) = (   0.6000000   0.1154701   0.2416807), wk =   0.0080000
        k(  239) = (  -0.6000000  -0.1154701   0.2416807), wk =   0.0080000
        k(  240) = (   0.4000000  -0.4618802   0.2416807), wk =   0.0080000
        k(  241) = (  -0.3000000   0.5196152   0.0000000), wk =   0.0080000
        k(  242) = (   0.6000000  -0.0000000   0.0000000), wk =   0.0080000
        k(  243) = (  -0.3000000  -0.5196152   0.1208403), wk =   0.0080000
        k(  244) = (  -0.3000000   0.5196152  -0.1208403), wk =   0.0080000
        k(  245) = (   0.3000000  -0.5196152  -0.1208403), wk =   0.0080000
        k(  246) = (   0.6000000  -0.0000000   0.1208403), wk =   0.0080000
        k(  247) = (  -0.6000000   0.0000000   0.1208403), wk =   0.0080000
        k(  248) = (  -0.3000000  -0.5196152   0.2416807), wk =   0.0080000
        k(  249) = (  -0.3000000   0.5196152  -0.2416807), wk =   0.0080000
        k(  250) = (   0.3000000  -0.5196152  -0.2416807), wk =   0.0080000
        k(  251) = (   0.6000000  -0.0000000   0.2416807), wk =   0.0080000
        k(  252) = (  -0.6000000   0.0000000   0.2416807), wk =   0.0080000

                       cryst. coord.
        k(    1) = (   0.0000000   0.0000000   0.0000000), wk =   0.0040000
        k(    2) = (   0.0000000   0.0000000   0.2000000), wk =   0.0080000
        k(    3) = (   0.0000000   0.0000000   0.4000000), wk =   0.0080000
        k(    4) = (   0.0000000   0.1000000   0.0000000), wk =   0.0080000
        k(    5) = (   0.0000000   0.1000000   0.2000000), wk =   0.0080000
        k(    6) = (   0.0000000   0.1000000   0.4000000), wk =   0.0080000
        k(    7) = (   0.0000000   0.2000000   0.0000000), wk =   0.0080000
        k(    8) = (   0.0000000   0.2000000   0.2000000), wk =   0.0080000
        k(    9) = (   0.0000000   0.2000000   0.4000000), wk =   0.0080000
        k(   10) = (   0.0000000   0.3000000   0.0000000), wk =   0.0080000
        k(   11) = (   0.0000000   0.3000000   0.2000000), wk =   0.0080000
        k(   12) = (   0.0000000   0.3000000   0.4000000), wk =   0.0080000
        k(   13) = (   0.0000000   0.4000000   0.0000000), wk =   0.0080000
        k(   14) = (   0.0000000   0.4000000   0.2000000), wk =   0.0080000
        k(   15) = (   0.0000000   0.4000000   0.4000000), wk =   0.0080000
        k(   16) = (   0.0000000  -0.5000000   0.0000000), wk =   0.0040000
        k(   17) = (   0.0000000  -0.5000000   0.2000000), wk =   0.0080000
        k(   18) = (   0.0000000  -0.5000000   0.4000000), wk =   0.0080000
        k(   19) = (   0.1000000   0.1000000   0.0000000), wk =   0.0080000
        k(   20) = (   0.1000000   0.1000000   0.2000000), wk =   0.0080000
        k(   21) = (   0.1000000   0.1000000   0.4000000), wk =   0.0080000
        k(   22) = (   0.1000000   0.2000000   0.0000000), wk =   0.0080000
        k(   23) = (   0.1000000   0.2000000   0.2000000), wk =   0.0080000
        k(   24) = (   0.1000000   0.2000000   0.4000000), wk =   0.0080000
        k(   25) = (   0.1000000   0.3000000   0.0000000), wk =   0.0080000
        k(   26) = (   0.1000000   0.3000000   0.2000000), wk =   0.0080000
        k(   27) = (   0.1000000   0.3000000   0.4000000), wk =   0.0080000
        k(   28) = (   0.1000000   0.4000000   0.0000000), wk =   0.0080000
        k(   29) = (   0.1000000   0.4000000   0.2000000), wk =   0.0080000
        k(   30) = (   0.1000000   0.4000000   0.4000000), wk =   0.0080000
        k(   31) = (   0.2000000   0.2000000   0.0000000), wk =   0.0080000
        k(   32) = (   0.2000000   0.2000000   0.2000000), wk =   0.0080000
        k(   33) = (   0.2000000   0.2000000   0.4000000), wk =   0.0080000
        k(   34) = (   0.2000000   0.3000000   0.0000000), wk =   0.0080000
        k(   35) = (   0.2000000   0.3000000   0.2000000), wk =   0.0080000
        k(   36) = (   0.2000000   0.3000000   0.4000000), wk =   0.0080000
        k(   37) = (   0.2000000   0.4000000   0.0000000), wk =   0.0080000
        k(   38) = (   0.2000000   0.4000000   0.2000000), wk =   0.0080000
        k(   39) = (   0.2000000   0.4000000   0.4000000), wk =   0.0080000
        k(   40) = (   0.3000000   0.3000000   0.0000000), wk =   0.0080000
        k(   41) = (   0.3000000   0.3000000   0.2000000), wk =   0.0080000
        k(   42) = (   0.3000000   0.3000000   0.4000000), wk =   0.0080000
        k(   43) = (  -0.1000000   0.1000000   0.0000000), wk =   0.0080000
        k(   44) = (   0.1000000   0.0000000   0.0000000), wk =   0.0080000
        k(   45) = (   0.0000000  -0.1000000   0.2000000), wk =   0.0080000
        k(   46) = (  -0.1000000   0.1000000   0.2000000), wk =   0.0080000
        k(   47) = (   0.1000000   0.0000000   0.2000000), wk =   0.0080000
        k(   48) = (  -0.1000000   0.0000000   0.2000000), wk =   0.0080000
        k(   49) = (   0.1000000  -0.1000000   0.2000000), wk =   0.0080000
        k(   50) = (   0.0000000  -0.1000000   0.4000000), wk =   0.0080000
        k(   51) = (  -0.1000000   0.1000000   0.4000000), wk =   0.0080000
        k(   52) = (   0.1000000   0.0000000   0.4000000), wk =   0.0080000
        k(   53) = (  -0.1000000   0.0000000   0.4000000), wk =   0.0080000
        k(   54) = (   0.1000000  -0.1000000   0.4000000), wk =   0.0080000
        k(   55) = (  -0.2000000   0.2000000   0.0000000), wk =   0.0080000
        k(   56) = (   0.2000000   0.0000000   0.0000000), wk =   0.0080000
        k(   57) = (   0.0000000  -0.2000000   0.2000000), wk =   0.0080000
        k(   58) = (  -0.2000000   0.2000000   0.2000000), wk =   0.0080000
        k(   59) = (   0.2000000   0.0000000   0.2000000), wk =   0.0080000
        k(   60) = (  -0.2000000   0.0000000   0.2000000), wk =   0.0080000
        k(   61) = (   0.2000000  -0.2000000   0.2000000), wk =   0.0080000
        k(   62) = (   0.0000000  -0.2000000   0.4000000), wk =   0.0080000
        k(   63) = (  -0.2000000   0.2000000   0.4000000), wk =   0.0080000
        k(   64) = (   0.2000000   0.0000000   0.4000000), wk =   0.0080000
        k(   65) = (  -0.2000000   0.0000000   0.4000000), wk =   0.0080000
        k(   66) = (   0.2000000  -0.2000000   0.4000000), wk =   0.0080000
        k(   67) = (  -0.3000000   0.3000000   0.0000000), wk =   0.0080000
        k(   68) = (   0.3000000   0.0000000   0.0000000), wk =   0.0080000
        k(   69) = (   0.0000000  -0.3000000   0.2000000), wk =   0.0080000
        k(   70) = (  -0.3000000   0.3000000   0.2000000), wk =   0.0080000
        k(   71) = (   0.3000000   0.0000000   0.2000000), wk =   0.0080000
        k(   72) = (  -0.3000000   0.0000000   0.2000000), wk =   0.0080000
        k(   73) = (   0.3000000  -0.3000000   0.2000000), wk =   0.0080000
        k(   74) = (   0.0000000  -0.3000000   0.4000000), wk =   0.0080000
        k(   75) = (  -0.3000000   0.3000000   0.4000000), wk =   0.0080000
        k(   76) = (   0.3000000   0.0000000   0.4000000), wk =   0.0080000
        k(   77) = (  -0.3000000   0.0000000   0.4000000), wk =   0.0080000
        k(   78) = (   0.3000000  -0.3000000   0.4000000), wk =   0.0080000
        k(   79) = (  -0.4000000   0.4000000   0.0000000), wk =   0.0080000
        k(   80) = (   0.4000000   0.0000000   0.0000000), wk =   0.0080000
        k(   81) = (   0.0000000  -0.4000000   0.2000000), wk =   0.0080000
        k(   82) = (  -0.4000000   0.4000000   0.2000000), wk =   0.0080000
        k(   83) = (   0.4000000   0.0000000   0.2000000), wk =   0.0080000
        k(   84) = (  -0.4000000   0.0000000   0.2000000), wk =   0.0080000
        k(   85) = (   0.4000000  -0.4000000   0.2000000), wk =   0.0080000
        k(   86) = (   0.0000000  -0.4000000   0.4000000), wk =   0.0080000
        k(   87) = (  -0.4000000   0.4000000   0.4000000), wk =   0.0080000
        k(   88) = (   0.4000000   0.0000000   0.4000000), wk =   0.0080000
        k(   89) = (  -0.4000000   0.0000000   0.4000000), wk =   0.0080000
        k(   90) = (   0.4000000  -0.4000000   0.4000000), wk =   0.0080000
        k(   91) = (   0.5000000  -0.5000000   0.0000000), wk =   0.0040000
        k(   92) = (  -0.5000000   0.0000000   0.0000000), wk =   0.0040000
        k(   93) = (   0.5000000  -0.5000000   0.2000000), wk =   0.0080000
        k(   94) = (  -0.5000000   0.0000000   0.2000000), wk =   0.0080000
        k(   95) = (   0.5000000  -0.5000000   0.4000000), wk =   0.0080000
        k(   96) = (  -0.5000000   0.0000000   0.4000000), wk =   0.0080000
        k(   97) = (  -0.1000000   0.2000000   0.0000000), wk =   0.0080000
        k(   98) = (   0.2000000  -0.1000000   0.0000000), wk =   0.0080000
        k(   99) = (  -0.1000000  -0.1000000   0.2000000), wk =   0.0080000
        k(  100) = (  -0.1000000   0.2000000  -0.2000000), wk =   0.0080000
        k(  101) = (   0.1000000  -0.2000000  -0.2000000), wk =   0.0080000
        k(  102) = (   0.2000000  -0.1000000   0.2000000), wk =   0.0080000
        k(  103) = (  -0.2000000   0.1000000   0.2000000), wk =   0.0080000
        k(  104) = (  -0.1000000  -0.1000000   0.4000000), wk =   0.0080000
        k(  105) = (  -0.1000000   0.2000000  -0.4000000), wk =   0.0080000
        k(  106) = (   0.1000000  -0.2000000  -0.4000000), wk =   0.0080000
        k(  107) = (   0.2000000  -0.1000000   0.4000000), wk =   0.0080000
        k(  108) = (  -0.2000000   0.1000000   0.4000000), wk =   0.0080000
        k(  109) = (  -0.1000000   0.3000000   0.0000000), wk =   0.0080000
        k(  110) = (  -0.2000000   0.3000000   0.0000000), wk =   0.0080000
        k(  111) = (   0.3000000  -0.1000000   0.0000000), wk =   0.0080000
        k(  112) = (  -0.2000000  -0.1000000   0.0000000), wk =   0.0080000
        k(  113) = (   0.3000000  -0.2000000   0.0000000), wk =   0.0080000
        k(  114) = (  -0.1000000  -0.2000000   0.2000000), wk =   0.0080000
        k(  115) = (  -0.1000000   0.3000000  -0.2000000), wk =   0.0080000
        k(  116) = (   0.1000000  -0.3000000  -0.2000000), wk =   0.0080000
        k(  117) = (  -0.2000000   0.3000000   0.2000000), wk =   0.0080000
        k(  118) = (   0.3000000  -0.1000000   0.2000000), wk =   0.0080000
        k(  119) = (  -0.3000000   0.1000000   0.2000000), wk =   0.0080000
        k(  120) = (   0.2000000  -0.3000000   0.2000000), wk =   0.0080000
        k(  121) = (  -0.2000000  -0.1000000  -0.2000000), wk =   0.0080000
        k(  122) = (   0.3000000  -0.2000000  -0.2000000), wk =   0.0080000
        k(  123) = (  -0.3000000   0.2000000  -0.2000000), wk =   0.0080000
        k(  124) = (   0.2000000   0.1000000  -0.2000000), wk =   0.0080000
        k(  125) = (  -0.1000000  -0.2000000   0.4000000), wk =   0.0080000
        k(  126) = (  -0.1000000   0.3000000  -0.4000000), wk =   0.0080000
        k(  127) = (   0.1000000  -0.3000000  -0.4000000), wk =   0.0080000
        k(  128) = (  -0.2000000   0.3000000   0.4000000), wk =   0.0080000
        k(  129) = (   0.3000000  -0.1000000   0.4000000), wk =   0.0080000
        k(  130) = (  -0.3000000   0.1000000   0.4000000), wk =   0.0080000
        k(  131) = (   0.2000000  -0.3000000   0.4000000), wk =   0.0080000
        k(  132) = (  -0.2000000  -0.1000000  -0.4000000), wk =   0.0080000
        k(  133) = (   0.3000000  -0.2000000  -0.4000000), wk =   0.0080000
        k(  134) = (  -0.3000000   0.2000000  -0.4000000), wk =   0.0080000
        k(  135) = (   0.2000000   0.1000000  -0.4000000), wk =   0.0080000
        k(  136) = (  -0.1000000   0.4000000   0.0000000), wk =   0.0080000
        k(  137) = (  -0.3000000   0.4000000   0.0000000), wk =   0.0080000
        k(  138) = (   0.4000000  -0.1000000   0.0000000), wk =   0.0080000
        k(  139) = (  -0.3000000  -0.1000000   0.0000000), wk =   0.0080000
        k(  140) = (   0.4000000  -0.3000000   0.0000000), wk =   0.0080000
        k(  141) = (  -0.1000000  -0.3000000   0.2000000), wk =   0.0080000
        k(  142) = (  -0.1000000   0.4000000  -0.2000000), wk =   0.0080000
        k(  143) = (   0.1000000  -0.4000000  -0.2000000), wk =   0.0080000
        k(  144) = (  -0.3000000   0.4000000   0.2000000), wk =   0.0080000
        k(  145) = (   0.4000000  -0.1000000   0.2000000), wk =   0.0080000
        k(  146) = (  -0.4000000   0.1000000   0.2000000), wk =   0.0080000
        k(  147) = (   0.3000000  -0.4000000   0.2000000), wk =   0.0080000
        k(  148) = (  -0.3000000  -0.1000000  -0.2000000), wk =   0.0080000
        k(  149) = (   0.4000000  -0.3000000  -0.2000000), wk =   0.0080000
        k(  150) = (  -0.4000000   0.3000000  -0.2000000), wk =   0.0080000
        k(  151) = (   0.3000000   0.1000000  -0.2000000), wk =   0.0080000
        k(  152) = (  -0.1000000  -0.3000000   0.4000000), wk =   0.0080000
        k(  153) = (  -0.1000000   0.4000000  -0.4000000), wk =   0.0080000
        k(  154) = (   0.1000000  -0.4000000  -0.4000000), wk =   0.0080000
        k(  155) = (  -0.3000000   0.4000000   0.4000000), wk =   0.0080000
        k(  156) = (   0.4000000  -0.1000000   0.4000000), wk =   0.0080000
        k(  157) = (  -0.4000000   0.1000000   0.4000000), wk =   0.0080000
        k(  158) = (   0.3000000  -0.4000000   0.4000000), wk =   0.0080000
        k(  159) = (  -0.3000000  -0.1000000  -0.4000000), wk =   0.0080000
        k(  160) = (   0.4000000  -0.3000000  -0.4000000), wk =   0.0080000
        k(  161) = (  -0.4000000   0.3000000  -0.4000000), wk =   0.0080000
        k(  162) = (   0.3000000   0.1000000  -0.4000000), wk =   0.0080000
        k(  163) = (  -0.1000000   0.5000000   0.0000000), wk =   0.0080000
        k(  164) = (  -0.4000000   0.5000000   0.0000000), wk =   0.0080000
        k(  165) = (   0.5000000  -0.1000000   0.0000000), wk =   0.0080000
        k(  166) = (  -0.4000000  -0.1000000   0.0000000), wk =   0.0080000
        k(  167) = (   0.5000000  -0.4000000   0.0000000), wk =   0.0080000
        k(  168) = (  -0.1000000  -0.4000000   0.2000000), wk =   0.0080000
        k(  169) = (  -0.1000000   0.5000000  -0.2000000), wk =   0.0080000
        k(  170) = (   0.1000000  -0.5000000  -0.2000000), wk =   0.0080000
        k(  171) = (  -0.4000000   0.5000000   0.2000000), wk =   0.0080000
        k(  172) = (   0.5000000  -0.1000000   0.2000000), wk =   0.0080000
        k(  173) = (  -0.5000000   0.1000000   0.2000000), wk =   0.0080000
        k(  174) = (   0.4000000  -0.5000000   0.2000000), wk =   0.0080000
        k(  175) = (  -0.4000000  -0.1000000  -0.2000000), wk =   0.0080000
        k(  176) = (   0.5000000  -0.4000000  -0.2000000), wk =   0.0080000
        k(  177) = (  -0.5000000   0.4000000  -0.2000000), wk =   0.0080000
        k(  178) = (   0.4000000   0.1000000  -0.2000000), wk =   0.0080000
        k(  179) = (  -0.1000000  -0.4000000   0.4000000), wk =   0.0080000
        k(  180) = (  -0.1000000   0.5000000  -0.4000000), wk =   0.0080000
        k(  181) = (   0.1000000  -0.5000000  -0.4000000), wk =   0.0080000
        k(  182) = (  -0.4000000   0.5000000   0.4000000), wk =   0.0080000
        k(  183) = (   0.5000000  -0.1000000   0.4000000), wk =   0.0080000
        k(  184) = (  -0.5000000   0.1000000   0.4000000), wk =   0.0080000
        k(  185) = (   0.4000000  -0.5000000   0.4000000), wk =   0.0080000
        k(  186) = (  -0.4000000  -0.1000000  -0.4000000), wk =   0.0080000
        k(  187) = (   0.5000000  -0.4000000  -0.4000000), wk =   0.0080000
        k(  188) = (  -0.5000000   0.4000000  -0.4000000), wk =   0.0080000
        k(  189) = (   0.4000000   0.1000000  -0.4000000), wk =   0.0080000
        k(  190) = (  -0.2000000   0.4000000   0.0000000), wk =   0.0080000
        k(  191) = (   0.4000000  -0.2000000   0.0000000), wk =   0.0080000
        k(  192) = (  -0.2000000  -0.2000000   0.2000000), wk =   0.0080000
        k(  193) = (  -0.2000000   0.4000000  -0.2000000), wk =   0.0080000
        k(  194) = (   0.2000000  -0.4000000  -0.2000000), wk =   0.0080000
        k(  195) = (   0.4000000  -0.2000000   0.2000000), wk =   0.0080000
        k(  196) = (  -0.4000000   0.2000000   0.2000000), wk =   0.0080000
        k(  197) = (  -0.2000000  -0.2000000   0.4000000), wk =   0.0080000
        k(  198) = (  -0.2000000   0.4000000  -0.4000000), wk =   0.0080000
        k(  199) = (   0.2000000  -0.4000000  -0.4000000), wk =   0.0080000
        k(  200) = (   0.4000000  -0.2000000   0.4000000), wk =   0.0080000
        k(  201) = (  -0.4000000   0.2000000   0.4000000), wk =   0.0080000
        k(  202) = (  -0.2000000   0.5000000   0.0000000), wk =   0.0080000
        k(  203) = (  -0.3000000   0.5000000   0.0000000), wk =   0.0080000
        k(  204) = (   0.5000000  -0.2000000   0.0000000), wk =   0.0080000
        k(  205) = (  -0.3000000  -0.2000000   0.0000000), wk =   0.0080000
        k(  206) = (   0.5000000  -0.3000000   0.0000000), wk =   0.0080000
        k(  207) = (  -0.2000000  -0.3000000   0.2000000), wk =   0.0080000
        k(  208) = (  -0.2000000   0.5000000  -0.2000000), wk =   0.0080000
        k(  209) = (   0.2000000  -0.5000000  -0.2000000), wk =   0.0080000
        k(  210) = (  -0.3000000   0.5000000   0.2000000), wk =   0.0080000
        k(  211) = (   0.5000000  -0.2000000   0.2000000), wk =   0.0080000
        k(  212) = (  -0.5000000   0.2000000   0.2000000), wk =   0.0080000
        k(  213) = (   0.3000000  -0.5000000   0.2000000), wk =   0.0080000
        k(  214) = (  -0.3000000  -0.2000000  -0.2000000), wk =   0.0080000
        k(  215) = (   0.5000000  -0.3000000  -0.2000000), wk =   0.0080000
        k(  216) = (  -0.5000000   0.3000000  -0.2000000), wk =   0.0080000
        k(  217) = (   0.3000000   0.2000000  -0.2000000), wk =   0.0080000
        k(  218) = (  -0.2000000  -0.3000000   0.4000000), wk =   0.0080000
        k(  219) = (  -0.2000000   0.5000000  -0.4000000), wk =   0.0080000
        k(  220) = (   0.2000000  -0.5000000  -0.4000000), wk =   0.0080000
        k(  221) = (  -0.3000000   0.5000000   0.4000000), wk =   0.0080000
        k(  222) = (   0.5000000  -0.2000000   0.4000000), wk =   0.0080000
        k(  223) = (  -0.5000000   0.2000000   0.4000000), wk =   0.0080000
        k(  224) = (   0.3000000  -0.5000000   0.4000000), wk =   0.0080000
        k(  225) = (  -0.3000000  -0.2000000  -0.4000000), wk =   0.0080000
        k(  226) = (   0.5000000  -0.3000000  -0.4000000), wk =   0.0080000
        k(  227) = (  -0.5000000   0.3000000  -0.4000000), wk =   0.0080000
        k(  228) = (   0.3000000   0.2000000  -0.4000000), wk =   0.0080000
        k(  229) = (  -0.4000000   0.6000000   0.0000000), wk =   0.0080000
        k(  230) = (   0.6000000  -0.2000000   0.0000000), wk =   0.0080000
        k(  231) = (  -0.2000000  -0.4000000   0.2000000), wk =   0.0080000
        k(  232) = (  -0.4000000   0.6000000   0.2000000), wk =   0.0080000
        k(  233) = (   0.6000000  -0.2000000   0.2000000), wk =   0.0080000
        k(  234) = (  -0.6000000   0.2000000   0.2000000), wk =   0.0080000
        k(  235) = (   0.4000000  -0.6000000   0.2000000), wk =   0.0080000
        k(  236) = (  -0.2000000  -0.4000000   0.4000000), wk =   0.0080000
        k(  237) = (  -0.4000000   0.6000000   0.4000000), wk =   0.0080000
        k(  238) = (   0.6000000  -0.2000000   0.4000000), wk =   0.0080000
        k(  239) = (  -0.6000000   0.2000000   0.4000000), wk =   0.0080000
        k(  240) = (   0.4000000  -0.6000000   0.4000000), wk =   0.0080000
        k(  241) = (  -0.3000000   0.6000000   0.0000000), wk =   0.0080000
        k(  242) = (   0.6000000  -0.3000000   0.0000000), wk =   0.0080000
        k(  243) = (  -0.3000000  -0.3000000   0.2000000), wk =   0.0080000
        k(  244) = (  -0.3000000   0.6000000  -0.2000000), wk =   0.0080000
        k(  245) = (   0.3000000  -0.6000000  -0.2000000), wk =   0.0080000
        k(  246) = (   0.6000000  -0.3000000   0.2000000), wk =   0.0080000
        k(  247) = (  -0.6000000   0.3000000   0.2000000), wk =   0.0080000
        k(  248) = (  -0.3000000  -0.3000000   0.4000000), wk =   0.0080000
        k(  249) = (  -0.3000000   0.6000000  -0.4000000), wk =   0.0080000
        k(  250) = (   0.3000000  -0.6000000  -0.4000000), wk =   0.0080000
        k(  251) = (   0.6000000  -0.3000000   0.4000000), wk =   0.0080000
        k(  252) = (  -0.6000000   0.3000000   0.4000000), wk =   0.0080000

     Dense  grid:    23837 G-vectors     FFT dimensions: (  32,  32,  54)

     Smooth grid:    14823 G-vectors     FFT dimensions: (  27,  27,  45)

     Dynamical RAM for                 wfc:       0.02 MB

     Dynamical RAM for     wfc (w. buffer):       5.33 MB

     Dynamical RAM for           str. fact:       0.05 MB

     Dynamical RAM for           local pot:       0.00 MB

     Dynamical RAM for          nlocal pot:       0.06 MB

     Dynamical RAM for                qrad:       0.96 MB

     Dynamical RAM for          rho,v,vnew:       0.16 MB

     Dynamical RAM for               rhoin:       0.05 MB

     Dynamical RAM for            rho*nmix:       0.36 MB

     Dynamical RAM for           G-vectors:       0.09 MB

     Dynamical RAM for          h,s,v(r/c):       0.03 MB

     Dynamical RAM for          <psi|beta>:       0.01 MB

     Dynamical RAM for                 psi:       0.04 MB

     Dynamical RAM for                hpsi:       0.04 MB

     Dynamical RAM for                spsi:       0.04 MB

     Dynamical RAM for      wfcinit/wfcrot:       0.06 MB

     Dynamical RAM for           addusdens:       1.02 MB

     Dynamical RAM for          addusforce:       1.08 MB

     Dynamical RAM for         addusstress:       1.14 MB

     Estimated static dynamical RAM per process >       7.29 MB

     Estimated max dynamical RAM per process >       8.42 MB

     Estimated total dynamical RAM >     134.79 MB

     Check: negative core charge=   -0.000011

     Initial potential from superposition of free atoms

     starting charge   15.99942, renormalised to   16.00000
     Starting wfcs are   16 randomized atomic wfcs

     total cpu time spent up to now is        0.9 secs

     Self-consistent Calculation

     iteration #  1     ecut=    80.00 Ry     beta= 0.40
     Davidson diagonalization with overlap
     ethr =  1.00E-02,  avg # of iterations =  3.0

     total cpu time spent up to now is        2.3 secs

     total energy              =     -54.79942284 Ry
     estimated scf accuracy    <       0.44006817 Ry

     iteration #  2     ecut=    80.00 Ry     beta= 0.40
     Davidson diagonalization with overlap
     ethr =  2.75E-03,  avg # of iterations =  1.6

     total cpu time spent up to now is        3.4 secs

     total energy              =     -54.84053584 Ry
     estimated scf accuracy    <       0.04457254 Ry

     iteration #  3     ecut=    80.00 Ry     beta= 0.40
     Davidson diagonalization with overlap
     ethr =  2.79E-04,  avg # of iterations =  3.9

     total cpu time spent up to now is        4.6 secs

     total energy              =     -54.84341723 Ry
     estimated scf accuracy    <       0.01043588 Ry

     iteration #  4     ecut=    80.00 Ry     beta= 0.40
     Davidson diagonalization with overlap
     ethr =  6.52E-05,  avg # of iterations =  3.9

     total cpu time spent up to now is        5.7 secs

     total energy              =     -54.84474005 Ry
     estimated scf accuracy    <       0.00024683 Ry

     iteration #  5     ecut=    80.00 Ry     beta= 0.40
     Davidson diagonalization with overlap
     c_bands:  1 eigenvalues not converged
     c_bands:  1 eigenvalues not converged
     c_bands:  1 eigenvalues not converged
     c_bands:  1 eigenvalues not converged
     c_bands:  1 eigenvalues not converged
     c_bands:  1 eigenvalues not converged
     c_bands:  1 eigenvalues not converged
     c_bands:  1 eigenvalues not converged
     c_bands:  1 eigenvalues not converged
     c_bands:  1 eigenvalues not converged
     c_bands:  1 eigenvalues not converged
     c_bands:  1 eigenvalues not converged
     c_bands:  1 eigenvalues not converged
     c_bands:  1 eigenvalues not converged
     ethr =  1.54E-06,  avg # of iterations =  9.0

     total cpu time spent up to now is        7.8 secs

     total energy              =     -54.84481044 Ry
     estimated scf accuracy    <       0.00012241 Ry

     iteration #  6     ecut=    80.00 Ry     beta= 0.40
     Davidson diagonalization with overlap
     ethr =  7.65E-07,  avg # of iterations =  2.4

     total cpu time spent up to now is        8.9 secs

     total energy              =     -54.84483400 Ry
     estimated scf accuracy    <       0.00003291 Ry

     iteration #  7     ecut=    80.00 Ry     beta= 0.40
     Davidson diagonalization with overlap
     ethr =  2.06E-07,  avg # of iterations =  2.0

     total cpu time spent up to now is       10.0 secs

     total energy              =     -54.84484154 Ry
     estimated scf accuracy    <       0.00000083 Ry

     iteration #  8     ecut=    80.00 Ry     beta= 0.40
     Davidson diagonalization with overlap
     ethr =  5.19E-09,  avg # of iterations =  4.4

     total cpu time spent up to now is       11.4 secs

     total energy              =     -54.84484156 Ry
     estimated scf accuracy    <       0.00000101 Ry

     iteration #  9     ecut=    80.00 Ry     beta= 0.40
     Davidson diagonalization with overlap
     ethr =  5.19E-09,  avg # of iterations =  2.0

     total cpu time spent up to now is       12.5 secs

     total energy              =     -54.84484179 Ry
     estimated scf accuracy    <          9.4E-09 Ry

     iteration # 10     ecut=    80.00 Ry     beta= 0.40
     Davidson diagonalization with overlap
     ethr =  5.88E-11,  avg # of iterations =  3.4

     total cpu time spent up to now is       13.7 secs

     total energy              =     -54.84484180 Ry
     estimated scf accuracy    <          1.2E-09 Ry

     iteration # 11     ecut=    80.00 Ry     beta= 0.40
     Davidson diagonalization with overlap
     ethr =  7.79E-12,  avg # of iterations =  3.6

     total cpu time spent up to now is       15.1 secs

     total energy              =     -54.84484180 Ry
     estimated scf accuracy    <          1.3E-09 Ry

     iteration # 12     ecut=    80.00 Ry     beta= 0.40
     Davidson diagonalization with overlap
     ethr =  7.79E-12,  avg # of iterations =  1.5

     total cpu time spent up to now is       16.0 secs

     End of self-consistent calculation

          k = 0.0000 0.0000 0.0000 (  1835 PWs)   bands (ev):

    -8.8771  -4.5397   0.6731   9.7600   9.7601  11.6678  11.9579  11.9579
    20.6034  20.6035  20.8668  22.0878

     occupation numbers 
     1.0000   1.0000   1.0000   1.0000   1.0000   1.0425   0.4639   0.4638
     0.0000   0.0000   0.0000   0.0000

          k = 0.0000 0.0000 0.1208 (  1852 PWs)   bands (ev):

    -8.6307  -5.3623   1.9306   9.9341   9.9341  10.3934  11.6996  11.6997
    20.8954  20.8954  21.3485  22.0604

     occupation numbers 
     1.0000   1.0000   1.0000   1.0000   1.0000   1.0000   1.0107   1.0107
     0.0000   0.0000   0.0000   0.0000

          k = 0.0000 0.0000 0.2417 (  1870 PWs)   bands (ev):

    -7.9039  -6.7501   4.5748   7.6225  10.4179  10.4179  11.0849  11.0849
    21.6847  21.6847  21.8253  21.9855

     occupation numbers 
     1.0000   1.0000   1.0000   1.0000   1.0000   1.0000   1.0015   1.0015
     0.0000   0.0000   0.0000   0.0000

          k = 0.0000 0.1155 0.0000 (  1845 PWs)   bands (ev):

    -8.6527  -4.3667   0.8949   8.7698   9.3474  11.1423  11.4469  11.7243
    20.2920  21.0460  21.2072  22.7587

     occupation numbers 
     1.0000   1.0000   1.0000   1.0000   1.0000   1.0033   1.0604   0.9789
     0.0000   0.0000   0.0000   0.0000

          k = 0.0000 0.1155 0.1208 (  1846 PWs)   bands (ev):

    -8.4078  -5.1720   2.1220   8.9565   9.5317  10.1662  11.0071  11.4374
    20.4388  21.3811  21.6493  22.7197

     occupation numbers 
     1.0000   1.0000   1.0000   1.0000   1.0000   1.0000   1.0004   1.0574
     0.0000   0.0000   0.0000   0.0000

          k = 0.0000 0.1155 0.2417 (  1868 PWs)   bands (ev):

    -7.6859  -6.5421   4.7007   7.6251   9.4971  10.0465  10.2555  10.7646
    21.1687  21.9422  22.2538  22.6072

     occupation numbers 
     1.0000   1.0000   1.0000   1.0000   1.0000   1.0000   1.0000   1.0000
     0.0000   0.0000   0.0000   0.0000

          k = 0.0000 0.2309 0.0000 (  1852 PWs)   bands (ev):

    -7.9894  -3.8830   1.5475   6.5440   8.4601   9.2371  10.7782  11.1206
    19.7818  21.6344  21.9791  23.4458

     occupation numbers 
     1.0000   1.0000   1.0000   1.0000   1.0000   1.0000   1.0000   1.0025
     0.0000   0.0000   0.0000   0.0000

          k = 0.0000 0.2309 0.1208 (  1845 PWs)   bands (ev):

    -7.7497  -4.6289   2.6539   6.7814   8.6288   8.6604  10.2962  10.7877
    19.7178  21.5580  22.4336  23.2583

     occupation numbers 
     1.0000   1.0000   1.0000   1.0000   1.0000   1.0000   1.0000   1.0000
     0.0000   0.0000   0.0000   0.0000

          k = 0.0000 0.2309 0.2417 (  1852 PWs)   bands (ev):

    -7.0452  -5.9361   4.9203   7.0651   7.6135   8.8697   9.2240  10.0224
    20.1909  21.1123  23.2396  23.5520

     occupation numbers 
     1.0000   1.0000   1.0000   1.0000   1.0000   1.0000   1.0000   1.0000
     0.0000   0.0000   0.0000   0.0000

          k = 0.0000 0.3464 0.0000 (  1838 PWs)   bands (ev):

    -6.9259  -3.2461   2.5750   4.1747   7.0208   7.5884   9.6692  10.4403
    19.3112  21.3313  22.6514  23.7102

     occupation numbers 
     1.0000   1.0000   1.0000   1.0000   1.0000   1.0000   1.0000   1.0000
     0.0000   0.0000   0.0000   0.0000

          k = 0.0000 0.3464 0.1208 (  1848 PWs)   bands (ev):

    -6.6984  -3.8551   3.1163   4.7915   6.3918   7.7994   9.6601  10.0761
    19.1642  20.7617  23.2141  23.2657

     occupation numbers 
     1.0000   1.0000   1.0000   1.0000   1.0000   1.0000   1.0000   1.0000
     0.0000   0.0000   0.0000   0.0000

          k = 0.0000 0.3464 0.2417 (  1850 PWs)   bands (ev):

    -6.0344  -5.0092   4.0377   5.1015   6.7086   8.3960   8.6689   9.2484
    19.3176  20.1425  22.9947  24.2091

     occupation numbers 
     1.0000   1.0000   1.0000   1.0000   1.0000   1.0000   1.0000   1.0000
     0.0000   0.0000   0.0000   0.0000

          k = 0.0000 0.4619 0.0000 (  1864 PWs)   bands (ev):

    -5.5815  -2.9412   2.5182   3.8582   5.0645   6.9935   8.2709   9.9446
    19.0128  20.4740  22.8579  24.0783

     occupation numbers 
     1.0000   1.0000   1.0000   1.0000   1.0000   1.0000   1.0000   1.0000
     0.0000   0.0000   0.0000   0.0000

          k = 0.0000 0.4619 0.1208 (  1860 PWs)   bands (ev):

    -5.3835  -3.2553   2.1015   4.1544   5.2857   7.2101   8.7359   9.5641
    18.9363  19.8078  23.3684  23.5880

     occupation numbers 
     1.0000   1.0000   1.0000   1.0000   1.0000   1.0000   1.0000   1.0000
     0.0000   0.0000   0.0000   0.0000

          k = 0.0000 0.4619 0.2417 (  1842 PWs)   bands (ev):

    -4.8211  -4.0161   2.2250   3.0441   7.2098   7.8237   8.6738   8.7041
    18.7760  19.3537  22.5365  23.3602

     occupation numbers 
     1.0000   1.0000   1.0000   1.0000   1.0000   1.0000   1.0000   1.0000
     0.0000   0.0000   0.0000   0.0000

          k = 0.0000-0.5774 0.0000 (  1858 PWs)   bands (ev):

    -4.5961  -3.2981   2.2043   3.9352   4.8357   6.7852   7.3626   9.7667
    18.9205  20.0999  22.8772  23.9288

     occupation numbers 
     1.0000   1.0000   1.0000   1.0000   1.0000   1.0000   1.0000   1.0000
     0.0000   0.0000   0.0000   0.0000

          k = 0.0000-0.5774 0.1208 (  1870 PWs)   bands (ev):

    -4.4471  -3.3536   1.6978   3.1560   5.8735   7.0035   8.0815   9.3812
    19.0168  19.2804  23.6229  23.6447

     occupation numbers 
     1.0000   1.0000   1.0000   1.0000   1.0000   1.0000   1.0000   1.0000
     0.0000   0.0000   0.0000   0.0000

          k = 0.0000-0.5774 0.2417 (  1850 PWs)   bands (ev):

    -4.0555  -3.6095   1.4326   2.0155   7.5954   7.6223   8.5112   8.5821
    18.6307  19.0025  22.5956  22.6689

     occupation numbers 
     1.0000   1.0000   1.0000   1.0000   1.0000   1.0000   1.0000   1.0000
     0.0000   0.0000   0.0000   0.0000

          k = 0.1000 0.1732 0.0000 (  1855 PWs)   bands (ev):

    -8.2087  -4.0370   1.3325   7.4151   8.3195  10.0821  11.0171  11.1089
    20.4143  21.1422  21.6821  23.6093

     occupation numbers 
     1.0000   1.0000   1.0000   1.0000   1.0000   1.0000   1.0005   1.0021
     0.0000   0.0000   0.0000   0.0000

          k = 0.1000 0.1732 0.1208 (  1850 PWs)   bands (ev):

    -7.9671  -4.8044   2.4870   7.6284   8.4582   9.4441  10.5189  10.7798
    20.3565  21.4659  22.0025  23.3691

     occupation numbers 
     1.0000   1.0000   1.0000   1.0000   1.0000   1.0000   1.0000   1.0000
     0.0000   0.0000   0.0000   0.0000

          k = 0.1000 0.1732 0.2417 (  1850 PWs)   bands (ev):

    -7.2563  -6.1345   4.8923   7.4244   8.2436   8.9788   9.5489  10.0390
    20.9813  21.9337  22.3602  22.4710

     occupation numbers 
     1.0000   1.0000   1.0000   1.0000   1.0000   1.0000   1.0000   1.0000
     0.0000   0.0000   0.0000   0.0000

          k = 0.1000 0.2887 0.0000 (  1847 PWs)   bands (ev):

    -7.3431  -3.4622   2.1798   5.3388   6.9429   8.4440  10.1643  10.2422
    20.2235  21.3747  22.3583  23.7815

     occupation numbers 
     1.0000   1.0000   1.0000   1.0000   1.0000   1.0000   1.0000   1.0000
     0.0000   0.0000   0.0000   0.0000

          k = 0.1000 0.2887 0.1208 (  1849 PWs)   bands (ev):

    -7.1100  -4.1354   3.0855   5.6710   6.9315   8.0086   9.8065  10.0688
    20.0720  21.4740  22.3534  23.6118

     occupation numbers 
     1.0000   1.0000   1.0000   1.0000   1.0000   1.0000   1.0000   1.0000
     0.0000   0.0000   0.0000   0.0000

          k = 0.1000 0.2887 0.2417 (  1855 PWs)   bands (ev):

    -6.4272  -5.3624   4.7364   6.0690   6.8860   8.0456   8.8247   9.1406
    20.3348  21.1961  22.9372  23.4203

     occupation numbers 
     1.0000   1.0000   1.0000   1.0000   1.0000   1.0000   1.0000   1.0000
     0.0000   0.0000   0.0000   0.0000

          k = 0.1000 0.4041 0.0000 (  1849 PWs)   bands (ev):

    -6.1242  -2.9267   3.2052   3.4782   5.6496   6.8937   8.9172   9.5555
    19.7283  20.7349  22.9320  24.4070

     occupation numbers 
     1.0000   1.0000   1.0000   1.0000   1.0000   1.0000   1.0000   1.0000
     0.0000   0.0000   0.0000   0.0000

          k = 0.1000 0.4041 0.1208 (  1847 PWs)   bands (ev):

    -5.9106  -3.3927   2.8204   4.6842   5.3464   6.8707   8.9912   9.3734
    19.6251  20.7605  22.6199  24.0065

     occupation numbers 
     1.0000   1.0000   1.0000   1.0000   1.0000   1.0000   1.0000   1.0000
     0.0000   0.0000   0.0000   0.0000

          k = 0.1000 0.4041 0.2417 (  1851 PWs)   bands (ev):

    -5.2937  -4.3680   3.1772   4.0574   6.7768   7.4647   8.1793   8.9392
    19.6299  20.3892  22.9313  23.9136

     occupation numbers 
     1.0000   1.0000   1.0000   1.0000   1.0000   1.0000   1.0000   1.0000
     0.0000   0.0000   0.0000   0.0000

          k = 0.1000 0.5196 0.0000 (  1862 PWs)   bands (ev):

    -4.7967  -3.0465   2.3592   4.2351   4.7660   6.1905   7.5996   9.1837
    19.3867  20.0982  23.1561  25.0217

     occupation numbers 
     1.0000   1.0000   1.0000   1.0000   1.0000   1.0000   1.0000   1.0000
     0.0000   0.0000   0.0000   0.0000

          k = 0.1000 0.5196 0.1208 (  1853 PWs)   bands (ev):

    -4.6301  -3.1785   1.9155   3.5562   5.6073   6.5247   8.1652   8.8588
    19.3345  20.1563  22.9147  24.3403

     occupation numbers 
     1.0000   1.0000   1.0000   1.0000   1.0000   1.0000   1.0000   1.0000
     0.0000   0.0000   0.0000   0.0000

          k = 0.1000 0.5196 0.2417 (  1849 PWs)   bands (ev):

    -4.1770  -3.6021   1.7846   2.4387   6.6532   7.5693   7.9116   8.8361
    19.2137  19.9011  22.8141  23.2489

     occupation numbers 
     1.0000   1.0000   1.0000   1.0000   1.0000   1.0000   1.0000   1.0000
     0.0000   0.0000   0.0000   0.0000

          k = 0.2000 0.3464 0.0000 (  1845 PWs)   bands (ev):

    -6.3141  -2.9413   3.1823   4.3229   4.9393   7.3663   8.8740   9.2120
    19.6859  21.9483  23.2377  24.3613

     occupation numbers 
     1.0000   1.0000   1.0000   1.0000   1.0000   1.0000   1.0000   1.0000
     0.0000   0.0000   0.0000   0.0000

          k = 0.2000 0.3464 0.1208 (  1837 PWs)   bands (ev):

    -6.0960  -3.4606   3.3382   5.0031   5.1909   6.7768   8.4413   9.4893
    20.3390  21.2205  23.0126  24.3010

     occupation numbers 
     1.0000   1.0000   1.0000   1.0000   1.0000   1.0000   1.0000   1.0000
     0.0000   0.0000   0.0000   0.0000

          k = 0.2000 0.3464 0.2417 (  1856 PWs)   bands (ev):

    -5.4632  -4.5022   3.8916   4.6735   6.5418   6.7822   7.7830   8.9809
    20.7509  21.1457  23.2905  23.8184

     occupation numbers 
     1.0000   1.0000   1.0000   1.0000   1.0000   1.0000   1.0000   1.0000
     0.0000   0.0000   0.0000   0.0000

          k = 0.2000 0.4619 0.0000 (  1848 PWs)   bands (ev):

    -5.0303  -2.7412   3.0284   4.1976   4.4470   5.9344   7.8846   8.0924
    18.4561  22.6032  24.1301  25.4986

     occupation numbers 
     1.0000   1.0000   1.0000   1.0000   1.0000   1.0000   1.0000   1.0000
     0.0000   0.0000   0.0000   0.0000

          k = 0.2000 0.4619 0.1208 (  1854 PWs)   bands (ev):

    -4.8469  -2.9893   2.6807   3.8572   5.2465   5.9268   7.4664   8.6891
    19.2384  22.0713  23.1846  25.1234

     occupation numbers 
     1.0000   1.0000   1.0000   1.0000   1.0000   1.0000   1.0000   1.0000
     0.0000   0.0000   0.0000   0.0000

          k = 0.2000 0.4619 0.2417 (  1846 PWs)   bands (ev):

    -4.3331  -3.6225   2.6765   3.2758   5.3929   6.2414   7.8740   8.9521
    20.3747  21.1221  23.1967  23.8660

     occupation numbers 
     1.0000   1.0000   1.0000   1.0000   1.0000   1.0000   1.0000   1.0000
     0.0000   0.0000   0.0000   0.0000

          k = 0.2000 0.5774 0.0000 (  1860 PWs)   bands (ev):

    -4.0895  -3.0837   2.4717   4.4224   4.8674   5.3983   7.0512   7.7606
    17.9845  22.6144  24.5544  26.0733

     occupation numbers 
     1.0000   1.0000   1.0000   1.0000   1.0000   1.0000   1.0000   1.0000
     0.0000   0.0000   0.0000   0.0000

          k = 0.2000 0.5774 0.1208 (  1854 PWs)   bands (ev):

    -3.9621  -3.1188   2.2308   3.6348   4.5451   6.6511   6.9763   8.1270
    18.7954  22.5094  23.1056  24.8516

     occupation numbers 
     1.0000   1.0000   1.0000   1.0000   1.0000   1.0000   1.0000   1.0000
     0.0000   0.0000   0.0000   0.0000

          k = 0.2000 0.5774 0.2417 (  1850 PWs)   bands (ev):

    -3.6388  -3.2968   2.0607   2.5679   5.0011   5.9646   8.2076   8.8279
    20.0909  21.3161  22.7483  23.6988

     occupation numbers 
     1.0000   1.0000   1.0000   1.0000   1.0000   1.0000   1.0000   1.0000
     0.0000   0.0000   0.0000   0.0000

          k = 0.3000 0.5196 0.0000 (  1849 PWs)   bands (ev):

    -3.8812  -2.9683   2.5278   4.1213   5.0831   5.6339   6.6435   6.9902
    17.3606  25.1236  25.4109  26.2115

     occupation numbers 
     1.0000   1.0000   1.0000   1.0000   1.0000   1.0000   1.0000   1.0000
     0.0000   0.0000   0.0000   0.0000

          k = 0.3000 0.5196 0.1208 (  1850 PWs)   bands (ev):

    -3.7630  -3.0033   2.7301   3.3443   4.3018   5.9598   6.9241   7.9108
    18.4044  23.3143  24.3921  25.1540

     occupation numbers 
     1.0000   1.0000   1.0000   1.0000   1.0000   1.0000   1.0000   1.0000
     0.0000   0.0000   0.0000   0.0000

          k = 0.3000 0.5196 0.2417 (  1856 PWs)   bands (ev):

    -3.4681  -3.1637   2.7819   2.8981   3.9212   4.8545   8.3663   8.8008
    20.7556  21.6117  22.4101  23.8982

     occupation numbers 
     1.0000   1.0000   1.0000   1.0000   1.0000   1.0000   1.0000   1.0000
     0.0000   0.0000   0.0000   0.0000

          k =-0.1000 0.0577 0.0000 (  1845 PWs)   bands (ev):

    -8.6527  -4.3667   0.8949   8.7698   9.3474  11.1424  11.4469  11.7243
    20.2920  21.0460  21.2072  22.7587

     occupation numbers 
     1.0000   1.0000   1.0000   1.0000   1.0000   1.0033   1.0604   0.9790
     0.0000   0.0000   0.0000   0.0000

          k = 0.1000 0.0577 0.0000 (  1845 PWs)   bands (ev):

    -8.6527  -4.3667   0.8949   8.7698   9.3474  11.1423  11.4469  11.7243
    20.2920  21.0460  21.2072  22.7587

     occupation numbers 
     1.0000   1.0000   1.0000   1.0000   1.0000   1.0033   1.0604   0.9789
     0.0000   0.0000   0.0000   0.0000

          k = 0.0000-0.1155 0.1208 (  1846 PWs)   bands (ev):

    -8.4078  -5.1720   2.1220   8.9565   9.5317  10.1662  11.0071  11.4374
    20.4388  21.3811  21.6493  22.7197

     occupation numbers 
     1.0000   1.0000   1.0000   1.0000   1.0000   1.0000   1.0004   1.0574
     0.0000   0.0000   0.0000   0.0000

          k =-0.1000 0.0577 0.1208 (  1846 PWs)   bands (ev):

    -8.4078  -5.1720   2.1220   8.9565   9.5317  10.1663  11.0071  11.4374
    20.4388  21.3811  21.6492  22.7197

     occupation numbers 
     1.0000   1.0000   1.0000   1.0000   1.0000   1.0000   1.0004   1.0574
     0.0000   0.0000   0.0000   0.0000

          k = 0.1000 0.0577 0.1208 (  1846 PWs)   bands (ev):

    -8.4078  -5.1720   2.1220   8.9565   9.5317  10.1662  11.0071  11.4374
    20.4388  21.3811  21.6493  22.7197

     occupation numbers 
     1.0000   1.0000   1.0000   1.0000   1.0000   1.0000   1.0004   1.0574
     0.0000   0.0000   0.0000   0.0000

          k =-0.1000-0.0577 0.1208 (  1846 PWs)   bands (ev):

    -8.4078  -5.1720   2.1220   8.9565   9.5317  10.1662  11.0071  11.4374
    20.4388  21.3811  21.6493  22.7197

     occupation numbers 
     1.0000   1.0000   1.0000   1.0000   1.0000   1.0000   1.0004   1.0574
     0.0000   0.0000   0.0000   0.0000

          k = 0.1000-0.0577 0.1208 (  1846 PWs)   bands (ev):

    -8.4078  -5.1720   2.1220   8.9565   9.5317  10.1662  11.0071  11.4374
    20.4388  21.3811  21.6493  22.7197

     occupation numbers 
     1.0000   1.0000   1.0000   1.0000   1.0000   1.0000   1.0004   1.0574
     0.0000   0.0000   0.0000   0.0000

          k = 0.0000-0.1155 0.2417 (  1868 PWs)   bands (ev):

    -7.6859  -6.5421   4.7007   7.6251   9.4971  10.0465  10.2555  10.7646
    21.1687  21.9422  22.2538  22.6066

     occupation numbers 
     1.0000   1.0000   1.0000   1.0000   1.0000   1.0000   1.0000   1.0000
     0.0000   0.0000   0.0000   0.0000

          k =-0.1000 0.0577 0.2417 (  1868 PWs)   bands (ev):

    -7.6859  -6.5421   4.7007   7.6251   9.4971  10.0465  10.2555  10.7645
    21.1687  21.9422  22.2539  22.6064

     occupation numbers 
     1.0000   1.0000   1.0000   1.0000   1.0000   1.0000   1.0000   1.0000
     0.0000   0.0000   0.0000   0.0000

          k = 0.1000 0.0577 0.2417 (  1868 PWs)   bands (ev):

    -7.6859  -6.5421   4.7007   7.6251   9.4971  10.0465  10.2555  10.7646
    21.1687  21.9422  22.2538  22.6065

     occupation numbers 
     1.0000   1.0000   1.0000   1.0000   1.0000   1.0000   1.0000   1.0000
     0.0000   0.0000   0.0000   0.0000

          k =-0.1000-0.0577 0.2417 (  1868 PWs)   bands (ev):

    -7.6859  -6.5421   4.7007   7.6251   9.4971  10.0465  10.2555  10.7646
    21.1687  21.9422  22.2538  22.6080

     occupation numbers 
     1.0000   1.0000   1.0000   1.0000   1.0000   1.0000   1.0000   1.0000
     0.0000   0.0000   0.0000   0.0000

          k = 0.1000-0.0577 0.2417 (  1868 PWs)   bands (ev):

    -7.6859  -6.5421   4.7007   7.6251   9.4971  10.0465  10.2555  10.7645
    21.1687  21.9422  22.2539  22.6070

     occupation numbers 
     1.0000   1.0000   1.0000   1.0000   1.0000   1.0000   1.0000   1.0000
     0.0000   0.0000   0.0000   0.0000

          k =-0.2000 0.1155 0.0000 (  1852 PWs)   bands (ev):

    -7.9894  -3.8830   1.5475   6.5440   8.4601   9.2371  10.7782  11.1206
    19.7818  21.6344  21.9791  23.4458

     occupation numbers 
     1.0000   1.0000   1.0000   1.0000   1.0000   1.0000   1.0000   1.0025
     0.0000   0.0000   0.0000   0.0000

          k = 0.2000 0.1155 0.0000 (  1852 PWs)   bands (ev):

    -7.9894  -3.8830   1.5475   6.5440   8.4601   9.2371  10.7782  11.1206
    19.7818  21.6344  21.9791  23.4458

     occupation numbers 
     1.0000   1.0000   1.0000   1.0000   1.0000   1.0000   1.0000   1.0025
     0.0000   0.0000   0.0000   0.0000

          k = 0.0000-0.2309 0.1208 (  1845 PWs)   bands (ev):

    -7.7497  -4.6289   2.6539   6.7814   8.6288   8.6604  10.2962  10.7877
    19.7178  21.5580  22.4336  23.2583

     occupation numbers 
     1.0000   1.0000   1.0000   1.0000   1.0000   1.0000   1.0000   1.0000
     0.0000   0.0000   0.0000   0.0000

          k =-0.2000 0.1155 0.1208 (  1845 PWs)   bands (ev):

    -7.7497  -4.6289   2.6539   6.7814   8.6289   8.6603  10.2962  10.7877
    19.7178  21.5580  22.4336  23.2583

     occupation numbers 
     1.0000   1.0000   1.0000   1.0000   1.0000   1.0000   1.0000   1.0000
     0.0000   0.0000   0.0000   0.0000

          k = 0.2000 0.1155 0.1208 (  1845 PWs)   bands (ev):

    -7.7497  -4.6289   2.6539   6.7814   8.6288   8.6604  10.2962  10.7877
    19.7178  21.5580  22.4336  23.2583

     occupation numbers 
     1.0000   1.0000   1.0000   1.0000   1.0000   1.0000   1.0000   1.0000
     0.0000   0.0000   0.0000   0.0000

          k =-0.2000-0.1155 0.1208 (  1845 PWs)   bands (ev):

    -7.7497  -4.6289   2.6539   6.7814   8.6288   8.6604  10.2962  10.7877
    19.7178  21.5580  22.4336  23.2583

     occupation numbers 
     1.0000   1.0000   1.0000   1.0000   1.0000   1.0000   1.0000   1.0000
     0.0000   0.0000   0.0000   0.0000

          k = 0.2000-0.1155 0.1208 (  1845 PWs)   bands (ev):

    -7.7497  -4.6289   2.6539   6.7814   8.6289   8.6603  10.2962  10.7877
    19.7178  21.5580  22.4336  23.2583

     occupation numbers 
     1.0000   1.0000   1.0000   1.0000   1.0000   1.0000   1.0000   1.0000
     0.0000   0.0000   0.0000   0.0000

          k = 0.0000-0.2309 0.2417 (  1852 PWs)   bands (ev):

    -7.0452  -5.9361   4.9203   7.0651   7.6135   8.8697   9.2240  10.0224
    20.1909  21.1123  23.2397  23.5520

     occupation numbers 
     1.0000   1.0000   1.0000   1.0000   1.0000   1.0000   1.0000   1.0000
     0.0000   0.0000   0.0000   0.0000

          k =-0.2000 0.1155 0.2417 (  1852 PWs)   bands (ev):

    -7.0452  -5.9361   4.9203   7.0651   7.6135   8.8697   9.2240  10.0224
    20.1909  21.1123  23.2396  23.5520

     occupation numbers 
     1.0000   1.0000   1.0000   1.0000   1.0000   1.0000   1.0000   1.0000
     0.0000   0.0000   0.0000   0.0000

          k = 0.2000 0.1155 0.2417 (  1852 PWs)   bands (ev):

    -7.0452  -5.9361   4.9203   7.0651   7.6135   8.8697   9.2240  10.0224
    20.1909  21.1123  23.2397  23.5520

     occupation numbers 
     1.0000   1.0000   1.0000   1.0000   1.0000   1.0000   1.0000   1.0000
     0.0000   0.0000   0.0000   0.0000

          k =-0.2000-0.1155 0.2417 (  1852 PWs)   bands (ev):

    -7.0452  -5.9361   4.9203   7.0651   7.6135   8.8697   9.2240  10.0224
    20.1909  21.1123  23.2396  23.5520

     occupation numbers 
     1.0000   1.0000   1.0000   1.0000   1.0000   1.0000   1.0000   1.0000
     0.0000   0.0000   0.0000   0.0000

          k = 0.2000-0.1155 0.2417 (  1852 PWs)   bands (ev):

    -7.0452  -5.9361   4.9203   7.0651   7.6135   8.8697   9.2240  10.0224
    20.1909  21.1123  23.2396  23.5520

     occupation numbers 
     1.0000   1.0000   1.0000   1.0000   1.0000   1.0000   1.0000   1.0000
     0.0000   0.0000   0.0000   0.0000

          k =-0.3000 0.1732 0.0000 (  1838 PWs)   bands (ev):

    -6.9259  -3.2461   2.5750   4.1748   7.0208   7.5884   9.6692  10.4403
    19.3112  21.3313  22.6514  23.7102

     occupation numbers 
     1.0000   1.0000   1.0000   1.0000   1.0000   1.0000   1.0000   1.0000
     0.0000   0.0000   0.0000   0.0000

          k = 0.3000 0.1732 0.0000 (  1838 PWs)   bands (ev):

    -6.9259  -3.2461   2.5750   4.1747   7.0208   7.5884   9.6692  10.4403
    19.3112  21.3313  22.6514  23.7103

     occupation numbers 
     1.0000   1.0000   1.0000   1.0000   1.0000   1.0000   1.0000   1.0000
     0.0000   0.0000   0.0000   0.0000

          k = 0.0000-0.3464 0.1208 (  1848 PWs)   bands (ev):

    -6.6984  -3.8551   3.1163   4.7915   6.3918   7.7994   9.6601  10.0761
    19.1642  20.7617  23.2141  23.2657

     occupation numbers 
     1.0000   1.0000   1.0000   1.0000   1.0000   1.0000   1.0000   1.0000
     0.0000   0.0000   0.0000   0.0000

          k =-0.3000 0.1732 0.1208 (  1848 PWs)   bands (ev):

    -6.6984  -3.8551   3.1163   4.7915   6.3918   7.7994   9.6601  10.0761
    19.1642  20.7617  23.2141  23.2657

     occupation numbers 
     1.0000   1.0000   1.0000   1.0000   1.0000   1.0000   1.0000   1.0000
     0.0000   0.0000   0.0000   0.0000

          k = 0.3000 0.1732 0.1208 (  1848 PWs)   bands (ev):

    -6.6984  -3.8551   3.1163   4.7915   6.3918   7.7994   9.6601  10.0761
    19.1642  20.7617  23.2141  23.2657

     occupation numbers 
     1.0000   1.0000   1.0000   1.0000   1.0000   1.0000   1.0000   1.0000
     0.0000   0.0000   0.0000   0.0000

          k =-0.3000-0.1732 0.1208 (  1848 PWs)   bands (ev):

    -6.6984  -3.8551   3.1163   4.7915   6.3918   7.7994   9.6600  10.0761
    19.1642  20.7617  23.2141  23.2657

     occupation numbers 
     1.0000   1.0000   1.0000   1.0000   1.0000   1.0000   1.0000   1.0000
     0.0000   0.0000   0.0000   0.0000

          k = 0.3000-0.1732 0.1208 (  1848 PWs)   bands (ev):

    -6.6984  -3.8551   3.1163   4.7915   6.3918   7.7994   9.6601  10.0761
    19.1642  20.7617  23.2141  23.2657

     occupation numbers 
     1.0000   1.0000   1.0000   1.0000   1.0000   1.0000   1.0000   1.0000
     0.0000   0.0000   0.0000   0.0000

          k = 0.0000-0.3464 0.2417 (  1850 PWs)   bands (ev):

    -6.0344  -5.0092   4.0377   5.1015   6.7086   8.3960   8.6689   9.2484
    19.3176  20.1425  22.9947  24.2091

     occupation numbers 
     1.0000   1.0000   1.0000   1.0000   1.0000   1.0000   1.0000   1.0000
     0.0000   0.0000   0.0000   0.0000

          k =-0.3000 0.1732 0.2417 (  1850 PWs)   bands (ev):

    -6.0344  -5.0092   4.0378   5.1015   6.7086   8.3960   8.6689   9.2484
    19.3176  20.1425  22.9947  24.2092

     occupation numbers 
     1.0000   1.0000   1.0000   1.0000   1.0000   1.0000   1.0000   1.0000
     0.0000   0.0000   0.0000   0.0000

          k = 0.3000 0.1732 0.2417 (  1850 PWs)   bands (ev):

    -6.0344  -5.0092   4.0377   5.1015   6.7086   8.3960   8.6689   9.2484
    19.3176  20.1425  22.9947  24.2092

     occupation numbers 
     1.0000   1.0000   1.0000   1.0000   1.0000   1.0000   1.0000   1.0000
     0.0000   0.0000   0.0000   0.0000

          k =-0.3000-0.1732 0.2417 (  1850 PWs)   bands (ev):

    -6.0344  -5.0092   4.0377   5.1015   6.7086   8.3960   8.6689   9.2484
    19.3176  20.1425  22.9947  24.2091

     occupation numbers 
     1.0000   1.0000   1.0000   1.0000   1.0000   1.0000   1.0000   1.0000
     0.0000   0.0000   0.0000   0.0000

          k = 0.3000-0.1732 0.2417 (  1850 PWs)   bands (ev):

    -6.0344  -5.0092   4.0378   5.1015   6.7086   8.3960   8.6689   9.2484
    19.3176  20.1425  22.9947  24.2092

     occupation numbers 
     1.0000   1.0000   1.0000   1.0000   1.0000   1.0000   1.0000   1.0000
     0.0000   0.0000   0.0000   0.0000

          k =-0.4000 0.2309 0.0000 (  1864 PWs)   bands (ev):

    -5.5815  -2.9412   2.5182   3.8582   5.0645   6.9935   8.2710   9.9446
    19.0128  20.4740  22.8579  24.0783

     occupation numbers 
     1.0000   1.0000   1.0000   1.0000   1.0000   1.0000   1.0000   1.0000
     0.0000   0.0000   0.0000   0.0000

          k = 0.4000 0.2309 0.0000 (  1864 PWs)   bands (ev):

    -5.5815  -2.9412   2.5182   3.8582   5.0645   6.9935   8.2709   9.9446
    19.0128  20.4740  22.8579  24.0783

     occupation numbers 
     1.0000   1.0000   1.0000   1.0000   1.0000   1.0000   1.0000   1.0000
     0.0000   0.0000   0.0000   0.0000

          k = 0.0000-0.4619 0.1208 (  1860 PWs)   bands (ev):

    -5.3835  -3.2553   2.1015   4.1544   5.2857   7.2101   8.7359   9.5641
    18.9363  19.8078  23.3684  23.5880

     occupation numbers 
     1.0000   1.0000   1.0000   1.0000   1.0000   1.0000   1.0000   1.0000
     0.0000   0.0000   0.0000   0.0000

          k =-0.4000 0.2309 0.1208 (  1860 PWs)   bands (ev):

    -5.3835  -3.2553   2.1015   4.1545   5.2857   7.2101   8.7359   9.5641
    18.9363  19.8078  23.3684  23.5880

     occupation numbers 
     1.0000   1.0000   1.0000   1.0000   1.0000   1.0000   1.0000   1.0000
     0.0000   0.0000   0.0000   0.0000

          k = 0.4000 0.2309 0.1208 (  1860 PWs)   bands (ev):

    -5.3835  -3.2553   2.1015   4.1544   5.2857   7.2101   8.7359   9.5641
    18.9363  19.8078  23.3684  23.5880

     occupation numbers 
     1.0000   1.0000   1.0000   1.0000   1.0000   1.0000   1.0000   1.0000
     0.0000   0.0000   0.0000   0.0000

          k =-0.4000-0.2309 0.1208 (  1860 PWs)   bands (ev):

    -5.3835  -3.2553   2.1015   4.1544   5.2857   7.2101   8.7359   9.5641
    18.9363  19.8078  23.3684  23.5880

     occupation numbers 
     1.0000   1.0000   1.0000   1.0000   1.0000   1.0000   1.0000   1.0000
     0.0000   0.0000   0.0000   0.0000

          k = 0.4000-0.2309 0.1208 (  1860 PWs)   bands (ev):

    -5.3835  -3.2553   2.1015   4.1545   5.2857   7.2101   8.7359   9.5641
    18.9363  19.8078  23.3684  23.5880

     occupation numbers 
     1.0000   1.0000   1.0000   1.0000   1.0000   1.0000   1.0000   1.0000
     0.0000   0.0000   0.0000   0.0000

          k = 0.0000-0.4619 0.2417 (  1842 PWs)   bands (ev):

    -4.8211  -4.0161   2.2250   3.0441   7.2098   7.8237   8.6738   8.7041
    18.7760  19.3537  22.5365  23.3602

     occupation numbers 
     1.0000   1.0000   1.0000   1.0000   1.0000   1.0000   1.0000   1.0000
     0.0000   0.0000   0.0000   0.0000

          k =-0.4000 0.2309 0.2417 (  1842 PWs)   bands (ev):

    -4.8211  -4.0161   2.2250   3.0441   7.2098   7.8237   8.6738   8.7040
    18.7760  19.3537  22.5365  23.3602

     occupation numbers 
     1.0000   1.0000   1.0000   1.0000   1.0000   1.0000   1.0000   1.0000
     0.0000   0.0000   0.0000   0.0000

          k = 0.4000 0.2309 0.2417 (  1842 PWs)   bands (ev):

    -4.8211  -4.0161   2.2250   3.0441   7.2098   7.8237   8.6738   8.7041
    18.7760  19.3537  22.5365  23.3602

     occupation numbers 
     1.0000   1.0000   1.0000   1.0000   1.0000   1.0000   1.0000   1.0000
     0.0000   0.0000   0.0000   0.0000

          k =-0.4000-0.2309 0.2417 (  1842 PWs)   bands (ev):

    -4.8211  -4.0161   2.2250   3.0441   7.2098   7.8237   8.6738   8.7041
    18.7760  19.3537  22.5365  23.3602

     occupation numbers 
     1.0000   1.0000   1.0000   1.0000   1.0000   1.0000   1.0000   1.0000
     0.0000   0.0000   0.0000   0.0000

          k = 0.4000-0.2309 0.2417 (  1842 PWs)   bands (ev):

    -4.8211  -4.0161   2.2250   3.0441   7.2098   7.8237   8.6738   8.7040
    18.7760  19.3537  22.5365  23.3602

     occupation numbers 
     1.0000   1.0000   1.0000   1.0000   1.0000   1.0000   1.0000   1.0000
     0.0000   0.0000   0.0000   0.0000

          k = 0.5000-0.2887 0.0000 (  1858 PWs)   bands (ev):

    -4.5961  -3.2981   2.2042   3.9353   4.8356   6.7852   7.3626   9.7667
    18.9205  20.0999  22.8772  23.9288

     occupation numbers 
     1.0000   1.0000   1.0000   1.0000   1.0000   1.0000   1.0000   1.0000
     0.0000   0.0000   0.0000   0.0000

          k =-0.5000-0.2887 0.0000 (  1858 PWs)   bands (ev):

    -4.5961  -3.2981   2.2043   3.9352   4.8357   6.7852   7.3626   9.7667
    18.9205  20.0999  22.8772  23.9288

     occupation numbers 
     1.0000   1.0000   1.0000   1.0000   1.0000   1.0000   1.0000   1.0000
     0.0000   0.0000   0.0000   0.0000

          k = 0.5000-0.2887 0.1208 (  1870 PWs)   bands (ev):

    -4.4471  -3.3536   1.6978   3.1560   5.8735   7.0035   8.0816   9.3811
    19.0168  19.2804  23.6229  23.6448

     occupation numbers 
     1.0000   1.0000   1.0000   1.0000   1.0000   1.0000   1.0000   1.0000
     0.0000   0.0000   0.0000   0.0000

          k =-0.5000-0.2887 0.1208 (  1870 PWs)   bands (ev):

    -4.4471  -3.3536   1.6978   3.1560   5.8735   7.0035   8.0815   9.3812
    19.0168  19.2804  23.6229  23.6447

     occupation numbers 
     1.0000   1.0000   1.0000   1.0000   1.0000   1.0000   1.0000   1.0000
     0.0000   0.0000   0.0000   0.0000

          k = 0.5000-0.2887 0.2417 (  1850 PWs)   bands (ev):

    -4.0555  -3.6095   1.4326   2.0155   7.5954   7.6223   8.5112   8.5821
    18.6307  19.0025  22.5955  22.6689

     occupation numbers 
     1.0000   1.0000   1.0000   1.0000   1.0000   1.0000   1.0000   1.0000
     0.0000   0.0000   0.0000   0.0000

[...]

          k =-0.2000 0.4619-0.2417 (  1846 PWs)   bands (ev):

    -4.3331  -3.6225   2.6765   3.2758   5.3929   6.2414   7.8740   8.9521
    20.3747  21.1221  23.1967  23.8660

     occupation numbers 
     1.0000   1.0000   1.0000   1.0000   1.0000   1.0000   1.0000   1.0000
     0.0000   0.0000   0.0000   0.0000

          k = 0.2000-0.4619-0.2417 (  1846 PWs)   bands (ev):

    -4.3331  -3.6225   2.6765   3.2758   5.3929   6.2414   7.8740   8.9521
    20.3747  21.1221  23.1967  23.8660

     occupation numbers 
     1.0000   1.0000   1.0000   1.0000   1.0000   1.0000   1.0000   1.0000
     0.0000   0.0000   0.0000   0.0000

          k =-0.3000 0.4041 0.2417 (  1846 PWs)   bands (ev):

    -4.3331  -3.6225   2.6765   3.2758   5.3929   6.2414   7.8740   8.9521
    20.3747  21.1221  23.1967  23.8660

     occupation numbers 
     1.0000   1.0000   1.0000   1.0000   1.0000   1.0000   1.0000   1.0000
     0.0000   0.0000   0.0000   0.0000

          k = 0.5000 0.0577 0.2417 (  1846 PWs)   bands (ev):

    -4.3331  -3.6225   2.6765   3.2758   5.3929   6.2414   7.8740   8.9521
    20.3747  21.1221  23.1967  23.8660

     occupation numbers 
     1.0000   1.0000   1.0000   1.0000   1.0000   1.0000   1.0000   1.0000
     0.0000   0.0000   0.0000   0.0000

          k =-0.5000-0.0577 0.2417 (  1846 PWs)   bands (ev):

    -4.3331  -3.6225   2.6765   3.2758   5.3929   6.2414   7.8740   8.9521
    20.3747  21.1221  23.1967  23.8660

     occupation numbers 
     1.0000   1.0000   1.0000   1.0000   1.0000   1.0000   1.0000   1.0000
     0.0000   0.0000   0.0000   0.0000

          k = 0.3000-0.4041 0.2417 (  1846 PWs)   bands (ev):

    -4.3331  -3.6225   2.6765   3.2758   5.3929   6.2414   7.8740   8.9521
    20.3747  21.1221  23.1967  23.8660

     occupation numbers 
     1.0000   1.0000   1.0000   1.0000   1.0000   1.0000   1.0000   1.0000
     0.0000   0.0000   0.0000   0.0000

          k =-0.3000-0.4041-0.2417 (  1846 PWs)   bands (ev):

    -4.3331  -3.6225   2.6765   3.2758   5.3929   6.2414   7.8740   8.9521
    20.3747  21.1221  23.1967  23.8660

     occupation numbers 
     1.0000   1.0000   1.0000   1.0000   1.0000   1.0000   1.0000   1.0000
     0.0000   0.0000   0.0000   0.0000

          k = 0.5000-0.0577-0.2417 (  1846 PWs)   bands (ev):

    -4.3331  -3.6225   2.6765   3.2758   5.3929   6.2414   7.8740   8.9521
    20.3747  21.1221  23.1967  23.8660

     occupation numbers 
     1.0000   1.0000   1.0000   1.0000   1.0000   1.0000   1.0000   1.0000
     0.0000   0.0000   0.0000   0.0000

          k =-0.5000 0.0577-0.2417 (  1846 PWs)   bands (ev):

    -4.3331  -3.6225   2.6765   3.2758   5.3929   6.2414   7.8740   8.9521
    20.3747  21.1221  23.1967  23.8660

     occupation numbers 
     1.0000   1.0000   1.0000   1.0000   1.0000   1.0000   1.0000   1.0000
     0.0000   0.0000   0.0000   0.0000

          k = 0.3000 0.4041-0.2417 (  1846 PWs)   bands (ev):

    -4.3331  -3.6225   2.6765   3.2758   5.3929   6.2414   7.8740   8.9521
    20.3747  21.1221  23.1967  23.8660

     occupation numbers 
     1.0000   1.0000   1.0000   1.0000   1.0000   1.0000   1.0000   1.0000
     0.0000   0.0000   0.0000   0.0000

          k =-0.4000 0.4619 0.0000 (  1860 PWs)   bands (ev):

    -4.0895  -3.0837   2.4717   4.4224   4.8674   5.3983   7.0513   7.7606
    17.9845  22.6144  24.5543  26.0733

     occupation numbers 
     1.0000   1.0000   1.0000   1.0000   1.0000   1.0000   1.0000   1.0000
     0.0000   0.0000   0.0000   0.0000

          k = 0.6000 0.1155 0.0000 (  1860 PWs)   bands (ev):

    -4.0895  -3.0837   2.4717   4.4224   4.8675   5.3983   7.0512   7.7606
    17.9845  22.6144  24.5544  26.0733

     occupation numbers 
     1.0000   1.0000   1.0000   1.0000   1.0000   1.0000   1.0000   1.0000
     0.0000   0.0000   0.0000   0.0000

          k =-0.2000-0.5774 0.1208 (  1854 PWs)   bands (ev):

    -3.9621  -3.1188   2.2308   3.6348   4.5451   6.6511   6.9763   8.1269
    18.7954  22.5094  23.1056  24.8516

     occupation numbers 
     1.0000   1.0000   1.0000   1.0000   1.0000   1.0000   1.0000   1.0000
     0.0000   0.0000   0.0000   0.0000

          k =-0.4000 0.4619 0.1208 (  1854 PWs)   bands (ev):

    -3.9621  -3.1188   2.2308   3.6348   4.5451   6.6511   6.9763   8.1270
    18.7954  22.5094  23.1056  24.8516

     occupation numbers 
     1.0000   1.0000   1.0000   1.0000   1.0000   1.0000   1.0000   1.0000
     0.0000   0.0000   0.0000   0.0000

          k = 0.6000 0.1155 0.1208 (  1854 PWs)   bands (ev):

    -3.9621  -3.1188   2.2308   3.6348   4.5451   6.6511   6.9763   8.1270
    18.7954  22.5095  23.1056  24.8516

     occupation numbers 
     1.0000   1.0000   1.0000   1.0000   1.0000   1.0000   1.0000   1.0000
     0.0000   0.0000   0.0000   0.0000

          k =-0.6000-0.1155 0.1208 (  1854 PWs)   bands (ev):

    -3.9621  -3.1188   2.2308   3.6348   4.5451   6.6511   6.9763   8.1269
    18.7954  22.5095  23.1056  24.8516

     occupation numbers 
     1.0000   1.0000   1.0000   1.0000   1.0000   1.0000   1.0000   1.0000
     0.0000   0.0000   0.0000   0.0000

          k = 0.4000-0.4619 0.1208 (  1854 PWs)   bands (ev):

    -3.9621  -3.1188   2.2308   3.6348   4.5451   6.6511   6.9763   8.1270
    18.7954  22.5094  23.1056  24.8516

     occupation numbers 
     1.0000   1.0000   1.0000   1.0000   1.0000   1.0000   1.0000   1.0000
     0.0000   0.0000   0.0000   0.0000

          k =-0.2000-0.5774 0.2417 (  1850 PWs)   bands (ev):

    -3.6388  -3.2968   2.0607   2.5679   5.0011   5.9646   8.2076   8.8279
    20.0909  21.3161  22.7483  23.6988

     occupation numbers 
     1.0000   1.0000   1.0000   1.0000   1.0000   1.0000   1.0000   1.0000
     0.0000   0.0000   0.0000   0.0000

          k =-0.4000 0.4619 0.2417 (  1850 PWs)   bands (ev):

    -3.6388  -3.2968   2.0607   2.5679   5.0011   5.9646   8.2076   8.8279
    20.0909  21.3161  22.7483  23.6988

     occupation numbers 
     1.0000   1.0000   1.0000   1.0000   1.0000   1.0000   1.0000   1.0000
     0.0000   0.0000   0.0000   0.0000

          k = 0.6000 0.1155 0.2417 (  1850 PWs)   bands (ev):

    -3.6388  -3.2968   2.0607   2.5679   5.0011   5.9646   8.2076   8.8279
    20.0909  21.3161  22.7483  23.6988

     occupation numbers 
     1.0000   1.0000   1.0000   1.0000   1.0000   1.0000   1.0000   1.0000
     0.0000   0.0000   0.0000   0.0000

          k =-0.6000-0.1155 0.2417 (  1850 PWs)   bands (ev):

    -3.6388  -3.2968   2.0607   2.5679   5.0011   5.9646   8.2076   8.8279
    20.0909  21.3161  22.7483  23.6988

     occupation numbers 
     1.0000   1.0000   1.0000   1.0000   1.0000   1.0000   1.0000   1.0000
     0.0000   0.0000   0.0000   0.0000

          k = 0.4000-0.4619 0.2417 (  1850 PWs)   bands (ev):

    -3.6388  -3.2968   2.0607   2.5679   5.0011   5.9646   8.2076   8.8279
    20.0909  21.3161  22.7483  23.6988

     occupation numbers 
     1.0000   1.0000   1.0000   1.0000   1.0000   1.0000   1.0000   1.0000
     0.0000   0.0000   0.0000   0.0000

          k =-0.3000 0.5196 0.0000 (  1849 PWs)   bands (ev):

    -3.8812  -2.9683   2.5278   4.1213   5.0831   5.6339   6.6434   6.9902
    17.3606  25.1236  25.4108  26.2120

     occupation numbers 
     1.0000   1.0000   1.0000   1.0000   1.0000   1.0000   1.0000   1.0000
     0.0000   0.0000   0.0000   0.0000

          k = 0.6000-0.0000 0.0000 (  1849 PWs)   bands (ev):

    -3.8812  -2.9683   2.5278   4.1213   5.0831   5.6339   6.6434   6.9902
    17.3606  25.1236  25.4108  26.2114

     occupation numbers 
     1.0000   1.0000   1.0000   1.0000   1.0000   1.0000   1.0000   1.0000
     0.0000   0.0000   0.0000   0.0000

          k =-0.3000-0.5196 0.1208 (  1850 PWs)   bands (ev):

    -3.7630  -3.0033   2.7301   3.3443   4.3018   5.9598   6.9241   7.9108
    18.4044  23.3143  24.3921  25.1540

     occupation numbers 
     1.0000   1.0000   1.0000   1.0000   1.0000   1.0000   1.0000   1.0000
     0.0000   0.0000   0.0000   0.0000

          k =-0.3000 0.5196-0.1208 (  1850 PWs)   bands (ev):

    -3.7630  -3.0033   2.7301   3.3443   4.3018   5.9598   6.9241   7.9108
    18.4044  23.3143  24.3921  25.1539

     occupation numbers 
     1.0000   1.0000   1.0000   1.0000   1.0000   1.0000   1.0000   1.0000
     0.0000   0.0000   0.0000   0.0000

          k = 0.3000-0.5196-0.1208 (  1850 PWs)   bands (ev):

    -3.7630  -3.0033   2.7301   3.3443   4.3018   5.9598   6.9241   7.9108
    18.4044  23.3143  24.3921  25.1540

     occupation numbers 
     1.0000   1.0000   1.0000   1.0000   1.0000   1.0000   1.0000   1.0000
     0.0000   0.0000   0.0000   0.0000

          k = 0.6000-0.0000 0.1208 (  1850 PWs)   bands (ev):

    -3.7630  -3.0033   2.7301   3.3443   4.3018   5.9598   6.9241   7.9108
    18.4044  23.3143  24.3921  25.1539

     occupation numbers 
     1.0000   1.0000   1.0000   1.0000   1.0000   1.0000   1.0000   1.0000
     0.0000   0.0000   0.0000   0.0000

          k =-0.6000 0.0000 0.1208 (  1850 PWs)   bands (ev):

    -3.7630  -3.0033   2.7301   3.3443   4.3018   5.9598   6.9241   7.9108
    18.4044  23.3143  24.3921  25.1539

     occupation numbers 
     1.0000   1.0000   1.0000   1.0000   1.0000   1.0000   1.0000   1.0000
     0.0000   0.0000   0.0000   0.0000

          k =-0.3000-0.5196 0.2417 (  1856 PWs)   bands (ev):

    -3.4681  -3.1637   2.7819   2.8981   3.9212   4.8545   8.3663   8.8008
    20.7556  21.6117  22.4101  23.8982

     occupation numbers 
     1.0000   1.0000   1.0000   1.0000   1.0000   1.0000   1.0000   1.0000
     0.0000   0.0000   0.0000   0.0000

          k =-0.3000 0.5196-0.2417 (  1856 PWs)   bands (ev):

    -3.4681  -3.1637   2.7819   2.8981   3.9212   4.8545   8.3663   8.8008
    20.7556  21.6117  22.4101  23.8982

     occupation numbers 
     1.0000   1.0000   1.0000   1.0000   1.0000   1.0000   1.0000   1.0000
     0.0000   0.0000   0.0000   0.0000

          k = 0.3000-0.5196-0.2417 (  1856 PWs)   bands (ev):

    -3.4681  -3.1637   2.7819   2.8981   3.9212   4.8545   8.3663   8.8008
    20.7556  21.6117  22.4101  23.8982

     occupation numbers 
     1.0000   1.0000   1.0000   1.0000   1.0000   1.0000   1.0000   1.0000
     0.0000   0.0000   0.0000   0.0000

          k = 0.6000-0.0000 0.2417 (  1856 PWs)   bands (ev):

    -3.4681  -3.1637   2.7819   2.8981   3.9212   4.8545   8.3663   8.8008
    20.7556  21.6117  22.4101  23.8982

     occupation numbers 
     1.0000   1.0000   1.0000   1.0000   1.0000   1.0000   1.0000   1.0000
     0.0000   0.0000   0.0000   0.0000

          k =-0.6000 0.0000 0.2417 (  1856 PWs)   bands (ev):

    -3.4681  -3.1637   2.7819   2.8981   3.9212   4.8545   8.3663   8.8008
    20.7556  21.6117  22.4101  23.8982

     occupation numbers 
     1.0000   1.0000   1.0000   1.0000   1.0000   1.0000   1.0000   1.0000
     0.0000   0.0000   0.0000   0.0000

     the Fermi energy is    11.9848 ev

!    total energy              =     -54.84484180 Ry
     estimated scf accuracy    <          6.7E-11 Ry
     smearing contrib. (-TS)   =       0.00026976 Ry
     internal energy E=F+TS    =     -54.84511156 Ry

     The total energy is F=E-TS. E is the sum of the following terms:
     one-electron contribution =      10.28465493 Ry
     hartree contribution      =       7.08960861 Ry
     xc contribution           =     -18.90148878 Ry
     ewald contribution        =     -53.31788632 Ry

     convergence has been achieved in  12 iterations

     Forces acting on atoms (cartesian axes, Ry/au):

     atom    1 type  1   force =     0.00000121    0.00000187   -0.00129827
     atom    2 type  1   force =    -0.00000237   -0.00000185   -0.00129828
     atom    3 type  2   force =     0.00000271   -0.00000161    0.00129821
     atom    4 type  2   force =    -0.00000155    0.00000159    0.00129834
     The non-local contrib.  to forces
     atom    1 type  1   force =     0.00000658   -0.00000072   -0.01356896
     atom    2 type  1   force =     0.00000070    0.00000035   -0.01356902
     atom    3 type  2   force =    -0.00000013   -0.00000054   -0.01371028
     atom    4 type  2   force =    -0.00000011    0.00000064   -0.01371022
     The ionic contribution  to forces
     atom    1 type  1   force =     0.00001070   -0.00000618   -0.14342125
     atom    2 type  1   force =    -0.00001070    0.00000618   -0.14342125
     atom    3 type  2   force =     0.00001123   -0.00000648    0.14342125
     atom    4 type  2   force =    -0.00001123    0.00000648    0.14342125
     The local contribution  to forces
     atom    1 type  1   force =    -0.00001276    0.00000560    0.15491794
     atom    2 type  1   force =     0.00001004   -0.00000546    0.15491796
     atom    3 type  2   force =    -0.00000977    0.00000543   -0.12811216
     atom    4 type  2   force =     0.00000833   -0.00000539   -0.12811215
     The core correction contribution to forces
     atom    1 type  1   force =    -0.00000474    0.00000327    0.00073735
     atom    2 type  1   force =    -0.00000384   -0.00000283    0.00073738
     atom    3 type  2   force =    -0.00000010    0.00000007   -0.00033783
     atom    4 type  2   force =     0.00000008   -0.00000007   -0.00033783
     The Hubbard contrib.    to forces
     atom    1 type  1   force =     0.00000000    0.00000000    0.00000000
     atom    2 type  1   force =     0.00000000    0.00000000    0.00000000
     atom    3 type  2   force =     0.00000000    0.00000000    0.00000000
     atom    4 type  2   force =     0.00000000    0.00000000    0.00000000
     The SCF correction term to forces
     atom    1 type  1   force =     0.00000001   -0.00000000   -0.00000022
     atom    2 type  1   force =    -0.00000001   -0.00000000   -0.00000022
     atom    3 type  2   force =     0.00000003    0.00000001    0.00000038
     atom    4 type  2   force =    -0.00000006    0.00000003    0.00000044

     Total force =     0.002597     Total SCF correction =     0.000001


     Computing stress (Cartesian axis) and pressure

          total   stress  (Ry/bohr**3)                   (kbar)     P=      192.86
   0.00132480   0.00000001  -0.00000002          194.89        0.00       -0.00
   0.00000001   0.00132479   0.00000000            0.00      194.88        0.00
  -0.00000002   0.00000000   0.00128355           -0.00        0.00      188.82

     kinetic stress (kbar)  23938.98     -0.00     -0.00
                               -0.00  23938.98     -0.00
                               -0.00     -0.00  23862.24

     local   stress (kbar)   -663.26     -0.06     -0.00
                               -0.06   -663.32      0.00
                               -0.00      0.00  -1025.40

     nonloc. stress (kbar)  -3094.81      0.00     -0.00
                                0.00  -3094.81      0.00
                               -0.00      0.00  -3061.68

     hartree stress (kbar)   2227.31      0.01      0.00
                                0.01   2227.32     -0.00
                                0.00     -0.00   2352.91

     exc-cor stress (kbar)  -1318.99      0.00     -0.00
                                0.00  -1318.99      0.00
                               -0.00      0.00  -1317.59

     corecor stress (kbar)  -3739.27     -0.00     -0.00
                               -0.00  -3739.27      0.00
                               -0.00      0.00  -3735.14

     ewald   stress (kbar) -17155.08      0.05      0.00
                                0.05 -17155.02     -0.00
                                0.00     -0.00 -16886.52

     hubbard stress (kbar)      0.00      0.00      0.00
                                0.00      0.00      0.00
                                0.00      0.00      0.00

     DFT-D   stress (kbar)      0.00      0.00      0.00
                                0.00      0.00      0.00
                                0.00      0.00      0.00

     XDM     stress (kbar)      0.00      0.00      0.00
                                0.00      0.00      0.00
                                0.00      0.00      0.00

     dft-nl  stress (kbar)      0.00      0.00      0.00
                                0.00      0.00      0.00
                                0.00      0.00      0.00

     TS-vdW  stress (kbar)      0.00      0.00      0.00
                                0.00      0.00      0.00
                                0.00      0.00      0.00



     init_run     :      0.49s CPU      0.67s WALL (       1 calls)
     electrons    :     13.91s CPU     15.06s WALL (       1 calls)
     forces       :      0.10s CPU      0.11s WALL (       1 calls)
     stress       :      0.29s CPU      0.30s WALL (       1 calls)

     Called by init_run:
     wfcinit      :      0.42s CPU      0.54s WALL (       1 calls)
     wfcinit:atom :      0.01s CPU      0.01s WALL (     252 calls)
     wfcinit:wfcr :      0.38s CPU      0.50s WALL (     252 calls)
     potinit      :      0.02s CPU      0.02s WALL (       1 calls)
     hinit0       :      0.05s CPU      0.08s WALL (       1 calls)

     Called by electrons:
     c_bands      :     12.08s CPU     13.05s WALL (      12 calls)
     sum_band     :      1.77s CPU      1.94s WALL (      12 calls)
     v_of_rho     :      0.03s CPU      0.03s WALL (      13 calls)
     v_h          :      0.00s CPU      0.00s WALL (      13 calls)
     v_xc         :      0.04s CPU      0.04s WALL (      15 calls)
     newd         :      0.02s CPU      0.03s WALL (      13 calls)
     mix_rho      :      0.01s CPU      0.01s WALL (      12 calls)

     Called by c_bands:
     init_us_2    :      0.26s CPU      0.27s WALL (    6804 calls)
     cegterg      :     11.62s CPU     12.56s WALL (    3024 calls)

     Called by sum_band:
     sum_band:wei :      0.01s CPU      0.01s WALL (      12 calls)
     sum_band:loo :      1.74s CPU      1.90s WALL (      12 calls)
     sum_band:buf :      0.03s CPU      0.03s WALL (    3024 calls)
     sum_band:ini :      0.10s CPU      0.11s WALL (    3024 calls)
     sum_band:cal :      0.11s CPU      0.12s WALL (    3024 calls)
     sum_band:bec :      0.01s CPU      0.01s WALL (    3024 calls)
     addusdens    :      0.02s CPU      0.02s WALL (      12 calls)
     addusd:skk   :      0.00s CPU      0.00s WALL (      12 calls)
     addusd:dgemm :      0.01s CPU      0.01s WALL (      12 calls)
     addusd:qvan2 :      0.01s CPU      0.01s WALL (      12 calls)

     Called by *egterg:
     cdiaghg      :      1.71s CPU      2.09s WALL (   13280 calls)
     cegterg:over :      0.45s CPU      0.48s WALL (   10256 calls)
     cegterg:upda :      0.13s CPU      0.13s WALL (   10256 calls)
     cegterg:last :      0.19s CPU      0.20s WALL (    7234 calls)
     h_psi        :      8.94s CPU      9.54s WALL (   13532 calls)
     s_psi        :      0.17s CPU      0.19s WALL (   13532 calls)
     g_psi        :      0.04s CPU      0.04s WALL (   10256 calls)

     Called by h_psi:
     h_psi:calbec :      0.46s CPU      0.49s WALL (   13532 calls)
     vloc_psi     :      8.22s CPU      8.76s WALL (   13532 calls)
     add_vuspsi   :      0.20s CPU      0.22s WALL (   13532 calls)

     General routines
     calbec       :      0.59s CPU      0.64s WALL (   17816 calls)
     fft          :      0.02s CPU      0.05s WALL (     192 calls)
     ffts         :      0.00s CPU      0.00s WALL (      25 calls)
     fftw         :      9.02s CPU      9.67s WALL (  254294 calls)
     interpolate  :      0.00s CPU      0.00s WALL (      13 calls)

     Parallel routines
     fft_scatt_xy :      0.79s CPU      0.83s WALL (  254511 calls)
     fft_scatt_yz :      3.58s CPU      3.87s WALL (  254511 calls)

     PWSCF        :     14.90s CPU     16.38s WALL


   This run was terminated on:  21:21:28  28Sep2022            

=------------------------------------------------------------------------------=
   JOB DONE.
=------------------------------------------------------------------------------=
Note: The following floating-point exceptions are signalling: IEEE_UNDERFLOW_FLAG IEEE_DENORMAL
