
     Program PWSCF v.6.7MaX starts on 28Sep2022 at 21:18:44 

     This program is part of the open-source Quantum ESPRESSO suite
     for quantum simulation of materials; please cite
         "P. Giannozzi et al., J. Phys.:Condens. Matter 21 395502 (2009);
         "P. Giannozzi et al., J. Phys.:Condens. Matter 29 465901 (2017);
          URL http://www.quantum-espresso.org", 
     in publications or presentations arising from this work. More details at
     http://www.quantum-espresso.org/quote

     Parallel version (MPI), running on    16 processors

     MPI processes distributed on     1 nodes
     R & G space division:  proc/nbgrp/npool/nimage =      16
     Reading input from scale_1da-00.in

     Current dimensions of program PWSCF are:
     Max number of different atomic species (ntypx) = 10
     Max number of k-points (npk) =  40000
     Max angular momentum in pseudopotentials (lmaxx) =  3
     Message from routine read_pp_mesh:
     mesh size missing, using the one in header

     Subspace diagonalization in iterative solution of the eigenvalue problem:
     a serial algorithm will be used


     Parallelization info
     --------------------
     sticks:   dense  smooth     PW     G-vecs:    dense   smooth      PW
     Min          41      30      9                 1485      923     165
     Max          42      31     10                 1490      929     172
     Sum         671     487    157                23823    14799    2709



     bravais-lattice index     =            0
     lattice parameter (alat)  =       4.5849  a.u.
     unit-cell volume          =     153.0667 (a.u.)^3
     number of atoms/cell      =            4
     number of atomic types    =            2
     number of electrons       =        16.00
     number of Kohn-Sham states=           12
     kinetic-energy cutoff     =      80.0000  Ry
     charge density cutoff     =     440.0000  Ry
     scf convergence threshold =      2.0E-10
     mixing beta               =       0.4000
     number of iterations used =            8  plain     mixing
     Exchange-correlation= PBE
                           (   1   4   3   4   0   0   0)

     celldm(1)=   4.584863  celldm(2)=   0.000000  celldm(3)=   0.000000
     celldm(4)=   0.000000  celldm(5)=   0.000000  celldm(6)=   0.000000

     crystal axes: (cart. coord. in units of alat)
               a(1) = (   1.000000   0.000000   0.000000 )  
               a(2) = (   0.473684   0.911606   0.000000 )  
               a(3) = (   0.000000   0.000000   1.742186 )  

     reciprocal axes: (cart. coord. in units 2 pi/alat)
               b(1) = (  1.000000 -0.519615  0.000000 )  
               b(2) = (  0.000000  1.096966  0.000000 )  
               b(3) = (  0.000000  0.000000  0.573992 )  


     PseudoPot. # 1 for B  read from file:
     /opt/QEpot/SSSP_precision_pseudos/B_pbe_v1.01.uspp.F.UPF
     MD5 check sum: d081ebb89d0c768e112975f650467a00
     Pseudo is Ultrasoft + core correction, Zval =  3.0
     Generated by new atomic code, or converted to UPF format
     Using radial grid of  781 points,  4 beta functions with: 
                l(1) =   0
                l(2) =   0
                l(3) =   1
                l(4) =   1
     Q(r) pseudized with  8 coefficients,  rinner =    1.100   1.100   1.100


     PseudoPot. # 2 for N  read from file:
     /opt/QEpot/SSSP_precision_pseudos/N.oncvpsp.upf
     MD5 check sum: 563d65bfb082928f0c9eb97172f6c357
     Pseudo is Norm-conserving + core correction, Zval =  5.0
     Generated using ONCVPSP code by D. R. Hamann
     Using radial grid of 1058 points,  4 beta functions with: 
                l(1) =   0
                l(2) =   0
                l(3) =   1
                l(4) =   1

     atomic species   valence    mass     pseudopotential
        B              3.00    10.81000     B ( 1.00)
        N              5.00    14.00700     N ( 1.00)

     No symmetry found


                                    s                        frac. trans.

      isym =  1     identity                                     

 cryst.   s( 1) = (     1          0          0      )
                  (     0          1          0      )
                  (     0          0          1      )

 cart.    s( 1) = (  1.0000000  0.0000000  0.0000000 )
                  (  0.0000000  1.0000000  0.0000000 )
                  (  0.0000000  0.0000000  1.0000000 )


   Cartesian axes

     site n.     atom                  positions (alat units)
         1           B   tau(   1) = (  -0.0158501   0.6060066   0.8729485  )
         2           B   tau(   2) = (   0.4929229   0.3021375   0.0018556  )
         3           N   tau(   3) = (  -0.0158501   0.6060066   0.2205905  )
         4           N   tau(   4) = (   0.4929229   0.3021375   1.0916834  )

   Crystallographic axes

     site n.     atom                  positions (cryst. coord.)
         1           B   tau(   1) = ( -0.3307404  0.6647684  0.5010651  )
         2           B   tau(   2) = (  0.3359276  0.3314344  0.0010651  )
         3           N   tau(   3) = ( -0.3307404  0.6647684  0.1266171  )
         4           N   tau(   4) = (  0.3359276  0.3314344  0.6266171  )

     number of k points=   252  Marzari-Vanderbilt smearing, width (Ry)=  0.0220
                       cart. coord. in units 2pi/alat
        k(    1) = (   0.0000000   0.0000000   0.0000000), wk =   0.0040000
        k(    2) = (   0.0000000   0.0000000   0.1147983), wk =   0.0080000
        k(    3) = (   0.0000000   0.0000000   0.2295966), wk =   0.0080000
        k(    4) = (   0.0000000   0.1096966   0.0000000), wk =   0.0080000
        k(    5) = (   0.0000000   0.1096966   0.1147983), wk =   0.0080000
        k(    6) = (   0.0000000   0.1096966   0.2295966), wk =   0.0080000
        k(    7) = (   0.0000000   0.2193931   0.0000000), wk =   0.0080000
        k(    8) = (   0.0000000   0.2193931   0.1147983), wk =   0.0080000
        k(    9) = (   0.0000000   0.2193931   0.2295966), wk =   0.0080000
        k(   10) = (   0.0000000   0.3290897   0.0000000), wk =   0.0080000
        k(   11) = (   0.0000000   0.3290897   0.1147983), wk =   0.0080000
        k(   12) = (   0.0000000   0.3290897   0.2295966), wk =   0.0080000
        k(   13) = (   0.0000000   0.4387862   0.0000000), wk =   0.0080000
        k(   14) = (   0.0000000   0.4387862   0.1147983), wk =   0.0080000
        k(   15) = (   0.0000000   0.4387862   0.2295966), wk =   0.0080000
        k(   16) = (   0.0000000  -0.5484828   0.0000000), wk =   0.0040000
        k(   17) = (   0.0000000  -0.5484828   0.1147983), wk =   0.0080000
        k(   18) = (   0.0000000  -0.5484828   0.2295966), wk =   0.0080000
        k(   19) = (   0.1000000  -0.0519615   0.0000000), wk =   0.0080000
        k(   20) = (   0.1000000  -0.0519615   0.1147983), wk =   0.0080000
        k(   21) = (   0.1000000  -0.0519615   0.2295966), wk =   0.0080000
        k(   22) = (   0.1000000   0.0577350   0.0000000), wk =   0.0080000
        k(   23) = (   0.1000000   0.0577350   0.1147983), wk =   0.0080000
        k(   24) = (   0.1000000   0.0577350   0.2295966), wk =   0.0080000
        k(   25) = (   0.1000000   0.1674316   0.0000000), wk =   0.0080000
        k(   26) = (   0.1000000   0.1674316   0.1147983), wk =   0.0080000
        k(   27) = (   0.1000000   0.1674316   0.2295966), wk =   0.0080000
        k(   28) = (   0.1000000   0.2771281   0.0000000), wk =   0.0080000
        k(   29) = (   0.1000000   0.2771281   0.1147983), wk =   0.0080000
        k(   30) = (   0.1000000   0.2771281   0.2295966), wk =   0.0080000
        k(   31) = (   0.1000000   0.3868247   0.0000000), wk =   0.0080000
        k(   32) = (   0.1000000   0.3868247   0.1147983), wk =   0.0080000
        k(   33) = (   0.1000000   0.3868247   0.2295966), wk =   0.0080000
        k(   34) = (   0.1000000  -0.6004443   0.0000000), wk =   0.0080000
        k(   35) = (   0.1000000  -0.6004443   0.1147983), wk =   0.0080000
        k(   36) = (   0.1000000  -0.6004443   0.2295966), wk =   0.0080000
        k(   37) = (   0.1000000  -0.4907477   0.0000000), wk =   0.0080000
        k(   38) = (   0.1000000  -0.4907477   0.1147983), wk =   0.0080000
        k(   39) = (   0.1000000  -0.4907477   0.2295966), wk =   0.0080000
        k(   40) = (   0.1000000  -0.3810512   0.0000000), wk =   0.0080000
        k(   41) = (   0.1000000  -0.3810512   0.1147983), wk =   0.0080000
        k(   42) = (   0.1000000  -0.3810512   0.2295966), wk =   0.0080000
        k(   43) = (   0.1000000  -0.2713546   0.0000000), wk =   0.0080000
        k(   44) = (   0.1000000  -0.2713546   0.1147983), wk =   0.0080000
        k(   45) = (   0.1000000  -0.2713546   0.2295966), wk =   0.0080000
        k(   46) = (   0.1000000  -0.1616581   0.0000000), wk =   0.0080000
        k(   47) = (   0.1000000  -0.1616581   0.1147983), wk =   0.0080000
        k(   48) = (   0.1000000  -0.1616581   0.2295966), wk =   0.0080000
        k(   49) = (   0.2000000  -0.1039230   0.0000000), wk =   0.0080000
        k(   50) = (   0.2000000  -0.1039230   0.1147983), wk =   0.0080000
        k(   51) = (   0.2000000  -0.1039230   0.2295966), wk =   0.0080000
        k(   52) = (   0.2000000   0.0057735   0.0000000), wk =   0.0080000
        k(   53) = (   0.2000000   0.0057735   0.1147983), wk =   0.0080000
        k(   54) = (   0.2000000   0.0057735   0.2295966), wk =   0.0080000
        k(   55) = (   0.2000000   0.1154701   0.0000000), wk =   0.0080000
        k(   56) = (   0.2000000   0.1154701   0.1147983), wk =   0.0080000
        k(   57) = (   0.2000000   0.1154701   0.2295966), wk =   0.0080000
        k(   58) = (   0.2000000   0.2251666   0.0000000), wk =   0.0080000
        k(   59) = (   0.2000000   0.2251666   0.1147983), wk =   0.0080000
        k(   60) = (   0.2000000   0.2251666   0.2295966), wk =   0.0080000
        k(   61) = (   0.2000000   0.3348632   0.0000000), wk =   0.0080000
        k(   62) = (   0.2000000   0.3348632   0.1147983), wk =   0.0080000
        k(   63) = (   0.2000000   0.3348632   0.2295966), wk =   0.0080000
        k(   64) = (   0.2000000  -0.6524058   0.0000000), wk =   0.0080000
        k(   65) = (   0.2000000  -0.6524058   0.1147983), wk =   0.0080000
        k(   66) = (   0.2000000  -0.6524058   0.2295966), wk =   0.0080000
        k(   67) = (   0.2000000  -0.5427093   0.0000000), wk =   0.0080000
        k(   68) = (   0.2000000  -0.5427093   0.1147983), wk =   0.0080000
        k(   69) = (   0.2000000  -0.5427093   0.2295966), wk =   0.0080000
        k(   70) = (   0.2000000  -0.4330127   0.0000000), wk =   0.0080000
        k(   71) = (   0.2000000  -0.4330127   0.1147983), wk =   0.0080000
        k(   72) = (   0.2000000  -0.4330127   0.2295966), wk =   0.0080000
        k(   73) = (   0.2000000  -0.3233162   0.0000000), wk =   0.0080000
        k(   74) = (   0.2000000  -0.3233162   0.1147983), wk =   0.0080000
        k(   75) = (   0.2000000  -0.3233162   0.2295966), wk =   0.0080000
        k(   76) = (   0.2000000  -0.2136196   0.0000000), wk =   0.0080000
        k(   77) = (   0.2000000  -0.2136196   0.1147983), wk =   0.0080000
        k(   78) = (   0.2000000  -0.2136196   0.2295966), wk =   0.0080000
        k(   79) = (   0.3000000  -0.1558846   0.0000000), wk =   0.0080000
        k(   80) = (   0.3000000  -0.1558846   0.1147983), wk =   0.0080000
        k(   81) = (   0.3000000  -0.1558846   0.2295966), wk =   0.0080000
        k(   82) = (   0.3000000  -0.0461880   0.0000000), wk =   0.0080000
        k(   83) = (   0.3000000  -0.0461880   0.1147983), wk =   0.0080000
        k(   84) = (   0.3000000  -0.0461880   0.2295966), wk =   0.0080000
        k(   85) = (   0.3000000   0.0635085   0.0000000), wk =   0.0080000
        k(   86) = (   0.3000000   0.0635085   0.1147983), wk =   0.0080000
        k(   87) = (   0.3000000   0.0635085   0.2295966), wk =   0.0080000
        k(   88) = (   0.3000000   0.1732051   0.0000000), wk =   0.0080000
        k(   89) = (   0.3000000   0.1732051   0.1147983), wk =   0.0080000
        k(   90) = (   0.3000000   0.1732051   0.2295966), wk =   0.0080000
        k(   91) = (   0.3000000   0.2829016   0.0000000), wk =   0.0080000
        k(   92) = (   0.3000000   0.2829016   0.1147983), wk =   0.0080000
        k(   93) = (   0.3000000   0.2829016   0.2295966), wk =   0.0080000
        k(   94) = (   0.3000000  -0.7043673   0.0000000), wk =   0.0080000
        k(   95) = (   0.3000000  -0.7043673   0.1147983), wk =   0.0080000
        k(   96) = (   0.3000000  -0.7043673   0.2295966), wk =   0.0080000
        k(   97) = (   0.3000000  -0.5946708   0.0000000), wk =   0.0080000
        k(   98) = (   0.3000000  -0.5946708   0.1147983), wk =   0.0080000
        k(   99) = (   0.3000000  -0.5946708   0.2295966), wk =   0.0080000
        k(  100) = (   0.3000000  -0.4849742   0.0000000), wk =   0.0080000
        k(  101) = (   0.3000000  -0.4849742   0.1147983), wk =   0.0080000
        k(  102) = (   0.3000000  -0.4849742   0.2295966), wk =   0.0080000
        k(  103) = (   0.3000000  -0.3752777   0.0000000), wk =   0.0080000
        k(  104) = (   0.3000000  -0.3752777   0.1147983), wk =   0.0080000
        k(  105) = (   0.3000000  -0.3752777   0.2295966), wk =   0.0080000
        k(  106) = (   0.3000000  -0.2655811   0.0000000), wk =   0.0080000
        k(  107) = (   0.3000000  -0.2655811   0.1147983), wk =   0.0080000
        k(  108) = (   0.3000000  -0.2655811   0.2295966), wk =   0.0080000
        k(  109) = (   0.4000000  -0.2078461   0.0000000), wk =   0.0080000
        k(  110) = (   0.4000000  -0.2078461   0.1147983), wk =   0.0080000
        k(  111) = (   0.4000000  -0.2078461   0.2295966), wk =   0.0080000
        k(  112) = (   0.4000000  -0.0981495   0.0000000), wk =   0.0080000
        k(  113) = (   0.4000000  -0.0981495   0.1147983), wk =   0.0080000
        k(  114) = (   0.4000000  -0.0981495   0.2295966), wk =   0.0080000
        k(  115) = (   0.4000000   0.0115470   0.0000000), wk =   0.0080000
        k(  116) = (   0.4000000   0.0115470   0.1147983), wk =   0.0080000
        k(  117) = (   0.4000000   0.0115470   0.2295966), wk =   0.0080000
        k(  118) = (   0.4000000   0.1212436   0.0000000), wk =   0.0080000
        k(  119) = (   0.4000000   0.1212436   0.1147983), wk =   0.0080000
        k(  120) = (   0.4000000   0.1212436   0.2295966), wk =   0.0080000
        k(  121) = (   0.4000000   0.2309401   0.0000000), wk =   0.0080000
        k(  122) = (   0.4000000   0.2309401   0.1147983), wk =   0.0080000
        k(  123) = (   0.4000000   0.2309401   0.2295966), wk =   0.0080000
        k(  124) = (   0.4000000  -0.7563289   0.0000000), wk =   0.0080000
        k(  125) = (   0.4000000  -0.7563289   0.1147983), wk =   0.0080000
        k(  126) = (   0.4000000  -0.7563289   0.2295966), wk =   0.0080000
        k(  127) = (   0.4000000  -0.6466323   0.0000000), wk =   0.0080000
        k(  128) = (   0.4000000  -0.6466323   0.1147983), wk =   0.0080000
        k(  129) = (   0.4000000  -0.6466323   0.2295966), wk =   0.0080000
        k(  130) = (   0.4000000  -0.5369358   0.0000000), wk =   0.0080000
        k(  131) = (   0.4000000  -0.5369358   0.1147983), wk =   0.0080000
        k(  132) = (   0.4000000  -0.5369358   0.2295966), wk =   0.0080000
        k(  133) = (   0.4000000  -0.4272392   0.0000000), wk =   0.0080000
        k(  134) = (   0.4000000  -0.4272392   0.1147983), wk =   0.0080000
        k(  135) = (   0.4000000  -0.4272392   0.2295966), wk =   0.0080000
        k(  136) = (   0.4000000  -0.3175426   0.0000000), wk =   0.0080000
        k(  137) = (   0.4000000  -0.3175426   0.1147983), wk =   0.0080000
        k(  138) = (   0.4000000  -0.3175426   0.2295966), wk =   0.0080000
        k(  139) = (  -0.5000000   0.2598076   0.0000000), wk =   0.0040000
        k(  140) = (  -0.5000000   0.2598076   0.1147983), wk =   0.0080000
        k(  141) = (  -0.5000000   0.2598076   0.2295966), wk =   0.0080000
        k(  142) = (  -0.5000000   0.3695042   0.0000000), wk =   0.0080000
        k(  143) = (  -0.5000000   0.3695042   0.1147983), wk =   0.0080000
        k(  144) = (  -0.5000000   0.3695042   0.2295966), wk =   0.0080000
        k(  145) = (  -0.5000000   0.4792007   0.0000000), wk =   0.0080000
        k(  146) = (  -0.5000000   0.4792007   0.1147983), wk =   0.0080000
        k(  147) = (  -0.5000000   0.4792007   0.2295966), wk =   0.0080000
        k(  148) = (  -0.5000000   0.5888973   0.0000000), wk =   0.0080000
        k(  149) = (  -0.5000000   0.5888973   0.1147983), wk =   0.0080000
        k(  150) = (  -0.5000000   0.5888973   0.2295966), wk =   0.0080000
        k(  151) = (  -0.5000000   0.6985938   0.0000000), wk =   0.0080000
        k(  152) = (  -0.5000000   0.6985938   0.1147983), wk =   0.0080000
        k(  153) = (  -0.5000000   0.6985938   0.2295966), wk =   0.0080000
        k(  154) = (  -0.5000000  -0.2886751   0.0000000), wk =   0.0040000
        k(  155) = (  -0.5000000  -0.2886751   0.1147983), wk =   0.0080000
        k(  156) = (  -0.5000000  -0.2886751   0.2295966), wk =   0.0080000
        k(  157) = (   0.0000000  -0.1096966   0.1147983), wk =   0.0080000
        k(  158) = (   0.0000000  -0.1096966   0.2295966), wk =   0.0080000
        k(  159) = (   0.0000000  -0.2193931   0.1147983), wk =   0.0080000
        k(  160) = (   0.0000000  -0.2193931   0.2295966), wk =   0.0080000
        k(  161) = (   0.0000000  -0.3290897   0.1147983), wk =   0.0080000
        k(  162) = (   0.0000000  -0.3290897   0.2295966), wk =   0.0080000
        k(  163) = (   0.0000000  -0.4387862   0.1147983), wk =   0.0080000
        k(  164) = (   0.0000000  -0.4387862   0.2295966), wk =   0.0080000
        k(  165) = (  -0.1000000   0.0519615   0.1147983), wk =   0.0080000
        k(  166) = (  -0.1000000   0.0519615   0.2295966), wk =   0.0080000
        k(  167) = (  -0.1000000  -0.0577350   0.1147983), wk =   0.0080000
        k(  168) = (  -0.1000000  -0.0577350   0.2295966), wk =   0.0080000
        k(  169) = (  -0.1000000  -0.1674316   0.1147983), wk =   0.0080000
        k(  170) = (  -0.1000000  -0.1674316   0.2295966), wk =   0.0080000
        k(  171) = (  -0.1000000  -0.2771281   0.1147983), wk =   0.0080000
        k(  172) = (  -0.1000000  -0.2771281   0.2295966), wk =   0.0080000
        k(  173) = (  -0.1000000  -0.3868247   0.1147983), wk =   0.0080000
        k(  174) = (  -0.1000000  -0.3868247   0.2295966), wk =   0.0080000
        k(  175) = (  -0.1000000   0.6004443   0.1147983), wk =   0.0080000
        k(  176) = (  -0.1000000   0.6004443   0.2295966), wk =   0.0080000
        k(  177) = (  -0.1000000   0.4907477   0.1147983), wk =   0.0080000
        k(  178) = (  -0.1000000   0.4907477   0.2295966), wk =   0.0080000
        k(  179) = (  -0.1000000   0.3810512   0.1147983), wk =   0.0080000
        k(  180) = (  -0.1000000   0.3810512   0.2295966), wk =   0.0080000
        k(  181) = (  -0.1000000   0.2713546   0.1147983), wk =   0.0080000
        k(  182) = (  -0.1000000   0.2713546   0.2295966), wk =   0.0080000
        k(  183) = (  -0.1000000   0.1616581   0.1147983), wk =   0.0080000
        k(  184) = (  -0.1000000   0.1616581   0.2295966), wk =   0.0080000
        k(  185) = (  -0.2000000   0.1039230   0.1147983), wk =   0.0080000
        k(  186) = (  -0.2000000   0.1039230   0.2295966), wk =   0.0080000
        k(  187) = (  -0.2000000  -0.0057735   0.1147983), wk =   0.0080000
        k(  188) = (  -0.2000000  -0.0057735   0.2295966), wk =   0.0080000
        k(  189) = (  -0.2000000  -0.1154701   0.1147983), wk =   0.0080000
        k(  190) = (  -0.2000000  -0.1154701   0.2295966), wk =   0.0080000
        k(  191) = (  -0.2000000  -0.2251666   0.1147983), wk =   0.0080000
        k(  192) = (  -0.2000000  -0.2251666   0.2295966), wk =   0.0080000
        k(  193) = (  -0.2000000  -0.3348632   0.1147983), wk =   0.0080000
        k(  194) = (  -0.2000000  -0.3348632   0.2295966), wk =   0.0080000
        k(  195) = (  -0.2000000   0.6524058   0.1147983), wk =   0.0080000
        k(  196) = (  -0.2000000   0.6524058   0.2295966), wk =   0.0080000
        k(  197) = (  -0.2000000   0.5427093   0.1147983), wk =   0.0080000
        k(  198) = (  -0.2000000   0.5427093   0.2295966), wk =   0.0080000
        k(  199) = (  -0.2000000   0.4330127   0.1147983), wk =   0.0080000
        k(  200) = (  -0.2000000   0.4330127   0.2295966), wk =   0.0080000
        k(  201) = (  -0.2000000   0.3233162   0.1147983), wk =   0.0080000
        k(  202) = (  -0.2000000   0.3233162   0.2295966), wk =   0.0080000
        k(  203) = (  -0.2000000   0.2136196   0.1147983), wk =   0.0080000
        k(  204) = (  -0.2000000   0.2136196   0.2295966), wk =   0.0080000
        k(  205) = (  -0.3000000   0.1558846   0.1147983), wk =   0.0080000
        k(  206) = (  -0.3000000   0.1558846   0.2295966), wk =   0.0080000
        k(  207) = (  -0.3000000   0.0461880   0.1147983), wk =   0.0080000
        k(  208) = (  -0.3000000   0.0461880   0.2295966), wk =   0.0080000
        k(  209) = (  -0.3000000  -0.0635085   0.1147983), wk =   0.0080000
        k(  210) = (  -0.3000000  -0.0635085   0.2295966), wk =   0.0080000
        k(  211) = (  -0.3000000  -0.1732051   0.1147983), wk =   0.0080000
        k(  212) = (  -0.3000000  -0.1732051   0.2295966), wk =   0.0080000
        k(  213) = (  -0.3000000  -0.2829016   0.1147983), wk =   0.0080000
        k(  214) = (  -0.3000000  -0.2829016   0.2295966), wk =   0.0080000
        k(  215) = (  -0.3000000   0.7043673   0.1147983), wk =   0.0080000
        k(  216) = (  -0.3000000   0.7043673   0.2295966), wk =   0.0080000
        k(  217) = (  -0.3000000   0.5946708   0.1147983), wk =   0.0080000
        k(  218) = (  -0.3000000   0.5946708   0.2295966), wk =   0.0080000
        k(  219) = (  -0.3000000   0.4849742   0.1147983), wk =   0.0080000
        k(  220) = (  -0.3000000   0.4849742   0.2295966), wk =   0.0080000
        k(  221) = (  -0.3000000   0.3752777   0.1147983), wk =   0.0080000
        k(  222) = (  -0.3000000   0.3752777   0.2295966), wk =   0.0080000
        k(  223) = (  -0.3000000   0.2655811   0.1147983), wk =   0.0080000
        k(  224) = (  -0.3000000   0.2655811   0.2295966), wk =   0.0080000
        k(  225) = (  -0.4000000   0.2078461   0.1147983), wk =   0.0080000
        k(  226) = (  -0.4000000   0.2078461   0.2295966), wk =   0.0080000
        k(  227) = (  -0.4000000   0.0981495   0.1147983), wk =   0.0080000
        k(  228) = (  -0.4000000   0.0981495   0.2295966), wk =   0.0080000
        k(  229) = (  -0.4000000  -0.0115470   0.1147983), wk =   0.0080000
        k(  230) = (  -0.4000000  -0.0115470   0.2295966), wk =   0.0080000
        k(  231) = (  -0.4000000  -0.1212436   0.1147983), wk =   0.0080000
        k(  232) = (  -0.4000000  -0.1212436   0.2295966), wk =   0.0080000
        k(  233) = (  -0.4000000  -0.2309401   0.1147983), wk =   0.0080000
        k(  234) = (  -0.4000000  -0.2309401   0.2295966), wk =   0.0080000
        k(  235) = (  -0.4000000   0.7563289   0.1147983), wk =   0.0080000
        k(  236) = (  -0.4000000   0.7563289   0.2295966), wk =   0.0080000
        k(  237) = (  -0.4000000   0.6466323   0.1147983), wk =   0.0080000
        k(  238) = (  -0.4000000   0.6466323   0.2295966), wk =   0.0080000
        k(  239) = (  -0.4000000   0.5369358   0.1147983), wk =   0.0080000
        k(  240) = (  -0.4000000   0.5369358   0.2295966), wk =   0.0080000
        k(  241) = (  -0.4000000   0.4272392   0.1147983), wk =   0.0080000
        k(  242) = (  -0.4000000   0.4272392   0.2295966), wk =   0.0080000
        k(  243) = (  -0.4000000   0.3175426   0.1147983), wk =   0.0080000
        k(  244) = (  -0.4000000   0.3175426   0.2295966), wk =   0.0080000
        k(  245) = (   0.5000000  -0.3695042   0.1147983), wk =   0.0080000
        k(  246) = (   0.5000000  -0.3695042   0.2295966), wk =   0.0080000
        k(  247) = (   0.5000000  -0.4792007   0.1147983), wk =   0.0080000
        k(  248) = (   0.5000000  -0.4792007   0.2295966), wk =   0.0080000
        k(  249) = (   0.5000000  -0.5888973   0.1147983), wk =   0.0080000
        k(  250) = (   0.5000000  -0.5888973   0.2295966), wk =   0.0080000
        k(  251) = (   0.5000000  -0.6985938   0.1147983), wk =   0.0080000
        k(  252) = (   0.5000000  -0.6985938   0.2295966), wk =   0.0080000

                       cryst. coord.
        k(    1) = (   0.0000000   0.0000000   0.0000000), wk =   0.0040000
        k(    2) = (   0.0000000   0.0000000   0.2000000), wk =   0.0080000
        k(    3) = (   0.0000000   0.0000000   0.4000000), wk =   0.0080000
        k(    4) = (   0.0000000   0.1000000   0.0000000), wk =   0.0080000
        k(    5) = (   0.0000000   0.1000000   0.2000000), wk =   0.0080000
        k(    6) = (   0.0000000   0.1000000   0.4000000), wk =   0.0080000
        k(    7) = (   0.0000000   0.2000000   0.0000000), wk =   0.0080000
        k(    8) = (   0.0000000   0.2000000   0.2000000), wk =   0.0080000
        k(    9) = (   0.0000000   0.2000000   0.4000000), wk =   0.0080000
        k(   10) = (   0.0000000   0.3000000   0.0000000), wk =   0.0080000
        k(   11) = (   0.0000000   0.3000000   0.2000000), wk =   0.0080000
        k(   12) = (   0.0000000   0.3000000   0.4000000), wk =   0.0080000
        k(   13) = (   0.0000000   0.4000000   0.0000000), wk =   0.0080000
        k(   14) = (   0.0000000   0.4000000   0.2000000), wk =   0.0080000
        k(   15) = (   0.0000000   0.4000000   0.4000000), wk =   0.0080000
        k(   16) = (   0.0000000  -0.5000000   0.0000000), wk =   0.0040000
        k(   17) = (   0.0000000  -0.5000000   0.2000000), wk =   0.0080000
        k(   18) = (   0.0000000  -0.5000000   0.4000000), wk =   0.0080000
        k(   19) = (   0.1000000   0.0000000   0.0000000), wk =   0.0080000
        k(   20) = (   0.1000000   0.0000000   0.2000000), wk =   0.0080000
        k(   21) = (   0.1000000   0.0000000   0.4000000), wk =   0.0080000
        k(   22) = (   0.1000000   0.1000000   0.0000000), wk =   0.0080000
        k(   23) = (   0.1000000   0.1000000   0.2000000), wk =   0.0080000
        k(   24) = (   0.1000000   0.1000000   0.4000000), wk =   0.0080000
        k(   25) = (   0.1000000   0.2000000   0.0000000), wk =   0.0080000
        k(   26) = (   0.1000000   0.2000000   0.2000000), wk =   0.0080000
        k(   27) = (   0.1000000   0.2000000   0.4000000), wk =   0.0080000
        k(   28) = (   0.1000000   0.3000000   0.0000000), wk =   0.0080000
        k(   29) = (   0.1000000   0.3000000   0.2000000), wk =   0.0080000
        k(   30) = (   0.1000000   0.3000000   0.4000000), wk =   0.0080000
        k(   31) = (   0.1000000   0.4000000   0.0000000), wk =   0.0080000
        k(   32) = (   0.1000000   0.4000000   0.2000000), wk =   0.0080000
        k(   33) = (   0.1000000   0.4000000   0.4000000), wk =   0.0080000
        k(   34) = (   0.1000000  -0.5000000   0.0000000), wk =   0.0080000
        k(   35) = (   0.1000000  -0.5000000   0.2000000), wk =   0.0080000
        k(   36) = (   0.1000000  -0.5000000   0.4000000), wk =   0.0080000
        k(   37) = (   0.1000000  -0.4000000   0.0000000), wk =   0.0080000
        k(   38) = (   0.1000000  -0.4000000   0.2000000), wk =   0.0080000
        k(   39) = (   0.1000000  -0.4000000   0.4000000), wk =   0.0080000
        k(   40) = (   0.1000000  -0.3000000   0.0000000), wk =   0.0080000
        k(   41) = (   0.1000000  -0.3000000   0.2000000), wk =   0.0080000
        k(   42) = (   0.1000000  -0.3000000   0.4000000), wk =   0.0080000
        k(   43) = (   0.1000000  -0.2000000   0.0000000), wk =   0.0080000
        k(   44) = (   0.1000000  -0.2000000   0.2000000), wk =   0.0080000
        k(   45) = (   0.1000000  -0.2000000   0.4000000), wk =   0.0080000
        k(   46) = (   0.1000000  -0.1000000   0.0000000), wk =   0.0080000
        k(   47) = (   0.1000000  -0.1000000   0.2000000), wk =   0.0080000
        k(   48) = (   0.1000000  -0.1000000   0.4000000), wk =   0.0080000
        k(   49) = (   0.2000000   0.0000000   0.0000000), wk =   0.0080000
        k(   50) = (   0.2000000   0.0000000   0.2000000), wk =   0.0080000
        k(   51) = (   0.2000000   0.0000000   0.4000000), wk =   0.0080000
        k(   52) = (   0.2000000   0.1000000   0.0000000), wk =   0.0080000
        k(   53) = (   0.2000000   0.1000000   0.2000000), wk =   0.0080000
        k(   54) = (   0.2000000   0.1000000   0.4000000), wk =   0.0080000
        k(   55) = (   0.2000000   0.2000000   0.0000000), wk =   0.0080000
        k(   56) = (   0.2000000   0.2000000   0.2000000), wk =   0.0080000
        k(   57) = (   0.2000000   0.2000000   0.4000000), wk =   0.0080000
        k(   58) = (   0.2000000   0.3000000   0.0000000), wk =   0.0080000
        k(   59) = (   0.2000000   0.3000000   0.2000000), wk =   0.0080000
        k(   60) = (   0.2000000   0.3000000   0.4000000), wk =   0.0080000
        k(   61) = (   0.2000000   0.4000000   0.0000000), wk =   0.0080000
        k(   62) = (   0.2000000   0.4000000   0.2000000), wk =   0.0080000
        k(   63) = (   0.2000000   0.4000000   0.4000000), wk =   0.0080000
        k(   64) = (   0.2000000  -0.5000000   0.0000000), wk =   0.0080000
        k(   65) = (   0.2000000  -0.5000000   0.2000000), wk =   0.0080000
        k(   66) = (   0.2000000  -0.5000000   0.4000000), wk =   0.0080000
        k(   67) = (   0.2000000  -0.4000000   0.0000000), wk =   0.0080000
        k(   68) = (   0.2000000  -0.4000000   0.2000000), wk =   0.0080000
        k(   69) = (   0.2000000  -0.4000000   0.4000000), wk =   0.0080000
        k(   70) = (   0.2000000  -0.3000000   0.0000000), wk =   0.0080000
        k(   71) = (   0.2000000  -0.3000000   0.2000000), wk =   0.0080000
        k(   72) = (   0.2000000  -0.3000000   0.4000000), wk =   0.0080000
        k(   73) = (   0.2000000  -0.2000000   0.0000000), wk =   0.0080000
        k(   74) = (   0.2000000  -0.2000000   0.2000000), wk =   0.0080000
        k(   75) = (   0.2000000  -0.2000000   0.4000000), wk =   0.0080000
        k(   76) = (   0.2000000  -0.1000000   0.0000000), wk =   0.0080000
        k(   77) = (   0.2000000  -0.1000000   0.2000000), wk =   0.0080000
        k(   78) = (   0.2000000  -0.1000000   0.4000000), wk =   0.0080000
        k(   79) = (   0.3000000   0.0000000   0.0000000), wk =   0.0080000
        k(   80) = (   0.3000000   0.0000000   0.2000000), wk =   0.0080000
        k(   81) = (   0.3000000   0.0000000   0.4000000), wk =   0.0080000
        k(   82) = (   0.3000000   0.1000000   0.0000000), wk =   0.0080000
        k(   83) = (   0.3000000   0.1000000   0.2000000), wk =   0.0080000
        k(   84) = (   0.3000000   0.1000000   0.4000000), wk =   0.0080000
        k(   85) = (   0.3000000   0.2000000   0.0000000), wk =   0.0080000
        k(   86) = (   0.3000000   0.2000000   0.2000000), wk =   0.0080000
        k(   87) = (   0.3000000   0.2000000   0.4000000), wk =   0.0080000
        k(   88) = (   0.3000000   0.3000000   0.0000000), wk =   0.0080000
        k(   89) = (   0.3000000   0.3000000   0.2000000), wk =   0.0080000
        k(   90) = (   0.3000000   0.3000000   0.4000000), wk =   0.0080000
        k(   91) = (   0.3000000   0.4000000   0.0000000), wk =   0.0080000
        k(   92) = (   0.3000000   0.4000000   0.2000000), wk =   0.0080000
        k(   93) = (   0.3000000   0.4000000   0.4000000), wk =   0.0080000
        k(   94) = (   0.3000000  -0.5000000   0.0000000), wk =   0.0080000
        k(   95) = (   0.3000000  -0.5000000   0.2000000), wk =   0.0080000
        k(   96) = (   0.3000000  -0.5000000   0.4000000), wk =   0.0080000
        k(   97) = (   0.3000000  -0.4000000   0.0000000), wk =   0.0080000
        k(   98) = (   0.3000000  -0.4000000   0.2000000), wk =   0.0080000
        k(   99) = (   0.3000000  -0.4000000   0.4000000), wk =   0.0080000
        k(  100) = (   0.3000000  -0.3000000   0.0000000), wk =   0.0080000
        k(  101) = (   0.3000000  -0.3000000   0.2000000), wk =   0.0080000
        k(  102) = (   0.3000000  -0.3000000   0.4000000), wk =   0.0080000
        k(  103) = (   0.3000000  -0.2000000   0.0000000), wk =   0.0080000
        k(  104) = (   0.3000000  -0.2000000   0.2000000), wk =   0.0080000
        k(  105) = (   0.3000000  -0.2000000   0.4000000), wk =   0.0080000
        k(  106) = (   0.3000000  -0.1000000   0.0000000), wk =   0.0080000
        k(  107) = (   0.3000000  -0.1000000   0.2000000), wk =   0.0080000
        k(  108) = (   0.3000000  -0.1000000   0.4000000), wk =   0.0080000
        k(  109) = (   0.4000000   0.0000000   0.0000000), wk =   0.0080000
        k(  110) = (   0.4000000   0.0000000   0.2000000), wk =   0.0080000
        k(  111) = (   0.4000000   0.0000000   0.4000000), wk =   0.0080000
        k(  112) = (   0.4000000   0.1000000   0.0000000), wk =   0.0080000
        k(  113) = (   0.4000000   0.1000000   0.2000000), wk =   0.0080000
        k(  114) = (   0.4000000   0.1000000   0.4000000), wk =   0.0080000
        k(  115) = (   0.4000000   0.2000000   0.0000000), wk =   0.0080000
        k(  116) = (   0.4000000   0.2000000   0.2000000), wk =   0.0080000
        k(  117) = (   0.4000000   0.2000000   0.4000000), wk =   0.0080000
        k(  118) = (   0.4000000   0.3000000   0.0000000), wk =   0.0080000
        k(  119) = (   0.4000000   0.3000000   0.2000000), wk =   0.0080000
        k(  120) = (   0.4000000   0.3000000   0.4000000), wk =   0.0080000
        k(  121) = (   0.4000000   0.4000000   0.0000000), wk =   0.0080000
        k(  122) = (   0.4000000   0.4000000   0.2000000), wk =   0.0080000
        k(  123) = (   0.4000000   0.4000000   0.4000000), wk =   0.0080000
        k(  124) = (   0.4000000  -0.5000000   0.0000000), wk =   0.0080000
        k(  125) = (   0.4000000  -0.5000000   0.2000000), wk =   0.0080000
        k(  126) = (   0.4000000  -0.5000000   0.4000000), wk =   0.0080000
        k(  127) = (   0.4000000  -0.4000000   0.0000000), wk =   0.0080000
        k(  128) = (   0.4000000  -0.4000000   0.2000000), wk =   0.0080000
        k(  129) = (   0.4000000  -0.4000000   0.4000000), wk =   0.0080000
        k(  130) = (   0.4000000  -0.3000000   0.0000000), wk =   0.0080000
        k(  131) = (   0.4000000  -0.3000000   0.2000000), wk =   0.0080000
        k(  132) = (   0.4000000  -0.3000000   0.4000000), wk =   0.0080000
        k(  133) = (   0.4000000  -0.2000000   0.0000000), wk =   0.0080000
        k(  134) = (   0.4000000  -0.2000000   0.2000000), wk =   0.0080000
        k(  135) = (   0.4000000  -0.2000000   0.4000000), wk =   0.0080000
        k(  136) = (   0.4000000  -0.1000000   0.0000000), wk =   0.0080000
        k(  137) = (   0.4000000  -0.1000000   0.2000000), wk =   0.0080000
        k(  138) = (   0.4000000  -0.1000000   0.4000000), wk =   0.0080000
        k(  139) = (  -0.5000000   0.0000000   0.0000000), wk =   0.0040000
        k(  140) = (  -0.5000000   0.0000000   0.2000000), wk =   0.0080000
        k(  141) = (  -0.5000000   0.0000000   0.4000000), wk =   0.0080000
        k(  142) = (  -0.5000000   0.1000000   0.0000000), wk =   0.0080000
        k(  143) = (  -0.5000000   0.1000000   0.2000000), wk =   0.0080000
        k(  144) = (  -0.5000000   0.1000000   0.4000000), wk =   0.0080000
        k(  145) = (  -0.5000000   0.2000000   0.0000000), wk =   0.0080000
        k(  146) = (  -0.5000000   0.2000000   0.2000000), wk =   0.0080000
        k(  147) = (  -0.5000000   0.2000000   0.4000000), wk =   0.0080000
        k(  148) = (  -0.5000000   0.3000000   0.0000000), wk =   0.0080000
        k(  149) = (  -0.5000000   0.3000000   0.2000000), wk =   0.0080000
        k(  150) = (  -0.5000000   0.3000000   0.4000000), wk =   0.0080000
        k(  151) = (  -0.5000000   0.4000000   0.0000000), wk =   0.0080000
        k(  152) = (  -0.5000000   0.4000000   0.2000000), wk =   0.0080000
        k(  153) = (  -0.5000000   0.4000000   0.4000000), wk =   0.0080000
        k(  154) = (  -0.5000000  -0.5000000   0.0000000), wk =   0.0040000
        k(  155) = (  -0.5000000  -0.5000000   0.2000000), wk =   0.0080000
        k(  156) = (  -0.5000000  -0.5000000   0.4000000), wk =   0.0080000
        k(  157) = (   0.0000000  -0.1000000   0.2000000), wk =   0.0080000
        k(  158) = (   0.0000000  -0.1000000   0.4000000), wk =   0.0080000
        k(  159) = (   0.0000000  -0.2000000   0.2000000), wk =   0.0080000
        k(  160) = (   0.0000000  -0.2000000   0.4000000), wk =   0.0080000
        k(  161) = (   0.0000000  -0.3000000   0.2000000), wk =   0.0080000
        k(  162) = (   0.0000000  -0.3000000   0.4000000), wk =   0.0080000
        k(  163) = (   0.0000000  -0.4000000   0.2000000), wk =   0.0080000
        k(  164) = (   0.0000000  -0.4000000   0.4000000), wk =   0.0080000
        k(  165) = (  -0.1000000   0.0000000   0.2000000), wk =   0.0080000
        k(  166) = (  -0.1000000   0.0000000   0.4000000), wk =   0.0080000
        k(  167) = (  -0.1000000  -0.1000000   0.2000000), wk =   0.0080000
        k(  168) = (  -0.1000000  -0.1000000   0.4000000), wk =   0.0080000
        k(  169) = (  -0.1000000  -0.2000000   0.2000000), wk =   0.0080000
        k(  170) = (  -0.1000000  -0.2000000   0.4000000), wk =   0.0080000
        k(  171) = (  -0.1000000  -0.3000000   0.2000000), wk =   0.0080000
        k(  172) = (  -0.1000000  -0.3000000   0.4000000), wk =   0.0080000
        k(  173) = (  -0.1000000  -0.4000000   0.2000000), wk =   0.0080000
        k(  174) = (  -0.1000000  -0.4000000   0.4000000), wk =   0.0080000
        k(  175) = (  -0.1000000   0.5000000   0.2000000), wk =   0.0080000
        k(  176) = (  -0.1000000   0.5000000   0.4000000), wk =   0.0080000
        k(  177) = (  -0.1000000   0.4000000   0.2000000), wk =   0.0080000
        k(  178) = (  -0.1000000   0.4000000   0.4000000), wk =   0.0080000
        k(  179) = (  -0.1000000   0.3000000   0.2000000), wk =   0.0080000
        k(  180) = (  -0.1000000   0.3000000   0.4000000), wk =   0.0080000
        k(  181) = (  -0.1000000   0.2000000   0.2000000), wk =   0.0080000
        k(  182) = (  -0.1000000   0.2000000   0.4000000), wk =   0.0080000
        k(  183) = (  -0.1000000   0.1000000   0.2000000), wk =   0.0080000
        k(  184) = (  -0.1000000   0.1000000   0.4000000), wk =   0.0080000
        k(  185) = (  -0.2000000   0.0000000   0.2000000), wk =   0.0080000
        k(  186) = (  -0.2000000   0.0000000   0.4000000), wk =   0.0080000
        k(  187) = (  -0.2000000  -0.1000000   0.2000000), wk =   0.0080000
        k(  188) = (  -0.2000000  -0.1000000   0.4000000), wk =   0.0080000
        k(  189) = (  -0.2000000  -0.2000000   0.2000000), wk =   0.0080000
        k(  190) = (  -0.2000000  -0.2000000   0.4000000), wk =   0.0080000
        k(  191) = (  -0.2000000  -0.3000000   0.2000000), wk =   0.0080000
        k(  192) = (  -0.2000000  -0.3000000   0.4000000), wk =   0.0080000
        k(  193) = (  -0.2000000  -0.4000000   0.2000000), wk =   0.0080000
        k(  194) = (  -0.2000000  -0.4000000   0.4000000), wk =   0.0080000
        k(  195) = (  -0.2000000   0.5000000   0.2000000), wk =   0.0080000
        k(  196) = (  -0.2000000   0.5000000   0.4000000), wk =   0.0080000
        k(  197) = (  -0.2000000   0.4000000   0.2000000), wk =   0.0080000
        k(  198) = (  -0.2000000   0.4000000   0.4000000), wk =   0.0080000
        k(  199) = (  -0.2000000   0.3000000   0.2000000), wk =   0.0080000
        k(  200) = (  -0.2000000   0.3000000   0.4000000), wk =   0.0080000
        k(  201) = (  -0.2000000   0.2000000   0.2000000), wk =   0.0080000
        k(  202) = (  -0.2000000   0.2000000   0.4000000), wk =   0.0080000
        k(  203) = (  -0.2000000   0.1000000   0.2000000), wk =   0.0080000
        k(  204) = (  -0.2000000   0.1000000   0.4000000), wk =   0.0080000
        k(  205) = (  -0.3000000  -0.0000000   0.2000000), wk =   0.0080000
        k(  206) = (  -0.3000000  -0.0000000   0.4000000), wk =   0.0080000
        k(  207) = (  -0.3000000  -0.1000000   0.2000000), wk =   0.0080000
        k(  208) = (  -0.3000000  -0.1000000   0.4000000), wk =   0.0080000
        k(  209) = (  -0.3000000  -0.2000000   0.2000000), wk =   0.0080000
        k(  210) = (  -0.3000000  -0.2000000   0.4000000), wk =   0.0080000
        k(  211) = (  -0.3000000  -0.3000000   0.2000000), wk =   0.0080000
        k(  212) = (  -0.3000000  -0.3000000   0.4000000), wk =   0.0080000
        k(  213) = (  -0.3000000  -0.4000000   0.2000000), wk =   0.0080000
        k(  214) = (  -0.3000000  -0.4000000   0.4000000), wk =   0.0080000
        k(  215) = (  -0.3000000   0.5000000   0.2000000), wk =   0.0080000
        k(  216) = (  -0.3000000   0.5000000   0.4000000), wk =   0.0080000
        k(  217) = (  -0.3000000   0.4000000   0.2000000), wk =   0.0080000
        k(  218) = (  -0.3000000   0.4000000   0.4000000), wk =   0.0080000
        k(  219) = (  -0.3000000   0.3000000   0.2000000), wk =   0.0080000
        k(  220) = (  -0.3000000   0.3000000   0.4000000), wk =   0.0080000
        k(  221) = (  -0.3000000   0.2000000   0.2000000), wk =   0.0080000
        k(  222) = (  -0.3000000   0.2000000   0.4000000), wk =   0.0080000
        k(  223) = (  -0.3000000   0.1000000   0.2000000), wk =   0.0080000
        k(  224) = (  -0.3000000   0.1000000   0.4000000), wk =   0.0080000
        k(  225) = (  -0.4000000   0.0000000   0.2000000), wk =   0.0080000
        k(  226) = (  -0.4000000   0.0000000   0.4000000), wk =   0.0080000
        k(  227) = (  -0.4000000  -0.1000000   0.2000000), wk =   0.0080000
        k(  228) = (  -0.4000000  -0.1000000   0.4000000), wk =   0.0080000
        k(  229) = (  -0.4000000  -0.2000000   0.2000000), wk =   0.0080000
        k(  230) = (  -0.4000000  -0.2000000   0.4000000), wk =   0.0080000
        k(  231) = (  -0.4000000  -0.3000000   0.2000000), wk =   0.0080000
        k(  232) = (  -0.4000000  -0.3000000   0.4000000), wk =   0.0080000
        k(  233) = (  -0.4000000  -0.4000000   0.2000000), wk =   0.0080000
        k(  234) = (  -0.4000000  -0.4000000   0.4000000), wk =   0.0080000
        k(  235) = (  -0.4000000   0.5000000   0.2000000), wk =   0.0080000
        k(  236) = (  -0.4000000   0.5000000   0.4000000), wk =   0.0080000
        k(  237) = (  -0.4000000   0.4000000   0.2000000), wk =   0.0080000
        k(  238) = (  -0.4000000   0.4000000   0.4000000), wk =   0.0080000
        k(  239) = (  -0.4000000   0.3000000   0.2000000), wk =   0.0080000
        k(  240) = (  -0.4000000   0.3000000   0.4000000), wk =   0.0080000
        k(  241) = (  -0.4000000   0.2000000   0.2000000), wk =   0.0080000
        k(  242) = (  -0.4000000   0.2000000   0.4000000), wk =   0.0080000
        k(  243) = (  -0.4000000   0.1000000   0.2000000), wk =   0.0080000
        k(  244) = (  -0.4000000   0.1000000   0.4000000), wk =   0.0080000
        k(  245) = (   0.5000000  -0.1000000   0.2000000), wk =   0.0080000
        k(  246) = (   0.5000000  -0.1000000   0.4000000), wk =   0.0080000
        k(  247) = (   0.5000000  -0.2000000   0.2000000), wk =   0.0080000
        k(  248) = (   0.5000000  -0.2000000   0.4000000), wk =   0.0080000
        k(  249) = (   0.5000000  -0.3000000   0.2000000), wk =   0.0080000
        k(  250) = (   0.5000000  -0.3000000   0.4000000), wk =   0.0080000
        k(  251) = (   0.5000000  -0.4000000   0.2000000), wk =   0.0080000
        k(  252) = (   0.5000000  -0.4000000   0.4000000), wk =   0.0080000

     Dense  grid:    23823 G-vectors     FFT dimensions: (  32,  32,  54)

     Smooth grid:    14799 G-vectors     FFT dimensions: (  27,  27,  45)

     Dynamical RAM for                 wfc:       0.02 MB

     Dynamical RAM for     wfc (w. buffer):       5.33 MB

     Dynamical RAM for           str. fact:       0.05 MB

     Dynamical RAM for           local pot:       0.00 MB

     Dynamical RAM for          nlocal pot:       0.06 MB

     Dynamical RAM for                qrad:       0.96 MB

     Dynamical RAM for          rho,v,vnew:       0.16 MB

     Dynamical RAM for               rhoin:       0.05 MB

     Dynamical RAM for            rho*nmix:       0.36 MB

     Dynamical RAM for           G-vectors:       0.09 MB

     Dynamical RAM for          h,s,v(r/c):       0.03 MB

     Dynamical RAM for          <psi|beta>:       0.01 MB

     Dynamical RAM for                 psi:       0.04 MB

     Dynamical RAM for                hpsi:       0.04 MB

     Dynamical RAM for                spsi:       0.04 MB

     Dynamical RAM for      wfcinit/wfcrot:       0.06 MB

     Dynamical RAM for           addusdens:       1.02 MB

     Dynamical RAM for          addusforce:       1.08 MB

     Dynamical RAM for         addusstress:       1.14 MB

     Estimated static dynamical RAM per process >       7.29 MB

     Estimated max dynamical RAM per process >       8.42 MB

     Estimated total dynamical RAM >     134.79 MB

     Check: negative core charge=   -0.000011

     Initial potential from superposition of free atoms

     starting charge   15.99942, renormalised to   16.00000
     Starting wfcs are   16 randomized atomic wfcs

     total cpu time spent up to now is        2.3 secs

     Self-consistent Calculation

     iteration #  1     ecut=    80.00 Ry     beta= 0.40
     Davidson diagonalization with overlap
     ethr =  1.00E-02,  avg # of iterations =  2.8

     total cpu time spent up to now is        3.6 secs

     total energy              =     -54.78730430 Ry
     estimated scf accuracy    <       0.44631854 Ry

     iteration #  2     ecut=    80.00 Ry     beta= 0.40
     Davidson diagonalization with overlap
     ethr =  2.79E-03,  avg # of iterations =  1.6

     total cpu time spent up to now is        4.9 secs

     total energy              =     -54.82924167 Ry
     estimated scf accuracy    <       0.04477080 Ry

     iteration #  3     ecut=    80.00 Ry     beta= 0.40
     Davidson diagonalization with overlap
     ethr =  2.80E-04,  avg # of iterations =  4.0

     total cpu time spent up to now is        6.0 secs

     total energy              =     -54.83213696 Ry
     estimated scf accuracy    <       0.01051851 Ry

     iteration #  4     ecut=    80.00 Ry     beta= 0.40
     Davidson diagonalization with overlap
     ethr =  6.57E-05,  avg # of iterations =  4.5

     total cpu time spent up to now is        7.2 secs

     total energy              =     -54.83342651 Ry
     estimated scf accuracy    <       0.00024153 Ry

     iteration #  5     ecut=    80.00 Ry     beta= 0.40
     Davidson diagonalization with overlap
     c_bands:  1 eigenvalues not converged
     c_bands:  1 eigenvalues not converged
     c_bands:  1 eigenvalues not converged
     ethr =  1.51E-06,  avg # of iterations =  8.6

     total cpu time spent up to now is        9.2 secs

     total energy              =     -54.83359164 Ry
     estimated scf accuracy    <       0.00012691 Ry

     iteration #  6     ecut=    80.00 Ry     beta= 0.40
     Davidson diagonalization with overlap
     ethr =  7.93E-07,  avg # of iterations =  2.1

     total cpu time spent up to now is       10.2 secs

     total energy              =     -54.83361581 Ry
     estimated scf accuracy    <       0.00002538 Ry

     iteration #  7     ecut=    80.00 Ry     beta= 0.40
     Davidson diagonalization with overlap
     ethr =  1.59E-07,  avg # of iterations =  2.1

     total cpu time spent up to now is       11.2 secs

     total energy              =     -54.83362293 Ry
     estimated scf accuracy    <       0.00000557 Ry

     iteration #  8     ecut=    80.00 Ry     beta= 0.40
     Davidson diagonalization with overlap
     ethr =  3.48E-08,  avg # of iterations =  2.0

     total cpu time spent up to now is       12.1 secs

     total energy              =     -54.83362349 Ry
     estimated scf accuracy    <       0.00000029 Ry

     iteration #  9     ecut=    80.00 Ry     beta= 0.40
     Davidson diagonalization with overlap
     ethr =  1.81E-09,  avg # of iterations =  4.7

     total cpu time spent up to now is       13.5 secs

     total energy              =     -54.83362374 Ry
     estimated scf accuracy    <       0.00000003 Ry

     iteration # 10     ecut=    80.00 Ry     beta= 0.40
     Davidson diagonalization with overlap
     ethr =  1.83E-10,  avg # of iterations =  2.2

     total cpu time spent up to now is       14.5 secs

     total energy              =     -54.83362375 Ry
     estimated scf accuracy    <          9.3E-10 Ry

     iteration # 11     ecut=    80.00 Ry     beta= 0.40
     Davidson diagonalization with overlap
     ethr =  5.78E-12,  avg # of iterations =  3.8

     total cpu time spent up to now is       15.8 secs

     End of self-consistent calculation

          k = 0.0000 0.0000 0.0000 (  1863 PWs)   bands (ev):

    -8.8806  -4.7754   0.6189   9.7534  10.2057  11.6139  11.8079  12.2052
    20.0520  20.0922  21.1900  22.8353

     occupation numbers 
     1.0000   1.0000   1.0000   1.0000   1.0000   1.0422   1.0820   0.4132
     0.0000   0.0000   0.0000   0.0000

          k = 0.0000 0.0000 0.1148 (  1853 PWs)   bands (ev):

    -8.6438  -5.5330   1.8074   9.8566  10.2118  10.4608  11.5719  11.9750
    20.3276  20.8685  21.4467  22.7192

     occupation numbers 
     1.0000   1.0000   1.0000   1.0000   1.0000   1.0000   1.0306   0.9407
     0.0000   0.0000   0.0000   0.0000

          k = 0.0000 0.0000 0.2296 (  1858 PWs)   bands (ev):

    -7.9462  -6.8436   4.3682   7.3780  10.3909  10.8218  11.0064  11.4235
    20.9298  21.5012  22.0855  22.5981

     occupation numbers 
     1.0000   1.0000   1.0000   1.0000   1.0000   1.0000   1.0000   1.0068
     0.0000   0.0000   0.0000   0.0000

          k = 0.0000 0.1097 0.0000 (  1854 PWs)   bands (ev):

    -8.6648  -4.6071   0.8350   8.6921   9.8494  10.9729  11.3760  11.9849
    20.1379  20.5587  21.6045  23.4582

     occupation numbers 
     1.0000   1.0000   1.0000   1.0000   1.0000   1.0000   1.0037   0.9238
     0.0000   0.0000   0.0000   0.0000

          k = 0.0000 0.1097 0.1148 (  1857 PWs)   bands (ev):

    -8.4294  -5.3495   1.9964   8.8669   9.9275  10.1207  10.8311  11.7334
    20.3195  21.3248  21.8869  23.2577

     occupation numbers 
     1.0000   1.0000   1.0000   1.0000   1.0000   1.0000   1.0000   1.0770
     0.0000   0.0000   0.0000   0.0000

          k = 0.0000 0.1097 0.2296 (  1854 PWs)   bands (ev):

    -7.7366  -6.6434   4.4987   7.4004   9.3923  10.1100  10.4957  11.1375
    21.1425  22.1578  22.4068  22.5345

     occupation numbers 
     1.0000   1.0000   1.0000   1.0000   1.0000   1.0000   1.0000   1.0001
     0.0000   0.0000   0.0000   0.0000

          k = 0.0000 0.2194 0.0000 (  1856 PWs)   bands (ev):

    -8.0276  -4.1358   1.4705   6.3708   8.9903   9.0891  10.7229  11.4450
    20.3425  20.8663  22.4931  24.1292

     occupation numbers 
     1.0000   1.0000   1.0000   1.0000   1.0000   1.0000   1.0000   1.0087
     0.0000   0.0000   0.0000   0.0000

          k = 0.0000 0.2194 0.1148 (  1852 PWs)   bands (ev):

    -7.7972  -4.8255   2.5247   6.5999   8.4299   9.2605  10.1344  11.1580
    19.9523  21.5518  22.8642  23.8195

     occupation numbers 
     1.0000   1.0000   1.0000   1.0000   1.0000   1.0000   1.0000   1.0001
     0.0000   0.0000   0.0000   0.0000

          k = 0.0000 0.2194 0.2296 (  1855 PWs)   bands (ev):

    -7.1210  -6.0609   4.7458   6.9184   7.3727   8.6005   9.7773  10.4872
    20.5387  21.5930  23.2889  23.6777

     occupation numbers 
     1.0000   1.0000   1.0000   1.0000   1.0000   1.0000   1.0000   1.0000
     0.0000   0.0000   0.0000   0.0000

          k = 0.0000 0.3291 0.0000 (  1854 PWs)   bands (ev):

    -7.0098  -3.5072   2.4732   3.9589   6.7521   8.2992   9.6380  10.8361
    20.1990  20.9581  23.1482  23.7269

     occupation numbers 
     1.0000   1.0000   1.0000   1.0000   1.0000   1.0000   1.0000   1.0000
     0.0000   0.0000   0.0000   0.0000

          k = 0.0000 0.3291 0.1148 (  1859 PWs)   bands (ev):

    -6.7911  -4.0771   2.9991   4.5583   6.1536   8.4906   9.5499  10.5239
    19.4908  21.0794  23.4416  23.9496

     occupation numbers 
     1.0000   1.0000   1.0000   1.0000   1.0000   1.0000   1.0000   1.0000
     0.0000   0.0000   0.0000   0.0000

          k = 0.0000 0.3291 0.2296 (  1849 PWs)   bands (ev):

    -6.1534  -5.1722   3.8964   4.9383   6.4151   8.4152   9.0484   9.8003
    19.5952  20.6649  23.2750  24.1384

     occupation numbers 
     1.0000   1.0000   1.0000   1.0000   1.0000   1.0000   1.0000   1.0000
     0.0000   0.0000   0.0000   0.0000

          k = 0.0000 0.4388 0.0000 (  1858 PWs)   bands (ev):

    -5.7410  -3.1603   2.2838   3.6911   4.8029   7.7454   8.2887  10.3889
    20.0188  20.5426  23.5610  23.9738

     occupation numbers 
     1.0000   1.0000   1.0000   1.0000   1.0000   1.0000   1.0000   1.0000
     0.0000   0.0000   0.0000   0.0000

          k = 0.0000 0.4388 0.1148 (  1855 PWs)   bands (ev):

    -5.5496  -3.4749   1.9347   3.9933   5.0020   7.9509   8.6780  10.0625
    19.1937  20.4757  23.6025  24.2558

     occupation numbers 
     1.0000   1.0000   1.0000   1.0000   1.0000   1.0000   1.0000   1.0000
     0.0000   0.0000   0.0000   0.0000

          k = 0.0000 0.4388 0.2296 (  1850 PWs)   bands (ev):

    -5.0052  -4.2229   2.0927   2.9052   6.9281   8.3973   8.6011   9.3125
    18.8330  19.8792  22.9110  23.5262

     occupation numbers 
     1.0000   1.0000   1.0000   1.0000   1.0000   1.0000   1.0000   1.0000
     0.0000   0.0000   0.0000   0.0000

          k = 0.0000-0.5485 0.0000 (  1854 PWs)   bands (ev):

    -4.8653  -3.3996   1.8944   3.7684   4.5562   7.3477   7.6474  10.2275
    19.9996  20.2442  23.6573  24.4679

     occupation numbers 
     1.0000   1.0000   1.0000   1.0000   1.0000   1.0000   1.0000   1.0000
     0.0000   0.0000   0.0000   0.0000

          k = 0.0000-0.5485 0.1148 (  1850 PWs)   bands (ev):

    -4.7140  -3.4897   1.4653   3.0404   5.5630   7.7341   8.0998   9.8966
    19.1104  20.2188  24.0504  24.2654

     occupation numbers 
     1.0000   1.0000   1.0000   1.0000   1.0000   1.0000   1.0000   1.0000
     0.0000   0.0000   0.0000   0.0000

          k = 0.0000-0.5485 0.2296 (  1854 PWs)   bands (ev):

    -4.3087  -3.8175   1.3022   1.9267   7.3039   8.2579   8.4972   9.1382
    18.5504  19.5518  22.8144  23.1338

     occupation numbers 
     1.0000   1.0000   1.0000   1.0000   1.0000   1.0000   1.0000   1.0000
     0.0000   0.0000   0.0000   0.0000

          k = 0.1000-0.0520 0.0000 (  1855 PWs)   bands (ev):

    -8.6510  -4.5929   0.8478   8.9990   9.5325  11.1943  11.4113  11.7420
    20.0862  20.4767  21.2232  23.5079

     occupation numbers 
     1.0000   1.0000   1.0000   1.0000   1.0000   1.0002   1.0058   1.0787
     0.0000   0.0000   0.0000   0.0000

          k = 0.1000-0.0520 0.1148 (  1852 PWs)   bands (ev):

    -8.4156  -5.3354   2.0097   9.1659   9.6502  10.1578  11.0221  11.4828
    20.3403  21.0251  21.5440  23.3891

     occupation numbers 
     1.0000   1.0000   1.0000   1.0000   1.0000   1.0000   1.0000   1.0132
     0.0000   0.0000   0.0000   0.0000

          k = 0.1000-0.0520 0.2296 (  1852 PWs)   bands (ev):

    -7.7227  -6.6295   4.5136   7.4198   9.6704  10.1889  10.3835  10.8712
    21.0492  21.6763  22.0403  22.9806

     occupation numbers 
     1.0000   1.0000   1.0000   1.0000   1.0000   1.0000   1.0000   1.0000
     0.0000   0.0000   0.0000   0.0000

          k = 0.1000 0.0577 0.0000 (  1853 PWs)   bands (ev):

    -8.6386  -4.5811   0.8594   9.1471   9.3925  11.3056  11.4315  11.5973
    19.9632  20.5135  21.1220  23.0984

     occupation numbers 
     1.0000   1.0000   1.0000   1.0000   1.0000   1.0014   1.0074   1.0374
     0.0000   0.0000   0.0000   0.0000

          k = 0.1000 0.0577 0.1148 (  1850 PWs)   bands (ev):

    -8.4032  -5.3235   2.0212   9.2823   9.5633  10.1617  11.1276  11.3388
    20.2311  21.0573  21.4310  23.0022

     occupation numbers 
     1.0000   1.0000   1.0000   1.0000   1.0000   1.0000   1.0001   1.0022
     0.0000   0.0000   0.0000   0.0000

          k = 0.1000 0.0577 0.2296 (  1849 PWs)   bands (ev):

    -7.7104  -6.6173   4.5249   7.4304   9.8392  10.0434  10.5021  10.7169
    20.8957  21.5339  22.1049  23.1562

     occupation numbers 
     1.0000   1.0000   1.0000   1.0000   1.0000   1.0000   1.0000   1.0000
     0.0000   0.0000   0.0000   0.0000

          k = 0.1000 0.1674 0.0000 (  1844 PWs)   bands (ev):

    -8.1995  -4.2480   1.2971   7.4327   8.6656  10.0097  11.0131  11.2035
    20.2557  21.0697  21.4900  23.7461

     occupation numbers 
     1.0000   1.0000   1.0000   1.0000   1.0000   1.0000   1.0000   1.0003
     0.0000   0.0000   0.0000   0.0000

          k = 0.1000 0.1674 0.1148 (  1851 PWs)   bands (ev):

    -7.9673  -4.9567   2.3950   7.6288   8.7424   9.4681  10.3883  10.9234
    20.1983  21.5748  21.9136  23.3936

     occupation numbers 
     1.0000   1.0000   1.0000   1.0000   1.0000   1.0000   1.0000   1.0000
     0.0000   0.0000   0.0000   0.0000

          k = 0.1000 0.1674 0.2296 (  1855 PWs)   bands (ev):

    -7.2852  -6.2133   4.7473   7.3162   8.2236   8.9926   9.7013  10.2657
    20.8927  21.8424  22.6098  22.8227

     occupation numbers 
     1.0000   1.0000   1.0000   1.0000   1.0000   1.0000   1.0000   1.0000
     0.0000   0.0000   0.0000   0.0000

          k = 0.1000 0.2771 0.0000 (  1838 PWs)   bands (ev):

    -7.3577  -3.6753   2.1322   5.1108   7.3119   8.4231  10.1769  10.5394
    20.7354  21.0327  22.3011  24.1739

     occupation numbers 
     1.0000   1.0000   1.0000   1.0000   1.0000   1.0000   1.0000   1.0000
     0.0000   0.0000   0.0000   0.0000

          k = 0.1000 0.2771 0.1148 (  1856 PWs)   bands (ev):

    -7.1337  -4.3005   3.0043   5.4274   7.0230   8.2944   9.8813  10.2514
    20.0727  21.6055  22.6168  24.0178

     occupation numbers 
     1.0000   1.0000   1.0000   1.0000   1.0000   1.0000   1.0000   1.0000
     0.0000   0.0000   0.0000   0.0000

          k = 0.1000 0.2771 0.2296 (  1855 PWs)   bands (ev):

    -6.4785  -5.4610   4.6307   5.9454   6.6118   8.2181   8.9752   9.5341
    20.4003  21.4904  23.1679  23.5800

     occupation numbers 
     1.0000   1.0000   1.0000   1.0000   1.0000   1.0000   1.0000   1.0000
     0.0000   0.0000   0.0000   0.0000

          k = 0.1000 0.3868 0.0000 (  1860 PWs)   bands (ev):

    -6.1880  -3.1334   3.0391   3.2991   5.5692   7.3526   8.9381   9.9335
    20.0173  21.3925  23.0648  24.2141

     occupation numbers 
     1.0000   1.0000   1.0000   1.0000   1.0000   1.0000   1.0000   1.0000
     0.0000   0.0000   0.0000   0.0000

          k = 0.1000 0.3868 0.1148 (  1857 PWs)   bands (ev):

    -5.9827  -3.5749   2.6613   4.5309   5.1137   7.4545   9.1179   9.6280
    19.5834  21.3712  23.0199  24.4818

     occupation numbers 
     1.0000   1.0000   1.0000   1.0000   1.0000   1.0000   1.0000   1.0000
     0.0000   0.0000   0.0000   0.0000

          k = 0.1000 0.3868 0.2296 (  1853 PWs)   bands (ev):

    -5.3905  -4.5041   3.0110   3.8811   6.6531   7.8603   8.5508   9.0080
    19.5600  20.7198  23.4160  24.1356

     occupation numbers 
     1.0000   1.0000   1.0000   1.0000   1.0000   1.0000   1.0000   1.0000
     0.0000   0.0000   0.0000   0.0000

          k = 0.1000-0.6004 0.0000 (  1862 PWs)   bands (ev):

    -4.9702  -3.1793   2.0883   4.0831   4.5280   6.8287   7.6790   9.5718
    19.4671  21.3895  23.4993  24.8318

     occupation numbers 
     1.0000   1.0000   1.0000   1.0000   1.0000   1.0000   1.0000   1.0000
     0.0000   0.0000   0.0000   0.0000

          k = 0.1000-0.6004 0.1148 (  1858 PWs)   bands (ev):

    -4.8069  -3.3288   1.7085   3.4151   5.4651   7.0578   8.2221   9.2433
    19.1808  21.2742  23.2090  24.6119

     occupation numbers 
     1.0000   1.0000   1.0000   1.0000   1.0000   1.0000   1.0000   1.0000
     0.0000   0.0000   0.0000   0.0000

          k = 0.1000-0.6004 0.2296 (  1857 PWs)   bands (ev):

    -4.3595  -3.7790   1.6459   2.3192   6.9740   7.7462   8.1977   8.8215
    19.0149  20.2268  23.3221  23.6574

     occupation numbers 
     1.0000   1.0000   1.0000   1.0000   1.0000   1.0000   1.0000   1.0000
     0.0000   0.0000   0.0000   0.0000

          k = 0.1000-0.4907 0.0000 (  1863 PWs)   bands (ev):

    -5.0284  -3.1621   2.1074   4.1201   4.5219   6.8122   7.6806   9.5342
    19.4363  21.4426  23.4508  24.9549

     occupation numbers 
     1.0000   1.0000   1.0000   1.0000   1.0000   1.0000   1.0000   1.0000
     0.0000   0.0000   0.0000   0.0000

          k = 0.1000-0.4907 0.1148 (  1849 PWs)   bands (ev):

    -4.8623  -3.3259   1.7361   3.4861   5.4246   7.0518   8.1972   9.2164
    19.1820  21.3196  23.1418  24.6889

     occupation numbers 
     1.0000   1.0000   1.0000   1.0000   1.0000   1.0000   1.0000   1.0000
     0.0000   0.0000   0.0000   0.0000

          k = 0.1000-0.4907 0.2296 (  1855 PWs)   bands (ev):

    -4.4052  -3.8045   1.6973   2.3862   6.9291   7.8610   8.0125   8.8195
    19.0448  20.2639  23.3423  23.6748

     occupation numbers 
     1.0000   1.0000   1.0000   1.0000   1.0000   1.0000   1.0000   1.0000
     0.0000   0.0000   0.0000   0.0000

          k = 0.1000-0.3811 0.0000 (  1842 PWs)   bands (ev):

    -6.2626  -3.1647   3.1199   3.2621   5.6945   7.2733   8.9342   9.8288
    19.9691  21.5089  22.9427  24.7166

     occupation numbers 
     1.0000   1.0000   1.0000   1.0000   1.0000   1.0000   1.0000   1.0000
     0.0000   0.0000   0.0000   0.0000

          k = 0.1000-0.3811 0.1148 (  1854 PWs)   bands (ev):

    -6.0561  -3.6187   2.7467   4.5247   5.2273   7.3743   9.0402   9.5645
    19.6250  21.4355  22.9445  24.8752

     occupation numbers 
     1.0000   1.0000   1.0000   1.0000   1.0000   1.0000   1.0000   1.0000
     0.0000   0.0000   0.0000   0.0000

          k = 0.1000-0.3811 0.2296 (  1854 PWs)   bands (ev):

    -5.4597  -4.5643   3.1285   4.0097   6.6178   7.8856   8.3172   8.9531
    19.6468  20.8018  23.5014  24.2336

     occupation numbers 
     1.0000   1.0000   1.0000   1.0000   1.0000   1.0000   1.0000   1.0000
     0.0000   0.0000   0.0000   0.0000

          k = 0.1000-0.2714 0.0000 (  1848 PWs)   bands (ev):

    -7.4166  -3.7219   2.0784   5.2747   7.2587   8.4728  10.1425  10.4028
    20.8192  21.1252  22.3540  24.7838

     occupation numbers 
     1.0000   1.0000   1.0000   1.0000   1.0000   1.0000   1.0000   1.0000
     0.0000   0.0000   0.0000   0.0000

          k = 0.1000-0.2714 0.1148 (  1852 PWs)   bands (ev):

    -7.1922  -4.3508   2.9692   5.5761   7.0774   8.2377   9.7952  10.1454
    20.1879  21.6599  22.7614  24.6632

     occupation numbers 
     1.0000   1.0000   1.0000   1.0000   1.0000   1.0000   1.0000   1.0000
     0.0000   0.0000   0.0000   0.0000

          k = 0.1000-0.2714 0.2296 (  1860 PWs)   bands (ev):

    -6.5358  -5.5158   4.6687   6.0436   6.7034   8.2526   8.7637   9.3787
    20.5144  21.5750  23.4606  24.2249

     occupation numbers 
     1.0000   1.0000   1.0000   1.0000   1.0000   1.0000   1.0000   1.0000
     0.0000   0.0000   0.0000   0.0000

          k = 0.1000-0.1617 0.0000 (  1864 PWs)   bands (ev):

    -8.2361  -4.2816   1.2630   7.5412   8.5209  10.1269  10.9665  11.1454
    20.4505  21.1208  21.7357  24.2699

     occupation numbers 
     1.0000   1.0000   1.0000   1.0000   1.0000   1.0000   1.0000   1.0001
     0.0000   0.0000   0.0000   0.0000

          k = 0.1000-0.1617 0.1148 (  1857 PWs)   bands (ev):

    -8.0038  -4.9911   2.3627   7.7366   8.6174   9.5231  10.3913  10.8498
    20.3327  21.8232  22.0675  23.9840

     occupation numbers 
     1.0000   1.0000   1.0000   1.0000   1.0000   1.0000   1.0000   1.0000
     0.0000   0.0000   0.0000   0.0000

          k = 0.1000-0.1617 0.2296 (  1859 PWs)   bands (ev):

    -7.3213  -6.2488   4.7197   7.3040   8.3118   9.0172   9.6464  10.1704
    21.0316  22.0554  22.8183  23.5109

     occupation numbers 
     1.0000   1.0000   1.0000   1.0000   1.0000   1.0000   1.0000   1.0000
     0.0000   0.0000   0.0000   0.0000

          k = 0.2000-0.1039 0.0000 (  1850 PWs)   bands (ev):

    -7.9719  -4.0779   1.5214   6.7453   8.6138   9.2541  10.8101  11.0952
    19.9090  21.0409  21.7497  23.8109

     occupation numbers 
     1.0000   1.0000   1.0000   1.0000   1.0000   1.0000   1.0000   1.0000
     0.0000   0.0000   0.0000   0.0000

          k = 0.2000-0.1039 0.1148 (  1853 PWs)   bands (ev):

    -7.7415  -4.7686   2.5806   6.9585   8.6235   8.8810  10.2064  10.7941
    19.7795  21.3484  22.0768  23.6317

     occupation numbers 
     1.0000   1.0000   1.0000   1.0000   1.0000   1.0000   1.0000   1.0000
     0.0000   0.0000   0.0000   0.0000

          k = 0.2000-0.1039 0.2296 (  1850 PWs)   bands (ev):

    -7.0652  -6.0048   4.8263   7.0911   7.6887   8.7615   9.3713  10.0946
    20.3005  21.1841  22.7990  23.5072

     occupation numbers 
     1.0000   1.0000   1.0000   1.0000   1.0000   1.0000   1.0000   1.0000
     0.0000   0.0000   0.0000   0.0000

          k = 0.2000 0.0058 0.0000 (  1851 PWs)   bands (ev):

    -8.1583  -4.2070   1.3348   7.6154   8.5546  10.0294  11.0832  11.0952
    20.0843  20.7343  21.2153  23.7797

     occupation numbers 
     1.0000   1.0000   1.0000   1.0000   1.0000   1.0000   1.0000   1.0000
     0.0000   0.0000   0.0000   0.0000

          k = 0.2000 0.0058 0.1148 (  1850 PWs)   bands (ev):

    -7.9262  -4.9158   2.4333   7.8077   8.6663   9.4745  10.4547  10.7990
    20.1510  20.9691  21.6483  23.4315

     occupation numbers 
     1.0000   1.0000   1.0000   1.0000   1.0000   1.0000   1.0000   1.0000
     0.0000   0.0000   0.0000   0.0000

          k = 0.2000 0.0058 0.2296 (  1843 PWs)   bands (ev):

    -7.2441  -6.1723   4.7889   7.3782   8.3590   9.0366   9.6389  10.1403
    20.9141  21.5093  21.8687  22.3447

     occupation numbers 
     1.0000   1.0000   1.0000   1.0000   1.0000   1.0000   1.0000   1.0000
     0.0000   0.0000   0.0000   0.0000

          k = 0.2000 0.1155 0.0000 (  1852 PWs)   bands (ev):

    -7.9224  -4.0301   1.5673   7.0256   8.2928   9.4039  10.8147  10.8656
    19.4160  21.1558  21.7818  23.0464

     occupation numbers 
     1.0000   1.0000   1.0000   1.0000   1.0000   1.0000   1.0000   1.0000
     0.0000   0.0000   0.0000   0.0000

          k = 0.2000 0.1155 0.1148 (  1853 PWs)   bands (ev):

    -7.6921  -4.7205   2.6277   7.2221   8.4762   8.8846  10.2469  10.5133
    19.4071  21.2457  22.1404  22.9946

     occupation numbers 
     1.0000   1.0000   1.0000   1.0000   1.0000   1.0000   1.0000   1.0000
     0.0000   0.0000   0.0000   0.0000

          k = 0.2000 0.1155 0.2296 (  1849 PWs)   bands (ev):

    -7.0160  -5.9561   4.8826   7.1817   7.9612   8.9139   9.0387   9.7879
    19.9055  20.7863  22.9896  23.5624

     occupation numbers 
     1.0000   1.0000   1.0000   1.0000   1.0000   1.0000   1.0000   1.0000
     0.0000   0.0000   0.0000   0.0000

          k = 0.2000 0.2252 0.0000 (  1843 PWs)   bands (ev):

    -7.2769  -3.5894   2.2047   5.7459   6.7967   8.5375   9.9421  10.2603
    19.9330  21.3599  21.8440  23.5832

     occupation numbers 
     1.0000   1.0000   1.0000   1.0000   1.0000   1.0000   1.0000   1.0000
     0.0000   0.0000   0.0000   0.0000

          k = 0.2000 0.2252 0.1148 (  1850 PWs)   bands (ev):

    -7.0530  -4.2169   3.1044   6.0138   6.8652   8.0932   9.5833   9.9911
    19.8017  21.2583  22.1717  23.5257

     occupation numbers 
     1.0000   1.0000   1.0000   1.0000   1.0000   1.0000   1.0000   1.0000
     0.0000   0.0000   0.0000   0.0000

          k = 0.2000 0.2252 0.2296 (  1852 PWs)   bands (ev):

    -6.3976  -5.3795   4.8639   6.2655   6.9975   7.8868   8.7665   8.8898
    20.0886  20.8986  22.9149  23.7444

     occupation numbers 
     1.0000   1.0000   1.0000   1.0000   1.0000   1.0000   1.0000   1.0000
     0.0000   0.0000   0.0000   0.0000

          k = 0.2000 0.3349 0.0000 (  1851 PWs)   bands (ev):

    -6.2700  -3.0486   3.1972   4.2145   5.2062   7.3028   8.8495   9.3059
    19.6989  21.8346  22.7650  24.9242

     occupation numbers 
     1.0000   1.0000   1.0000   1.0000   1.0000   1.0000   1.0000   1.0000
     0.0000   0.0000   0.0000   0.0000

          k = 0.2000 0.3349 0.1148 (  1854 PWs)   bands (ev):

    -6.0604  -3.5404   3.3887   4.8841   5.3383   6.8415   8.4610   9.4634
    20.2194  20.9742  22.9618  24.7900

     occupation numbers 
     1.0000   1.0000   1.0000   1.0000   1.0000   1.0000   1.0000   1.0000
     0.0000   0.0000   0.0000   0.0000

          k = 0.2000 0.3349 0.2296 (  1847 PWs)   bands (ev):

    -5.4530  -4.5329   3.9511   4.7185   6.5490   6.8245   7.8199   8.8490
    20.4514  21.0056  23.3814  23.9706

     occupation numbers 
     1.0000   1.0000   1.0000   1.0000   1.0000   1.0000   1.0000   1.0000
     0.0000   0.0000   0.0000   0.0000

          k = 0.2000-0.6524 0.0000 (  1861 PWs)   bands (ev):

    -5.0484  -2.8209   2.7855   4.3928   4.4525   5.9187   7.9829   8.2530
    18.5171  23.2881  23.9258  25.5283

     occupation numbers 
     1.0000   1.0000   1.0000   1.0000   1.0000   1.0000   1.0000   1.0000
     0.0000   0.0000   0.0000   0.0000

          k = 0.2000-0.6524 0.1148 (  1857 PWs)   bands (ev):

    -4.8717  -3.0676   2.4953   3.9865   5.2598   5.9804   7.6701   8.6866
    19.1369  21.9865  23.8865  24.9390

     occupation numbers 
     1.0000   1.0000   1.0000   1.0000   1.0000   1.0000   1.0000   1.0000
     0.0000   0.0000   0.0000   0.0000

          k = 0.2000-0.6524 0.2296 (  1857 PWs)   bands (ev):

    -4.3761  -3.6879   2.5575   3.2063   5.7309   6.5158   7.7629   8.8315
    19.9809  21.0129  23.3041  24.2250

     occupation numbers 
     1.0000   1.0000   1.0000   1.0000   1.0000   1.0000   1.0000   1.0000
     0.0000   0.0000   0.0000   0.0000

          k = 0.2000-0.5427 0.0000 (  1866 PWs)   bands (ev):

    -4.2966  -3.0470   2.3180   4.3430   5.1297   5.2324   7.2383   7.9447
    18.0503  23.9933  24.1634  26.1536

     occupation numbers 
     1.0000   1.0000   1.0000   1.0000   1.0000   1.0000   1.0000   1.0000
     0.0000   0.0000   0.0000   0.0000

          k = 0.2000-0.5427 0.1148 (  1856 PWs)   bands (ev):

    -4.1614  -3.1216   2.0681   3.6172   4.8892   6.4452   7.1928   8.2259
    18.7072  22.8174  23.3056  25.0619

     occupation numbers 
     1.0000   1.0000   1.0000   1.0000   1.0000   1.0000   1.0000   1.0000
     0.0000   0.0000   0.0000   0.0000

          k = 0.2000-0.5427 0.2296 (  1853 PWs)   bands (ev):

    -3.8060  -3.3907   1.9809   2.5589   5.3877   6.2864   7.9840   8.7359
    19.7183  21.1339  22.8084  24.3236

     occupation numbers 
     1.0000   1.0000   1.0000   1.0000   1.0000   1.0000   1.0000   1.0000
     0.0000   0.0000   0.0000   0.0000

          k = 0.2000-0.4330 0.0000 (  1848 PWs)   bands (ev):

    -5.1976  -2.8332   2.9120   4.2589   4.5296   5.9719   7.9331   8.2488
    18.4744  23.2781  24.1206  26.1242

     occupation numbers 
     1.0000   1.0000   1.0000   1.0000   1.0000   1.0000   1.0000   1.0000
     0.0000   0.0000   0.0000   0.0000

          k = 0.2000-0.4330 0.1148 (  1851 PWs)   bands (ev):

    -5.0163  -3.1107   2.6320   4.0863   5.2405   5.9411   7.5124   8.7414
    19.1408  21.9341  24.0613  25.1583

     occupation numbers 
     1.0000   1.0000   1.0000   1.0000   1.0000   1.0000   1.0000   1.0000
     0.0000   0.0000   0.0000   0.0000

          k = 0.2000-0.4330 0.2296 (  1850 PWs)   bands (ev):

    -4.5049  -3.7830   2.7367   3.4001   5.6292   6.4552   7.6366   8.8152
    20.0803  21.0555  23.2918  24.3719

     occupation numbers 
     1.0000   1.0000   1.0000   1.0000   1.0000   1.0000   1.0000   1.0000
     0.0000   0.0000   0.0000   0.0000

          k = 0.2000-0.3233 0.0000 (  1845 PWs)   bands (ev):

    -6.4068  -3.1376   3.0767   4.4784   5.1031   7.4627   8.7119   9.3081
    19.6654  22.1699  23.0085  25.8106

     occupation numbers 
     1.0000   1.0000   1.0000   1.0000   1.0000   1.0000   1.0000   1.0000
     0.0000   0.0000   0.0000   0.0000

          k = 0.2000-0.3233 0.1148 (  1856 PWs)   bands (ev):

    -6.1957  -3.6429   3.4128   5.0179   5.3089   6.9147   8.3106   9.4651
    20.2833  21.0519  23.4994  25.4036

     occupation numbers 
     1.0000   1.0000   1.0000   1.0000   1.0000   1.0000   1.0000   1.0000
     0.0000   0.0000   0.0000   0.0000

          k = 0.2000-0.3233 0.2296 (  1864 PWs)   bands (ev):

    -5.5834  -4.6531   4.0940   4.8672   6.5750   6.7744   7.6280   8.7948
    20.6263  21.1623  23.8878  24.1206

     occupation numbers 
     1.0000   1.0000   1.0000   1.0000   1.0000   1.0000   1.0000   1.0000
     0.0000   0.0000   0.0000   0.0000

          k = 0.2000-0.2136 0.0000 (  1859 PWs)   bands (ev):

    -7.3737  -3.6750   2.1166   5.6583   6.9278   8.5722  10.0495  10.2062
    20.5524  21.2452  21.9235  24.4678

     occupation numbers 
     1.0000   1.0000   1.0000   1.0000   1.0000   1.0000   1.0000   1.0000
     0.0000   0.0000   0.0000   0.0000

          k = 0.2000-0.2136 0.1148 (  1854 PWs)   bands (ev):

    -7.1493  -4.3056   3.0231   5.9326   6.9627   8.1393   9.6397   9.9897
    20.2030  21.4235  22.3316  24.3433

     occupation numbers 
     1.0000   1.0000   1.0000   1.0000   1.0000   1.0000   1.0000   1.0000
     0.0000   0.0000   0.0000   0.0000

          k = 0.2000-0.2136 0.2296 (  1855 PWs)   bands (ev):

    -6.4927  -5.4721   4.7990   6.2362   6.9404   8.0380   8.6537   9.0189
    20.4618  21.3181  23.1757  24.1755

     occupation numbers 
     1.0000   1.0000   1.0000   1.0000   1.0000   1.0000   1.0000   1.0000
     0.0000   0.0000   0.0000   0.0000

          k = 0.3000-0.1559 0.0000 (  1851 PWs)   bands (ev):

    -6.8822  -3.3749   2.5826   4.2776   6.9482   7.7588   9.7730  10.4046
    19.5346  21.0491  22.4727  23.5775

     occupation numbers 
     1.0000   1.0000   1.0000   1.0000   1.0000   1.0000   1.0000   1.0000
     0.0000   0.0000   0.0000   0.0000

          k = 0.3000-0.1559 0.1148 (  1855 PWs)   bands (ev):

    -6.6635  -3.9473   3.1733   4.7971   6.3883   7.9579   9.6370  10.0869
    19.2447  20.7048  22.7703  23.5967

     occupation numbers 
     1.0000   1.0000   1.0000   1.0000   1.0000   1.0000   1.0000   1.0000
     0.0000   0.0000   0.0000   0.0000

          k = 0.3000-0.1559 0.2296 (  1846 PWs)   bands (ev):

    -6.0259  -5.0443   4.1530   5.1829   6.5603   8.3598   8.6734   9.3345
    19.3737  20.2264  22.8724  23.9164

     occupation numbers 
     1.0000   1.0000   1.0000   1.0000   1.0000   1.0000   1.0000   1.0000
     0.0000   0.0000   0.0000   0.0000

          k = 0.3000-0.0462 0.0000 (  1855 PWs)   bands (ev):

    -7.2477  -3.5690   2.2300   5.3257   7.1828   8.3352  10.2747  10.3479
    20.1666  21.1065  21.9351  23.5270

     occupation numbers 
     1.0000   1.0000   1.0000   1.0000   1.0000   1.0000   1.0000   1.0000
     0.0000   0.0000   0.0000   0.0000

          k = 0.3000-0.0462 0.1148 (  1848 PWs)   bands (ev):

    -7.0239  -4.1936   3.1077   5.6239   7.0361   8.1006   9.9249  10.0871
    19.8829  21.2860  22.1200  23.3089

     occupation numbers 
     1.0000   1.0000   1.0000   1.0000   1.0000   1.0000   1.0000   1.0000
     0.0000   0.0000   0.0000   0.0000

          k = 0.3000-0.0462 0.2296 (  1845 PWs)   bands (ev):

    -6.3694  -5.3529   4.7651   6.0859   6.7251   8.0748   8.9507   9.3192
    20.2116  21.1484  22.5433  22.8487

     occupation numbers 
     1.0000   1.0000   1.0000   1.0000   1.0000   1.0000   1.0000   1.0000
     0.0000   0.0000   0.0000   0.0000

          k = 0.3000 0.0635 0.0000 (  1847 PWs)   bands (ev):

    -7.2098  -3.5300   2.2644   5.6062   6.9363   8.3970  10.0607  10.3238
    19.6836  21.3082  21.9123  23.1449

     occupation numbers 
     1.0000   1.0000   1.0000   1.0000   1.0000   1.0000   1.0000   1.0000
     0.0000   0.0000   0.0000   0.0000

          k = 0.3000 0.0635 0.1148 (  1850 PWs)   bands (ev):

    -6.9860  -4.1552   3.1535   5.8825   6.9505   8.0247   9.7169  10.0349
    19.5902  21.1910  22.1667  22.9770

     occupation numbers 
     1.0000   1.0000   1.0000   1.0000   1.0000   1.0000   1.0000   1.0000
     0.0000   0.0000   0.0000   0.0000

          k = 0.3000 0.0635 0.2296 (  1833 PWs)   bands (ev):

    -6.3315  -5.3150   4.8685   6.2251   6.8925   7.9198   8.8655   9.0279
    19.9301  20.7899  22.6119  23.0422

     occupation numbers 
     1.0000   1.0000   1.0000   1.0000   1.0000   1.0000   1.0000   1.0000
     0.0000   0.0000   0.0000   0.0000

          k = 0.3000 0.1732 0.0000 (  1843 PWs)   bands (ev):

    -6.7700  -3.2664   2.6812   4.5621   7.1068   7.3034   9.8388  10.0216
    18.8066  21.0873  22.3867  23.0752

     occupation numbers 
     1.0000   1.0000   1.0000   1.0000   1.0000   1.0000   1.0000   1.0000
     0.0000   0.0000   0.0000   0.0000

          k = 0.3000 0.1732 0.1148 (  1841 PWs)   bands (ev):

    -6.5516  -3.8385   3.3125   5.0205   6.5890   7.5059   9.6380   9.7291
    18.7146  20.4814  22.6340  23.1553

     occupation numbers 
     1.0000   1.0000   1.0000   1.0000   1.0000   1.0000   1.0000   1.0000
     0.0000   0.0000   0.0000   0.0000

          k = 0.3000 0.1732 0.2296 (  1841 PWs)   bands (ev):

    -5.9148  -4.9345   4.3607   5.3733   6.7254   8.0689   8.5858   8.9014
    18.9264  19.7375  22.7639  24.0658

     occupation numbers 
     1.0000   1.0000   1.0000   1.0000   1.0000   1.0000   1.0000   1.0000
     0.0000   0.0000   0.0000   0.0000

          k = 0.3000 0.2829 0.0000 (  1841 PWs)   bands (ev):

    -5.9624  -2.8921   3.3734   3.7684   5.5329   6.7697   9.0530   9.1211
    19.3633  20.4393  22.4866  23.7749

     occupation numbers 
     1.0000   1.0000   1.0000   1.0000   1.0000   1.0000   1.0000   1.0000
     0.0000   0.0000   0.0000   0.0000

          k = 0.3000 0.2829 0.1148 (  1846 PWs)   bands (ev):

    -5.7573  -3.3414   3.1554   4.7418   5.4587   6.6436   8.6331   9.3200
    19.3009  20.4245  22.1722  23.6383

     occupation numbers 
     1.0000   1.0000   1.0000   1.0000   1.0000   1.0000   1.0000   1.0000
     0.0000   0.0000   0.0000   0.0000

          k = 0.3000 0.2829 0.2296 (  1843 PWs)   bands (ev):

    -5.1653  -4.2776   3.5285   4.3226   6.6612   7.2312   7.8207   8.8106
    19.3266  19.9859  22.6374  23.8135

     occupation numbers 
     1.0000   1.0000   1.0000   1.0000   1.0000   1.0000   1.0000   1.0000
     0.0000   0.0000   0.0000   0.0000

          k = 0.3000-0.7044 0.0000 (  1854 PWs)   bands (ev):

    -4.8852  -2.6642   3.2740   3.9273   4.5996   5.9357   7.5985   8.1571
    18.3503  22.0091  23.6504  25.0610

     occupation numbers 
     1.0000   1.0000   1.0000   1.0000   1.0000   1.0000   1.0000   1.0000
     0.0000   0.0000   0.0000   0.0000

          k = 0.3000-0.7044 0.1148 (  1851 PWs)   bands (ev):

    -4.7096  -2.9134   2.9681   3.7330   5.3077   5.8909   7.1746   8.6926
    19.1162  21.5154  22.7313  24.7467

     occupation numbers 
     1.0000   1.0000   1.0000   1.0000   1.0000   1.0000   1.0000   1.0000
     0.0000   0.0000   0.0000   0.0000

          k = 0.3000-0.7044 0.2296 (  1844 PWs)   bands (ev):

    -4.2172  -3.5331   2.9405   3.4161   5.2686   6.0180   7.7765   8.8572
    20.2187  20.6655  22.8378  23.5479

     occupation numbers 
     1.0000   1.0000   1.0000   1.0000   1.0000   1.0000   1.0000   1.0000
     0.0000   0.0000   0.0000   0.0000

          k = 0.3000-0.5947 0.0000 (  1859 PWs)   bands (ev):

    -3.8307  -2.8652   2.5570   4.0677   5.0377   5.6790   6.4785   7.1474
    17.3156  24.5736  25.0145  25.9541

     occupation numbers 
     1.0000   1.0000   1.0000   1.0000   1.0000   1.0000   1.0000   1.0000
     0.0000   0.0000   0.0000   0.0000

          k = 0.3000-0.5947 0.1148 (  1854 PWs)   bands (ev):

    -3.7150  -2.9147   2.7129   3.4354   4.3529   5.8484   6.8608   7.9455
    18.2927  22.8680  23.9747  24.9076

     occupation numbers 
[...]

          k =-0.3000 0.4850 0.1148 (  1851 PWs)   bands (ev):

    -3.8863  -2.8928   2.7995   3.3681   4.4993   5.8548   6.6864   8.0538
    18.3081  22.7774  24.1407  25.5891

     occupation numbers 
     1.0000   1.0000   1.0000   1.0000   1.0000   1.0000   1.0000   1.0000
     0.0000   0.0000   0.0000   0.0000

          k =-0.3000 0.4850 0.2296 (  1857 PWs)   bands (ev):

    -3.5507  -3.1585   2.9022   3.0857   4.0155   4.8285   8.1582   8.7428
    20.5095  21.2404  22.2196  23.8410

     occupation numbers 
     1.0000   1.0000   1.0000   1.0000   1.0000   1.0000   1.0000   1.0000
     0.0000   0.0000   0.0000   0.0000

          k =-0.3000 0.3753 0.1148 (  1852 PWs)   bands (ev):

    -4.9309  -3.0270   2.8833   3.9457   5.3044   5.8807   7.2304   8.7537
    19.1440  21.7771  23.4603  25.0477

     occupation numbers 
     1.0000   1.0000   1.0000   1.0000   1.0000   1.0000   1.0000   1.0000
     0.0000   0.0000   0.0000   0.0000

          k =-0.3000 0.3753 0.2296 (  1864 PWs)   bands (ev):

    -4.4206  -3.7000   2.9517   3.5257   5.3753   6.1687   7.6520   8.8356
    20.2585  20.9021  23.1235  23.9465

     occupation numbers 
     1.0000   1.0000   1.0000   1.0000   1.0000   1.0000   1.0000   1.0000
     0.0000   0.0000   0.0000   0.0000

          k =-0.3000 0.2656 0.1148 (  1862 PWs)   bands (ev):

    -5.9360  -3.4923   3.0077   4.6453   5.4268   6.9145   8.8367   9.3714
    19.6591  20.8823  22.4169  24.3427

     occupation numbers 
     1.0000   1.0000   1.0000   1.0000   1.0000   1.0000   1.0000   1.0000
     0.0000   0.0000   0.0000   0.0000

          k =-0.3000 0.2656 0.2296 (  1851 PWs)   bands (ev):

    -5.3394  -4.4426   3.4077   4.2542   6.6390   7.5159   7.9719   8.8277
    19.6561  20.4928  22.9822  24.0301

     occupation numbers 
     1.0000   1.0000   1.0000   1.0000   1.0000   1.0000   1.0000   1.0000
     0.0000   0.0000   0.0000   0.0000

          k =-0.4000 0.2078 0.1148 (  1857 PWs)   bands (ev):

    -5.3124  -3.2640   2.1518   4.0946   5.2305   7.3621   8.7708   9.5676
    19.0102  19.8116  23.1475  23.7196

     occupation numbers 
     1.0000   1.0000   1.0000   1.0000   1.0000   1.0000   1.0000   1.0000
     0.0000   0.0000   0.0000   0.0000

          k =-0.4000 0.2078 0.2296 (  1846 PWs)   bands (ev):

    -4.7729  -3.9999   2.2921   3.0686   7.0708   7.9112   8.5940   8.8298
    18.7175  19.4105  22.4532  23.1995

     occupation numbers 
     1.0000   1.0000   1.0000   1.0000   1.0000   1.0000   1.0000   1.0000
     0.0000   0.0000   0.0000   0.0000

          k =-0.4000 0.0981 0.1148 (  1852 PWs)   bands (ev):

    -5.7757  -3.3912   2.8318   4.6456   5.2026   7.0820   9.1416   9.3700
    19.5077  20.7410  22.5992  23.6764

     occupation numbers 
     1.0000   1.0000   1.0000   1.0000   1.0000   1.0000   1.0000   1.0000
     0.0000   0.0000   0.0000   0.0000

          k =-0.4000 0.0981 0.2296 (  1839 PWs)   bands (ev):

    -5.1875  -4.3088   3.1587   3.9846   6.7401   7.5050   8.4468   8.8961
    19.4498  20.3091  22.8178  23.5731

     occupation numbers 
     1.0000   1.0000   1.0000   1.0000   1.0000   1.0000   1.0000   1.0000
     0.0000   0.0000   0.0000   0.0000

          k =-0.4000-0.0115 0.1148 (  1845 PWs)   bands (ev):

    -5.9029  -3.4118   3.4181   4.9703   5.1726   6.7762   8.5197   9.4942
    20.3013  20.7592  22.6454  23.8235

     occupation numbers 
     1.0000   1.0000   1.0000   1.0000   1.0000   1.0000   1.0000   1.0000
     0.0000   0.0000   0.0000   0.0000

          k =-0.4000-0.0115 0.2296 (  1828 PWs)   bands (ev):

    -5.2999  -4.3888   3.9028   4.6321   6.5989   6.7172   7.9409   8.9173
    20.3817  20.8863  22.9210  23.3780

     occupation numbers 
     1.0000   1.0000   1.0000   1.0000   1.0000   1.0000   1.0000   1.0000
     0.0000   0.0000   0.0000   0.0000

          k =-0.4000-0.1212 0.1148 (  1837 PWs)   bands (ev):

    -5.6705  -3.2839   3.0663   4.7370   5.3577   6.7152   8.8062   9.3126
    19.1648  20.3763  22.2824  23.3619

     occupation numbers 
     1.0000   1.0000   1.0000   1.0000   1.0000   1.0000   1.0000   1.0000
     0.0000   0.0000   0.0000   0.0000

          k =-0.4000-0.1212 0.2296 (  1835 PWs)   bands (ev):

    -5.0826  -4.2039   3.3986   4.1849   6.7473   7.1963   8.0660   8.8436
    19.1982  19.8787  22.5606  23.5183

     occupation numbers 
     1.0000   1.0000   1.0000   1.0000   1.0000   1.0000   1.0000   1.0000
     0.0000   0.0000   0.0000   0.0000

          k =-0.4000-0.2309 0.1148 (  1843 PWs)   bands (ev):

    -5.1072  -3.0867   2.3650   4.1859   5.4584   6.8413   8.7941   9.0900
    18.3836  19.4775  22.8875  23.2760

     occupation numbers 
     1.0000   1.0000   1.0000   1.0000   1.0000   1.0000   1.0000   1.0000
     0.0000   0.0000   0.0000   0.0000

          k =-0.4000-0.2309 0.2296 (  1834 PWs)   bands (ev):

    -4.5730  -3.8099   2.4856   3.2244   7.2235   7.4384   8.2684   8.6589
    18.3527  18.8711  22.2121  23.1119

     occupation numbers 
     1.0000   1.0000   1.0000   1.0000   1.0000   1.0000   1.0000   1.0000
     0.0000   0.0000   0.0000   0.0000

          k =-0.4000 0.7563 0.1148 (  1841 PWs)   bands (ev):

    -4.3192  -2.9876   2.1420   3.5444   5.6366   6.3716   8.0190   8.5389
    19.0657  19.5610  22.4303  23.8331

     occupation numbers 
     1.0000   1.0000   1.0000   1.0000   1.0000   1.0000   1.0000   1.0000
     0.0000   0.0000   0.0000   0.0000

          k =-0.4000 0.7563 0.2296 (  1835 PWs)   bands (ev):

    -3.9008  -3.3752   2.0134   2.5798   6.3509   7.2457   7.8345   8.7512
    18.9079  19.3777  22.4156  22.9321

     occupation numbers 
     1.0000   1.0000   1.0000   1.0000   1.0000   1.0000   1.0000   1.0000
     0.0000   0.0000   0.0000   0.0000

          k =-0.4000 0.6466 0.1148 (  1845 PWs)   bands (ev):

    -3.5936  -3.0225   2.3938   3.5312   4.4477   6.6604   6.8592   7.9929
    18.6325  21.7706  22.7062  24.3678

     occupation numbers 
     1.0000   1.0000   1.0000   1.0000   1.0000   1.0000   1.0000   1.0000
     0.0000   0.0000   0.0000   0.0000

          k =-0.4000 0.6466 0.2296 (  1834 PWs)   bands (ev):

    -3.3457  -3.1138   2.2321   2.6234   4.8036   5.6968   8.2433   8.7214
    19.8840  20.8744  22.3208  23.1681

     occupation numbers 
     1.0000   1.0000   1.0000   1.0000   1.0000   1.0000   1.0000   1.0000
     0.0000   0.0000   0.0000   0.0000

          k =-0.4000 0.5369 0.1148 (  1844 PWs)   bands (ev):

    -3.4731  -2.9728   2.6848   3.4464   4.2016   5.8181   7.0953   7.7959
    18.2827  22.9886  23.8428  24.6909

     occupation numbers 
     1.0000   1.0000   1.0000   1.0000   1.0000   1.0000   1.0000   1.0000
     0.0000   0.0000   0.0000   0.0000

          k =-0.4000 0.5369 0.2296 (  1839 PWs)   bands (ev):

    -3.2509  -3.0503   2.7854   2.8815   3.9503   4.8031   8.3724   8.6824
    20.5201  21.3364  21.9978  23.5333

     occupation numbers 
     1.0000   1.0000   1.0000   1.0000   1.0000   1.0000   1.0000   1.0000
     0.0000   0.0000   0.0000   0.0000

          k =-0.4000 0.4272 0.1148 (  1841 PWs)   bands (ev):

    -3.8797  -3.0428   2.2296   3.5854   4.6577   6.5918   6.9593   8.1343
    18.6806  22.6261  22.8283  24.5805

     occupation numbers 
     1.0000   1.0000   1.0000   1.0000   1.0000   1.0000   1.0000   1.0000
     0.0000   0.0000   0.0000   0.0000

          k =-0.4000 0.4272 0.2296 (  1854 PWs)   bands (ev):

    -3.5688  -3.2319   2.1036   2.5977   5.0818   5.9743   8.1186   8.7468
    19.8467  21.0878  22.5377  23.7093

     occupation numbers 
     1.0000   1.0000   1.0000   1.0000   1.0000   1.0000   1.0000   1.0000
     0.0000   0.0000   0.0000   0.0000

          k =-0.4000 0.3175 0.1148 (  1853 PWs)   bands (ev):

    -4.6051  -3.1377   1.9502   3.5582   5.5786   6.6053   8.1580   8.8295
    19.1981  20.4430  22.7657  24.3336

     occupation numbers 
     1.0000   1.0000   1.0000   1.0000   1.0000   1.0000   1.0000   1.0000
     0.0000   0.0000   0.0000   0.0000

          k =-0.4000 0.3175 0.2296 (  1850 PWs)   bands (ev):

    -4.1612  -3.5859   1.8810   2.5204   6.6681   7.5946   7.7992   8.7755
    19.0810  19.9405  22.7685  23.2348

     occupation numbers 
     1.0000   1.0000   1.0000   1.0000   1.0000   1.0000   1.0000   1.0000
     0.0000   0.0000   0.0000   0.0000

          k = 0.5000-0.3695 0.1148 (  1850 PWs)   bands (ev):

    -4.4738  -3.1497   1.8972   3.3924   5.6864   6.6132   8.2386   8.8518
    19.1911  20.3423  22.8711  24.1540

     occupation numbers 
     1.0000   1.0000   1.0000   1.0000   1.0000   1.0000   1.0000   1.0000
     0.0000   0.0000   0.0000   0.0000

          k = 0.5000-0.3695 0.2296 (  1840 PWs)   bands (ev):

    -4.0544  -3.5298   1.7691   2.3672   6.7825   7.4566   8.0823   8.7729
    19.0118  19.8555  22.7431  23.1293

     occupation numbers 
     1.0000   1.0000   1.0000   1.0000   1.0000   1.0000   1.0000   1.0000
     0.0000   0.0000   0.0000   0.0000

          k = 0.5000-0.4792 0.1148 (  1847 PWs)   bands (ev):

    -4.6070  -2.9287   2.5967   3.7886   5.2894   5.9397   7.5877   8.6452
    19.1595  21.8190  23.1619  24.7379

     occupation numbers 
     1.0000   1.0000   1.0000   1.0000   1.0000   1.0000   1.0000   1.0000
     0.0000   0.0000   0.0000   0.0000

          k = 0.5000-0.4792 0.2296 (  1829 PWs)   bands (ev):

    -4.1324  -3.4874   2.5740   3.1263   5.5698   6.3132   7.9048   8.8749
    20.0531  20.8692  23.0695  23.6996

     occupation numbers 
     1.0000   1.0000   1.0000   1.0000   1.0000   1.0000   1.0000   1.0000
     0.0000   0.0000   0.0000   0.0000

          k = 0.5000-0.5889 0.1148 (  1831 PWs)   bands (ev):

    -4.5302  -2.8582   2.8234   3.6670   5.2711   5.9192   7.3709   8.6396
    19.1356  21.4572  22.6301  24.6595

     occupation numbers 
     1.0000   1.0000   1.0000   1.0000   1.0000   1.0000   1.0000   1.0000
     0.0000   0.0000   0.0000   0.0000

          k = 0.5000-0.5889 0.2296 (  1837 PWs)   bands (ev):

    -4.0577  -3.4156   2.7480   3.2144   5.3559   6.0930   7.9074   8.8799
    20.1129  20.6595  22.7479  23.4725

     occupation numbers 
     1.0000   1.0000   1.0000   1.0000   1.0000   1.0000   1.0000   1.0000
     0.0000   0.0000   0.0000   0.0000

          k = 0.5000-0.6986 0.1148 (  1833 PWs)   bands (ev):

    -4.2424  -2.9974   2.1180   3.4476   5.7087   6.3633   8.1016   8.5132
    19.0419  19.5227  22.4634  23.7718

     occupation numbers 
     1.0000   1.0000   1.0000   1.0000   1.0000   1.0000   1.0000   1.0000
     0.0000   0.0000   0.0000   0.0000

          k = 0.5000-0.6986 0.2296 (  1833 PWs)   bands (ev):

    -3.8393  -3.3449   1.9531   2.4924   6.4118   7.2325   7.9290   8.7493
    18.8663  19.3285  22.4133  22.8495

     occupation numbers 
     1.0000   1.0000   1.0000   1.0000   1.0000   1.0000   1.0000   1.0000
     0.0000   0.0000   0.0000   0.0000

     the Fermi energy is    12.2107 ev

!    total energy              =     -54.83362375 Ry
     estimated scf accuracy    <          1.0E-11 Ry
     smearing contrib. (-TS)   =       0.00016521 Ry
     internal energy E=F+TS    =     -54.83378896 Ry

     The total energy is F=E-TS. E is the sum of the following terms:
     one-electron contribution =      10.28200776 Ry
     hartree contribution      =       7.10188227 Ry
     xc contribution           =     -18.90549325 Ry
     ewald contribution        =     -53.31218574 Ry

     convergence has been achieved in  11 iterations

     Forces acting on atoms (cartesian axes, Ry/au):

     atom    1 type  1   force =     0.00754603    0.00845310   -0.00424854
     atom    2 type  1   force =    -0.00755125   -0.00845334   -0.00424868
     atom    3 type  2   force =     0.01001251    0.01276881    0.00424886
     atom    4 type  2   force =    -0.01000729   -0.01276857    0.00424836
     The non-local contrib.  to forces
     atom    1 type  1   force =     0.02892350    0.04923519   -0.04729938
     atom    2 type  1   force =    -0.02892220   -0.04923899   -0.04729942
     atom    3 type  2   force =    -0.02115470   -0.04384479   -0.04887828
     atom    4 type  2   force =     0.02115273    0.04384410   -0.04887852
     The ionic contribution  to forces
     atom    1 type  1   force =     0.16056195    0.29746594   -0.33308080
     atom    2 type  1   force =    -0.16056195   -0.29746594   -0.33308080
     atom    3 type  2   force =     0.17144468    0.31928936    0.33308080
     atom    4 type  2   force =    -0.17144468   -0.31928936    0.33308080
     The local contribution  to forces
     atom    1 type  1   force =    -0.18017071   -0.33517799    0.37321390
     atom    2 type  1   force =     0.18017225    0.33518013    0.37321399
     atom    3 type  2   force =    -0.13987532   -0.26215398   -0.27946484
     atom    4 type  2   force =     0.13987551    0.26215518   -0.27946515
     The core correction contribution to forces
     atom    1 type  1   force =    -0.00177224   -0.00306996    0.00287968
     atom    2 type  1   force =     0.00175720    0.00307178    0.00287932
     atom    3 type  2   force =    -0.00040559   -0.00052225   -0.00052770
     atom    4 type  2   force =     0.00040566    0.00052230   -0.00052768
     The Hubbard contrib.    to forces
     atom    1 type  1   force =     0.00000000    0.00000000    0.00000000
     atom    2 type  1   force =     0.00000000    0.00000000    0.00000000
     atom    3 type  2   force =     0.00000000    0.00000000    0.00000000
     atom    4 type  2   force =     0.00000000    0.00000000    0.00000000
     The SCF correction term to forces
     atom    1 type  1   force =     0.00000003    0.00000012   -0.00000016
     atom    2 type  1   force =    -0.00000005   -0.00000012   -0.00000001
     atom    3 type  2   force =    -0.00000005    0.00000068    0.00000065
     atom    4 type  2   force =    -0.00000000   -0.00000058    0.00000069

     Total force =     0.029250     Total SCF correction =     0.000001


     Computing stress (Cartesian axis) and pressure

          total   stress  (Ry/bohr**3)                   (kbar)     P=      208.69
   0.00370883   0.00093985  -0.00000002          545.59      138.26       -0.00
   0.00093985   0.00045245   0.00000001          138.26       66.56        0.00
  -0.00000002   0.00000001   0.00009475           -0.00        0.00       13.94

     kinetic stress (kbar)  24353.32    151.48     -0.00
                              151.48  23793.25     -0.00
                               -0.00     -0.00  23703.38

     local   stress (kbar)  -1764.07   -331.14     -0.00
                             -331.14   -470.62      0.00
                               -0.00      0.00   -132.00

     nonloc. stress (kbar)  -3165.51    -27.43      0.00
                              -27.43  -3066.86      0.00
                                0.00      0.00  -3027.34

     hartree stress (kbar)   2537.62     86.39      0.00
                               86.39   2161.48     -0.00
                                0.00     -0.00   2126.18

     exc-cor stress (kbar)  -1317.88      0.90     -0.00
                                0.90  -1320.89      0.00
                               -0.00      0.00  -1322.76

     corecor stress (kbar)  -3751.09     -3.27     -0.00
                               -3.27  -3740.45     -0.00
                               -0.00     -0.00  -3733.85

     ewald   stress (kbar) -16346.79    261.32      0.00
                              261.32 -17289.36      0.00
                                0.00      0.00 -17599.66

     hubbard stress (kbar)      0.00      0.00      0.00
                                0.00      0.00      0.00
                                0.00      0.00      0.00

     DFT-D   stress (kbar)      0.00      0.00      0.00
                                0.00      0.00      0.00
                                0.00      0.00      0.00

     XDM     stress (kbar)      0.00      0.00      0.00
                                0.00      0.00      0.00
                                0.00      0.00      0.00

     dft-nl  stress (kbar)      0.00      0.00      0.00
                                0.00      0.00      0.00
                                0.00      0.00      0.00

     TS-vdW  stress (kbar)      0.00      0.00      0.00
                                0.00      0.00      0.00
                                0.00      0.00      0.00



     init_run     :      0.47s CPU      1.42s WALL (       1 calls)
     electrons    :     12.17s CPU     13.48s WALL (       1 calls)
     forces       :      0.10s CPU      0.10s WALL (       1 calls)
     stress       :      0.28s CPU      0.28s WALL (       1 calls)

     Called by init_run:
     wfcinit      :      0.39s CPU      0.88s WALL (       1 calls)
     wfcinit:atom :      0.01s CPU      0.01s WALL (     252 calls)
     wfcinit:wfcr :      0.36s CPU      0.84s WALL (     252 calls)
     potinit      :      0.02s CPU      0.04s WALL (       1 calls)
     hinit0       :      0.04s CPU      0.37s WALL (       1 calls)

     Called by electrons:
     c_bands      :     10.67s CPU     11.59s WALL (      11 calls)
     sum_band     :      1.44s CPU      1.60s WALL (      11 calls)
     v_of_rho     :      0.03s CPU      0.04s WALL (      12 calls)
     v_h          :      0.00s CPU      0.00s WALL (      12 calls)
     v_xc         :      0.03s CPU      0.04s WALL (      14 calls)
     newd         :      0.02s CPU      0.10s WALL (      12 calls)
     mix_rho      :      0.01s CPU      0.19s WALL (      11 calls)

     Called by c_bands:
     init_us_2    :      0.23s CPU      0.25s WALL (    6300 calls)
     cegterg      :     10.25s CPU     11.15s WALL (    2772 calls)

     Called by sum_band:
     sum_band:wei :      0.01s CPU      0.01s WALL (      11 calls)
     sum_band:loo :      1.41s CPU      1.50s WALL (      11 calls)
     sum_band:buf :      0.02s CPU      0.03s WALL (    2772 calls)
     sum_band:ini :      0.09s CPU      0.09s WALL (    2772 calls)
     sum_band:cal :      0.09s CPU      0.09s WALL (    2772 calls)
     sum_band:bec :      0.01s CPU      0.01s WALL (    2772 calls)
     addusdens    :      0.02s CPU      0.08s WALL (      11 calls)
     addusd:skk   :      0.00s CPU      0.00s WALL (      11 calls)
     addusd:dgemm :      0.01s CPU      0.07s WALL (      11 calls)
     addusd:qvan2 :      0.01s CPU      0.01s WALL (      11 calls)

     Called by *egterg:
     cdiaghg      :      1.58s CPU      2.33s WALL (   12436 calls)
     cegterg:over :      0.39s CPU      0.45s WALL (    9664 calls)
     cegterg:upda :      0.10s CPU      0.10s WALL (    9664 calls)
     cegterg:last :      0.17s CPU      0.18s WALL (    6717 calls)
     h_psi        :      7.86s CPU      8.39s WALL (   12688 calls)
     s_psi        :      0.15s CPU      0.16s WALL (   12688 calls)
     g_psi        :      0.04s CPU      0.04s WALL (    9664 calls)

     Called by h_psi:
     h_psi:calbec :      0.34s CPU      0.40s WALL (   12688 calls)
     vloc_psi     :      7.29s CPU      7.73s WALL (   12688 calls)
     add_vuspsi   :      0.18s CPU      0.20s WALL (   12688 calls)

     General routines
     calbec       :      0.45s CPU      0.52s WALL (   16720 calls)
     fft          :      0.02s CPU      0.31s WALL (     179 calls)
     ffts         :      0.00s CPU      0.00s WALL (      23 calls)
     fftw         :      7.92s CPU      8.41s WALL (  234508 calls)
     interpolate  :      0.00s CPU      0.00s WALL (      12 calls)

     Parallel routines
     fft_scatt_xy :      0.74s CPU      0.78s WALL (  234710 calls)
     fft_scatt_yz :      2.35s CPU      2.49s WALL (  234710 calls)

     PWSCF        :     13.09s CPU     16.79s WALL


   This run was terminated on:  21:19: 1  28Sep2022            

=------------------------------------------------------------------------------=
   JOB DONE.
=------------------------------------------------------------------------------=
Note: The following floating-point exceptions are signalling: IEEE_UNDERFLOW_FLAG IEEE_DENORMAL
