
     Program PWSCF v.6.7MaX starts on  5Mar2023 at  2: 0:15 

     This program is part of the open-source Quantum ESPRESSO suite
     for quantum simulation of materials; please cite
         "P. Giannozzi et al., J. Phys.:Condens. Matter 21 395502 (2009);
         "P. Giannozzi et al., J. Phys.:Condens. Matter 29 465901 (2017);
          URL http://www.quantum-espresso.org", 
     in publications or presentations arising from this work. More details at
     http://www.quantum-espresso.org/quote

     Parallel version (MPI), running on    16 processors

     MPI processes distributed on     1 nodes
     R & G space division:  proc/nbgrp/npool/nimage =      16
     Reading input from scale_1da-01.in

     Current dimensions of program PWSCF are:
     Max number of different atomic species (ntypx) = 10
     Max number of k-points (npk) =  40000
     Max angular momentum in pseudopotentials (lmaxx) =  3
     Message from routine read_pp_mesh:
     mesh size missing, using the one in header
     file Fe.pbe-spn-kjpaw_psl.0.2.1.UPF: wavefunction(s)  3D renormalized
     file O.pbe-n-kjpaw_psl.0.1.UPF: wavefunction(s)  2P renormalized

     Subspace diagonalization in iterative solution of the eigenvalue problem:
     a serial algorithm will be used

     Message from routine setup:
     using ibrav=0 with symmetry is DISCOURAGED, use correct ibrav instead

     Parallelization info
     --------------------
     sticks:   dense  smooth     PW     G-vecs:    dense   smooth      PW
     Min        1218     450    122                80986    18253    2561
     Max        1219     451    124                80988    18255    2562
     Sum       19491    7211   1957              1295799   292067   40991



     bravais-lattice index     =            0
     lattice parameter (alat)  =      19.1601  a.u.
     unit-cell volume          =    2162.0894 (a.u.)^3
     number of atoms/cell      =           28
     number of atomic types    =            4
     number of electrons       =       216.00
     number of Kohn-Sham states=          130
     kinetic-energy cutoff     =     100.0000  Ry
     charge density cutoff     =    1080.0000  Ry
     scf convergence threshold =      2.0E-10
     mixing beta               =       0.4000
     number of iterations used =            8  plain     mixing
     Exchange-correlation= PBE
                           (   1   4   3   4   0   0   0)

     celldm(1)=  19.160078  celldm(2)=   0.000000  celldm(3)=   0.000000
     celldm(4)=   0.000000  celldm(5)=   0.000000  celldm(6)=   0.000000

     crystal axes: (cart. coord. in units of alat)
               a(1) = (   1.000000   0.000000   0.000000 )  
               a(2) = (  -0.000003   0.618261   0.000000 )  
               a(3) = (  -0.000001  -0.000000   0.497175 )  

     reciprocal axes: (cart. coord. in units 2 pi/alat)
               b(1) = (  1.000000  0.000005  0.000002 )  
               b(2) = ( -0.000000  1.617439  0.000000 )  
               b(3) = (  0.000000 -0.000000  2.011362 )  


     PseudoPot. # 1 for Fe read from file:
     /opt/QEpot/SSSP_precision_pseudos/Fe.pbe-spn-kjpaw_psl.0.2.1.UPF
     MD5 check sum: e86618425769142926afa95317d90200
     Pseudo is Projector augmented-wave + core cor, Zval = 16.0
     Generated using "atomic" code by A. Dal Corso  v.5.0.99 svn rev. 10869
     Shape of augmentation charge: PSQ
     Using radial grid of 1191 points,  6 beta functions with: 
                l(1) =   0
                l(2) =   0
                l(3) =   1
                l(4) =   1
                l(5) =   2
                l(6) =   2
     Q(r) pseudized with 0 coefficients 


     PseudoPot. # 2 for Na read from file:
     /opt/QEpot/SSSP_precision_pseudos/Na_ONCV_PBE-1.0.oncvpsp.upf
     MD5 check sum: 24a298df0a6742ae313db96548fdb2a4
     Pseudo is Norm-conserving, Zval =  9.0
     Generated using ONCVPSP code by D. R. Hamann
     Using radial grid of 1992 points,  4 beta functions with: 
                l(1) =   0
                l(2) =   0
                l(3) =   1
                l(4) =   1

     PseudoPot. # 3 for O  read from file:
     /opt/QEpot/SSSP_precision_pseudos/O.pbe-n-kjpaw_psl.0.1.UPF
     MD5 check sum: 0234752ac141de4415c5fc33072bef88
     Pseudo is Projector augmented-wave + core cor, Zval =  6.0
     Generated using "atomic" code by A. Dal Corso  v.5.0.99 svn rev. 10869
     Shape of augmentation charge: BESSEL
     Using radial grid of 1095 points,  4 beta functions with: 
                l(1) =   0
                l(2) =   0
                l(3) =   1
                l(4) =   1
     Q(r) pseudized with 0 coefficients 


     PseudoPot. # 4 for P  read from file:
     /opt/QEpot/SSSP_precision_pseudos/P.pbe-n-rrkjus_psl.1.0.0.UPF
     MD5 check sum: 8b930f418f0a4573dca56cd030ffe088
     Pseudo is Ultrasoft + core correction, Zval =  5.0
     Generated using "atomic" code by A. Dal Corso  v.5.1
     Using radial grid of 1147 points,  6 beta functions with: 
                l(1) =   0
                l(2) =   0
                l(3) =   1
                l(4) =   1
                l(5) =   2
                l(6) =   2
     Q(r) pseudized with 0 coefficients 


     atomic species   valence    mass     pseudopotential
        Fe            16.00    55.84500     Fe( 1.00)
        Na             9.00    22.98977     Na( 1.00)
        O              6.00    15.99940     O ( 1.00)
        P              5.00    30.97376     P ( 1.00)

     Starting magnetic structure 
     atomic species   magnetization
        Fe           0.312
        Na           0.000
        O            0.000
        P            0.000

      2 Sym. Ops., with inversion, found


                                    s                        frac. trans.

      isym =  1     identity                                     

 cryst.   s( 1) = (     1          0          0      )
                  (     0          1          0      )
                  (     0          0          1      )

 cart.    s( 1) = (  1.0000000  0.0000000  0.0000000 )
                  (  0.0000000  1.0000000  0.0000000 )
                  (  0.0000000  0.0000000  1.0000000 )


      isym =  2     inversion                                    

 cryst.   s( 2) = (    -1          0          0      )
                  (     0         -1          0      )
                  (     0          0         -1      )

 cart.    s( 2) = ( -1.0000000  0.0000000  0.0000000 )
                  (  0.0000000 -1.0000000  0.0000000 )
                  (  0.0000000  0.0000000 -1.0000000 )


   Cartesian axes

     site n.     atom                  positions (alat units)
         1           Na  tau(   1) = (   0.0000030   0.0000012   0.0000015  )
         2           Na  tau(   2) = (   0.5000026  -0.0000000   0.2485887  )
         3           Na  tau(   3) = (   0.0000024   0.3091319   0.0000015  )
         4           Na  tau(   4) = (   0.5000019   0.3091307   0.2485887  )
         5           Fe  tau(   5) = (   0.2874877   0.4636930   0.4876819  )
         6           Fe  tau(   6) = (   0.2125158   0.1545697   0.2390947  )
         7           Fe  tau(   7) = (   0.7125152   0.1545684   0.0094956  )
         8           Fe  tau(   8) = (   0.7874871   0.4636917   0.2580828  )
         9           P   tau(   9) = (   0.1088452   0.4636985   0.2205242  )
        10           P   tau(  10) = (   0.3911564   0.1545641   0.4691099  )
        11           P   tau(  11) = (   0.8911577   0.1545629   0.2766513  )
        12           P   tau(  12) = (   0.6088465   0.4636973   0.0280675  )
        13           O   tau(  13) = (   0.1132499   0.4636967   0.3729910  )
        14           O   tau(  14) = (   0.3867530   0.1545666   0.1244042  )
        15           O   tau(  15) = (   0.8867530   0.1545654   0.1241875  )
        16           O   tau(  16) = (   0.6132499   0.4636955   0.3727732  )
        17           O   tau(  17) = (   0.4686004   0.4636955   0.0796709  )
        18           O   tau(  18) = (   0.0314026   0.1545672   0.3282596  )
        19           O   tau(  19) = (   0.5314025   0.1545660   0.4175061  )
        20           O   tau(  20) = (   0.9686003   0.4636942   0.1689183  )
        21           O   tau(  21) = (   0.1792127   0.5859338   0.1571587  )
        22           O   tau(  22) = (   0.3207911   0.0323295   0.4057464  )
        23           O   tau(  23) = (   0.8207870   0.2767969   0.3400208  )
        24           O   tau(  24) = (   0.6792151   0.3414645   0.0914331  )
        25           O   tau(  25) = (   0.8207902   0.0323277   0.3400188  )
        26           O   tau(  26) = (   0.6792128   0.5859325   0.0914311  )
        27           O   tau(  27) = (   0.1792159   0.3414652   0.1571567  )
        28           O   tau(  28) = (   0.3207878   0.2767975   0.4057444  )

   Crystallographic axes

     site n.     atom                  positions (cryst. coord.)
         1           Na  tau(   1) = (  0.0000030  0.0000020  0.0000030  )
         2           Na  tau(   2) = (  0.5000030  0.0000000  0.5000020  )
         3           Na  tau(   3) = (  0.0000040  0.5000020  0.0000030  )
         4           Na  tau(   4) = (  0.5000040  0.5000000  0.5000020  )
         5           Fe  tau(   5) = (  0.2874910  0.7499950  0.9809050  )
         6           Fe  tau(   6) = (  0.2125170  0.2500070  0.4809060  )
         7           Fe  tau(   7) = (  0.7125160  0.2500050  0.0190990  )
         8           Fe  tau(   8) = (  0.7874900  0.7499930  0.5190980  )
         9           P   tau(   9) = (  0.1088480  0.7500040  0.4435540  )
        10           P   tau(  10) = (  0.3911580  0.2499980  0.9435500  )
        11           P   tau(  11) = (  0.8911590  0.2499960  0.5564460  )
        12           P   tau(  12) = (  0.6088490  0.7500020  0.0564540  )
        13           O   tau(  13) = (  0.1132530  0.7500010  0.7502200  )
        14           O   tau(  14) = (  0.3867540  0.2500020  0.2502220  )
        15           O   tau(  15) = (  0.8867540  0.2500000  0.2497860  )
        16           O   tau(  16) = (  0.6132530  0.7499990  0.7497820  )
        17           O   tau(  17) = (  0.4686030  0.7499990  0.1602470  )
        18           O   tau(  18) = (  0.0314040  0.2500030  0.6602490  )
        19           O   tau(  19) = (  0.5314040  0.2500010  0.8397560  )
        20           O   tau(  20) = (  0.9686030  0.7499970  0.3397560  )
        21           O   tau(  21) = (  0.1792160  0.9477120  0.3161030  )
        22           O   tau(  22) = (  0.3207920  0.0522910  0.8161030  )
        23           O   tau(  23) = (  0.8207890  0.4477020  0.6839050  )
        24           O   tau(  24) = (  0.6792170  0.5522980  0.1839050  )
        25           O   tau(  25) = (  0.8207910  0.0522880  0.6839010  )
        26           O   tau(  26) = (  0.6792160  0.9477100  0.1839010  )
        27           O   tau(  27) = (  0.1792180  0.5522990  0.3160990  )
        28           O   tau(  28) = (  0.3207900  0.4477030  0.8160990  )

     number of k points=   158  Marzari-Vanderbilt smearing, width (Ry)=  0.0073
                       cart. coord. in units 2pi/alat
        k(    1) = (   0.0000000   0.0000000   0.0000000), wk =   0.0031746
        k(    2) = (   0.0000000   0.0000000   0.2234847), wk =   0.0063492
        k(    3) = (   0.0000000   0.0000000   0.4469694), wk =   0.0063492
        k(    4) = (   0.0000000   0.0000000   0.6704541), wk =   0.0063492
        k(    5) = (   0.0000000   0.0000000   0.8939388), wk =   0.0063492
        k(    6) = (   0.0000000   0.2310627   0.0000000), wk =   0.0063492
        k(    7) = (   0.0000000   0.2310627   0.2234847), wk =   0.0063492
        k(    8) = (   0.0000000   0.2310627   0.4469694), wk =   0.0063492
        k(    9) = (   0.0000000   0.2310627   0.6704541), wk =   0.0063492
        k(   10) = (   0.0000000   0.2310627   0.8939388), wk =   0.0063492
        k(   11) = (   0.0000000   0.2310627  -0.8939388), wk =   0.0063492
        k(   12) = (   0.0000000   0.2310627  -0.6704541), wk =   0.0063492
        k(   13) = (   0.0000000   0.2310627  -0.4469694), wk =   0.0063492
        k(   14) = (   0.0000000   0.2310627  -0.2234847), wk =   0.0063492
        k(   15) = (   0.0000000   0.4621254   0.0000000), wk =   0.0063492
        k(   16) = (   0.0000000   0.4621254   0.2234847), wk =   0.0063492
        k(   17) = (   0.0000000   0.4621254   0.4469694), wk =   0.0063492
        k(   18) = (   0.0000000   0.4621254   0.6704541), wk =   0.0063492
        k(   19) = (   0.0000000   0.4621254   0.8939388), wk =   0.0063492
        k(   20) = (   0.0000000   0.4621254  -0.8939388), wk =   0.0063492
        k(   21) = (   0.0000000   0.4621254  -0.6704541), wk =   0.0063492
        k(   22) = (   0.0000000   0.4621254  -0.4469694), wk =   0.0063492
        k(   23) = (   0.0000000   0.4621254  -0.2234847), wk =   0.0063492
        k(   24) = (   0.0000000   0.6931880   0.0000000), wk =   0.0063492
        k(   25) = (   0.0000000   0.6931880   0.2234847), wk =   0.0063492
        k(   26) = (   0.0000000   0.6931880   0.4469694), wk =   0.0063492
        k(   27) = (   0.0000000   0.6931880   0.6704541), wk =   0.0063492
        k(   28) = (   0.0000000   0.6931880   0.8939388), wk =   0.0063492
        k(   29) = (   0.0000000   0.6931880  -0.8939388), wk =   0.0063492
        k(   30) = (   0.0000000   0.6931880  -0.6704541), wk =   0.0063492
        k(   31) = (   0.0000000   0.6931880  -0.4469694), wk =   0.0063492
        k(   32) = (   0.0000000   0.6931880  -0.2234847), wk =   0.0063492
        k(   33) = (   0.2000000   0.0000010   0.0000003), wk =   0.0063492
        k(   34) = (   0.2000000   0.0000010   0.2234851), wk =   0.0063492
        k(   35) = (   0.2000000   0.0000010   0.4469698), wk =   0.0063492
        k(   36) = (   0.2000000   0.0000010   0.6704545), wk =   0.0063492
        k(   37) = (   0.2000000   0.0000010   0.8939392), wk =   0.0063492
        k(   38) = (   0.2000000   0.0000010  -0.8939385), wk =   0.0063492
        k(   39) = (   0.2000000   0.0000010  -0.6704538), wk =   0.0063492
        k(   40) = (   0.2000000   0.0000010  -0.4469691), wk =   0.0063492
        k(   41) = (   0.2000000   0.0000010  -0.2234844), wk =   0.0063492
        k(   42) = (   0.2000000   0.2310637   0.0000003), wk =   0.0063492
        k(   43) = (   0.2000000   0.2310637   0.2234851), wk =   0.0063492
        k(   44) = (   0.2000000   0.2310637   0.4469698), wk =   0.0063492
        k(   45) = (   0.2000000   0.2310637   0.6704545), wk =   0.0063492
        k(   46) = (   0.2000000   0.2310637   0.8939392), wk =   0.0063492
        k(   47) = (   0.2000000   0.2310637  -0.8939385), wk =   0.0063492
        k(   48) = (   0.2000000   0.2310637  -0.6704538), wk =   0.0063492
        k(   49) = (   0.2000000   0.2310637  -0.4469691), wk =   0.0063492
        k(   50) = (   0.2000000   0.2310637  -0.2234844), wk =   0.0063492
        k(   51) = (   0.2000000   0.4621264   0.0000003), wk =   0.0063492
        k(   52) = (   0.2000000   0.4621264   0.2234851), wk =   0.0063492
        k(   53) = (   0.2000000   0.4621264   0.4469698), wk =   0.0063492
        k(   54) = (   0.2000000   0.4621264   0.6704545), wk =   0.0063492
        k(   55) = (   0.2000000   0.4621264   0.8939392), wk =   0.0063492
        k(   56) = (   0.2000000   0.4621264  -0.8939385), wk =   0.0063492
        k(   57) = (   0.2000000   0.4621264  -0.6704538), wk =   0.0063492
        k(   58) = (   0.2000000   0.4621264  -0.4469691), wk =   0.0063492
        k(   59) = (   0.2000000   0.4621264  -0.2234844), wk =   0.0063492
        k(   60) = (   0.2000000   0.6931891   0.0000003), wk =   0.0063492
        k(   61) = (   0.2000000   0.6931891   0.2234851), wk =   0.0063492
        k(   62) = (   0.2000000   0.6931891   0.4469698), wk =   0.0063492
        k(   63) = (   0.2000000   0.6931891   0.6704545), wk =   0.0063492
        k(   64) = (   0.2000000   0.6931891   0.8939392), wk =   0.0063492
        k(   65) = (   0.2000000   0.6931891  -0.8939385), wk =   0.0063492
        k(   66) = (   0.2000000   0.6931891  -0.6704538), wk =   0.0063492
        k(   67) = (   0.2000000   0.6931891  -0.4469691), wk =   0.0063492
        k(   68) = (   0.2000000   0.6931891  -0.2234844), wk =   0.0063492
        k(   69) = (   0.2000000  -0.6931870   0.0000003), wk =   0.0063492
        k(   70) = (   0.2000000  -0.6931870   0.2234851), wk =   0.0063492
        k(   71) = (   0.2000000  -0.6931870   0.4469698), wk =   0.0063492
        k(   72) = (   0.2000000  -0.6931870   0.6704545), wk =   0.0063492
        k(   73) = (   0.2000000  -0.6931870   0.8939392), wk =   0.0063492
        k(   74) = (   0.2000000  -0.6931870  -0.8939385), wk =   0.0063492
        k(   75) = (   0.2000000  -0.6931870  -0.6704538), wk =   0.0063492
        k(   76) = (   0.2000000  -0.6931870  -0.4469691), wk =   0.0063492
        k(   77) = (   0.2000000  -0.6931870  -0.2234844), wk =   0.0063492
        k(   78) = (   0.2000000  -0.4621243   0.0000003), wk =   0.0063492
        k(   79) = (   0.2000000  -0.4621243   0.2234851), wk =   0.0063492
        k(   80) = (   0.2000000  -0.4621243   0.4469698), wk =   0.0063492
        k(   81) = (   0.2000000  -0.4621243   0.6704545), wk =   0.0063492
        k(   82) = (   0.2000000  -0.4621243   0.8939392), wk =   0.0063492
        k(   83) = (   0.2000000  -0.4621243  -0.8939385), wk =   0.0063492
        k(   84) = (   0.2000000  -0.4621243  -0.6704538), wk =   0.0063492
        k(   85) = (   0.2000000  -0.4621243  -0.4469691), wk =   0.0063492
        k(   86) = (   0.2000000  -0.4621243  -0.2234844), wk =   0.0063492
        k(   87) = (   0.2000000  -0.2310616   0.0000003), wk =   0.0063492
        k(   88) = (   0.2000000  -0.2310616   0.2234851), wk =   0.0063492
        k(   89) = (   0.2000000  -0.2310616   0.4469698), wk =   0.0063492
        k(   90) = (   0.2000000  -0.2310616   0.6704545), wk =   0.0063492
        k(   91) = (   0.2000000  -0.2310616   0.8939392), wk =   0.0063492
        k(   92) = (   0.2000000  -0.2310616  -0.8939385), wk =   0.0063492
        k(   93) = (   0.2000000  -0.2310616  -0.6704538), wk =   0.0063492
        k(   94) = (   0.2000000  -0.2310616  -0.4469691), wk =   0.0063492
        k(   95) = (   0.2000000  -0.2310616  -0.2234844), wk =   0.0063492
        k(   96) = (   0.4000000   0.0000021   0.0000007), wk =   0.0063492
        k(   97) = (   0.4000000   0.0000021   0.2234854), wk =   0.0063492
        k(   98) = (   0.4000000   0.0000021   0.4469701), wk =   0.0063492
        k(   99) = (   0.4000000   0.0000021   0.6704548), wk =   0.0063492
        k(  100) = (   0.4000000   0.0000021   0.8939395), wk =   0.0063492
        k(  101) = (   0.4000000   0.0000021  -0.8939381), wk =   0.0063492
        k(  102) = (   0.4000000   0.0000021  -0.6704534), wk =   0.0063492
        k(  103) = (   0.4000000   0.0000021  -0.4469687), wk =   0.0063492
        k(  104) = (   0.4000000   0.0000021  -0.2234840), wk =   0.0063492
        k(  105) = (   0.4000000   0.2310648   0.0000007), wk =   0.0063492
        k(  106) = (   0.4000000   0.2310648   0.2234854), wk =   0.0063492
        k(  107) = (   0.4000000   0.2310648   0.4469701), wk =   0.0063492
        k(  108) = (   0.4000000   0.2310648   0.6704548), wk =   0.0063492
        k(  109) = (   0.4000000   0.2310648   0.8939395), wk =   0.0063492
        k(  110) = (   0.4000000   0.2310648  -0.8939381), wk =   0.0063492
        k(  111) = (   0.4000000   0.2310648  -0.6704534), wk =   0.0063492
        k(  112) = (   0.4000000   0.2310648  -0.4469687), wk =   0.0063492
        k(  113) = (   0.4000000   0.2310648  -0.2234840), wk =   0.0063492
        k(  114) = (   0.4000000   0.4621275   0.0000007), wk =   0.0063492
        k(  115) = (   0.4000000   0.4621275   0.2234854), wk =   0.0063492
        k(  116) = (   0.4000000   0.4621275   0.4469701), wk =   0.0063492
        k(  117) = (   0.4000000   0.4621275   0.6704548), wk =   0.0063492
        k(  118) = (   0.4000000   0.4621275   0.8939395), wk =   0.0063492
        k(  119) = (   0.4000000   0.4621275  -0.8939381), wk =   0.0063492
        k(  120) = (   0.4000000   0.4621275  -0.6704534), wk =   0.0063492
        k(  121) = (   0.4000000   0.4621275  -0.4469687), wk =   0.0063492
        k(  122) = (   0.4000000   0.4621275  -0.2234840), wk =   0.0063492
        k(  123) = (   0.4000000   0.6931901   0.0000007), wk =   0.0063492
        k(  124) = (   0.4000000   0.6931901   0.2234854), wk =   0.0063492
        k(  125) = (   0.4000000   0.6931901   0.4469701), wk =   0.0063492
        k(  126) = (   0.4000000   0.6931901   0.6704548), wk =   0.0063492
        k(  127) = (   0.4000000   0.6931901   0.8939395), wk =   0.0063492
        k(  128) = (   0.4000000   0.6931901  -0.8939381), wk =   0.0063492
        k(  129) = (   0.4000000   0.6931901  -0.6704534), wk =   0.0063492
        k(  130) = (   0.4000000   0.6931901  -0.4469687), wk =   0.0063492
        k(  131) = (   0.4000000   0.6931901  -0.2234840), wk =   0.0063492
        k(  132) = (   0.4000000  -0.6931859   0.0000007), wk =   0.0063492
        k(  133) = (   0.4000000  -0.6931859   0.2234854), wk =   0.0063492
        k(  134) = (   0.4000000  -0.6931859   0.4469701), wk =   0.0063492
        k(  135) = (   0.4000000  -0.6931859   0.6704548), wk =   0.0063492
        k(  136) = (   0.4000000  -0.6931859   0.8939395), wk =   0.0063492
        k(  137) = (   0.4000000  -0.6931859  -0.8939381), wk =   0.0063492
        k(  138) = (   0.4000000  -0.6931859  -0.6704534), wk =   0.0063492
        k(  139) = (   0.4000000  -0.6931859  -0.4469687), wk =   0.0063492
        k(  140) = (   0.4000000  -0.6931859  -0.2234840), wk =   0.0063492
        k(  141) = (   0.4000000  -0.4621233   0.0000007), wk =   0.0063492
        k(  142) = (   0.4000000  -0.4621233   0.2234854), wk =   0.0063492
        k(  143) = (   0.4000000  -0.4621233   0.4469701), wk =   0.0063492
        k(  144) = (   0.4000000  -0.4621233   0.6704548), wk =   0.0063492
        k(  145) = (   0.4000000  -0.4621233   0.8939395), wk =   0.0063492
        k(  146) = (   0.4000000  -0.4621233  -0.8939381), wk =   0.0063492
        k(  147) = (   0.4000000  -0.4621233  -0.6704534), wk =   0.0063492
        k(  148) = (   0.4000000  -0.4621233  -0.4469687), wk =   0.0063492
        k(  149) = (   0.4000000  -0.4621233  -0.2234840), wk =   0.0063492
        k(  150) = (   0.4000000  -0.2310606   0.0000007), wk =   0.0063492
        k(  151) = (   0.4000000  -0.2310606   0.2234854), wk =   0.0063492
        k(  152) = (   0.4000000  -0.2310606   0.4469701), wk =   0.0063492
        k(  153) = (   0.4000000  -0.2310606   0.6704548), wk =   0.0063492
        k(  154) = (   0.4000000  -0.2310606   0.8939395), wk =   0.0063492
        k(  155) = (   0.4000000  -0.2310606  -0.8939381), wk =   0.0063492
        k(  156) = (   0.4000000  -0.2310606  -0.6704534), wk =   0.0063492
        k(  157) = (   0.4000000  -0.2310606  -0.4469687), wk =   0.0063492
        k(  158) = (   0.4000000  -0.2310606  -0.2234840), wk =   0.0063492

                       cryst. coord.
        k(    1) = (   0.0000000   0.0000000   0.0000000), wk =   0.0031746
        k(    2) = (   0.0000000   0.0000000   0.1111111), wk =   0.0063492
        k(    3) = (   0.0000000   0.0000000   0.2222222), wk =   0.0063492
        k(    4) = (   0.0000000   0.0000000   0.3333333), wk =   0.0063492
        k(    5) = (   0.0000000   0.0000000   0.4444444), wk =   0.0063492
        k(    6) = (   0.0000000   0.1428571  -0.0000000), wk =   0.0063492
        k(    7) = (   0.0000000   0.1428571   0.1111111), wk =   0.0063492
        k(    8) = (   0.0000000   0.1428571   0.2222222), wk =   0.0063492
        k(    9) = (   0.0000000   0.1428571   0.3333333), wk =   0.0063492
        k(   10) = (   0.0000000   0.1428571   0.4444444), wk =   0.0063492
        k(   11) = (   0.0000000   0.1428571  -0.4444444), wk =   0.0063492
        k(   12) = (   0.0000000   0.1428571  -0.3333333), wk =   0.0063492
        k(   13) = (   0.0000000   0.1428571  -0.2222222), wk =   0.0063492
        k(   14) = (   0.0000000   0.1428571  -0.1111111), wk =   0.0063492
        k(   15) = (   0.0000000   0.2857143  -0.0000000), wk =   0.0063492
        k(   16) = (   0.0000000   0.2857143   0.1111111), wk =   0.0063492
        k(   17) = (   0.0000000   0.2857143   0.2222222), wk =   0.0063492
        k(   18) = (   0.0000000   0.2857143   0.3333333), wk =   0.0063492
        k(   19) = (   0.0000000   0.2857143   0.4444444), wk =   0.0063492
        k(   20) = (   0.0000000   0.2857143  -0.4444444), wk =   0.0063492
        k(   21) = (   0.0000000   0.2857143  -0.3333333), wk =   0.0063492
        k(   22) = (   0.0000000   0.2857143  -0.2222222), wk =   0.0063492
        k(   23) = (   0.0000000   0.2857143  -0.1111111), wk =   0.0063492
        k(   24) = (   0.0000000   0.4285714  -0.0000000), wk =   0.0063492
        k(   25) = (   0.0000000   0.4285714   0.1111111), wk =   0.0063492
        k(   26) = (   0.0000000   0.4285714   0.2222222), wk =   0.0063492
        k(   27) = (   0.0000000   0.4285714   0.3333333), wk =   0.0063492
        k(   28) = (   0.0000000   0.4285714   0.4444444), wk =   0.0063492
        k(   29) = (   0.0000000   0.4285714  -0.4444444), wk =   0.0063492
        k(   30) = (   0.0000000   0.4285714  -0.3333333), wk =   0.0063492
        k(   31) = (   0.0000000   0.4285714  -0.2222222), wk =   0.0063492
        k(   32) = (   0.0000000   0.4285714  -0.1111111), wk =   0.0063492
        k(   33) = (   0.2000000  -0.0000000   0.0000000), wk =   0.0063492
        k(   34) = (   0.2000000  -0.0000000   0.1111111), wk =   0.0063492
        k(   35) = (   0.2000000  -0.0000000   0.2222222), wk =   0.0063492
        k(   36) = (   0.2000000  -0.0000000   0.3333333), wk =   0.0063492
        k(   37) = (   0.2000000  -0.0000000   0.4444444), wk =   0.0063492
        k(   38) = (   0.2000000  -0.0000000  -0.4444444), wk =   0.0063492
        k(   39) = (   0.2000000  -0.0000000  -0.3333333), wk =   0.0063492
        k(   40) = (   0.2000000  -0.0000000  -0.2222222), wk =   0.0063492
        k(   41) = (   0.2000000  -0.0000000  -0.1111111), wk =   0.0063492
        k(   42) = (   0.2000000   0.1428571   0.0000000), wk =   0.0063492
        k(   43) = (   0.2000000   0.1428571   0.1111111), wk =   0.0063492
        k(   44) = (   0.2000000   0.1428571   0.2222222), wk =   0.0063492
        k(   45) = (   0.2000000   0.1428571   0.3333333), wk =   0.0063492
        k(   46) = (   0.2000000   0.1428571   0.4444444), wk =   0.0063492
        k(   47) = (   0.2000000   0.1428571  -0.4444444), wk =   0.0063492
        k(   48) = (   0.2000000   0.1428571  -0.3333333), wk =   0.0063492
        k(   49) = (   0.2000000   0.1428571  -0.2222222), wk =   0.0063492
        k(   50) = (   0.2000000   0.1428571  -0.1111111), wk =   0.0063492
        k(   51) = (   0.2000000   0.2857143  -0.0000000), wk =   0.0063492
        k(   52) = (   0.2000000   0.2857143   0.1111111), wk =   0.0063492
        k(   53) = (   0.2000000   0.2857143   0.2222222), wk =   0.0063492
        k(   54) = (   0.2000000   0.2857143   0.3333333), wk =   0.0063492
        k(   55) = (   0.2000000   0.2857143   0.4444444), wk =   0.0063492
        k(   56) = (   0.2000000   0.2857143  -0.4444444), wk =   0.0063492
        k(   57) = (   0.2000000   0.2857143  -0.3333333), wk =   0.0063492
        k(   58) = (   0.2000000   0.2857143  -0.2222222), wk =   0.0063492
        k(   59) = (   0.2000000   0.2857143  -0.1111111), wk =   0.0063492
        k(   60) = (   0.2000000   0.4285714  -0.0000000), wk =   0.0063492
        k(   61) = (   0.2000000   0.4285714   0.1111111), wk =   0.0063492
        k(   62) = (   0.2000000   0.4285714   0.2222222), wk =   0.0063492
        k(   63) = (   0.2000000   0.4285714   0.3333333), wk =   0.0063492
        k(   64) = (   0.2000000   0.4285714   0.4444444), wk =   0.0063492
        k(   65) = (   0.2000000   0.4285714  -0.4444444), wk =   0.0063492
        k(   66) = (   0.2000000   0.4285714  -0.3333333), wk =   0.0063492
        k(   67) = (   0.2000000   0.4285714  -0.2222222), wk =   0.0063492
        k(   68) = (   0.2000000   0.4285714  -0.1111111), wk =   0.0063492
        k(   69) = (   0.2000000  -0.4285714   0.0000000), wk =   0.0063492
        k(   70) = (   0.2000000  -0.4285714   0.1111111), wk =   0.0063492
        k(   71) = (   0.2000000  -0.4285714   0.2222222), wk =   0.0063492
        k(   72) = (   0.2000000  -0.4285714   0.3333333), wk =   0.0063492
        k(   73) = (   0.2000000  -0.4285714   0.4444444), wk =   0.0063492
        k(   74) = (   0.2000000  -0.4285714  -0.4444444), wk =   0.0063492
        k(   75) = (   0.2000000  -0.4285714  -0.3333333), wk =   0.0063492
        k(   76) = (   0.2000000  -0.4285714  -0.2222222), wk =   0.0063492
        k(   77) = (   0.2000000  -0.4285714  -0.1111111), wk =   0.0063492
        k(   78) = (   0.2000000  -0.2857143   0.0000000), wk =   0.0063492
        k(   79) = (   0.2000000  -0.2857143   0.1111111), wk =   0.0063492
        k(   80) = (   0.2000000  -0.2857143   0.2222222), wk =   0.0063492
        k(   81) = (   0.2000000  -0.2857143   0.3333333), wk =   0.0063492
        k(   82) = (   0.2000000  -0.2857143   0.4444444), wk =   0.0063492
        k(   83) = (   0.2000000  -0.2857143  -0.4444444), wk =   0.0063492
        k(   84) = (   0.2000000  -0.2857143  -0.3333333), wk =   0.0063492
        k(   85) = (   0.2000000  -0.2857143  -0.2222222), wk =   0.0063492
        k(   86) = (   0.2000000  -0.2857143  -0.1111111), wk =   0.0063492
        k(   87) = (   0.2000000  -0.1428571  -0.0000000), wk =   0.0063492
        k(   88) = (   0.2000000  -0.1428571   0.1111111), wk =   0.0063492
        k(   89) = (   0.2000000  -0.1428571   0.2222222), wk =   0.0063492
        k(   90) = (   0.2000000  -0.1428571   0.3333333), wk =   0.0063492
        k(   91) = (   0.2000000  -0.1428571   0.4444444), wk =   0.0063492
        k(   92) = (   0.2000000  -0.1428571  -0.4444444), wk =   0.0063492
        k(   93) = (   0.2000000  -0.1428571  -0.3333333), wk =   0.0063492
        k(   94) = (   0.2000000  -0.1428571  -0.2222222), wk =   0.0063492
        k(   95) = (   0.2000000  -0.1428571  -0.1111111), wk =   0.0063492
        k(   96) = (   0.4000000  -0.0000000   0.0000000), wk =   0.0063492
        k(   97) = (   0.4000000  -0.0000000   0.1111111), wk =   0.0063492
        k(   98) = (   0.4000000  -0.0000000   0.2222222), wk =   0.0063492
        k(   99) = (   0.4000000  -0.0000000   0.3333333), wk =   0.0063492
        k(  100) = (   0.4000000  -0.0000000   0.4444444), wk =   0.0063492
        k(  101) = (   0.4000000  -0.0000000  -0.4444444), wk =   0.0063492
        k(  102) = (   0.4000000  -0.0000000  -0.3333333), wk =   0.0063492
        k(  103) = (   0.4000000  -0.0000000  -0.2222222), wk =   0.0063492
        k(  104) = (   0.4000000  -0.0000000  -0.1111111), wk =   0.0063492
        k(  105) = (   0.4000000   0.1428571  -0.0000000), wk =   0.0063492
        k(  106) = (   0.4000000   0.1428571   0.1111111), wk =   0.0063492
        k(  107) = (   0.4000000   0.1428571   0.2222222), wk =   0.0063492
        k(  108) = (   0.4000000   0.1428571   0.3333333), wk =   0.0063492
        k(  109) = (   0.4000000   0.1428571   0.4444444), wk =   0.0063492
        k(  110) = (   0.4000000   0.1428571  -0.4444444), wk =   0.0063492
        k(  111) = (   0.4000000   0.1428571  -0.3333333), wk =   0.0063492
        k(  112) = (   0.4000000   0.1428571  -0.2222222), wk =   0.0063492
        k(  113) = (   0.4000000   0.1428571  -0.1111111), wk =   0.0063492
        k(  114) = (   0.4000000   0.2857143   0.0000000), wk =   0.0063492
        k(  115) = (   0.4000000   0.2857143   0.1111111), wk =   0.0063492
        k(  116) = (   0.4000000   0.2857143   0.2222222), wk =   0.0063492
        k(  117) = (   0.4000000   0.2857143   0.3333333), wk =   0.0063492
        k(  118) = (   0.4000000   0.2857143   0.4444444), wk =   0.0063492
        k(  119) = (   0.4000000   0.2857143  -0.4444444), wk =   0.0063492
        k(  120) = (   0.4000000   0.2857143  -0.3333333), wk =   0.0063492
        k(  121) = (   0.4000000   0.2857143  -0.2222222), wk =   0.0063492
        k(  122) = (   0.4000000   0.2857143  -0.1111111), wk =   0.0063492
        k(  123) = (   0.4000000   0.4285714   0.0000000), wk =   0.0063492
        k(  124) = (   0.4000000   0.4285714   0.1111111), wk =   0.0063492
        k(  125) = (   0.4000000   0.4285714   0.2222222), wk =   0.0063492
        k(  126) = (   0.4000000   0.4285714   0.3333333), wk =   0.0063492
        k(  127) = (   0.4000000   0.4285714   0.4444444), wk =   0.0063492
        k(  128) = (   0.4000000   0.4285714  -0.4444444), wk =   0.0063492
        k(  129) = (   0.4000000   0.4285714  -0.3333333), wk =   0.0063492
        k(  130) = (   0.4000000   0.4285714  -0.2222222), wk =   0.0063492
        k(  131) = (   0.4000000   0.4285714  -0.1111111), wk =   0.0063492
        k(  132) = (   0.4000000  -0.4285714   0.0000000), wk =   0.0063492
        k(  133) = (   0.4000000  -0.4285714   0.1111111), wk =   0.0063492
        k(  134) = (   0.4000000  -0.4285714   0.2222222), wk =   0.0063492
        k(  135) = (   0.4000000  -0.4285714   0.3333333), wk =   0.0063492
        k(  136) = (   0.4000000  -0.4285714   0.4444444), wk =   0.0063492
        k(  137) = (   0.4000000  -0.4285714  -0.4444444), wk =   0.0063492
        k(  138) = (   0.4000000  -0.4285714  -0.3333333), wk =   0.0063492
        k(  139) = (   0.4000000  -0.4285714  -0.2222222), wk =   0.0063492
        k(  140) = (   0.4000000  -0.4285714  -0.1111111), wk =   0.0063492
        k(  141) = (   0.4000000  -0.2857143  -0.0000000), wk =   0.0063492
        k(  142) = (   0.4000000  -0.2857143   0.1111111), wk =   0.0063492
        k(  143) = (   0.4000000  -0.2857143   0.2222222), wk =   0.0063492
        k(  144) = (   0.4000000  -0.2857143   0.3333333), wk =   0.0063492
        k(  145) = (   0.4000000  -0.2857143   0.4444444), wk =   0.0063492
        k(  146) = (   0.4000000  -0.2857143  -0.4444444), wk =   0.0063492
        k(  147) = (   0.4000000  -0.2857143  -0.3333333), wk =   0.0063492
        k(  148) = (   0.4000000  -0.2857143  -0.2222222), wk =   0.0063492
        k(  149) = (   0.4000000  -0.2857143  -0.1111111), wk =   0.0063492
        k(  150) = (   0.4000000  -0.1428571   0.0000000), wk =   0.0063492
        k(  151) = (   0.4000000  -0.1428571   0.1111111), wk =   0.0063492
        k(  152) = (   0.4000000  -0.1428571   0.2222222), wk =   0.0063492
        k(  153) = (   0.4000000  -0.1428571   0.3333333), wk =   0.0063492
        k(  154) = (   0.4000000  -0.1428571   0.4444444), wk =   0.0063492
        k(  155) = (   0.4000000  -0.1428571  -0.4444444), wk =   0.0063492
        k(  156) = (   0.4000000  -0.1428571  -0.3333333), wk =   0.0063492
        k(  157) = (   0.4000000  -0.1428571  -0.2222222), wk =   0.0063492
        k(  158) = (   0.4000000  -0.1428571  -0.1111111), wk =   0.0063492

     Dense  grid:  1295799 G-vectors     FFT dimensions: ( 216, 125, 100)

     Smooth grid:   292067 G-vectors     FFT dimensions: ( 125,  75,  64)

     Dynamical RAM for                 wfc:       4.52 MB

     Dynamical RAM for     wfc (w. buffer):    1434.33 MB

     Dynamical RAM for           str. fact:       4.94 MB

     Dynamical RAM for           local pot:       0.00 MB

     Dynamical RAM for          nlocal pot:      10.58 MB

     Dynamical RAM for                qrad:      10.54 MB

     Dynamical RAM for          rho,v,vnew:      16.07 MB

     Dynamical RAM for               rhoin:       5.36 MB

     Dynamical RAM for            rho*nmix:      39.54 MB

     Dynamical RAM for           G-vectors:       4.77 MB

     Dynamical RAM for          h,s,v(r/c):       3.09 MB

     Dynamical RAM for          <psi|beta>:       0.60 MB

     Dynamical RAM for                 psi:       9.05 MB

     Dynamical RAM for                hpsi:       9.05 MB

     Dynamical RAM for                spsi:       9.05 MB

     Dynamical RAM for      wfcinit/wfcrot:      11.11 MB

     Dynamical RAM for           addusdens:     250.86 MB

     Dynamical RAM for          addusforce:     288.06 MB

     Dynamical RAM for         addusstress:     250.24 MB

     Estimated static dynamical RAM per process >       1.50 GB

     Estimated max dynamical RAM per process >       1.79 GB

     Estimated total dynamical RAM >      28.58 GB

     Check: negative core charge=   -0.000003
     Generating pointlists ...
     new r_m :   0.0833 (alat units)  1.5955 (a.u.) for type    1
     new r_m :   0.0942 (alat units)  1.8047 (a.u.) for type    2
     new r_m :   0.0616 (alat units)  1.1811 (a.u.) for type    3
     new r_m :   0.0616 (alat units)  1.1811 (a.u.) for type    4

     Initial potential from superposition of free atoms

     starting charge  215.97252, renormalised to  216.00000
     Starting wfcs are  152 randomized atomic wfcs
     Checking if some PAW data can be deallocated... 
       PAW data deallocated on   14 nodes for type:  1
       PAW data deallocated on    6 nodes for type:  3

     total cpu time spent up to now is       99.1 secs

     Self-consistent Calculation

     iteration #  1     ecut=   100.00 Ry     beta= 0.40
     Davidson diagonalization with overlap
     ethr =  1.00E-02,  avg # of iterations =  3.3

     negative rho (up, down):  0.000E+00 6.302E-05

     total cpu time spent up to now is      386.6 secs

     total energy              =   -2380.66628351 Ry
     estimated scf accuracy    <       5.68203155 Ry

     total magnetization       =    16.00 Bohr mag/cell
     absolute magnetization    =    16.01 Bohr mag/cell

     iteration #  2     ecut=   100.00 Ry     beta= 0.40
     Davidson diagonalization with overlap
     ethr =  2.63E-03,  avg # of iterations =  2.0

     negative rho (up, down):  0.000E+00 1.612E-04

     total cpu time spent up to now is      642.8 secs

     total energy              =   -2382.02416150 Ry
     estimated scf accuracy    <       0.52514922 Ry

     total magnetization       =    16.00 Bohr mag/cell
     absolute magnetization    =    16.01 Bohr mag/cell

     iteration #  3     ecut=   100.00 Ry     beta= 0.40
     Davidson diagonalization with overlap
     ethr =  2.43E-04,  avg # of iterations =  9.0

     negative rho (up, down):  0.000E+00 1.757E-04

     total cpu time spent up to now is      981.4 secs

     total energy              =   -2382.04162951 Ry
     estimated scf accuracy    <       3.51010852 Ry

     total magnetization       =    16.09 Bohr mag/cell
     absolute magnetization    =    16.13 Bohr mag/cell

     iteration #  4     ecut=   100.00 Ry     beta= 0.40
     Davidson diagonalization with overlap
     ethr =  2.43E-04,  avg # of iterations =  2.0

     negative rho (up, down):  0.000E+00 3.135E-04

     total cpu time spent up to now is     1208.3 secs

     total energy              =   -2382.08358912 Ry
     estimated scf accuracy    <       1.39115904 Ry

     total magnetization       =    16.00 Bohr mag/cell
     absolute magnetization    =    16.06 Bohr mag/cell

     iteration #  5     ecut=   100.00 Ry     beta= 0.40
     Davidson diagonalization with overlap
     ethr =  2.43E-04,  avg # of iterations =  1.5

     negative rho (up, down):  0.000E+00 4.863E-04

     total cpu time spent up to now is     1415.6 secs

     total energy              =   -2382.05772190 Ry
     estimated scf accuracy    <       2.15334769 Ry

     total magnetization       =    16.00 Bohr mag/cell
     absolute magnetization    =    16.06 Bohr mag/cell

     iteration #  6     ecut=   100.00 Ry     beta= 0.40
     Davidson diagonalization with overlap
     ethr =  2.43E-04,  avg # of iterations =  2.0

     negative rho (up, down):  0.000E+00 5.082E-04

     total cpu time spent up to now is     1636.9 secs

     total energy              =   -2382.15196254 Ry
     estimated scf accuracy    <       2.31454722 Ry

     total magnetization       =    16.00 Bohr mag/cell
     absolute magnetization    =    16.08 Bohr mag/cell

     iteration #  7     ecut=   100.00 Ry     beta= 0.40
     Davidson diagonalization with overlap
     ethr =  2.43E-04,  avg # of iterations =  1.0

     negative rho (up, down):  0.000E+00 5.294E-04

     total cpu time spent up to now is     1828.1 secs

     total energy              =   -2382.19186183 Ry
     estimated scf accuracy    <       0.04762392 Ry

     total magnetization       =    16.00 Bohr mag/cell
     absolute magnetization    =    16.05 Bohr mag/cell

     iteration #  8     ecut=   100.00 Ry     beta= 0.40
     Davidson diagonalization with overlap
     c_bands:  2 eigenvalues not converged
     c_bands:  2 eigenvalues not converged
     ethr =  2.20E-05,  avg # of iterations =  4.0

     negative rho (up, down):  0.000E+00 5.312E-04

     total cpu time spent up to now is     2063.2 secs

     total energy              =   -2382.20009104 Ry
     estimated scf accuracy    <       0.25367103 Ry

     total magnetization       =    16.00 Bohr mag/cell
     absolute magnetization    =    16.06 Bohr mag/cell

     iteration #  9     ecut=   100.00 Ry     beta= 0.40
     Davidson diagonalization with overlap
     ethr =  2.20E-05,  avg # of iterations =  1.4

     negative rho (up, down):  0.000E+00 5.333E-04

     total cpu time spent up to now is     2265.2 secs

     total energy              =   -2382.20061501 Ry
     estimated scf accuracy    <       0.48261087 Ry

     total magnetization       =    16.00 Bohr mag/cell
     absolute magnetization    =    16.06 Bohr mag/cell

     iteration # 10     ecut=   100.00 Ry     beta= 0.40
     Davidson diagonalization with overlap
     ethr =  2.20E-05,  avg # of iterations =  1.1

     negative rho (up, down):  0.000E+00 5.334E-04

     total cpu time spent up to now is     2459.5 secs

     total energy              =   -2382.19151812 Ry
     estimated scf accuracy    <       0.33407251 Ry

     total magnetization       =    16.00 Bohr mag/cell
     absolute magnetization    =    16.07 Bohr mag/cell

     iteration # 11     ecut=   100.00 Ry     beta= 0.40
     Davidson diagonalization with overlap
     ethr =  2.20E-05,  avg # of iterations =  1.2

     negative rho (up, down):  0.000E+00 5.323E-04

     total cpu time spent up to now is     2654.9 secs

     total energy              =   -2382.19870317 Ry
     estimated scf accuracy    <       0.04113065 Ry

     total magnetization       =    16.00 Bohr mag/cell
     absolute magnetization    =    16.06 Bohr mag/cell

     iteration # 12     ecut=   100.00 Ry     beta= 0.40
     Davidson diagonalization with overlap
     ethr =  1.90E-05,  avg # of iterations =  1.0

     negative rho (up, down):  0.000E+00 5.333E-04

     total cpu time spent up to now is     2846.7 secs

     total energy              =   -2382.20142040 Ry
     estimated scf accuracy    <       0.05419508 Ry

     total magnetization       =    16.00 Bohr mag/cell
     absolute magnetization    =    16.06 Bohr mag/cell

     iteration # 13     ecut=   100.00 Ry     beta= 0.40
     Davidson diagonalization with overlap
     ethr =  1.90E-05,  avg # of iterations =  1.0

     negative rho (up, down):  0.000E+00 5.346E-04

     total cpu time spent up to now is     3037.8 secs

     total energy              =   -2382.20029189 Ry
     estimated scf accuracy    <       0.07610670 Ry

     total magnetization       =    16.00 Bohr mag/cell
     absolute magnetization    =    16.07 Bohr mag/cell

     iteration # 14     ecut=   100.00 Ry     beta= 0.40
     Davidson diagonalization with overlap
     ethr =  1.90E-05,  avg # of iterations =  1.0

     negative rho (up, down):  0.000E+00 5.333E-04

     total cpu time spent up to now is     3228.6 secs

     total energy              =   -2382.19886154 Ry
     estimated scf accuracy    <       0.07852178 Ry

     total magnetization       =    16.00 Bohr mag/cell
     absolute magnetization    =    16.07 Bohr mag/cell

     iteration # 15     ecut=   100.00 Ry     beta= 0.40
     Davidson diagonalization with overlap
     ethr =  1.90E-05,  avg # of iterations =  1.0

     negative rho (up, down):  0.000E+00 5.627E-04

     total cpu time spent up to now is     3419.4 secs

     total energy              =   -2382.20461720 Ry
     estimated scf accuracy    <       0.08273862 Ry

     total magnetization       =    16.00 Bohr mag/cell
     absolute magnetization    =    16.07 Bohr mag/cell

     iteration # 16     ecut=   100.00 Ry     beta= 0.40
     Davidson diagonalization with overlap
     ethr =  1.90E-05,  avg # of iterations =  2.0

     negative rho (up, down):  0.000E+00 5.582E-04

     total cpu time spent up to now is     3651.4 secs

     total energy              =   -2382.21367095 Ry
     estimated scf accuracy    <       0.01593405 Ry

     total magnetization       =    16.00 Bohr mag/cell
     absolute magnetization    =    16.06 Bohr mag/cell

     iteration # 17     ecut=   100.00 Ry     beta= 0.40
     Davidson diagonalization with overlap
     c_bands:  2 eigenvalues not converged
     c_bands:  1 eigenvalues not converged
     c_bands:  2 eigenvalues not converged
     ethr =  7.38E-06,  avg # of iterations =  3.6

     negative rho (up, down):  0.000E+00 5.534E-04

     total cpu time spent up to now is     3875.7 secs

     total energy              =   -2382.21337107 Ry
     estimated scf accuracy    <       0.01457725 Ry

     total magnetization       =    16.00 Bohr mag/cell
     absolute magnetization    =    16.06 Bohr mag/cell

     iteration # 18     ecut=   100.00 Ry     beta= 0.40
     Davidson diagonalization with overlap
     ethr =  6.75E-06,  avg # of iterations =  1.2

     negative rho (up, down):  0.000E+00 5.469E-04

     total cpu time spent up to now is     4070.3 secs

     total energy              =   -2382.21273392 Ry
     estimated scf accuracy    <       0.01526680 Ry

     total magnetization       =    16.00 Bohr mag/cell
     absolute magnetization    =    16.06 Bohr mag/cell

     iteration # 19     ecut=   100.00 Ry     beta= 0.40
     Davidson diagonalization with overlap
     ethr =  6.75E-06,  avg # of iterations =  1.0

     negative rho (up, down):  0.000E+00 5.525E-04

     total cpu time spent up to now is     4262.2 secs

     total energy              =   -2382.21298750 Ry
     estimated scf accuracy    <       0.00814438 Ry

     total magnetization       =    16.00 Bohr mag/cell
     absolute magnetization    =    16.06 Bohr mag/cell

     iteration # 20     ecut=   100.00 Ry     beta= 0.40
     Davidson diagonalization with overlap
     c_bands:  1 eigenvalues not converged
     c_bands:  1 eigenvalues not converged
     c_bands:  1 eigenvalues not converged
     c_bands:  1 eigenvalues not converged
     c_bands:  1 eigenvalues not converged
     c_bands:  1 eigenvalues not converged
     c_bands:  1 eigenvalues not converged
     c_bands:  1 eigenvalues not converged
     ethr =  3.77E-06,  avg # of iterations =  3.5

     negative rho (up, down):  0.000E+00 5.485E-04

     total cpu time spent up to now is     4492.0 secs

     total energy              =   -2382.21256057 Ry
     estimated scf accuracy    <       0.00965237 Ry

     total magnetization       =    16.00 Bohr mag/cell
     absolute magnetization    =    16.06 Bohr mag/cell

     iteration # 21     ecut=   100.00 Ry     beta= 0.40
     Davidson diagonalization with overlap
     ethr =  3.77E-06,  avg # of iterations =  1.1

     negative rho (up, down):  0.000E+00 5.483E-04

     total cpu time spent up to now is     4684.8 secs

     total energy              =   -2382.21296217 Ry
     estimated scf accuracy    <       0.00083517 Ry

     total magnetization       =    16.00 Bohr mag/cell
     absolute magnetization    =    16.06 Bohr mag/cell

     iteration # 22     ecut=   100.00 Ry     beta= 0.40
     Davidson diagonalization with overlap
     c_bands:  1 eigenvalues not converged
     c_bands:  2 eigenvalues not converged
     c_bands:  2 eigenvalues not converged
     c_bands:  1 eigenvalues not converged
     c_bands:  1 eigenvalues not converged
     c_bands:  1 eigenvalues not converged
     c_bands:  1 eigenvalues not converged
     c_bands:  1 eigenvalues not converged
     ethr =  3.87E-07,  avg # of iterations =  3.0

     negative rho (up, down):  0.000E+00 5.466E-04

     total cpu time spent up to now is     4909.7 secs

     total energy              =   -2382.21300233 Ry
     estimated scf accuracy    <       0.00058010 Ry

     total magnetization       =    16.00 Bohr mag/cell
     absolute magnetization    =    16.06 Bohr mag/cell

     iteration # 23     ecut=   100.00 Ry     beta= 0.40
     Davidson diagonalization with overlap
     ethr =  2.69E-07,  avg # of iterations =  1.2

     negative rho (up, down):  0.000E+00 5.451E-04

     total cpu time spent up to now is     5103.3 secs

     total energy              =   -2382.21300212 Ry
     estimated scf accuracy    <       0.00084669 Ry

     total magnetization       =    16.00 Bohr mag/cell
     absolute magnetization    =    16.06 Bohr mag/cell

     iteration # 24     ecut=   100.00 Ry     beta= 0.40
     Davidson diagonalization with overlap
     ethr =  2.69E-07,  avg # of iterations =  1.1

     negative rho (up, down):  0.000E+00 5.436E-04

     total cpu time spent up to now is     5297.4 secs

     total energy              =   -2382.21300938 Ry
     estimated scf accuracy    <       0.00032044 Ry

     total magnetization       =    16.00 Bohr mag/cell
     absolute magnetization    =    16.06 Bohr mag/cell

     iteration # 25     ecut=   100.00 Ry     beta= 0.40
     Davidson diagonalization with overlap
     ethr =  1.48E-07,  avg # of iterations =  1.0

     negative rho (up, down):  0.000E+00 5.423E-04

     total cpu time spent up to now is     5488.6 secs

     total energy              =   -2382.21300378 Ry
     estimated scf accuracy    <       0.00017053 Ry

     total magnetization       =    16.00 Bohr mag/cell
     absolute magnetization    =    16.06 Bohr mag/cell

     iteration # 26     ecut=   100.00 Ry     beta= 0.40
     Davidson diagonalization with overlap
     ethr =  7.90E-08,  avg # of iterations =  1.5

     negative rho (up, down):  0.000E+00 5.428E-04

     total cpu time spent up to now is     5696.2 secs

     total energy              =   -2382.21301464 Ry
     estimated scf accuracy    <       0.00012631 Ry

     total magnetization       =    16.00 Bohr mag/cell
     absolute magnetization    =    16.06 Bohr mag/cell

     iteration # 27     ecut=   100.00 Ry     beta= 0.40
     Davidson diagonalization with overlap
     c_bands:  1 eigenvalues not converged
     ethr =  5.85E-08,  avg # of iterations =  2.1

     negative rho (up, down):  0.000E+00 5.429E-04

     total cpu time spent up to now is     5920.6 secs

     total energy              =   -2382.21302951 Ry
     estimated scf accuracy    <       0.00005646 Ry

     total magnetization       =    16.00 Bohr mag/cell
     absolute magnetization    =    16.06 Bohr mag/cell

     iteration # 28     ecut=   100.00 Ry     beta= 0.40
     Davidson diagonalization with overlap
     c_bands:  1 eigenvalues not converged
     c_bands:  1 eigenvalues not converged
     ethr =  2.61E-08,  avg # of iterations =  2.5

     negative rho (up, down):  0.000E+00 5.431E-04

     total cpu time spent up to now is     6153.6 secs

     total energy              =   -2382.21304190 Ry
     estimated scf accuracy    <       0.00002129 Ry

     total magnetization       =    16.00 Bohr mag/cell
     absolute magnetization    =    16.06 Bohr mag/cell

     iteration # 29     ecut=   100.00 Ry     beta= 0.40
     Davidson diagonalization with overlap
     c_bands:  1 eigenvalues not converged
     c_bands:  1 eigenvalues not converged
     ethr =  9.86E-09,  avg # of iterations =  2.7

     negative rho (up, down):  0.000E+00 5.430E-04

     total cpu time spent up to now is     6393.7 secs

     total energy              =   -2382.21305969 Ry
     estimated scf accuracy    <       0.00000016 Ry

     total magnetization       =    16.00 Bohr mag/cell
     absolute magnetization    =    16.06 Bohr mag/cell

     iteration # 30     ecut=   100.00 Ry     beta= 0.40
     Davidson diagonalization with overlap
     c_bands:  1 eigenvalues not converged
     c_bands:  1 eigenvalues not converged
     c_bands:  1 eigenvalues not converged
     c_bands:  1 eigenvalues not converged
     c_bands:  1 eigenvalues not converged
     c_bands:  1 eigenvalues not converged
     c_bands:  1 eigenvalues not converged
     c_bands:  2 eigenvalues not converged
     c_bands:  1 eigenvalues not converged
     c_bands:  1 eigenvalues not converged
     c_bands:  1 eigenvalues not converged
     c_bands:  1 eigenvalues not converged
     c_bands:  1 eigenvalues not converged
     c_bands:  2 eigenvalues not converged
     c_bands:  2 eigenvalues not converged
     c_bands:  2 eigenvalues not converged
     ethr =  7.33E-11,  avg # of iterations = 11.2

     negative rho (up, down):  0.000E+00 5.429E-04

     total cpu time spent up to now is     7142.9 secs

     total energy              =   -2382.21306341 Ry
     estimated scf accuracy    <       0.00000010 Ry

     total magnetization       =    16.00 Bohr mag/cell
     absolute magnetization    =    16.06 Bohr mag/cell

     iteration # 31     ecut=   100.00 Ry     beta= 0.40
     Davidson diagonalization with overlap
     c_bands:  2 eigenvalues not converged
     c_bands:  2 eigenvalues not converged
     ethr =  4.78E-11,  avg # of iterations =  2.2

     negative rho (up, down):  0.000E+00 5.429E-04

     total cpu time spent up to now is     7378.5 secs

     total energy              =   -2382.21306406 Ry
     estimated scf accuracy    <       0.00000001 Ry

     total magnetization       =    16.00 Bohr mag/cell
     absolute magnetization    =    16.06 Bohr mag/cell

     iteration # 32     ecut=   100.00 Ry     beta= 0.40
     Davidson diagonalization with overlap
     ethr =  4.88E-12,  avg # of iterations =  4.7

     negative rho (up, down):  0.000E+00 5.429E-04

     total cpu time spent up to now is     7687.0 secs

     total energy              =   -2382.21306454 Ry
     estimated scf accuracy    <          5.2E-09 Ry

     total magnetization       =    16.00 Bohr mag/cell
     absolute magnetization    =    16.06 Bohr mag/cell

     iteration # 33     ecut=   100.00 Ry     beta= 0.40
     Davidson diagonalization with overlap
     ethr =  2.40E-12,  avg # of iterations =  2.0

     negative rho (up, down):  0.000E+00 5.429E-04

     total cpu time spent up to now is     7920.0 secs

     total energy              =   -2382.21306468 Ry
     estimated scf accuracy    <          8.4E-10 Ry

     total magnetization       =    16.00 Bohr mag/cell
     absolute magnetization    =    16.06 Bohr mag/cell

     iteration # 34     ecut=   100.00 Ry     beta= 0.40
     Davidson diagonalization with overlap
     ethr =  3.87E-13,  avg # of iterations =  3.6

     negative rho (up, down):  0.000E+00 5.429E-04

     total cpu time spent up to now is     8182.0 secs

     total energy              =   -2382.21306474 Ry
     estimated scf accuracy    <          5.3E-10 Ry

     total magnetization       =    16.00 Bohr mag/cell
     absolute magnetization    =    16.06 Bohr mag/cell

     iteration # 35     ecut=   100.00 Ry     beta= 0.40
     Davidson diagonalization with overlap
     ethr =  2.47E-13,  avg # of iterations =  2.4

     negative rho (up, down):  0.000E+00 5.429E-04

     total cpu time spent up to now is     8436.8 secs

     total energy              =   -2382.21306475 Ry
     estimated scf accuracy    <          3.5E-10 Ry

     total magnetization       =    16.00 Bohr mag/cell
     absolute magnetization    =    16.06 Bohr mag/cell

     iteration # 36     ecut=   100.00 Ry     beta= 0.40
     Davidson diagonalization with overlap
     ethr =  1.64E-13,  avg # of iterations =  2.8

     negative rho (up, down):  0.000E+00 5.429E-04

     total cpu time spent up to now is     8683.3 secs

     total energy              =   -2382.21306476 Ry
     estimated scf accuracy    <          2.1E-10 Ry

     total magnetization       =    16.00 Bohr mag/cell
     absolute magnetization    =    16.06 Bohr mag/cell

     iteration # 37     ecut=   100.00 Ry     beta= 0.40
     Davidson diagonalization with overlap
     ethr =  1.00E-13,  avg # of iterations =  2.3

     negative rho (up, down):  0.000E+00 5.429E-04

     Magnetic moment per site:
     atom:    1    charge:    7.9615    magn:    0.0000    constr:    0.0000
     atom:    2    charge:    7.9615    magn:    0.0000    constr:    0.0000
     atom:    3    charge:    7.9615    magn:    0.0000    constr:    0.0000
     atom:    4    charge:    7.9616    magn:    0.0000    constr:    0.0000
     atom:    5    charge:   13.3030    magn:    3.3268    constr:    0.0000
     atom:    6    charge:   13.3030    magn:    3.3269    constr:    0.0000
     atom:    7    charge:   13.3030    magn:    3.3268    constr:    0.0000
     atom:    8    charge:   13.3030    magn:    3.3269    constr:    0.0000
     atom:    9    charge:    0.8198    magn:    0.0062    constr:    0.0000
     atom:   10    charge:    0.8198    magn:    0.0062    constr:    0.0000
     atom:   11    charge:    0.8198    magn:    0.0062    constr:    0.0000
     atom:   12    charge:    0.8198    magn:    0.0062    constr:    0.0000
     atom:   13    charge:    4.1915    magn:    0.0315    constr:    0.0000
     atom:   14    charge:    4.1914    magn:    0.0315    constr:    0.0000
     atom:   15    charge:    4.1915    magn:    0.0315    constr:    0.0000
     atom:   16    charge:    4.1915    magn:    0.0315    constr:    0.0000
     atom:   17    charge:    4.2218    magn:    0.0407    constr:    0.0000
     atom:   18    charge:    4.2218    magn:    0.0407    constr:    0.0000
     atom:   19    charge:    4.2218    magn:    0.0407    constr:    0.0000
     atom:   20    charge:    4.2218    magn:    0.0407    constr:    0.0000
     atom:   21    charge:    4.1776    magn:    0.0743    constr:    0.0000
     atom:   22    charge:    4.1776    magn:    0.0743    constr:    0.0000
     atom:   23    charge:    4.1777    magn:    0.0743    constr:    0.0000
     atom:   24    charge:    4.1777    magn:    0.0743    constr:    0.0000
     atom:   25    charge:    4.1776    magn:    0.0743    constr:    0.0000
     atom:   26    charge:    4.1776    magn:    0.0743    constr:    0.0000
     atom:   27    charge:    4.1777    magn:    0.0743    constr:    0.0000
     atom:   28    charge:    4.1777    magn:    0.0743    constr:    0.0000

     total cpu time spent up to now is     8922.8 secs

     End of self-consistent calculation

 ------ SPIN UP ------------


          k = 0.0000 0.0000 0.0000 ( 36467 PWs)   bands (ev):

   -80.9555 -80.9554 -80.9551 -80.9550 -47.9346 -47.9345 -47.9338 -47.9338
   -46.6478 -46.6477 -46.6474 -46.6471 -46.4484 -46.4482 -46.4478 -46.4477
   -43.0298 -43.0297 -43.0225 -43.0225 -15.2580 -15.2473 -15.0772 -15.0708
   -15.0332 -15.0302 -15.0244 -15.0216 -14.9820 -14.9818 -14.9488 -14.9487
   -14.6205 -14.4395 -14.1922 -14.0956 -12.0338 -11.8918 -11.8856 -11.8812
   -11.8416 -11.8312 -11.8199 -11.7854 -11.7818 -11.7557 -11.6504 -11.5979
    -2.0802  -1.6513  -1.4905  -1.4641  -0.4304  -0.0042   0.1102   0.2062
     0.2965   0.4700   0.7528   0.7779   0.7848   0.8618   0.8994   1.2045
     2.0223   2.1792   2.4517   2.5361   2.6619   2.8183   2.8583   3.0017
     3.0097   3.0314   3.1702   3.2868   3.3143   3.4733   3.5246   3.5468
     3.5730   3.6671   3.7769   3.7838   3.8249   3.9158   4.1273   4.2635
     4.2645   4.3785   4.4868   4.7653   4.7657   4.9108   5.2710   5.3388
     5.5443   5.5469   5.6924   5.8418   5.9319   5.9348   5.9823   6.0033
     6.0432   6.2532   6.5961   6.6686   6.6744   6.7275   6.7954   7.0178
     7.0462   7.2185   7.3763   7.3917  10.3830  12.4152  12.6468  13.1795
    13.6577  13.8098  14.2172  14.7859  15.1340  15.1344  15.2613  15.3855
    15.4401  15.5552

     occupation numbers 
     1.0000   1.0000   1.0000   1.0000   1.0000   1.0000   1.0000   1.0000
     1.0000   1.0000   1.0000   1.0000   1.0000   1.0000   1.0000   1.0000
     1.0000   1.0000   1.0000   1.0000   1.0000   1.0000   1.0000   1.0000
     1.0000   1.0000   1.0000   1.0000   1.0000   1.0000   1.0000   1.0000
     1.0000   1.0000   1.0000   1.0000   1.0000   1.0000   1.0000   1.0000
     1.0000   1.0000   1.0000   1.0000   1.0000   1.0000   1.0000   1.0000
     1.0000   1.0000   1.0000   1.0000   1.0000   1.0000   1.0000   1.0000
     1.0000   1.0000   1.0000   1.0000   1.0000   1.0000   1.0000   1.0000
     1.0000   1.0000   1.0000   1.0000   1.0000   1.0000   1.0000   1.0000
     1.0000   1.0000   1.0000   1.0000   1.0000   1.0000   1.0000   1.0000
     1.0000   1.0000   1.0000   1.0000   1.0000   1.0000   1.0000   1.0000
     1.0000   1.0000   1.0000   1.0000   1.0000   1.0000   1.0000   1.0000
     1.0000   1.0000   1.0000   1.0000   1.0000   1.0000   1.0000   1.0000
     1.0000   1.0000   1.0000   1.0000   1.0000   1.0000   1.0000   1.0000
     1.0000   1.0000   1.0000   1.0000   0.0000   0.0000   0.0000   0.0000
     0.0000   0.0000   0.0000   0.0000   0.0000   0.0000   0.0000   0.0000
     0.0000   0.0000

          k = 0.0000 0.0000 0.2235 ( 36469 PWs)   bands (ev):

   -80.9555 -80.9554 -80.9551 -80.9550 -47.9346 -47.9345 -47.9338 -47.9338
   -46.6478 -46.6477 -46.6474 -46.6471 -46.4484 -46.4482 -46.4478 -46.4477
   -43.0298 -43.0297 -43.0225 -43.0225 -15.2522 -15.2420 -15.0840 -15.0786
   -15.0376 -15.0332 -15.0303 -15.0292 -14.9821 -14.9818 -14.9489 -14.9489
   -14.5799 -14.4138 -14.2000 -14.1092 -12.0391 -11.9031 -11.8934 -11.8805
   -11.8436 -11.8341 -11.8069 -11.7930 -11.7776 -11.7668 -11.6541 -11.6050
    -2.0597  -1.6524  -1.5079  -1.4536  -0.3655   0.0211   0.1579   0.2549
     0.3014   0.4862   0.7668   0.7791   0.7952   0.8442   0.8675   1.1890
     2.0232   2.1742   2.4583   2.4983   2.6724   2.7574   2.8706   2.9076
     2.9546   2.9772   3.1988   3.2837   3.3152   3.4106   3.4977   3.5433
     3.5569   3.5870   3.8693   3.8873   3.9162   3.9408   4.0614   4.2421
     4.2429   4.4086   4.5234   4.7585   4.7810   4.9403   5.2575   5.3229
     5.5241   5.5577   5.6589   5.8427   5.9227   5.9282   5.9531   5.9793
     6.0555   6.2669   6.6337   6.6843   6.7125   6.7371   6.8008   6.9924
     7.0249   7.1877   7.3880   7.3886  10.5327  12.4580  12.7252  13.1676
    13.6845  13.7251  14.3780  14.5463  14.9333  15.1227  15.1720  15.3321
    15.4214  15.5478

     occupation numbers 
     1.0000   1.0000   1.0000   1.0000   1.0000   1.0000   1.0000   1.0000
     1.0000   1.0000   1.0000   1.0000   1.0000   1.0000   1.0000   1.0000
     1.0000   1.0000   1.0000   1.0000   1.0000   1.0000   1.0000   1.0000
     1.0000   1.0000   1.0000   1.0000   1.0000   1.0000   1.0000   1.0000
     1.0000   1.0000   1.0000   1.0000   1.0000   1.0000   1.0000   1.0000
     1.0000   1.0000   1.0000   1.0000   1.0000   1.0000   1.0000   1.0000
     1.0000   1.0000   1.0000   1.0000   1.0000   1.0000   1.0000   1.0000
     1.0000   1.0000   1.0000   1.0000   1.0000   1.0000   1.0000   1.0000
     1.0000   1.0000   1.0000   1.0000   1.0000   1.0000   1.0000   1.0000
     1.0000   1.0000   1.0000   1.0000   1.0000   1.0000   1.0000   1.0000
     1.0000   1.0000   1.0000   1.0000   1.0000   1.0000   1.0000   1.0000
     1.0000   1.0000   1.0000   1.0000   1.0000   1.0000   1.0000   1.0000
     1.0000   1.0000   1.0000   1.0000   1.0000   1.0000   1.0000   1.0000
     1.0000   1.0000   1.0000   1.0000   1.0000   1.0000   1.0000   1.0000
     1.0000   1.0000   1.0000   1.0000   0.0000   0.0000   0.0000   0.0000
     0.0000   0.0000   0.0000   0.0000   0.0000   0.0000   0.0000   0.0000
     0.0000   0.0000

          k = 0.0000 0.0000 0.4470 ( 36538 PWs)   bands (ev):

   -80.9555 -80.9554 -80.9551 -80.9550 -47.9345 -47.9345 -47.9339 -47.9338
   -46.6478 -46.6477 -46.6474 -46.6471 -46.4484 -46.4481 -46.4478 -46.4477
   -43.0298 -43.0297 -43.0225 -43.0225 -15.2409 -15.2316 -15.1076 -15.1020
   -15.0467 -15.0357 -15.0331 -15.0307 -14.9822 -14.9820 -14.9492 -14.9492
   -14.4874 -14.3557 -14.2196 -14.1452 -12.0485 -11.9436 -11.9232 -11.8781
   -11.8415 -11.8269 -11.8126 -11.7974 -11.7746 -11.7654 -11.6649 -11.6257
    -2.0005  -1.6504  -1.5431  -1.4581  -0.1764   0.1000   0.2717   0.3205
     0.3768   0.5233   0.7811   0.7884   0.7893   0.8234   0.8460   1.1397
     2.0201   2.1667   2.4059   2.4785   2.6557   2.6926   2.7135   2.8226
     2.8318   2.9036   3.1756   3.2679   3.2705   3.3425   3.3621   3.4684
     3.5148   3.5964   3.9158   3.9816   4.0374   4.1060   4.1135   4.2151
     4.2200   4.4564   4.5364   4.7375   4.8509   5.0149   5.2191   5.2926
     5.5079   5.5614   5.5943   5.8121   5.8281   5.8546   5.9045   5.9953
     6.1708   6.3208   6.6913   6.7130   6.7558   6.7916   6.8338   6.9180
     6.9614   7.1294   7.3809   7.4037  10.9298  12.5734  12.8667  13.1958
    13.6610  13.7491  14.1531  14.6038  14.7010  14.8830  14.9540  15.0832
    15.3127  15.5019

     occupation numbers 
     1.0000   1.0000   1.0000   1.0000   1.0000   1.0000   1.0000   1.0000
     1.0000   1.0000   1.0000   1.0000   1.0000   1.0000   1.0000   1.0000
     1.0000   1.0000   1.0000   1.0000   1.0000   1.0000   1.0000   1.0000
     1.0000   1.0000   1.0000   1.0000   1.0000   1.0000   1.0000   1.0000
     1.0000   1.0000   1.0000   1.0000   1.0000   1.0000   1.0000   1.0000
     1.0000   1.0000   1.0000   1.0000   1.0000   1.0000   1.0000   1.0000
     1.0000   1.0000   1.0000   1.0000   1.0000   1.0000   1.0000   1.0000
     1.0000   1.0000   1.0000   1.0000   1.0000   1.0000   1.0000   1.0000
     1.0000   1.0000   1.0000   1.0000   1.0000   1.0000   1.0000   1.0000
     1.0000   1.0000   1.0000   1.0000   1.0000   1.0000   1.0000   1.0000
     1.0000   1.0000   1.0000   1.0000   1.0000   1.0000   1.0000   1.0000
     1.0000   1.0000   1.0000   1.0000   1.0000   1.0000   1.0000   1.0000
     1.0000   1.0000   1.0000   1.0000   1.0000   1.0000   1.0000   1.0000
     1.0000   1.0000   1.0000   1.0000   1.0000   1.0000   1.0000   1.0000
     1.0000   1.0000   1.0000   1.0000   0.0000   0.0000   0.0000   0.0000
     0.0000   0.0000   0.0000   0.0000   0.0000   0.0000   0.0000   0.0000
     0.0000   0.0000

          k = 0.0000 0.0000 0.6705 ( 36524 PWs)   bands (ev):

   -80.9555 -80.9554 -80.9551 -80.9550 -47.9345 -47.9344 -47.9340 -47.9339
   -46.6478 -46.6477 -46.6474 -46.6471 -46.4484 -46.4481 -46.4478 -46.4478
   -43.0298 -43.0297 -43.0225 -43.0225 -15.2384 -15.2301 -15.1227 -15.1198
   -15.0427 -15.0346 -15.0328 -15.0313 -14.9824 -14.9823 -14.9496 -14.9495
   -14.3879 -14.3037 -14.2392 -14.1887 -12.0519 -11.9925 -11.9579 -11.9217
   -11.8319 -11.8276 -11.7955 -11.7798 -11.7794 -11.7470 -11.6818 -11.6573
    -1.9091  -1.6357  -1.5999  -1.4976   0.0950   0.2287   0.3634   0.3679
     0.5131   0.5597   0.6635   0.7102   0.8180   0.9417   0.9583   1.0582
     2.0044   2.1794   2.2831   2.5130   2.5152   2.5227   2.6985   2.7305
     2.7405   2.8027   2.8802   3.1282   3.2775   3.3162   3.4031   3.4543
     3.5193   3.6132   3.7838   3.9432   4.1418   4.2324   4.2553   4.2595
     4.3641   4.4929   4.5689   4.6958   4.8785   5.0414   5.2158   5.3207
     5.5174   5.5276   5.5664   5.6998   5.7362   5.7548   5.9227   6.0134
     6.3166   6.4298   6.7191   6.7534   6.7659   6.8002   6.8318   6.8584
     6.9145   7.0796   7.3790   7.4070  11.4632  12.7483  12.7934  13.3717
    13.6848  13.7484  13.9914  14.4609  14.4723  14.7013  14.8372  14.9854
    15.0103  15.3531

     occupation numbers 
     1.0000   1.0000   1.0000   1.0000   1.0000   1.0000   1.0000   1.0000
     1.0000   1.0000   1.0000   1.0000   1.0000   1.0000   1.0000   1.0000
     1.0000   1.0000   1.0000   1.0000   1.0000   1.0000   1.0000   1.0000
     1.0000   1.0000   1.0000   1.0000   1.0000   1.0000   1.0000   1.0000
     1.0000   1.0000   1.0000   1.0000   1.0000   1.0000   1.0000   1.0000
     1.0000   1.0000   1.0000   1.0000   1.0000   1.0000   1.0000   1.0000
     1.0000   1.0000   1.0000   1.0000   1.0000   1.0000   1.0000   1.0000
     1.0000   1.0000   1.0000   1.0000   1.0000   1.0000   1.0000   1.0000
     1.0000   1.0000   1.0000   1.0000   1.0000   1.0000   1.0000   1.0000
     1.0000   1.0000   1.0000   1.0000   1.0000   1.0000   1.0000   1.0000
     1.0000   1.0000   1.0000   1.0000   1.0000   1.0000   1.0000   1.0000
     1.0000   1.0000   1.0000   1.0000   1.0000   1.0000   1.0000   1.0000
     1.0000   1.0000   1.0000   1.0000   1.0000   1.0000   1.0000   1.0000
     1.0000   1.0000   1.0000   1.0000   1.0000   1.0000   1.0000   1.0000
     1.0000   1.0000   1.0000   1.0000   0.0000   0.0000   0.0000   0.0000
     0.0000   0.0000   0.0000   0.0000   0.0000   0.0000   0.0000   0.0000
     0.0000   0.0000

          k = 0.0000 0.0000 0.8939 ( 36556 PWs)   bands (ev):

   -80.9555 -80.9554 -80.9551 -80.9550 -47.9344 -47.9343 -47.9340 -47.9340
   -46.6478 -46.6477 -46.6474 -46.6471 -46.4484 -46.4481 -46.4479 -46.4478
   -43.0298 -43.0297 -43.0225 -43.0225 -15.2422 -15.2387 -15.1228 -15.1223
   -15.0355 -15.0325 -15.0325 -15.0320 -14.9825 -14.9825 -14.9497 -14.9497
   -14.3175 -14.2903 -14.2410 -14.2210 -12.0441 -12.0262 -11.9812 -11.9699
   -11.8203 -11.8158 -11.7960 -11.7879 -11.7404 -11.7243 -11.7043 -11.6951
    -1.7980  -1.6873  -1.6033  -1.5543   0.3027   0.3808   0.4156   0.4374
     0.5415   0.5572   0.5990   0.6381   0.8767   0.9623   1.0700   1.0787
     2.0160   2.1276   2.2350   2.3673   2.4048   2.4548   2.5753   2.6545
     2.7187   2.7342   2.8688   2.9750   3.2959   3.3078   3.4252   3.4357
     3.5695   3.6626   3.7013   3.8296   4.2149   4.2639   4.2770   4.2992
     4.5459   4.5843   4.6271   4.7015   4.8041   4.9240   5.3082   5.3818
     5.5129   5.5616   5.5833   5.6233   5.6357   5.6371   5.9608   5.9969
     6.4819   6.5740   6.6495   6.7243   6.7357   6.7524   6.8020   6.8325
     6.9887   7.0395   7.3871   7.3995  12.0209  12.4963  12.9789  13.2318
    13.7661  13.8834  14.0231  14.2527  14.3872  14.5788  14.8371  14.8455
    14.9145  15.0275

     occupation numbers 
     1.0000   1.0000   1.0000   1.0000   1.0000   1.0000   1.0000   1.0000
     1.0000   1.0000   1.0000   1.0000   1.0000   1.0000   1.0000   1.0000
     1.0000   1.0000   1.0000   1.0000   1.0000   1.0000   1.0000   1.0000
     1.0000   1.0000   1.0000   1.0000   1.0000   1.0000   1.0000   1.0000
     1.0000   1.0000   1.0000   1.0000   1.0000   1.0000   1.0000   1.0000
     1.0000   1.0000   1.0000   1.0000   1.0000   1.0000   1.0000   1.0000
     1.0000   1.0000   1.0000   1.0000   1.0000   1.0000   1.0000   1.0000
     1.0000   1.0000   1.0000   1.0000   1.0000   1.0000   1.0000   1.0000
     1.0000   1.0000   1.0000   1.0000   1.0000   1.0000   1.0000   1.0000
     1.0000   1.0000   1.0000   1.0000   1.0000   1.0000   1.0000   1.0000
     1.0000   1.0000   1.0000   1.0000   1.0000   1.0000   1.0000   1.0000
     1.0000   1.0000   1.0000   1.0000   1.0000   1.0000   1.0000   1.0000
     1.0000   1.0000   1.0000   1.0000   1.0000   1.0000   1.0000   1.0000
     1.0000   1.0000   1.0000   1.0000   1.0000   1.0000   1.0000   1.0000
     1.0000   1.0000   1.0000   1.0000   0.0000   0.0000   0.0000   0.0000
     0.0000   0.0000   0.0000   0.0000   0.0000   0.0000   0.0000   0.0000
     0.0000   0.0000

          k = 0.0000 0.2311 0.0000 ( 36467 PWs)   bands (ev):

   -80.9555 -80.9554 -80.9551 -80.9550 -47.9346 -47.9345 -47.9339 -47.9338
   -46.6478 -46.6477 -46.6474 -46.6471 -46.4484 -46.4482 -46.4478 -46.4477
   -43.0294 -43.0294 -43.0229 -43.0228 -15.2474 -15.2380 -15.0746 -15.0685
   -15.0371 -15.0341 -15.0209 -15.0185 -15.0022 -14.9985 -14.9535 -14.9533
   -14.5854 -14.4194 -14.1989 -14.1186 -12.0398 -11.9001 -11.8830 -11.8819
   -11.8683 -11.8316 -11.8155 -11.7885 -11.7624 -11.7376 -11.6459 -11.6129
    -2.0474  -1.6274  -1.5155  -1.4537  -0.3890   0.0126   0.1244   0.1874
     0.3453   0.4755   0.6973   0.7458   0.8637   0.8646   0.9311   1.1736
     2.0376   2.1881   2.4297   2.4961   2.5901   2.7568   2.8422   2.9566
     3.0168   3.0420   3.2012   3.2425   3.3145   3.3551   3.5678   3.5727
     3.6080   3.6848   3.6928   3.8452   3.9027   3.9998   4.0414   4.2618
     4.3128   4.3949   4.4620   4.7377   4.7899   4.8805   5.1890   5.3679
     5.5096   5.5550   5.5968   5.7412   5.8393   5.9577   5.9802   6.1200
     6.1212   6.2320   6.6757   6.6894   6.7040   6.7293   6.8036   6.8838
     6.8869   7.3353   7.4310   7.4408  10.5452  12.5025  12.7358  13.1413
    13.7369  13.8965  14.1795  14.6715  15.1315  15.1783  15.2231  15.2608
    15.4322  15.7582

     occupation numbers 
     1.0000   1.0000   1.0000   1.0000   1.0000   1.0000   1.0000   1.0000
     1.0000   1.0000   1.0000   1.0000   1.0000   1.0000   1.0000   1.0000
     1.0000   1.0000   1.0000   1.0000   1.0000   1.0000   1.0000   1.0000
     1.0000   1.0000   1.0000   1.0000   1.0000   1.0000   1.0000   1.0000
     1.0000   1.0000   1.0000   1.0000   1.0000   1.0000   1.0000   1.0000
     1.0000   1.0000   1.0000   1.0000   1.0000   1.0000   1.0000   1.0000
     1.0000   1.0000   1.0000   1.0000   1.0000   1.0000   1.0000   1.0000
     1.0000   1.0000   1.0000   1.0000   1.0000   1.0000   1.0000   1.0000
     1.0000   1.0000   1.0000   1.0000   1.0000   1.0000   1.0000   1.0000
     1.0000   1.0000   1.0000   1.0000   1.0000   1.0000   1.0000   1.0000
     1.0000   1.0000   1.0000   1.0000   1.0000   1.0000   1.0000   1.0000
     1.0000   1.0000   1.0000   1.0000   1.0000   1.0000   1.0000   1.0000
     1.0000   1.0000   1.0000   1.0000   1.0000   1.0000   1.0000   1.0000
     1.0000   1.0000   1.0000   1.0000   1.0000   1.0000   1.0000   1.0000
     1.0000   1.0000   1.0000   1.0000   0.0000   0.0000   0.0000   0.0000
     0.0000   0.0000   0.0000   0.0000   0.0000   0.0000   0.0000   0.0000
     0.0000   0.0000

          k = 0.0000 0.2311 0.2235 ( 36482 PWs)   bands (ev):

   -80.9555 -80.9554 -80.9551 -80.9550 -47.9346 -47.9345 -47.9339 -47.9338
   -46.6478 -46.6477 -46.6474 -46.6471 -46.4484 -46.4482 -46.4478 -46.4477
   -43.0294 -43.0294 -43.0229 -43.0228 -15.2417 -15.2328 -15.0815 -15.0763
   -15.0408 -15.0383 -15.0292 -15.0258 -14.9969 -14.9955 -14.9536 -14.9535
   -14.5501 -14.3966 -14.2057 -14.1300 -12.0434 -11.9020 -11.8995 -11.8776
   -11.8739 -11.8315 -11.8068 -11.7977 -11.7734 -11.7349 -11.6503 -11.6179
    -2.0272  -1.6284  -1.5218  -1.4515  -0.3263   0.0373   0.1696   0.2359
     0.3505   0.4911   0.7124   0.7598   0.8443   0.8625   0.9013   1.1581
     2.0376   2.1769   2.4199   2.5070   2.5469   2.7500   2.7778   2.9008
     2.9440   3.0688   3.2161   3.2243   3.3011   3.3302   3.5319   3.5638
     3.5941   3.6257   3.7740   3.9013   3.9659   3.9774   4.0662   4.2485
     4.2831   4.4195   4.4919   4.7442   4.7891   4.9060   5.1757   5.3489
     5.5011   5.5371   5.5965   5.7569   5.8458   5.9685   5.9697   6.0682
     6.1030   6.2387   6.6856   6.7264   6.7406   6.7507   6.8019   6.8538
     6.8697   7.3069   7.4285   7.4516  10.6896  12.5466  12.8185  13.1572
    13.7479  13.7934  14.3612  14.4370  15.0014  15.0862  15.1271  15.4081
    15.4154  15.5916

     occupation numbers 
     1.0000   1.0000   1.0000   1.0000   1.0000   1.0000   1.0000   1.0000
     1.0000   1.0000   1.0000   1.0000   1.0000   1.0000   1.0000   1.0000
     1.0000   1.0000   1.0000   1.0000   1.0000   1.0000   1.0000   1.0000
     1.0000   1.0000   1.0000   1.0000   1.0000   1.0000   1.0000   1.0000
     1.0000   1.0000   1.0000   1.0000   1.0000   1.0000   1.0000   1.0000
     1.0000   1.0000   1.0000   1.0000   1.0000   1.0000   1.0000   1.0000
     1.0000   1.0000   1.0000   1.0000   1.0000   1.0000   1.0000   1.0000
     1.0000   1.0000   1.0000   1.0000   1.0000   1.0000   1.0000   1.0000
     1.0000   1.0000   1.0000   1.0000   1.0000   1.0000   1.0000   1.0000
     1.0000   1.0000   1.0000   1.0000   1.0000   1.0000   1.0000   1.0000
     1.0000   1.0000   1.0000   1.0000   1.0000   1.0000   1.0000   1.0000
     1.0000   1.0000   1.0000   1.0000   1.0000   1.0000   1.0000   1.0000
     1.0000   1.0000   1.0000   1.0000   1.0000   1.0000   1.0000   1.0000
     1.0000   1.0000   1.0000   1.0000   1.0000   1.0000   1.0000   1.0000
     1.0000   1.0000   1.0000   1.0000   0.0000   0.0000   0.0000   0.0000
     0.0000   0.0000   0.0000   0.0000   0.0000   0.0000   0.0000   0.0000
     0.0000   0.0000

          k = 0.0000 0.2311 0.4470 ( 36487 PWs)   bands (ev):

   -80.9555 -80.9554 -80.9551 -80.9550 -47.9345 -47.9344 -47.9339 -47.9339
   -46.6478 -46.6477 -46.6474 -46.6471 -46.4484 -46.4481 -46.4478 -46.4477
   -43.0294 -43.0294 -43.0229 -43.0228 -15.2307 -15.2224 -15.1038 -15.0985
   -15.0475 -15.0400 -15.0312 -15.0304 -14.9939 -14.9935 -14.9545 -14.9544
   -14.4669 -14.3446 -14.2226 -14.1599 -12.0497 -11.9382 -11.9272 -11.8766
   -11.8678 -11.8333 -11.8297 -11.7847 -11.7822 -11.7292 -11.6629 -11.6333
    -1.9691  -1.6270  -1.5417  -1.4624  -0.1430   0.1125   0.2817   0.3314
     0.3938   0.5253   0.7500   0.8036   0.8053   0.8330   0.8687   1.1109
     2.0259   2.1614   2.3723   2.4712   2.5263   2.6382   2.6722   2.8315
     2.8711   3.0193   3.1320   3.1789   3.2928   3.3094   3.3922   3.4882
     3.5900   3.5976   3.8461   3.9190   4.0622   4.1116   4.1619   4.2446
     4.2554   4.4649   4.4966   4.7505   4.8260   4.9662   5.1424   5.3008
     5.4873   5.5056   5.5975   5.7677   5.8620   5.9172   5.9364   6.0183
     6.1270   6.2698   6.7134   6.7603   6.7838   6.7857   6.7992   6.8088
     6.8589   7.2486   7.4248   7.4641  11.0750  12.6642  12.9737  13.2421
    13.7248  13.7962  14.0613  14.6140  14.7631  14.8541  15.0220  15.0911
    15.2923  15.4607

     occupation numbers 
     1.0000   1.0000   1.0000   1.0000   1.0000   1.0000   1.0000   1.0000
     1.0000   1.0000   1.0000   1.0000   1.0000   1.0000   1.0000   1.0000
     1.0000   1.0000   1.0000   1.0000   1.0000   1.0000   1.0000   1.0000
     1.0000   1.0000   1.0000   1.0000   1.0000   1.0000   1.0000   1.0000
     1.0000   1.0000   1.0000   1.0000   1.0000   1.0000   1.0000   1.0000
     1.0000   1.0000   1.0000   1.0000   1.0000   1.0000   1.0000   1.0000
     1.0000   1.0000   1.0000   1.0000   1.0000   1.0000   1.0000   1.0000
     1.0000   1.0000   1.0000   1.0000   1.0000   1.0000   1.0000   1.0000
     1.0000   1.0000   1.0000   1.0000   1.0000   1.0000   1.0000   1.0000
     1.0000   1.0000   1.0000   1.0000   1.0000   1.0000   1.0000   1.0000
     1.0000   1.0000   1.0000   1.0000   1.0000   1.0000   1.0000   1.0000
     1.0000   1.0000   1.0000   1.0000   1.0000   1.0000   1.0000   1.0000
     1.0000   1.0000   1.0000   1.0000   1.0000   1.0000   1.0000   1.0000
     1.0000   1.0000   1.0000   1.0000   1.0000   1.0000   1.0000   1.0000
     1.0000   1.0000   1.0000   1.0000   0.0000   0.0000   0.0000   0.0000
     0.0000   0.0000   0.0000   0.0000   0.0000   0.0000   0.0000   0.0000
     0.0000   0.0000

          k = 0.0000 0.2311 0.6705 ( 36532 PWs)   bands (ev):

   -80.9555 -80.9554 -80.9551 -80.9550 -47.9345 -47.9344 -47.9340 -47.9339
   -46.6478 -46.6477 -46.6474 -46.6471 -46.4484 -46.4481 -46.4478 -46.4478
   -43.0294 -43.0294 -43.0229 -43.0228 -15.2277 -15.2202 -15.1169 -15.1143
   -15.0437 -15.0387 -15.0320 -15.0306 -14.9936 -14.9935 -14.9559 -14.9557
   -14.3753 -14.2975 -14.2395 -14.1961 -12.0504 -11.9848 -11.9616 -11.9222
   -11.8471 -11.8378 -11.8261 -11.7899 -11.7563 -11.7223 -11.6808 -11.6581
    -1.8798  -1.6155  -1.5844  -1.5022   0.1217   0.2315   0.3646   0.4000
[...]
     atom    7 type  1   force =     0.06504514   -0.00000552   -0.04517426
     atom    8 type  1   force =    -0.06502321    0.00000924   -0.04522101
     atom    9 type  4   force =     0.06889766   -0.00000813    0.00424238
     atom   10 type  4   force =    -0.06887736    0.00000673    0.00431100
     atom   11 type  4   force =    -0.06889766    0.00000813   -0.00424238
     atom   12 type  4   force =     0.06887736   -0.00000673   -0.00431100
     atom   13 type  3   force =     0.18856212    0.00001606   -1.46052604
     atom   14 type  3   force =    -0.18858974   -0.00001403   -1.46048339
     atom   15 type  3   force =    -0.18856212   -0.00001606    1.46052604
     atom   16 type  3   force =     0.18858974    0.00001403    1.46048339
     atom   17 type  3   force =     1.22214916    0.00001388   -0.70637891
     atom   18 type  3   force =    -1.22213384   -0.00006112   -0.70641786
     atom   19 type  3   force =    -1.22214916   -0.00001388    0.70637891
     atom   20 type  3   force =     1.22213384    0.00006112    0.70641786
     atom   21 type  3   force =    -0.67227529   -1.01695472    0.70144347
     atom   22 type  3   force =     0.67224879    1.01699938    0.70142771
     atom   23 type  3   force =     0.67222973   -1.01691715   -0.70140592
     atom   24 type  3   force =    -0.67222142    1.01697222   -0.70139292
     atom   25 type  3   force =     0.67227529    1.01695472   -0.70144347
     atom   26 type  3   force =    -0.67224879   -1.01699938   -0.70142771
     atom   27 type  3   force =    -0.67222973    1.01691715    0.70140592
     atom   28 type  3   force =     0.67222142   -1.01697222    0.70139292
     The ionic contribution  to forces
     atom    1 type  2   force =     0.00010634   -0.00006277   -0.00004624
     atom    2 type  2   force =     0.00004332   -0.00004433   -0.00005139
     atom    3 type  2   force =    -0.00014059   -0.00014932   -0.00014301
     atom    4 type  2   force =    -0.00004173   -0.00001229    0.00000156
     atom    5 type  1   force =     2.37882683    0.00086934   -0.97876426
     atom    6 type  1   force =    -2.37959637   -0.00080722   -0.97881600
     atom    7 type  1   force =    -2.37880021   -0.00070116    0.97866279
     atom    8 type  1   force =     2.37955297    0.00085121    0.97888294
     atom    9 type  4   force =    -0.13171212    0.00028948    1.74633373
     atom   10 type  4   force =     0.13176349   -0.00018031    1.74672939
     atom   11 type  4   force =     0.13172764   -0.00025217   -1.74598281
     atom   12 type  4   force =    -0.13175582    0.00026892   -1.74669337
     atom   13 type  3   force =    -3.98877269    0.00033681    1.19074584
     atom   14 type  3   force =     3.98875306   -0.00028325    1.19031256
     atom   15 type  3   force =     3.98869349   -0.00019658   -1.19110463
     atom   16 type  3   force =    -3.98875782    0.00033314   -1.19031537
     atom   17 type  3   force =    -1.39772492    0.00020986    3.44458875
     atom   18 type  3   force =     1.39769811   -0.00011322    3.44472101
     atom   19 type  3   force =     1.39776056   -0.00019984   -3.44456831
     atom   20 type  3   force =    -1.39776157    0.00017885   -3.44461116
     atom   21 type  3   force =     0.82451129    1.59239956   -1.45960466
     atom   22 type  3   force =    -0.82474871   -1.59273553   -1.45949124
     atom   23 type  3   force =    -0.82414980    1.59209697    1.45925194
     atom   24 type  3   force =     0.82443587   -1.59263047    1.45901689
     atom   25 type  3   force =    -0.82445848   -1.59230198    1.45963862
     atom   26 type  3   force =     0.82465839    1.59259138    1.45950515
     atom   27 type  3   force =     0.82429247   -1.59229285   -1.45911318
     atom   28 type  3   force =    -0.82440301    1.59253775   -1.45908554
     The local contribution  to forces
     atom    1 type  2   force =    -0.00473691   -0.00216075   -0.00228938
     atom    2 type  2   force =    -0.00467323   -0.00017253   -0.00154116
     atom    3 type  2   force =    -0.00612790   -0.00161545   -0.00221541
     atom    4 type  2   force =    -0.00622849    0.00023897   -0.00154857
     atom    5 type  1   force =    -2.33417723   -0.00078634    0.93071148
     atom    6 type  1   force =     2.30970401    0.00083400    0.93049574
     atom    7 type  1   force =     2.30900233    0.00078634   -0.93777067
     atom    8 type  1   force =    -2.33504737   -0.00083399   -0.93814808
     atom    9 type  4   force =     0.11623508   -0.00026882   -1.72574096
     atom   10 type  4   force =    -0.11623176    0.00021586   -1.72621630
     atom   11 type  4   force =    -0.11620653    0.00026884    1.72573194
     atom   12 type  4   force =     0.11626290   -0.00021585    1.72629174
     atom   13 type  3   force =     3.79499031   -0.00054236    0.25399313
     atom   14 type  3   force =    -3.80040136    0.00006155    0.25451597
     atom   15 type  3   force =    -3.80028892    0.00002240   -0.25579999
     atom   16 type  3   force =     3.79486131   -0.00058150   -0.25628720
     atom   17 type  3   force =     0.11204881   -0.00021940   -2.72052932
     atom   18 type  3   force =    -0.11676071    0.00020358   -2.72130507
     atom   19 type  3   force =    -0.11666542    0.00021941    2.71961501
     atom   20 type  3   force =     0.11196388   -0.00020355    2.71893542
     atom   21 type  3   force =    -0.14648231   -0.57541537    0.76203661
     atom   22 type  3   force =     0.14047875    0.57576585    0.76207508
     atom   23 type  3   force =     0.14037002   -0.57593045   -0.76340559
     atom   24 type  3   force =    -0.14641948    0.57550192   -0.76308176
     atom   25 type  3   force =     0.14060735    0.57583001   -0.76378959
     atom   26 type  3   force =    -0.14706867   -0.57596699   -0.76351934
     atom   27 type  3   force =    -0.14627163    0.57508258    0.76161749
     atom   28 type  3   force =     0.14060904   -0.57612409    0.76168480
     The core correction contribution to forces
     atom    1 type  2   force =     0.00000000    0.00000000    0.00000000
     atom    2 type  2   force =     0.00000000    0.00000000    0.00000000
     atom    3 type  2   force =     0.00000000    0.00000000    0.00000000
     atom    4 type  2   force =     0.00000000    0.00000000    0.00000000
     atom    5 type  1   force =     0.00368545   -0.00000678   -0.00254597
     atom    6 type  1   force =    -0.00277300    0.00000684   -0.00256201
     atom    7 type  1   force =    -0.00277064    0.00000678    0.00282010
     atom    8 type  1   force =     0.00367977   -0.00000684    0.00280774
     atom    9 type  4   force =    -0.00639501    0.00000041   -0.00260430
     atom   10 type  4   force =     0.00641217   -0.00000043   -0.00260874
     atom   11 type  4   force =     0.00641405   -0.00000041    0.00260521
     atom   12 type  4   force =    -0.00639338    0.00000043    0.00261337
     atom   13 type  3   force =    -0.00228792   -0.00000025    0.01258847
     atom   14 type  3   force =     0.00228387   -0.00000004    0.01259027
     atom   15 type  3   force =     0.00228338   -0.00000002   -0.01259285
     atom   16 type  3   force =    -0.00228798   -0.00000023   -0.01259217
     atom   17 type  3   force =    -0.00912565   -0.00000009    0.00635872
     atom   18 type  3   force =     0.00911770    0.00000056    0.00635782
     atom   19 type  3   force =     0.00911811    0.00000009   -0.00635875
     atom   20 type  3   force =    -0.00912578   -0.00000056   -0.00636039
     atom   21 type  3   force =     0.00568807    0.00854742   -0.00635813
     atom   22 type  3   force =    -0.00569162   -0.00854945   -0.00635949
     atom   23 type  3   force =    -0.00569080    0.00854818    0.00635775
     atom   24 type  3   force =     0.00568687   -0.00854746    0.00635598
     atom   25 type  3   force =    -0.00569137   -0.00854866    0.00635816
     atom   26 type  3   force =     0.00568679    0.00854681    0.00635617
     atom   27 type  3   force =     0.00568763   -0.00854760   -0.00635781
     atom   28 type  3   force =    -0.00569091    0.00854855   -0.00635892
     The Hubbard contrib.    to forces
     atom    1 type  2   force =     0.00000000    0.00000000    0.00000000
     atom    2 type  2   force =     0.00000000    0.00000000    0.00000000
     atom    3 type  2   force =     0.00000000    0.00000000    0.00000000
     atom    4 type  2   force =     0.00000000    0.00000000    0.00000000
     atom    5 type  1   force =     0.00000000    0.00000000    0.00000000
     atom    6 type  1   force =     0.00000000    0.00000000    0.00000000
     atom    7 type  1   force =     0.00000000    0.00000000    0.00000000
     atom    8 type  1   force =     0.00000000    0.00000000    0.00000000
     atom    9 type  4   force =     0.00000000    0.00000000    0.00000000
     atom   10 type  4   force =     0.00000000    0.00000000    0.00000000
     atom   11 type  4   force =     0.00000000    0.00000000    0.00000000
     atom   12 type  4   force =     0.00000000    0.00000000    0.00000000
     atom   13 type  3   force =     0.00000000    0.00000000    0.00000000
     atom   14 type  3   force =     0.00000000    0.00000000    0.00000000
     atom   15 type  3   force =     0.00000000    0.00000000    0.00000000
     atom   16 type  3   force =     0.00000000    0.00000000    0.00000000
     atom   17 type  3   force =     0.00000000    0.00000000    0.00000000
     atom   18 type  3   force =     0.00000000    0.00000000    0.00000000
     atom   19 type  3   force =     0.00000000    0.00000000    0.00000000
     atom   20 type  3   force =     0.00000000    0.00000000    0.00000000
     atom   21 type  3   force =     0.00000000    0.00000000    0.00000000
     atom   22 type  3   force =     0.00000000    0.00000000    0.00000000
     atom   23 type  3   force =     0.00000000    0.00000000    0.00000000
     atom   24 type  3   force =     0.00000000    0.00000000    0.00000000
     atom   25 type  3   force =     0.00000000    0.00000000    0.00000000
     atom   26 type  3   force =     0.00000000    0.00000000    0.00000000
     atom   27 type  3   force =     0.00000000    0.00000000    0.00000000
     atom   28 type  3   force =     0.00000000    0.00000000    0.00000000
     The SCF correction term to forces
     atom    1 type  2   force =    -0.00000000   -0.00000000   -0.00000000
     atom    2 type  2   force =    -0.00000000   -0.00000000   -0.00000000
     atom    3 type  2   force =    -0.00000000   -0.00000000   -0.00000000
     atom    4 type  2   force =    -0.00000000    0.00000000   -0.00000000
     atom    5 type  1   force =    -0.00000306   -0.00000000   -0.00000140
     atom    6 type  1   force =    -0.00000083    0.00000004   -0.00000181
     atom    7 type  1   force =     0.00000304    0.00000000    0.00000140
     atom    8 type  1   force =     0.00000081   -0.00000004    0.00000181
     atom    9 type  4   force =    -0.00000106    0.00000000    0.00000048
     atom   10 type  4   force =    -0.00000134   -0.00000001   -0.00000016
     atom   11 type  4   force =     0.00000106   -0.00000000   -0.00000048
     atom   12 type  4   force =     0.00000134    0.00000001    0.00000016
     atom   13 type  3   force =    -0.00000132   -0.00000007   -0.00000166
     atom   14 type  3   force =    -0.00000251    0.00000004    0.00000105
     atom   15 type  3   force =     0.00000132    0.00000007    0.00000166
     atom   16 type  3   force =     0.00000251   -0.00000004   -0.00000105
     atom   17 type  3   force =     0.00000153    0.00000003    0.00000126
     atom   18 type  3   force =     0.00000226   -0.00000000   -0.00000151
     atom   19 type  3   force =    -0.00000153   -0.00000003   -0.00000126
     atom   20 type  3   force =    -0.00000226    0.00000000    0.00000151
     atom   21 type  3   force =    -0.00000062    0.00000313    0.00000181
     atom   22 type  3   force =    -0.00000144    0.00000162   -0.00000154
     atom   23 type  3   force =     0.00000054    0.00000294   -0.00000161
     atom   24 type  3   force =     0.00000158    0.00000183    0.00000169
     atom   25 type  3   force =     0.00000062   -0.00000313   -0.00000181
     atom   26 type  3   force =     0.00000144   -0.00000162    0.00000154
     atom   27 type  3   force =    -0.00000054   -0.00000294    0.00000161
     atom   28 type  3   force =    -0.00000158   -0.00000183   -0.00000169

     Total force =     0.188205     Total SCF correction =     0.000013


     Computing stress (Cartesian axis) and pressure


     negative rho (up, down):  0.000E+00 5.429E-04
          total   stress  (Ry/bohr**3)                   (kbar)     P=       54.50
   0.00071524   0.00000000   0.00000004          105.22        0.00        0.01
   0.00000000   0.00021579   0.00000000            0.00       31.74        0.00
   0.00000004   0.00000000   0.00018051            0.01        0.00       26.55

     kinetic stress (kbar)  32377.89     -0.01      0.01
                               -0.01  32133.31      0.00
                                0.01      0.00  32175.81

     local   stress (kbar)  -4458.37     -0.13     -0.22
                               -0.13  -5409.27     -0.03
                               -0.22     -0.03  -1686.16

     nonloc. stress (kbar)  -9645.45     -0.00      0.00
                               -0.00  -9771.04      0.00
                                0.00      0.00  -9612.81

     hartree stress (kbar)  14820.25      0.03      0.07
                                0.03  15284.81      0.01
                                0.07      0.01  13484.97

     exc-cor stress (kbar)  -3648.89      0.00      0.00
                                0.00  -3656.48      0.00
                                0.00      0.00  -3648.32

     corecor stress (kbar)  -3122.97      0.00     -0.00
                                0.00  -3100.91     -0.00
                               -0.00     -0.00  -3123.51

     ewald   stress (kbar) -26217.24      0.11      0.14
                                0.11 -25448.68      0.02
                                0.14      0.02 -27563.42

     hubbard stress (kbar)      0.00      0.00      0.00
                                0.00      0.00      0.00
                                0.00      0.00      0.00

     DFT-D   stress (kbar)      0.00      0.00      0.00
                                0.00      0.00      0.00
                                0.00      0.00      0.00

     XDM     stress (kbar)      0.00      0.00      0.00
                                0.00      0.00      0.00
                                0.00      0.00      0.00

     dft-nl  stress (kbar)      0.00      0.00      0.00
                                0.00      0.00      0.00
                                0.00      0.00      0.00

     TS-vdW  stress (kbar)      0.00      0.00      0.00
                                0.00      0.00      0.00
                                0.00      0.00      0.00



     init_run     :     96.69s CPU     98.75s WALL (       1 calls)
     electrons    :   8692.69s CPU   8823.69s WALL (       1 calls)
     forces       :     47.84s CPU     48.72s WALL (       1 calls)
     stress       :    590.80s CPU    593.36s WALL (       1 calls)

     Called by init_run:
     wfcinit      :     86.11s CPU     87.83s WALL (       1 calls)
     wfcinit:atom :      1.54s CPU      1.56s WALL (     316 calls)
     wfcinit:wfcr :     77.26s CPU     78.89s WALL (     316 calls)
     potinit      :      3.84s CPU      3.92s WALL (       1 calls)
     hinit0       :      4.80s CPU      4.86s WALL (       1 calls)

     Called by electrons:
     c_bands      :   7527.41s CPU   7627.07s WALL (      37 calls)
     sum_band     :   1071.95s CPU   1098.68s WALL (      37 calls)
     v_of_rho     :     19.98s CPU     20.68s WALL (      38 calls)
     v_h          :      0.91s CPU      0.95s WALL (      38 calls)
     v_xc         :     20.08s CPU     20.77s WALL (      40 calls)
     newd         :     50.86s CPU     54.57s WALL (      38 calls)
     PAW_pot      :     18.52s CPU     18.60s WALL (      38 calls)
     mix_rho      :      4.15s CPU      4.34s WALL (      37 calls)

     Called by c_bands:
     init_us_2    :    162.75s CPU    165.48s WALL (   24332 calls)
     cegterg      :   7208.01s CPU   7304.60s WALL (   11692 calls)

     Called by sum_band:
     sum_band:wei :      0.34s CPU      0.34s WALL (      37 calls)
     sum_band:loo :    974.58s CPU    991.37s WALL (      37 calls)
     sum_band:buf :     42.08s CPU     42.51s WALL (   11692 calls)
     sum_band:ini :     80.05s CPU     81.33s WALL (   11692 calls)
     sum_band:cal :    257.96s CPU    264.32s WALL (   11692 calls)
     sum_band:bec :      2.04s CPU      2.09s WALL (   11692 calls)
     addusdens    :     93.73s CPU    103.39s WALL (      37 calls)
     addusd:skk   :      0.56s CPU      0.58s WALL (     111 calls)
     addusd:dgemm :     21.81s CPU     30.81s WALL (     222 calls)
     addusd:qvan2 :     70.40s CPU     70.88s WALL (     222 calls)

     Called by *egterg:
     cdiaghg      :    423.38s CPU    431.02s WALL (   40535 calls)
     cegterg:over :    599.98s CPU    610.28s WALL (   28843 calls)
     cegterg:upda :    419.42s CPU    423.11s WALL (   28843 calls)
     cegterg:last :    822.44s CPU    829.50s WALL (   20601 calls)
     h_psi        :   3820.34s CPU   3878.32s WALL (   40851 calls)
     s_psi        :    715.44s CPU    720.78s WALL (   40851 calls)
     g_psi        :     37.76s CPU     38.31s WALL (   28843 calls)

     Called by h_psi:
     h_psi:calbec :    643.73s CPU    658.44s WALL (   40851 calls)
     vloc_psi     :   2341.15s CPU   2376.47s WALL (   40851 calls)
     add_vuspsi   :    744.37s CPU    751.16s WALL (   40851 calls)

     General routines
     calbec       :    936.86s CPU    958.83s WALL (   54123 calls)
     fft          :     14.73s CPU     15.77s WALL (     988 calls)
     ffts         :      0.17s CPU      0.19s WALL (     150 calls)
     fftw         :   2412.55s CPU   2448.41s WALL ( 8582720 calls)
     interpolate  :      1.47s CPU      1.58s WALL (      76 calls)

     Parallel routines
     fft_scatt_xy :    354.12s CPU    359.42s WALL ( 8583858 calls)
     fft_scatt_yz :    626.37s CPU    637.98s WALL ( 8583858 calls)

     PAW routines
     PAW_pot      :     18.52s CPU     18.60s WALL (      38 calls)
     PAW_symme    :      0.03s CPU      0.03s WALL (      75 calls)

     PWSCF        :      2h37m CPU      2h39m WALL


   This run was terminated on:   4:39:40   5Mar2023            

=------------------------------------------------------------------------------=
   JOB DONE.
=------------------------------------------------------------------------------=
Note: The following floating-point exceptions are signalling: IEEE_UNDERFLOW_FLAG IEEE_DENORMAL
Note: The following floating-point exceptions are signalling: IEEE_DENORMAL
Note: The following floating-point exceptions are signalling: IEEE_DENORMAL
Note: The following floating-point exceptions are signalling: IEEE_DENORMAL
Note: The following floating-point exceptions are signalling: IEEE_DENORMAL
Note: The following floating-point exceptions are signalling: IEEE_DENORMAL
Note: The following floating-point exceptions are signalling: IEEE_DENORMAL
Note: The following floating-point exceptions are signalling: IEEE_DENORMAL
Note: The following floating-point exceptions are signalling: IEEE_INVALID_FLAG IEEE_DENORMAL
Note: The following floating-point exceptions are signalling: IEEE_DENORMAL
Note: The following floating-point exceptions are signalling: IEEE_DENORMAL
Note: The following floating-point exceptions are signalling: IEEE_DENORMAL
Note: The following floating-point exceptions are signalling: IEEE_DENORMAL
Note: The following floating-point exceptions are signalling: IEEE_DENORMAL
