
     Program PWSCF v.6.7MaX starts on  5Mar2023 at 20:41: 9 

     This program is part of the open-source Quantum ESPRESSO suite
     for quantum simulation of materials; please cite
         "P. Giannozzi et al., J. Phys.:Condens. Matter 21 395502 (2009);
         "P. Giannozzi et al., J. Phys.:Condens. Matter 29 465901 (2017);
          URL http://www.quantum-espresso.org", 
     in publications or presentations arising from this work. More details at
     http://www.quantum-espresso.org/quote

     Parallel version (MPI), running on    16 processors

     MPI processes distributed on     1 nodes
     R & G space division:  proc/nbgrp/npool/nimage =      16
     Reading input from scale_2dab-02.in

     Current dimensions of program PWSCF are:
     Max number of different atomic species (ntypx) = 10
     Max number of k-points (npk) =  40000
     Max angular momentum in pseudopotentials (lmaxx) =  3
     Message from routine read_pp_mesh:
     mesh size missing, using the one in header
     file Fe.pbe-spn-kjpaw_psl.0.2.1.UPF: wavefunction(s)  3D renormalized
     file O.pbe-n-kjpaw_psl.0.1.UPF: wavefunction(s)  2P renormalized

     Subspace diagonalization in iterative solution of the eigenvalue problem:
     a serial algorithm will be used

     Message from routine setup:
     using ibrav=0 with symmetry is DISCOURAGED, use correct ibrav instead

     Parallelization info
     --------------------
     sticks:   dense  smooth     PW     G-vecs:    dense   smooth      PW
     Min        1217     451    122                81009    18252    2562
     Max        1218     452    124                81012    18254    2563
     Sum       19487    7231   1963              1296171   292039   41001



     bravais-lattice index     =            0
     lattice parameter (alat)  =      19.4904  a.u.
     unit-cell volume          =    2162.7107 (a.u.)^3
     number of atoms/cell      =           28
     number of atomic types    =            4
     number of electrons       =       216.00
     number of Kohn-Sham states=          130
     kinetic-energy cutoff     =     100.0000  Ry
     charge density cutoff     =    1080.0000  Ry
     scf convergence threshold =      2.0E-10
     mixing beta               =       0.4000
     number of iterations used =            8  plain     mixing
     Exchange-correlation= PBE
                           (   1   4   3   4   0   0   0)

     celldm(1)=  19.490424  celldm(2)=   0.000000  celldm(3)=   0.000000
     celldm(4)=   0.000000  celldm(5)=   0.000000  celldm(6)=   0.000000

     crystal axes: (cart. coord. in units of alat)
               a(1) = (   1.000000   0.000000   0.000000 )  
               a(2) = (  -0.000003   0.597653   0.000000 )  
               a(3) = (  -0.000001  -0.000000   0.488749 )  

     reciprocal axes: (cart. coord. in units 2 pi/alat)
               b(1) = (  1.000000  0.000005  0.000002 )  
               b(2) = ( -0.000000  1.673213  0.000000 )  
               b(3) = (  0.000000 -0.000000  2.046041 )  


     PseudoPot. # 1 for Fe read from file:
     /opt/QEpot/SSSP_precision_pseudos/Fe.pbe-spn-kjpaw_psl.0.2.1.UPF
     MD5 check sum: e86618425769142926afa95317d90200
     Pseudo is Projector augmented-wave + core cor, Zval = 16.0
     Generated using "atomic" code by A. Dal Corso  v.5.0.99 svn rev. 10869
     Shape of augmentation charge: PSQ
     Using radial grid of 1191 points,  6 beta functions with: 
                l(1) =   0
                l(2) =   0
                l(3) =   1
                l(4) =   1
                l(5) =   2
                l(6) =   2
     Q(r) pseudized with 0 coefficients 


     PseudoPot. # 2 for Na read from file:
     /opt/QEpot/SSSP_precision_pseudos/Na_ONCV_PBE-1.0.oncvpsp.upf
     MD5 check sum: 24a298df0a6742ae313db96548fdb2a4
     Pseudo is Norm-conserving, Zval =  9.0
     Generated using ONCVPSP code by D. R. Hamann
     Using radial grid of 1992 points,  4 beta functions with: 
                l(1) =   0
                l(2) =   0
                l(3) =   1
                l(4) =   1

     PseudoPot. # 3 for O  read from file:
     /opt/QEpot/SSSP_precision_pseudos/O.pbe-n-kjpaw_psl.0.1.UPF
     MD5 check sum: 0234752ac141de4415c5fc33072bef88
     Pseudo is Projector augmented-wave + core cor, Zval =  6.0
     Generated using "atomic" code by A. Dal Corso  v.5.0.99 svn rev. 10869
     Shape of augmentation charge: BESSEL
     Using radial grid of 1095 points,  4 beta functions with: 
                l(1) =   0
                l(2) =   0
                l(3) =   1
                l(4) =   1
     Q(r) pseudized with 0 coefficients 


     PseudoPot. # 4 for P  read from file:
     /opt/QEpot/SSSP_precision_pseudos/P.pbe-n-rrkjus_psl.1.0.0.UPF
     MD5 check sum: 8b930f418f0a4573dca56cd030ffe088
     Pseudo is Ultrasoft + core correction, Zval =  5.0
     Generated using "atomic" code by A. Dal Corso  v.5.1
     Using radial grid of 1147 points,  6 beta functions with: 
                l(1) =   0
                l(2) =   0
                l(3) =   1
                l(4) =   1
                l(5) =   2
                l(6) =   2
     Q(r) pseudized with 0 coefficients 


     atomic species   valence    mass     pseudopotential
        Fe            16.00    55.84500     Fe( 1.00)
        Na             9.00    22.98977     Na( 1.00)
        O              6.00    15.99940     O ( 1.00)
        P              5.00    30.97376     P ( 1.00)

     Starting magnetic structure 
     atomic species   magnetization
        Fe           0.312
        Na           0.000
        O            0.000
        P            0.000

      2 Sym. Ops., with inversion, found


                                    s                        frac. trans.

      isym =  1     identity                                     

 cryst.   s( 1) = (     1          0          0      )
                  (     0          1          0      )
                  (     0          0          1      )

 cart.    s( 1) = (  1.0000000  0.0000000  0.0000000 )
                  (  0.0000000  1.0000000  0.0000000 )
                  (  0.0000000  0.0000000  1.0000000 )


      isym =  2     inversion                                    

 cryst.   s( 2) = (    -1          0          0      )
                  (     0         -1          0      )
                  (     0          0         -1      )

 cart.    s( 2) = ( -1.0000000 -0.0000000 -0.0000000 )
                  (  0.0000000 -1.0000000  0.0000000 )
                  (  0.0000000  0.0000000 -1.0000000 )


   Cartesian axes

     site n.     atom                  positions (alat units)
         1           Na  tau(   1) = (   0.0000030   0.0000012   0.0000015  )
         2           Na  tau(   2) = (   0.5000026  -0.0000000   0.2443754  )
         3           Na  tau(   3) = (   0.0000024   0.2988276   0.0000015  )
         4           Na  tau(   4) = (   0.5000020   0.2988264   0.2443754  )
         5           Fe  tau(   5) = (   0.2874878   0.4482365   0.4794161  )
         6           Fe  tau(   6) = (   0.2125158   0.1494174   0.2350422  )
         7           Fe  tau(   7) = (   0.7125152   0.1494162   0.0093346  )
         8           Fe  tau(   8) = (   0.7874872   0.4482354   0.2537085  )
         9           P   tau(   9) = (   0.1088453   0.4482419   0.2167865  )
        10           P   tau(  10) = (   0.3911564   0.1494120   0.4611589  )
        11           P   tau(  11) = (   0.8911577   0.1494108   0.2719623  )
        12           P   tau(  12) = (   0.6088466   0.4482407   0.0275918  )
        13           O   tau(  13) = (   0.1132500   0.4482401   0.3666691  )
        14           O   tau(  14) = (   0.3867530   0.1494144   0.1222957  )
        15           O   tau(  15) = (   0.8867530   0.1494132   0.1220826  )
        16           O   tau(  16) = (   0.6132500   0.4482389   0.3664550  )
        17           O   tau(  17) = (   0.4686005   0.4482389   0.0783205  )
        18           O   tau(  18) = (   0.0314027   0.1494150   0.3226959  )
        19           O   tau(  19) = (   0.5314025   0.1494138   0.4104297  )
        20           O   tau(  20) = (   0.9686004   0.4482377   0.1660553  )
        21           O   tau(  21) = (   0.1792128   0.5664026   0.1544949  )
        22           O   tau(  22) = (   0.3207911   0.0312519   0.3988693  )
        23           O   tau(  23) = (   0.8207870   0.2675703   0.3342577  )
        24           O   tau(  24) = (   0.6792151   0.3300824   0.0898833  )
        25           O   tau(  25) = (   0.8207903   0.0312501   0.3342558  )
        26           O   tau(  26) = (   0.6792129   0.5664015   0.0898814  )
        27           O   tau(  27) = (   0.1792160   0.3300830   0.1544930  )
        28           O   tau(  28) = (   0.3207879   0.2675709   0.3988674  )

   Crystallographic axes

     site n.     atom                  positions (cryst. coord.)
         1           Na  tau(   1) = (  0.0000030  0.0000020  0.0000030  )
         2           Na  tau(   2) = (  0.5000030  0.0000000  0.5000020  )
         3           Na  tau(   3) = (  0.0000040  0.5000020  0.0000030  )
         4           Na  tau(   4) = (  0.5000040  0.5000000  0.5000020  )
         5           Fe  tau(   5) = (  0.2874910  0.7499950  0.9809050  )
         6           Fe  tau(   6) = (  0.2125170  0.2500070  0.4809060  )
         7           Fe  tau(   7) = (  0.7125160  0.2500050  0.0190990  )
         8           Fe  tau(   8) = (  0.7874900  0.7499930  0.5190980  )
         9           P   tau(   9) = (  0.1088480  0.7500040  0.4435540  )
        10           P   tau(  10) = (  0.3911580  0.2499980  0.9435500  )
        11           P   tau(  11) = (  0.8911590  0.2499960  0.5564460  )
        12           P   tau(  12) = (  0.6088490  0.7500020  0.0564540  )
        13           O   tau(  13) = (  0.1132530  0.7500010  0.7502200  )
        14           O   tau(  14) = (  0.3867540  0.2500020  0.2502220  )
        15           O   tau(  15) = (  0.8867540  0.2500000  0.2497860  )
        16           O   tau(  16) = (  0.6132530  0.7499990  0.7497820  )
        17           O   tau(  17) = (  0.4686030  0.7499990  0.1602470  )
        18           O   tau(  18) = (  0.0314040  0.2500030  0.6602490  )
        19           O   tau(  19) = (  0.5314040  0.2500010  0.8397560  )
        20           O   tau(  20) = (  0.9686030  0.7499970  0.3397560  )
        21           O   tau(  21) = (  0.1792160  0.9477120  0.3161030  )
        22           O   tau(  22) = (  0.3207920  0.0522910  0.8161030  )
        23           O   tau(  23) = (  0.8207890  0.4477020  0.6839050  )
        24           O   tau(  24) = (  0.6792170  0.5522980  0.1839050  )
        25           O   tau(  25) = (  0.8207910  0.0522880  0.6839010  )
        26           O   tau(  26) = (  0.6792160  0.9477100  0.1839010  )
        27           O   tau(  27) = (  0.1792180  0.5522990  0.3160990  )
        28           O   tau(  28) = (  0.3207900  0.4477030  0.8160990  )

     number of k points=   158  Marzari-Vanderbilt smearing, width (Ry)=  0.0073
                       cart. coord. in units 2pi/alat
        k(    1) = (   0.0000000   0.0000000   0.0000000), wk =   0.0031746
        k(    2) = (   0.0000000   0.0000000   0.2273379), wk =   0.0063492
        k(    3) = (   0.0000000   0.0000000   0.4546758), wk =   0.0063492
        k(    4) = (   0.0000000   0.0000000   0.6820137), wk =   0.0063492
        k(    5) = (   0.0000000   0.0000000   0.9093516), wk =   0.0063492
        k(    6) = (   0.0000000   0.2390304   0.0000000), wk =   0.0063492
        k(    7) = (   0.0000000   0.2390304   0.2273379), wk =   0.0063492
        k(    8) = (   0.0000000   0.2390304   0.4546758), wk =   0.0063492
        k(    9) = (   0.0000000   0.2390304   0.6820137), wk =   0.0063492
        k(   10) = (   0.0000000   0.2390304   0.9093516), wk =   0.0063492
        k(   11) = (   0.0000000   0.2390304  -0.9093516), wk =   0.0063492
        k(   12) = (   0.0000000   0.2390304  -0.6820137), wk =   0.0063492
        k(   13) = (   0.0000000   0.2390304  -0.4546758), wk =   0.0063492
        k(   14) = (   0.0000000   0.2390304  -0.2273379), wk =   0.0063492
        k(   15) = (   0.0000000   0.4780607   0.0000000), wk =   0.0063492
        k(   16) = (   0.0000000   0.4780607   0.2273379), wk =   0.0063492
        k(   17) = (   0.0000000   0.4780607   0.4546758), wk =   0.0063492
        k(   18) = (   0.0000000   0.4780607   0.6820137), wk =   0.0063492
        k(   19) = (   0.0000000   0.4780607   0.9093516), wk =   0.0063492
        k(   20) = (   0.0000000   0.4780607  -0.9093516), wk =   0.0063492
        k(   21) = (   0.0000000   0.4780607  -0.6820137), wk =   0.0063492
        k(   22) = (   0.0000000   0.4780607  -0.4546758), wk =   0.0063492
        k(   23) = (   0.0000000   0.4780607  -0.2273379), wk =   0.0063492
        k(   24) = (   0.0000000   0.7170911   0.0000000), wk =   0.0063492
        k(   25) = (   0.0000000   0.7170911   0.2273379), wk =   0.0063492
        k(   26) = (   0.0000000   0.7170911   0.4546758), wk =   0.0063492
        k(   27) = (   0.0000000   0.7170911   0.6820137), wk =   0.0063492
        k(   28) = (   0.0000000   0.7170911   0.9093516), wk =   0.0063492
        k(   29) = (   0.0000000   0.7170911  -0.9093516), wk =   0.0063492
        k(   30) = (   0.0000000   0.7170911  -0.6820137), wk =   0.0063492
        k(   31) = (   0.0000000   0.7170911  -0.4546758), wk =   0.0063492
        k(   32) = (   0.0000000   0.7170911  -0.2273379), wk =   0.0063492
        k(   33) = (   0.2000000   0.0000010   0.0000003), wk =   0.0063492
        k(   34) = (   0.2000000   0.0000010   0.2273382), wk =   0.0063492
        k(   35) = (   0.2000000   0.0000010   0.4546761), wk =   0.0063492
        k(   36) = (   0.2000000   0.0000010   0.6820140), wk =   0.0063492
        k(   37) = (   0.2000000   0.0000010   0.9093519), wk =   0.0063492
        k(   38) = (   0.2000000   0.0000010  -0.9093512), wk =   0.0063492
        k(   39) = (   0.2000000   0.0000010  -0.6820133), wk =   0.0063492
        k(   40) = (   0.2000000   0.0000010  -0.4546754), wk =   0.0063492
        k(   41) = (   0.2000000   0.0000010  -0.2273375), wk =   0.0063492
        k(   42) = (   0.2000000   0.2390314   0.0000003), wk =   0.0063492
        k(   43) = (   0.2000000   0.2390314   0.2273382), wk =   0.0063492
        k(   44) = (   0.2000000   0.2390314   0.4546761), wk =   0.0063492
        k(   45) = (   0.2000000   0.2390314   0.6820140), wk =   0.0063492
        k(   46) = (   0.2000000   0.2390314   0.9093519), wk =   0.0063492
        k(   47) = (   0.2000000   0.2390314  -0.9093512), wk =   0.0063492
        k(   48) = (   0.2000000   0.2390314  -0.6820133), wk =   0.0063492
        k(   49) = (   0.2000000   0.2390314  -0.4546754), wk =   0.0063492
        k(   50) = (   0.2000000   0.2390314  -0.2273375), wk =   0.0063492
        k(   51) = (   0.2000000   0.4780618   0.0000003), wk =   0.0063492
        k(   52) = (   0.2000000   0.4780618   0.2273382), wk =   0.0063492
        k(   53) = (   0.2000000   0.4780618   0.4546761), wk =   0.0063492
        k(   54) = (   0.2000000   0.4780618   0.6820140), wk =   0.0063492
        k(   55) = (   0.2000000   0.4780618   0.9093519), wk =   0.0063492
        k(   56) = (   0.2000000   0.4780618  -0.9093512), wk =   0.0063492
        k(   57) = (   0.2000000   0.4780618  -0.6820133), wk =   0.0063492
        k(   58) = (   0.2000000   0.4780618  -0.4546754), wk =   0.0063492
        k(   59) = (   0.2000000   0.4780618  -0.2273375), wk =   0.0063492
        k(   60) = (   0.2000000   0.7170921   0.0000003), wk =   0.0063492
        k(   61) = (   0.2000000   0.7170921   0.2273382), wk =   0.0063492
        k(   62) = (   0.2000000   0.7170921   0.4546761), wk =   0.0063492
        k(   63) = (   0.2000000   0.7170921   0.6820140), wk =   0.0063492
        k(   64) = (   0.2000000   0.7170921   0.9093519), wk =   0.0063492
        k(   65) = (   0.2000000   0.7170921  -0.9093512), wk =   0.0063492
        k(   66) = (   0.2000000   0.7170921  -0.6820133), wk =   0.0063492
        k(   67) = (   0.2000000   0.7170921  -0.4546754), wk =   0.0063492
        k(   68) = (   0.2000000   0.7170921  -0.2273375), wk =   0.0063492
        k(   69) = (   0.2000000  -0.7170900   0.0000003), wk =   0.0063492
        k(   70) = (   0.2000000  -0.7170900   0.2273382), wk =   0.0063492
        k(   71) = (   0.2000000  -0.7170900   0.4546761), wk =   0.0063492
        k(   72) = (   0.2000000  -0.7170900   0.6820140), wk =   0.0063492
        k(   73) = (   0.2000000  -0.7170900   0.9093519), wk =   0.0063492
        k(   74) = (   0.2000000  -0.7170900  -0.9093512), wk =   0.0063492
        k(   75) = (   0.2000000  -0.7170900  -0.6820133), wk =   0.0063492
        k(   76) = (   0.2000000  -0.7170900  -0.4546754), wk =   0.0063492
        k(   77) = (   0.2000000  -0.7170900  -0.2273375), wk =   0.0063492
        k(   78) = (   0.2000000  -0.4780597   0.0000003), wk =   0.0063492
        k(   79) = (   0.2000000  -0.4780597   0.2273382), wk =   0.0063492
        k(   80) = (   0.2000000  -0.4780597   0.4546761), wk =   0.0063492
        k(   81) = (   0.2000000  -0.4780597   0.6820140), wk =   0.0063492
        k(   82) = (   0.2000000  -0.4780597   0.9093519), wk =   0.0063492
        k(   83) = (   0.2000000  -0.4780597  -0.9093512), wk =   0.0063492
        k(   84) = (   0.2000000  -0.4780597  -0.6820133), wk =   0.0063492
        k(   85) = (   0.2000000  -0.4780597  -0.4546754), wk =   0.0063492
        k(   86) = (   0.2000000  -0.4780597  -0.2273375), wk =   0.0063492
        k(   87) = (   0.2000000  -0.2390293   0.0000003), wk =   0.0063492
        k(   88) = (   0.2000000  -0.2390293   0.2273382), wk =   0.0063492
        k(   89) = (   0.2000000  -0.2390293   0.4546761), wk =   0.0063492
        k(   90) = (   0.2000000  -0.2390293   0.6820140), wk =   0.0063492
        k(   91) = (   0.2000000  -0.2390293   0.9093519), wk =   0.0063492
        k(   92) = (   0.2000000  -0.2390293  -0.9093512), wk =   0.0063492
        k(   93) = (   0.2000000  -0.2390293  -0.6820133), wk =   0.0063492
        k(   94) = (   0.2000000  -0.2390293  -0.4546754), wk =   0.0063492
        k(   95) = (   0.2000000  -0.2390293  -0.2273375), wk =   0.0063492
        k(   96) = (   0.4000000   0.0000021   0.0000007), wk =   0.0063492
        k(   97) = (   0.4000000   0.0000021   0.2273386), wk =   0.0063492
        k(   98) = (   0.4000000   0.0000021   0.4546765), wk =   0.0063492
        k(   99) = (   0.4000000   0.0000021   0.6820144), wk =   0.0063492
        k(  100) = (   0.4000000   0.0000021   0.9093523), wk =   0.0063492
        k(  101) = (   0.4000000   0.0000021  -0.9093509), wk =   0.0063492
        k(  102) = (   0.4000000   0.0000021  -0.6820130), wk =   0.0063492
        k(  103) = (   0.4000000   0.0000021  -0.4546751), wk =   0.0063492
        k(  104) = (   0.4000000   0.0000021  -0.2273372), wk =   0.0063492
        k(  105) = (   0.4000000   0.2390325   0.0000007), wk =   0.0063492
        k(  106) = (   0.4000000   0.2390325   0.2273386), wk =   0.0063492
        k(  107) = (   0.4000000   0.2390325   0.4546765), wk =   0.0063492
        k(  108) = (   0.4000000   0.2390325   0.6820144), wk =   0.0063492
        k(  109) = (   0.4000000   0.2390325   0.9093523), wk =   0.0063492
        k(  110) = (   0.4000000   0.2390325  -0.9093509), wk =   0.0063492
        k(  111) = (   0.4000000   0.2390325  -0.6820130), wk =   0.0063492
        k(  112) = (   0.4000000   0.2390325  -0.4546751), wk =   0.0063492
        k(  113) = (   0.4000000   0.2390325  -0.2273372), wk =   0.0063492
        k(  114) = (   0.4000000   0.4780628   0.0000007), wk =   0.0063492
        k(  115) = (   0.4000000   0.4780628   0.2273386), wk =   0.0063492
        k(  116) = (   0.4000000   0.4780628   0.4546765), wk =   0.0063492
        k(  117) = (   0.4000000   0.4780628   0.6820144), wk =   0.0063492
        k(  118) = (   0.4000000   0.4780628   0.9093523), wk =   0.0063492
        k(  119) = (   0.4000000   0.4780628  -0.9093509), wk =   0.0063492
        k(  120) = (   0.4000000   0.4780628  -0.6820130), wk =   0.0063492
        k(  121) = (   0.4000000   0.4780628  -0.4546751), wk =   0.0063492
        k(  122) = (   0.4000000   0.4780628  -0.2273372), wk =   0.0063492
        k(  123) = (   0.4000000   0.7170932   0.0000007), wk =   0.0063492
        k(  124) = (   0.4000000   0.7170932   0.2273386), wk =   0.0063492
        k(  125) = (   0.4000000   0.7170932   0.4546765), wk =   0.0063492
        k(  126) = (   0.4000000   0.7170932   0.6820144), wk =   0.0063492
        k(  127) = (   0.4000000   0.7170932   0.9093523), wk =   0.0063492
        k(  128) = (   0.4000000   0.7170932  -0.9093509), wk =   0.0063492
        k(  129) = (   0.4000000   0.7170932  -0.6820130), wk =   0.0063492
        k(  130) = (   0.4000000   0.7170932  -0.4546751), wk =   0.0063492
        k(  131) = (   0.4000000   0.7170932  -0.2273372), wk =   0.0063492
        k(  132) = (   0.4000000  -0.7170890   0.0000007), wk =   0.0063492
        k(  133) = (   0.4000000  -0.7170890   0.2273386), wk =   0.0063492
        k(  134) = (   0.4000000  -0.7170890   0.4546765), wk =   0.0063492
        k(  135) = (   0.4000000  -0.7170890   0.6820144), wk =   0.0063492
        k(  136) = (   0.4000000  -0.7170890   0.9093523), wk =   0.0063492
        k(  137) = (   0.4000000  -0.7170890  -0.9093509), wk =   0.0063492
        k(  138) = (   0.4000000  -0.7170890  -0.6820130), wk =   0.0063492
        k(  139) = (   0.4000000  -0.7170890  -0.4546751), wk =   0.0063492
        k(  140) = (   0.4000000  -0.7170890  -0.2273372), wk =   0.0063492
        k(  141) = (   0.4000000  -0.4780586   0.0000007), wk =   0.0063492
        k(  142) = (   0.4000000  -0.4780586   0.2273386), wk =   0.0063492
        k(  143) = (   0.4000000  -0.4780586   0.4546765), wk =   0.0063492
        k(  144) = (   0.4000000  -0.4780586   0.6820144), wk =   0.0063492
        k(  145) = (   0.4000000  -0.4780586   0.9093523), wk =   0.0063492
        k(  146) = (   0.4000000  -0.4780586  -0.9093509), wk =   0.0063492
        k(  147) = (   0.4000000  -0.4780586  -0.6820130), wk =   0.0063492
        k(  148) = (   0.4000000  -0.4780586  -0.4546751), wk =   0.0063492
        k(  149) = (   0.4000000  -0.4780586  -0.2273372), wk =   0.0063492
        k(  150) = (   0.4000000  -0.2390283   0.0000007), wk =   0.0063492
        k(  151) = (   0.4000000  -0.2390283   0.2273386), wk =   0.0063492
        k(  152) = (   0.4000000  -0.2390283   0.4546765), wk =   0.0063492
        k(  153) = (   0.4000000  -0.2390283   0.6820144), wk =   0.0063492
        k(  154) = (   0.4000000  -0.2390283   0.9093523), wk =   0.0063492
        k(  155) = (   0.4000000  -0.2390283  -0.9093509), wk =   0.0063492
        k(  156) = (   0.4000000  -0.2390283  -0.6820130), wk =   0.0063492
        k(  157) = (   0.4000000  -0.2390283  -0.4546751), wk =   0.0063492
        k(  158) = (   0.4000000  -0.2390283  -0.2273372), wk =   0.0063492

                       cryst. coord.
        k(    1) = (   0.0000000   0.0000000   0.0000000), wk =   0.0031746
        k(    2) = (   0.0000000   0.0000000   0.1111111), wk =   0.0063492
        k(    3) = (   0.0000000   0.0000000   0.2222222), wk =   0.0063492
        k(    4) = (   0.0000000   0.0000000   0.3333333), wk =   0.0063492
        k(    5) = (   0.0000000   0.0000000   0.4444444), wk =   0.0063492
        k(    6) = (   0.0000000   0.1428571  -0.0000000), wk =   0.0063492
        k(    7) = (   0.0000000   0.1428571   0.1111111), wk =   0.0063492
        k(    8) = (   0.0000000   0.1428571   0.2222222), wk =   0.0063492
        k(    9) = (   0.0000000   0.1428571   0.3333333), wk =   0.0063492
        k(   10) = (   0.0000000   0.1428571   0.4444444), wk =   0.0063492
        k(   11) = (   0.0000000   0.1428571  -0.4444444), wk =   0.0063492
        k(   12) = (   0.0000000   0.1428571  -0.3333333), wk =   0.0063492
        k(   13) = (   0.0000000   0.1428571  -0.2222222), wk =   0.0063492
        k(   14) = (   0.0000000   0.1428571  -0.1111111), wk =   0.0063492
        k(   15) = (   0.0000000   0.2857143  -0.0000000), wk =   0.0063492
        k(   16) = (   0.0000000   0.2857143   0.1111111), wk =   0.0063492
        k(   17) = (   0.0000000   0.2857143   0.2222222), wk =   0.0063492
        k(   18) = (   0.0000000   0.2857143   0.3333333), wk =   0.0063492
        k(   19) = (   0.0000000   0.2857143   0.4444444), wk =   0.0063492
        k(   20) = (   0.0000000   0.2857143  -0.4444444), wk =   0.0063492
        k(   21) = (   0.0000000   0.2857143  -0.3333333), wk =   0.0063492
        k(   22) = (   0.0000000   0.2857143  -0.2222222), wk =   0.0063492
        k(   23) = (   0.0000000   0.2857143  -0.1111111), wk =   0.0063492
        k(   24) = (   0.0000000   0.4285714  -0.0000000), wk =   0.0063492
        k(   25) = (   0.0000000   0.4285714   0.1111111), wk =   0.0063492
        k(   26) = (   0.0000000   0.4285714   0.2222222), wk =   0.0063492
        k(   27) = (   0.0000000   0.4285714   0.3333333), wk =   0.0063492
        k(   28) = (   0.0000000   0.4285714   0.4444444), wk =   0.0063492
        k(   29) = (   0.0000000   0.4285714  -0.4444444), wk =   0.0063492
        k(   30) = (   0.0000000   0.4285714  -0.3333333), wk =   0.0063492
        k(   31) = (   0.0000000   0.4285714  -0.2222222), wk =   0.0063492
        k(   32) = (   0.0000000   0.4285714  -0.1111111), wk =   0.0063492
        k(   33) = (   0.2000000   0.0000000   0.0000000), wk =   0.0063492
        k(   34) = (   0.2000000   0.0000000   0.1111111), wk =   0.0063492
        k(   35) = (   0.2000000   0.0000000   0.2222222), wk =   0.0063492
        k(   36) = (   0.2000000   0.0000000   0.3333333), wk =   0.0063492
        k(   37) = (   0.2000000   0.0000000   0.4444444), wk =   0.0063492
        k(   38) = (   0.2000000   0.0000000  -0.4444444), wk =   0.0063492
        k(   39) = (   0.2000000   0.0000000  -0.3333333), wk =   0.0063492
        k(   40) = (   0.2000000   0.0000000  -0.2222222), wk =   0.0063492
        k(   41) = (   0.2000000   0.0000000  -0.1111111), wk =   0.0063492
        k(   42) = (   0.2000000   0.1428571   0.0000000), wk =   0.0063492
        k(   43) = (   0.2000000   0.1428571   0.1111111), wk =   0.0063492
        k(   44) = (   0.2000000   0.1428571   0.2222222), wk =   0.0063492
        k(   45) = (   0.2000000   0.1428571   0.3333333), wk =   0.0063492
        k(   46) = (   0.2000000   0.1428571   0.4444444), wk =   0.0063492
        k(   47) = (   0.2000000   0.1428571  -0.4444444), wk =   0.0063492
        k(   48) = (   0.2000000   0.1428571  -0.3333333), wk =   0.0063492
        k(   49) = (   0.2000000   0.1428571  -0.2222222), wk =   0.0063492
        k(   50) = (   0.2000000   0.1428571  -0.1111111), wk =   0.0063492
        k(   51) = (   0.2000000   0.2857143   0.0000000), wk =   0.0063492
        k(   52) = (   0.2000000   0.2857143   0.1111111), wk =   0.0063492
        k(   53) = (   0.2000000   0.2857143   0.2222222), wk =   0.0063492
        k(   54) = (   0.2000000   0.2857143   0.3333333), wk =   0.0063492
        k(   55) = (   0.2000000   0.2857143   0.4444444), wk =   0.0063492
        k(   56) = (   0.2000000   0.2857143  -0.4444444), wk =   0.0063492
        k(   57) = (   0.2000000   0.2857143  -0.3333333), wk =   0.0063492
        k(   58) = (   0.2000000   0.2857143  -0.2222222), wk =   0.0063492
        k(   59) = (   0.2000000   0.2857143  -0.1111111), wk =   0.0063492
        k(   60) = (   0.2000000   0.4285714   0.0000000), wk =   0.0063492
        k(   61) = (   0.2000000   0.4285714   0.1111111), wk =   0.0063492
        k(   62) = (   0.2000000   0.4285714   0.2222222), wk =   0.0063492
        k(   63) = (   0.2000000   0.4285714   0.3333333), wk =   0.0063492
        k(   64) = (   0.2000000   0.4285714   0.4444444), wk =   0.0063492
        k(   65) = (   0.2000000   0.4285714  -0.4444444), wk =   0.0063492
        k(   66) = (   0.2000000   0.4285714  -0.3333333), wk =   0.0063492
        k(   67) = (   0.2000000   0.4285714  -0.2222222), wk =   0.0063492
        k(   68) = (   0.2000000   0.4285714  -0.1111111), wk =   0.0063492
        k(   69) = (   0.2000000  -0.4285714   0.0000000), wk =   0.0063492
        k(   70) = (   0.2000000  -0.4285714   0.1111111), wk =   0.0063492
        k(   71) = (   0.2000000  -0.4285714   0.2222222), wk =   0.0063492
        k(   72) = (   0.2000000  -0.4285714   0.3333333), wk =   0.0063492
        k(   73) = (   0.2000000  -0.4285714   0.4444444), wk =   0.0063492
        k(   74) = (   0.2000000  -0.4285714  -0.4444444), wk =   0.0063492
        k(   75) = (   0.2000000  -0.4285714  -0.3333333), wk =   0.0063492
        k(   76) = (   0.2000000  -0.4285714  -0.2222222), wk =   0.0063492
        k(   77) = (   0.2000000  -0.4285714  -0.1111111), wk =   0.0063492
        k(   78) = (   0.2000000  -0.2857143   0.0000000), wk =   0.0063492
        k(   79) = (   0.2000000  -0.2857143   0.1111111), wk =   0.0063492
        k(   80) = (   0.2000000  -0.2857143   0.2222222), wk =   0.0063492
        k(   81) = (   0.2000000  -0.2857143   0.3333333), wk =   0.0063492
        k(   82) = (   0.2000000  -0.2857143   0.4444444), wk =   0.0063492
        k(   83) = (   0.2000000  -0.2857143  -0.4444444), wk =   0.0063492
        k(   84) = (   0.2000000  -0.2857143  -0.3333333), wk =   0.0063492
        k(   85) = (   0.2000000  -0.2857143  -0.2222222), wk =   0.0063492
        k(   86) = (   0.2000000  -0.2857143  -0.1111111), wk =   0.0063492
        k(   87) = (   0.2000000  -0.1428571   0.0000000), wk =   0.0063492
        k(   88) = (   0.2000000  -0.1428571   0.1111111), wk =   0.0063492
        k(   89) = (   0.2000000  -0.1428571   0.2222222), wk =   0.0063492
        k(   90) = (   0.2000000  -0.1428571   0.3333333), wk =   0.0063492
        k(   91) = (   0.2000000  -0.1428571   0.4444444), wk =   0.0063492
        k(   92) = (   0.2000000  -0.1428571  -0.4444444), wk =   0.0063492
        k(   93) = (   0.2000000  -0.1428571  -0.3333333), wk =   0.0063492
        k(   94) = (   0.2000000  -0.1428571  -0.2222222), wk =   0.0063492
        k(   95) = (   0.2000000  -0.1428571  -0.1111111), wk =   0.0063492
        k(   96) = (   0.4000000   0.0000000   0.0000000), wk =   0.0063492
        k(   97) = (   0.4000000   0.0000000   0.1111111), wk =   0.0063492
        k(   98) = (   0.4000000   0.0000000   0.2222222), wk =   0.0063492
        k(   99) = (   0.4000000   0.0000000   0.3333333), wk =   0.0063492
        k(  100) = (   0.4000000   0.0000000   0.4444444), wk =   0.0063492
        k(  101) = (   0.4000000   0.0000000  -0.4444444), wk =   0.0063492
        k(  102) = (   0.4000000   0.0000000  -0.3333333), wk =   0.0063492
        k(  103) = (   0.4000000   0.0000000  -0.2222222), wk =   0.0063492
        k(  104) = (   0.4000000   0.0000000  -0.1111111), wk =   0.0063492
        k(  105) = (   0.4000000   0.1428571   0.0000000), wk =   0.0063492
        k(  106) = (   0.4000000   0.1428571   0.1111111), wk =   0.0063492
        k(  107) = (   0.4000000   0.1428571   0.2222222), wk =   0.0063492
        k(  108) = (   0.4000000   0.1428571   0.3333333), wk =   0.0063492
        k(  109) = (   0.4000000   0.1428571   0.4444444), wk =   0.0063492
        k(  110) = (   0.4000000   0.1428571  -0.4444444), wk =   0.0063492
        k(  111) = (   0.4000000   0.1428571  -0.3333333), wk =   0.0063492
        k(  112) = (   0.4000000   0.1428571  -0.2222222), wk =   0.0063492
        k(  113) = (   0.4000000   0.1428571  -0.1111111), wk =   0.0063492
        k(  114) = (   0.4000000   0.2857143   0.0000000), wk =   0.0063492
        k(  115) = (   0.4000000   0.2857143   0.1111111), wk =   0.0063492
        k(  116) = (   0.4000000   0.2857143   0.2222222), wk =   0.0063492
        k(  117) = (   0.4000000   0.2857143   0.3333333), wk =   0.0063492
        k(  118) = (   0.4000000   0.2857143   0.4444444), wk =   0.0063492
        k(  119) = (   0.4000000   0.2857143  -0.4444444), wk =   0.0063492
        k(  120) = (   0.4000000   0.2857143  -0.3333333), wk =   0.0063492
        k(  121) = (   0.4000000   0.2857143  -0.2222222), wk =   0.0063492
        k(  122) = (   0.4000000   0.2857143  -0.1111111), wk =   0.0063492
        k(  123) = (   0.4000000   0.4285714   0.0000000), wk =   0.0063492
        k(  124) = (   0.4000000   0.4285714   0.1111111), wk =   0.0063492
        k(  125) = (   0.4000000   0.4285714   0.2222222), wk =   0.0063492
        k(  126) = (   0.4000000   0.4285714   0.3333333), wk =   0.0063492
        k(  127) = (   0.4000000   0.4285714   0.4444444), wk =   0.0063492
        k(  128) = (   0.4000000   0.4285714  -0.4444444), wk =   0.0063492
        k(  129) = (   0.4000000   0.4285714  -0.3333333), wk =   0.0063492
        k(  130) = (   0.4000000   0.4285714  -0.2222222), wk =   0.0063492
        k(  131) = (   0.4000000   0.4285714  -0.1111111), wk =   0.0063492
        k(  132) = (   0.4000000  -0.4285714   0.0000000), wk =   0.0063492
        k(  133) = (   0.4000000  -0.4285714   0.1111111), wk =   0.0063492
        k(  134) = (   0.4000000  -0.4285714   0.2222222), wk =   0.0063492
        k(  135) = (   0.4000000  -0.4285714   0.3333333), wk =   0.0063492
        k(  136) = (   0.4000000  -0.4285714   0.4444444), wk =   0.0063492
        k(  137) = (   0.4000000  -0.4285714  -0.4444444), wk =   0.0063492
        k(  138) = (   0.4000000  -0.4285714  -0.3333333), wk =   0.0063492
        k(  139) = (   0.4000000  -0.4285714  -0.2222222), wk =   0.0063492
        k(  140) = (   0.4000000  -0.4285714  -0.1111111), wk =   0.0063492
        k(  141) = (   0.4000000  -0.2857143   0.0000000), wk =   0.0063492
        k(  142) = (   0.4000000  -0.2857143   0.1111111), wk =   0.0063492
        k(  143) = (   0.4000000  -0.2857143   0.2222222), wk =   0.0063492
        k(  144) = (   0.4000000  -0.2857143   0.3333333), wk =   0.0063492
        k(  145) = (   0.4000000  -0.2857143   0.4444444), wk =   0.0063492
        k(  146) = (   0.4000000  -0.2857143  -0.4444444), wk =   0.0063492
        k(  147) = (   0.4000000  -0.2857143  -0.3333333), wk =   0.0063492
        k(  148) = (   0.4000000  -0.2857143  -0.2222222), wk =   0.0063492
        k(  149) = (   0.4000000  -0.2857143  -0.1111111), wk =   0.0063492
        k(  150) = (   0.4000000  -0.1428571   0.0000000), wk =   0.0063492
        k(  151) = (   0.4000000  -0.1428571   0.1111111), wk =   0.0063492
        k(  152) = (   0.4000000  -0.1428571   0.2222222), wk =   0.0063492
        k(  153) = (   0.4000000  -0.1428571   0.3333333), wk =   0.0063492
        k(  154) = (   0.4000000  -0.1428571   0.4444444), wk =   0.0063492
        k(  155) = (   0.4000000  -0.1428571  -0.4444444), wk =   0.0063492
        k(  156) = (   0.4000000  -0.1428571  -0.3333333), wk =   0.0063492
        k(  157) = (   0.4000000  -0.1428571  -0.2222222), wk =   0.0063492
        k(  158) = (   0.4000000  -0.1428571  -0.1111111), wk =   0.0063492

     Dense  grid:  1296171 G-vectors     FFT dimensions: ( 216, 125, 100)

     Smooth grid:   292039 G-vectors     FFT dimensions: ( 125,  75,  64)

     Dynamical RAM for                 wfc:       4.53 MB

     Dynamical RAM for     wfc (w. buffer):    1434.96 MB

     Dynamical RAM for           str. fact:       4.94 MB

     Dynamical RAM for           local pot:       0.00 MB

     Dynamical RAM for          nlocal pot:      10.59 MB

     Dynamical RAM for                qrad:      10.54 MB

     Dynamical RAM for          rho,v,vnew:      16.07 MB

     Dynamical RAM for               rhoin:       5.36 MB

     Dynamical RAM for            rho*nmix:      39.56 MB

     Dynamical RAM for           G-vectors:       4.77 MB

     Dynamical RAM for          h,s,v(r/c):       3.09 MB

     Dynamical RAM for          <psi|beta>:       0.60 MB

     Dynamical RAM for                 psi:       9.05 MB

     Dynamical RAM for                hpsi:       9.05 MB

     Dynamical RAM for                spsi:       9.05 MB

     Dynamical RAM for      wfcinit/wfcrot:      11.12 MB

     Dynamical RAM for           addusdens:     250.94 MB

     Dynamical RAM for          addusforce:     288.15 MB

     Dynamical RAM for         addusstress:     250.32 MB

     Estimated static dynamical RAM per process >       1.51 GB

     Estimated max dynamical RAM per process >       1.79 GB

     Estimated total dynamical RAM >      28.59 GB

     Check: negative core charge=   -0.000003
     Generating pointlists ...
     new r_m :   0.0827 (alat units)  1.6127 (a.u.) for type    1
     new r_m :   0.0923 (alat units)  1.7987 (a.u.) for type    2
     new r_m :   0.0615 (alat units)  1.1990 (a.u.) for type    3
     new r_m :   0.0615 (alat units)  1.1990 (a.u.) for type    4

     Initial potential from superposition of free atoms

     starting charge  215.97252, renormalised to  216.00000
     Starting wfcs are  152 randomized atomic wfcs
     Checking if some PAW data can be deallocated... 
       PAW data deallocated on   14 nodes for type:  1
       PAW data deallocated on    6 nodes for type:  3

     total cpu time spent up to now is       99.4 secs

     Self-consistent Calculation

     iteration #  1     ecut=   100.00 Ry     beta= 0.40
     Davidson diagonalization with overlap
     ethr =  1.00E-02,  avg # of iterations =  3.3

     negative rho (up, down):  0.000E+00 6.348E-05

     total cpu time spent up to now is      387.7 secs

     total energy              =   -2380.67198906 Ry
     estimated scf accuracy    <       5.68062743 Ry

     total magnetization       =    16.00 Bohr mag/cell
     absolute magnetization    =    16.01 Bohr mag/cell

     iteration #  2     ecut=   100.00 Ry     beta= 0.40
     Davidson diagonalization with overlap
     ethr =  2.63E-03,  avg # of iterations =  2.0

     negative rho (up, down):  0.000E+00 1.624E-04

     total cpu time spent up to now is      646.6 secs

     total energy              =   -2382.04196754 Ry
     estimated scf accuracy    <       0.50718536 Ry

     total magnetization       =    16.00 Bohr mag/cell
     absolute magnetization    =    16.01 Bohr mag/cell

     iteration #  3     ecut=   100.00 Ry     beta= 0.40
     Davidson diagonalization with overlap
     ethr =  2.35E-04,  avg # of iterations =  9.2

     negative rho (up, down):  0.000E+00 1.758E-04

     total cpu time spent up to now is      989.2 secs

     total energy              =   -2382.03897907 Ry
     estimated scf accuracy    <       3.49161674 Ry

     total magnetization       =    16.00 Bohr mag/cell
     absolute magnetization    =    16.04 Bohr mag/cell

     iteration #  4     ecut=   100.00 Ry     beta= 0.40
     Davidson diagonalization with overlap
     ethr =  2.35E-04,  avg # of iterations =  2.0

     negative rho (up, down):  0.000E+00 3.199E-04

     total cpu time spent up to now is     1216.0 secs

     total energy              =   -2382.08945134 Ry
     estimated scf accuracy    <       1.55437141 Ry

     total magnetization       =    16.00 Bohr mag/cell
     absolute magnetization    =    16.05 Bohr mag/cell

     iteration #  5     ecut=   100.00 Ry     beta= 0.40
     Davidson diagonalization with overlap
     ethr =  2.35E-04,  avg # of iterations =  1.5

     negative rho (up, down):  0.000E+00 4.900E-04

     total cpu time spent up to now is     1423.9 secs

     total energy              =   -2382.07898931 Ry
     estimated scf accuracy    <       2.03055782 Ry

     total magnetization       =    16.00 Bohr mag/cell
     absolute magnetization    =    16.05 Bohr mag/cell

     iteration #  6     ecut=   100.00 Ry     beta= 0.40
     Davidson diagonalization with overlap
     ethr =  2.35E-04,  avg # of iterations =  2.0

     negative rho (up, down):  0.000E+00 5.060E-04

     total cpu time spent up to now is     1645.8 secs

     total energy              =   -2382.15437103 Ry
     estimated scf accuracy    <       2.17014344 Ry

     total magnetization       =    16.00 Bohr mag/cell
     absolute magnetization    =    16.07 Bohr mag/cell

     iteration #  7     ecut=   100.00 Ry     beta= 0.40
     Davidson diagonalization with overlap
     ethr =  2.35E-04,  avg # of iterations =  1.0

     negative rho (up, down):  0.000E+00 5.234E-04

     total cpu time spent up to now is     1838.0 secs

     total energy              =   -2382.20299909 Ry
     estimated scf accuracy    <       0.08545311 Ry

     total magnetization       =    16.00 Bohr mag/cell
     absolute magnetization    =    16.06 Bohr mag/cell

     iteration #  8     ecut=   100.00 Ry     beta= 0.40
     Davidson diagonalization with overlap
     c_bands:  2 eigenvalues not converged
     ethr =  3.96E-05,  avg # of iterations =  1.6

     negative rho (up, down):  0.000E+00 5.265E-04

     total cpu time spent up to now is     2039.3 secs

     total energy              =   -2382.20939499 Ry
     estimated scf accuracy    <       0.33196927 Ry

     total magnetization       =    16.00 Bohr mag/cell
     absolute magnetization    =    16.06 Bohr mag/cell

     iteration #  9     ecut=   100.00 Ry     beta= 0.40
     Davidson diagonalization with overlap
     ethr =  3.96E-05,  avg # of iterations =  1.3

     negative rho (up, down):  0.000E+00 5.291E-04

     total cpu time spent up to now is     2238.0 secs

     total energy              =   -2382.20016688 Ry
     estimated scf accuracy    <       0.41814245 Ry

     total magnetization       =    16.00 Bohr mag/cell
     absolute magnetization    =    16.06 Bohr mag/cell

     iteration # 10     ecut=   100.00 Ry     beta= 0.40
     Davidson diagonalization with overlap
     ethr =  3.96E-05,  avg # of iterations =  1.0

     negative rho (up, down):  0.000E+00 5.295E-04

     total cpu time spent up to now is     2430.8 secs

     total energy              =   -2382.20634503 Ry
     estimated scf accuracy    <       0.07725319 Ry

     total magnetization       =    16.00 Bohr mag/cell
     absolute magnetization    =    16.07 Bohr mag/cell

     iteration # 11     ecut=   100.00 Ry     beta= 0.40
     Davidson diagonalization with overlap
     ethr =  3.58E-05,  avg # of iterations =  1.0

     negative rho (up, down):  0.000E+00 5.289E-04

     total cpu time spent up to now is     2623.5 secs

     total energy              =   -2382.20871359 Ry
     estimated scf accuracy    <       0.06302985 Ry

     total magnetization       =    16.00 Bohr mag/cell
     absolute magnetization    =    16.07 Bohr mag/cell

     iteration # 12     ecut=   100.00 Ry     beta= 0.40
     Davidson diagonalization with overlap
     ethr =  2.92E-05,  avg # of iterations =  1.0

     negative rho (up, down):  0.000E+00 5.290E-04

     total cpu time spent up to now is     2815.7 secs

     total energy              =   -2382.20960289 Ry
     estimated scf accuracy    <       0.03901057 Ry

     total magnetization       =    16.00 Bohr mag/cell
     absolute magnetization    =    16.07 Bohr mag/cell

     iteration # 13     ecut=   100.00 Ry     beta= 0.40
     Davidson diagonalization with overlap
     c_bands:  1 eigenvalues not converged
     c_bands:  1 eigenvalues not converged
     ethr =  1.81E-05,  avg # of iterations =  1.4

     negative rho (up, down):  0.000E+00 5.330E-04

     total cpu time spent up to now is     3015.0 secs

     total energy              =   -2382.21318900 Ry
     estimated scf accuracy    <       0.03760108 Ry

     total magnetization       =    16.00 Bohr mag/cell
     absolute magnetization    =    16.07 Bohr mag/cell

     iteration # 14     ecut=   100.00 Ry     beta= 0.40
     Davidson diagonalization with overlap
     ethr =  1.74E-05,  avg # of iterations =  1.1

     negative rho (up, down):  0.000E+00 5.387E-04

     total cpu time spent up to now is     3208.1 secs

     total energy              =   -2382.21695082 Ry
     estimated scf accuracy    <       0.02650493 Ry

     total magnetization       =    16.00 Bohr mag/cell
     absolute magnetization    =    16.07 Bohr mag/cell

     iteration # 15     ecut=   100.00 Ry     beta= 0.40
     Davidson diagonalization with overlap
     ethr =  1.23E-05,  avg # of iterations =  1.3

     negative rho (up, down):  0.000E+00 5.648E-04

     total cpu time spent up to now is     3406.9 secs

     total energy              =   -2382.21611895 Ry
     estimated scf accuracy    <       0.01525204 Ry

     total magnetization       =    16.00 Bohr mag/cell
     absolute magnetization    =    16.07 Bohr mag/cell

     iteration # 16     ecut=   100.00 Ry     beta= 0.40
     Davidson diagonalization with overlap
     c_bands:  1 eigenvalues not converged
     c_bands:  2 eigenvalues not converged
     c_bands:  1 eigenvalues not converged
     c_bands:  2 eigenvalues not converged
     c_bands:  1 eigenvalues not converged
     c_bands:  1 eigenvalues not converged
     c_bands:  1 eigenvalues not converged
     c_bands:  1 eigenvalues not converged
     c_bands:  1 eigenvalues not converged
     c_bands:  1 eigenvalues not converged
     c_bands:  1 eigenvalues not converged
     c_bands:  2 eigenvalues not converged
     c_bands:  1 eigenvalues not converged
     c_bands:  2 eigenvalues not converged
     c_bands:  1 eigenvalues not converged
     ethr =  7.06E-06,  avg # of iterations =  6.2

     negative rho (up, down):  0.000E+00 5.604E-04

     total cpu time spent up to now is     3689.8 secs

     total energy              =   -2382.21983164 Ry
     estimated scf accuracy    <       0.01325799 Ry

     total magnetization       =    16.00 Bohr mag/cell
     absolute magnetization    =    16.07 Bohr mag/cell

     iteration # 17     ecut=   100.00 Ry     beta= 0.40
     Davidson diagonalization with overlap
     ethr =  6.14E-06,  avg # of iterations =  1.2

     negative rho (up, down):  0.000E+00 5.614E-04

     total cpu time spent up to now is     3885.4 secs

     total energy              =   -2382.21912566 Ry
     estimated scf accuracy    <       0.01476711 Ry

     total magnetization       =    16.00 Bohr mag/cell
     absolute magnetization    =    16.07 Bohr mag/cell

     iteration # 18     ecut=   100.00 Ry     beta= 0.40
     Davidson diagonalization with overlap
     ethr =  6.14E-06,  avg # of iterations =  1.1

     negative rho (up, down):  0.000E+00 5.551E-04

     total cpu time spent up to now is     4080.6 secs

     total energy              =   -2382.22082574 Ry
     estimated scf accuracy    <       0.01897232 Ry

     total magnetization       =    16.00 Bohr mag/cell
     absolute magnetization    =    16.07 Bohr mag/cell

     iteration # 19     ecut=   100.00 Ry     beta= 0.40
     Davidson diagonalization with overlap
     ethr =  6.14E-06,  avg # of iterations =  2.0

     negative rho (up, down):  0.000E+00 5.519E-04

     total cpu time spent up to now is     4304.9 secs

     total energy              =   -2382.22151022 Ry
     estimated scf accuracy    <       0.00220918 Ry

     total magnetization       =    16.00 Bohr mag/cell
     absolute magnetization    =    16.07 Bohr mag/cell

     iteration # 20     ecut=   100.00 Ry     beta= 0.40
     Davidson diagonalization with overlap
     c_bands:  1 eigenvalues not converged
     c_bands:  1 eigenvalues not converged
     c_bands:  1 eigenvalues not converged
     c_bands:  1 eigenvalues not converged
     c_bands:  1 eigenvalues not converged
     c_bands:  1 eigenvalues not converged
     c_bands:  1 eigenvalues not converged
     c_bands:  1 eigenvalues not converged
     c_bands:  1 eigenvalues not converged
     c_bands:  1 eigenvalues not converged
     c_bands:  1 eigenvalues not converged
     c_bands:  2 eigenvalues not converged
     c_bands:  1 eigenvalues not converged
     c_bands:  1 eigenvalues not converged
     c_bands:  2 eigenvalues not converged
     c_bands:  1 eigenvalues not converged
     c_bands:  2 eigenvalues not converged
     c_bands:  1 eigenvalues not converged
     c_bands:  1 eigenvalues not converged
     ethr =  1.02E-06,  avg # of iterations =  8.8

     negative rho (up, down):  0.000E+00 5.501E-04

     total cpu time spent up to now is     4590.9 secs

     total energy              =   -2382.22160529 Ry
     estimated scf accuracy    <       0.00101833 Ry

     total magnetization       =    16.00 Bohr mag/cell
     absolute magnetization    =    16.07 Bohr mag/cell

     iteration # 21     ecut=   100.00 Ry     beta= 0.40
     Davidson diagonalization with overlap
     c_bands:  1 eigenvalues not converged
     ethr =  4.71E-07,  avg # of iterations =  1.1

     negative rho (up, down):  0.000E+00 5.517E-04

     total cpu time spent up to now is     4785.4 secs

     total energy              =   -2382.22172134 Ry
     estimated scf accuracy    <       0.00072937 Ry

     total magnetization       =    16.00 Bohr mag/cell
     absolute magnetization    =    16.07 Bohr mag/cell

     iteration # 22     ecut=   100.00 Ry     beta= 0.40
     Davidson diagonalization with overlap
     ethr =  3.38E-07,  avg # of iterations =  1.4

     negative rho (up, down):  0.000E+00 5.472E-04

     total cpu time spent up to now is     4988.7 secs

     total energy              =   -2382.22170004 Ry
     estimated scf accuracy    <       0.00225274 Ry

     total magnetization       =    16.00 Bohr mag/cell
     absolute magnetization    =    16.07 Bohr mag/cell

     iteration # 23     ecut=   100.00 Ry     beta= 0.40
     Davidson diagonalization with overlap
     ethr =  3.38E-07,  avg # of iterations =  1.0

     negative rho (up, down):  0.000E+00 5.487E-04

     total cpu time spent up to now is     5180.5 secs

     total energy              =   -2382.22182292 Ry
     estimated scf accuracy    <       0.00027036 Ry

     total magnetization       =    16.00 Bohr mag/cell
     absolute magnetization    =    16.07 Bohr mag/cell

     iteration # 24     ecut=   100.00 Ry     beta= 0.40
     Davidson diagonalization with overlap
     ethr =  1.25E-07,  avg # of iterations =  2.0

     negative rho (up, down):  0.000E+00 5.491E-04

     total cpu time spent up to now is     5412.6 secs

     total energy              =   -2382.22197283 Ry
     estimated scf accuracy    <       0.00015140 Ry

     total magnetization       =    16.00 Bohr mag/cell
     absolute magnetization    =    16.06 Bohr mag/cell

     iteration # 25     ecut=   100.00 Ry     beta= 0.40
     Davidson diagonalization with overlap
     ethr =  7.01E-08,  avg # of iterations =  2.0

     negative rho (up, down):  0.000E+00 5.486E-04

     total cpu time spent up to now is     5637.0 secs

     total energy              =   -2382.22199129 Ry
     estimated scf accuracy    <       0.00004882 Ry

     total magnetization       =    16.00 Bohr mag/cell
     absolute magnetization    =    16.06 Bohr mag/cell

     iteration # 26     ecut=   100.00 Ry     beta= 0.40
     Davidson diagonalization with overlap
     ethr =  2.26E-08,  avg # of iterations =  3.5

     negative rho (up, down):  0.000E+00 5.480E-04

     total cpu time spent up to now is     5908.7 secs

     total energy              =   -2382.22174703 Ry
     estimated scf accuracy    <       0.00003044 Ry

     total magnetization       =    16.00 Bohr mag/cell
     absolute magnetization    =    16.06 Bohr mag/cell

     iteration # 27     ecut=   100.00 Ry     beta= 0.40
     Davidson diagonalization with overlap
     ethr =  1.41E-08,  avg # of iterations =  4.0

     negative rho (up, down):  0.000E+00 5.478E-04

     total cpu time spent up to now is     6205.9 secs

     total energy              =   -2382.22216794 Ry
     estimated scf accuracy    <       0.00002612 Ry

     total magnetization       =    16.00 Bohr mag/cell
     absolute magnetization    =    16.06 Bohr mag/cell

     iteration # 28     ecut=   100.00 Ry     beta= 0.40
     Davidson diagonalization with overlap
     ethr =  1.21E-08,  avg # of iterations =  2.0

     negative rho (up, down):  0.000E+00 5.477E-04

     total cpu time spent up to now is     6445.9 secs

     total energy              =   -2382.22220834 Ry
     estimated scf accuracy    <       0.00000451 Ry

     total magnetization       =    16.00 Bohr mag/cell
     absolute magnetization    =    16.06 Bohr mag/cell

     iteration # 29     ecut=   100.00 Ry     beta= 0.40
     Davidson diagonalization with overlap
     ethr =  2.09E-09,  avg # of iterations =  4.1

     negative rho (up, down):  0.000E+00 5.476E-04

     total cpu time spent up to now is     6735.1 secs

     total energy              =   -2382.22223659 Ry
     estimated scf accuracy    <       0.00000112 Ry

     total magnetization       =    16.00 Bohr mag/cell
     absolute magnetization    =    16.06 Bohr mag/cell

     iteration # 30     ecut=   100.00 Ry     beta= 0.40
     Davidson diagonalization with overlap
     ethr =  5.20E-10,  avg # of iterations =  4.0

     negative rho (up, down):  0.000E+00 5.476E-04

     total cpu time spent up to now is     6993.3 secs

     total energy              =   -2382.22224088 Ry
     estimated scf accuracy    <       0.00000032 Ry

     total magnetization       =    16.00 Bohr mag/cell
     absolute magnetization    =    16.06 Bohr mag/cell

     iteration # 31     ecut=   100.00 Ry     beta= 0.40
     Davidson diagonalization with overlap
     ethr =  1.46E-10,  avg # of iterations =  3.3

     negative rho (up, down):  0.000E+00 5.476E-04

     total cpu time spent up to now is     7249.6 secs

     total energy              =   -2382.22224289 Ry
     estimated scf accuracy    <       0.00000020 Ry

     total magnetization       =    16.00 Bohr mag/cell
     absolute magnetization    =    16.06 Bohr mag/cell

     iteration # 32     ecut=   100.00 Ry     beta= 0.40
     Davidson diagonalization with overlap
     ethr =  9.16E-11,  avg # of iterations =  2.0

     negative rho (up, down):  0.000E+00 5.476E-04

     total cpu time spent up to now is     7477.6 secs

     total energy              =   -2382.22224366 Ry
     estimated scf accuracy    <       0.00000009 Ry

     total magnetization       =    16.00 Bohr mag/cell
     absolute magnetization    =    16.06 Bohr mag/cell

     iteration # 33     ecut=   100.00 Ry     beta= 0.40
     Davidson diagonalization with overlap
     ethr =  4.33E-11,  avg # of iterations =  3.1

     negative rho (up, down):  0.000E+00 5.476E-04

     total cpu time spent up to now is     7719.9 secs

     total energy              =   -2382.22224390 Ry
     estimated scf accuracy    <       0.00000007 Ry

     total magnetization       =    16.00 Bohr mag/cell
     absolute magnetization    =    16.06 Bohr mag/cell

     iteration # 34     ecut=   100.00 Ry     beta= 0.40
     Davidson diagonalization with overlap
     ethr =  3.07E-11,  avg # of iterations =  4.0

     negative rho (up, down):  0.000E+00 5.476E-04

     total cpu time spent up to now is     8003.1 secs

     total energy              =   -2382.22224425 Ry
     estimated scf accuracy    <       0.00000004 Ry

     total magnetization       =    16.00 Bohr mag/cell
     absolute magnetization    =    16.06 Bohr mag/cell

     iteration # 35     ecut=   100.00 Ry     beta= 0.40
     Davidson diagonalization with overlap
     ethr =  2.06E-11,  avg # of iterations =  3.0

     negative rho (up, down):  0.000E+00 5.476E-04

     total cpu time spent up to now is     8270.0 secs

     total energy              =   -2382.22224444 Ry
     estimated scf accuracy    <          9.1E-09 Ry

     total magnetization       =    16.00 Bohr mag/cell
     absolute magnetization    =    16.06 Bohr mag/cell

     iteration # 36     ecut=   100.00 Ry     beta= 0.40
     Davidson diagonalization with overlap
     ethr =  4.21E-12,  avg # of iterations =  3.7

     negative rho (up, down):  0.000E+00 5.476E-04

     total cpu time spent up to now is     8529.2 secs

     total energy              =   -2382.22224447 Ry
     estimated scf accuracy    <          5.7E-09 Ry

     total magnetization       =    16.00 Bohr mag/cell
     absolute magnetization    =    16.06 Bohr mag/cell

     iteration # 37     ecut=   100.00 Ry     beta= 0.40
     Davidson diagonalization with overlap
     ethr =  2.63E-12,  avg # of iterations =  2.0

     negative rho (up, down):  0.000E+00 5.476E-04

     total cpu time spent up to now is     8760.4 secs

     total energy              =   -2382.22224448 Ry
     estimated scf accuracy    <          3.7E-09 Ry

     total magnetization       =    16.00 Bohr mag/cell
     absolute magnetization    =    16.06 Bohr mag/cell

     iteration # 38     ecut=   100.00 Ry     beta= 0.40
     Davidson diagonalization with overlap
     ethr =  1.71E-12,  avg # of iterations =  2.0

     negative rho (up, down):  0.000E+00 5.476E-04

     total cpu time spent up to now is     8991.1 secs

     total energy              =   -2382.22224449 Ry
     estimated scf accuracy    <          1.7E-09 Ry

     total magnetization       =    16.00 Bohr mag/cell
     absolute magnetization    =    16.06 Bohr mag/cell

     iteration # 39     ecut=   100.00 Ry     beta= 0.40
     Davidson diagonalization with overlap
     ethr =  7.89E-13,  avg # of iterations =  2.1

     negative rho (up, down):  0.000E+00 5.476E-04

     Magnetic moment per site:
     atom:    1    charge:    7.9590    magn:    0.0001    constr:    0.0000
     atom:    2    charge:    7.9590    magn:    0.0001    constr:    0.0000
     atom:    3    charge:    7.9591    magn:    0.0001    constr:    0.0000
     atom:    4    charge:    7.9591    magn:    0.0001    constr:    0.0000
     atom:    5    charge:   13.3513    magn:    3.3432    constr:    0.0000
     atom:    6    charge:   13.3513    magn:    3.3432    constr:    0.0000
     atom:    7    charge:   13.3513    magn:    3.3432    constr:    0.0000
     atom:    8    charge:   13.3513    magn:    3.3432    constr:    0.0000
     atom:    9    charge:    0.8670    magn:    0.0067    constr:    0.0000
     atom:   10    charge:    0.8670    magn:    0.0067    constr:    0.0000
     atom:   11    charge:    0.8670    magn:    0.0067    constr:    0.0000
     atom:   12    charge:    0.8670    magn:    0.0067    constr:    0.0000
     atom:   13    charge:    4.2723    magn:    0.0319    constr:    0.0000
     atom:   14    charge:    4.2722    magn:    0.0319    constr:    0.0000
     atom:   15    charge:    4.2723    magn:    0.0319    constr:    0.0000
     atom:   16    charge:    4.2722    magn:    0.0319    constr:    0.0000
     atom:   17    charge:    4.2865    magn:    0.0416    constr:    0.0000
     atom:   18    charge:    4.2865    magn:    0.0416    constr:    0.0000
     atom:   19    charge:    4.2865    magn:    0.0416    constr:    0.0000
     atom:   20    charge:    4.2865    magn:    0.0416    constr:    0.0000
     atom:   21    charge:    4.2685    magn:    0.0748    constr:    0.0000
     atom:   22    charge:    4.2686    magn:    0.0748    constr:    0.0000
     atom:   23    charge:    4.2684    magn:    0.0748    constr:    0.0000
     atom:   24    charge:    4.2684    magn:    0.0748    constr:    0.0000
     atom:   25    charge:    4.2685    magn:    0.0748    constr:    0.0000
     atom:   26    charge:    4.2685    magn:    0.0748    constr:    0.0000
     atom:   27    charge:    4.2684    magn:    0.0748    constr:    0.0000
     atom:   28    charge:    4.2684    magn:    0.0748    constr:    0.0000

     total cpu time spent up to now is     9219.4 secs

     End of self-consistent calculation

 ------ SPIN UP ------------


          k = 0.0000 0.0000 0.0000 ( 36545 PWs)   bands (ev):

   -80.9465 -80.9464 -80.9461 -80.9460 -47.9220 -47.9220 -47.9212 -47.9211
   -46.6770 -46.6769 -46.6765 -46.6764 -46.4054 -46.4053 -46.4048 -46.4047
   -43.0308 -43.0307 -43.0219 -43.0218 -15.2631 -15.2506 -15.0881 -15.0814
   -15.0386 -15.0360 -15.0233 -15.0208 -14.9759 -14.9757 -14.9431 -14.9430
   -14.6204 -14.4322 -14.2176 -14.0982 -11.9411 -11.9315 -11.9232 -11.9132
   -11.8775 -11.8731 -11.7512 -11.7292 -11.7260 -11.7179 -11.7031 -11.7007
    -2.0932  -1.6977  -1.4833  -1.4831  -0.4134  -0.0619   0.0907   0.2339
     0.2783   0.4841   0.7300   0.7600   0.8051   0.8511   0.8648   1.1767
     1.9888   2.1547   2.4369   2.5578   2.6662   2.8248   2.8577   2.9361
     2.9741   3.0336   3.0966   3.3064   3.3507   3.4144   3.5340   3.5851
     3.6301   3.6431   3.7450   3.8024   3.9074   3.9090   4.1736   4.2027
     4.2842   4.3932   4.5683   4.7969   4.8081   4.9459   5.1991   5.2734
     5.5673   5.5714   5.7124   5.8455   5.9108   5.9628   6.0034   6.0441
     6.0674   6.2733   6.5980   6.6530   6.6735   6.7305   6.7887   7.0684
     7.1054   7.1695   7.3296   7.3713  10.3825  12.4124  12.6120  13.2469
    13.6844  13.8287  14.2085  14.7726  15.0577  15.1789  15.2736  15.3347
    15.4078  15.5790

     occupation numbers 
     1.0000   1.0000   1.0000   1.0000   1.0000   1.0000   1.0000   1.0000
     1.0000   1.0000   1.0000   1.0000   1.0000   1.0000   1.0000   1.0000
     1.0000   1.0000   1.0000   1.0000   1.0000   1.0000   1.0000   1.0000
     1.0000   1.0000   1.0000   1.0000   1.0000   1.0000   1.0000   1.0000
     1.0000   1.0000   1.0000   1.0000   1.0000   1.0000   1.0000   1.0000
     1.0000   1.0000   1.0000   1.0000   1.0000   1.0000   1.0000   1.0000
     1.0000   1.0000   1.0000   1.0000   1.0000   1.0000   1.0000   1.0000
     1.0000   1.0000   1.0000   1.0000   1.0000   1.0000   1.0000   1.0000
     1.0000   1.0000   1.0000   1.0000   1.0000   1.0000   1.0000   1.0000
     1.0000   1.0000   1.0000   1.0000   1.0000   1.0000   1.0000   1.0000
     1.0000   1.0000   1.0000   1.0000   1.0000   1.0000   1.0000   1.0000
     1.0000   1.0000   1.0000   1.0000   1.0000   1.0000   1.0000   1.0000
     1.0000   1.0000   1.0000   1.0000   1.0000   1.0000   1.0000   1.0000
     1.0000   1.0000   1.0000   1.0000   1.0000   1.0000   1.0000   1.0000
     1.0000   1.0000   1.0000   1.0000   0.0000   0.0000   0.0000   0.0000
     0.0000   0.0000   0.0000   0.0000   0.0000   0.0000   0.0000   0.0000
     0.0000   0.0000

          k = 0.0000 0.0000 0.2273 ( 36527 PWs)   bands (ev):

   -80.9465 -80.9464 -80.9461 -80.9460 -47.9220 -47.9219 -47.9212 -47.9211
   -46.6770 -46.6769 -46.6765 -46.6764 -46.4054 -46.4053 -46.4048 -46.4047
   -43.0308 -43.0307 -43.0219 -43.0218 -15.2570 -15.2453 -15.0944 -15.0884
   -15.0386 -15.0369 -15.0361 -15.0291 -14.9759 -14.9758 -14.9432 -14.9431
   -14.5806 -14.4072 -14.2241 -14.1119 -11.9518 -11.9312 -11.9245 -11.9235
   -11.8735 -11.8708 -11.7548 -11.7475 -11.7274 -11.7098 -11.7083 -11.7060
    -2.0735  -1.6979  -1.5080  -1.4675  -0.3482  -0.0349   0.1415   0.2830
     0.2839   0.4991   0.7316   0.7762   0.8162   0.8338   0.8341   1.1587
     1.9906   2.1483   2.4447   2.5138   2.6746   2.7523   2.8628   2.8747
     2.9051   3.0057   3.1451   3.2654   3.3338   3.3601   3.5257   3.5556
     3.5795   3.6429   3.8469   3.8646   3.9224   3.9809   4.1233   4.1896
     4.2668   4.4321   4.5853   4.8017   4.8204   4.9720   5.1887   5.2578
     5.5479   5.5826   5.6772   5.8437   5.9012   5.9504   5.9812   5.9833
     6.1131   6.2934   6.6334   6.6829   6.6960   6.7411   6.7961   7.0431
     7.0837   7.1416   7.3400   7.3663  10.5346  12.4593  12.7020  13.2328
    13.7068  13.7398  14.3744  14.5309  14.9480  15.0481  15.1314  15.2694
    15.4552  15.5116

     occupation numbers 
     1.0000   1.0000   1.0000   1.0000   1.0000   1.0000   1.0000   1.0000
     1.0000   1.0000   1.0000   1.0000   1.0000   1.0000   1.0000   1.0000
     1.0000   1.0000   1.0000   1.0000   1.0000   1.0000   1.0000   1.0000
     1.0000   1.0000   1.0000   1.0000   1.0000   1.0000   1.0000   1.0000
     1.0000   1.0000   1.0000   1.0000   1.0000   1.0000   1.0000   1.0000
     1.0000   1.0000   1.0000   1.0000   1.0000   1.0000   1.0000   1.0000
     1.0000   1.0000   1.0000   1.0000   1.0000   1.0000   1.0000   1.0000
     1.0000   1.0000   1.0000   1.0000   1.0000   1.0000   1.0000   1.0000
     1.0000   1.0000   1.0000   1.0000   1.0000   1.0000   1.0000   1.0000
     1.0000   1.0000   1.0000   1.0000   1.0000   1.0000   1.0000   1.0000
     1.0000   1.0000   1.0000   1.0000   1.0000   1.0000   1.0000   1.0000
     1.0000   1.0000   1.0000   1.0000   1.0000   1.0000   1.0000   1.0000
     1.0000   1.0000   1.0000   1.0000   1.0000   1.0000   1.0000   1.0000
     1.0000   1.0000   1.0000   1.0000   1.0000   1.0000   1.0000   1.0000
     1.0000   1.0000   1.0000   1.0000   0.0000   0.0000   0.0000   0.0000
     0.0000   0.0000   0.0000   0.0000   0.0000   0.0000   0.0000   0.0000
     0.0000   0.0000

          k = 0.0000 0.0000 0.4547 ( 36500 PWs)   bands (ev):

   -80.9465 -80.9464 -80.9461 -80.9460 -47.9219 -47.9219 -47.9213 -47.9212
   -46.6770 -46.6769 -46.6765 -46.6764 -46.4054 -46.4052 -46.4048 -46.4048
   -43.0308 -43.0307 -43.0219 -43.0218 -15.2446 -15.2345 -15.1162 -15.1103
   -15.0486 -15.0385 -15.0377 -15.0365 -14.9760 -14.9759 -14.9435 -14.9434
   -14.4895 -14.3509 -14.2398 -14.1485 -11.9747 -11.9583 -11.9424 -11.9042
   -11.8684 -11.8618 -11.7974 -11.7651 -11.7423 -11.7291 -11.7001 -11.6904
    -2.0161  -1.6930  -1.5459  -1.4759  -0.1574   0.0484   0.2608   0.3015
     0.4112   0.5354   0.7417   0.7505   0.7847   0.8374   0.8655   1.1039
     1.9896   2.1354   2.4047   2.4688   2.6167   2.6892   2.7251   2.7818
     2.8411   2.9204   3.1441   3.2442   3.2667   3.3091   3.3360   3.4889
     3.5881   3.6165   3.9330   3.9418   4.0621   4.1123   4.1156   4.1886
     4.2654   4.4935   4.5792   4.7835   4.8858   5.0327   5.1646   5.2382
     5.5316   5.5881   5.6074   5.8184   5.8365   5.8587   5.8933   6.0102
     6.2260   6.3623   6.6863   6.7102   6.7615   6.7741   6.8333   6.9691
     7.0192   7.0891   7.3535   7.3551  10.9386  12.5865  12.9116  13.2157
    13.6737  13.7777  14.1082  14.6077  14.6893  14.8207  14.9172  15.0147
    15.3553  15.5180

     occupation numbers 
     1.0000   1.0000   1.0000   1.0000   1.0000   1.0000   1.0000   1.0000
     1.0000   1.0000   1.0000   1.0000   1.0000   1.0000   1.0000   1.0000
     1.0000   1.0000   1.0000   1.0000   1.0000   1.0000   1.0000   1.0000
     1.0000   1.0000   1.0000   1.0000   1.0000   1.0000   1.0000   1.0000
     1.0000   1.0000   1.0000   1.0000   1.0000   1.0000   1.0000   1.0000
     1.0000   1.0000   1.0000   1.0000   1.0000   1.0000   1.0000   1.0000
     1.0000   1.0000   1.0000   1.0000   1.0000   1.0000   1.0000   1.0000
     1.0000   1.0000   1.0000   1.0000   1.0000   1.0000   1.0000   1.0000
     1.0000   1.0000   1.0000   1.0000   1.0000   1.0000   1.0000   1.0000
     1.0000   1.0000   1.0000   1.0000   1.0000   1.0000   1.0000   1.0000
     1.0000   1.0000   1.0000   1.0000   1.0000   1.0000   1.0000   1.0000
     1.0000   1.0000   1.0000   1.0000   1.0000   1.0000   1.0000   1.0000
     1.0000   1.0000   1.0000   1.0000   1.0000   1.0000   1.0000   1.0000
     1.0000   1.0000   1.0000   1.0000   1.0000   1.0000   1.0000   1.0000
     1.0000   1.0000   1.0000   1.0000   0.0000   0.0000   0.0000   0.0000
     0.0000   0.0000   0.0000   0.0000   0.0000   0.0000   0.0000   0.0000
     0.0000   0.0000

          k = 0.0000 0.0000 0.6820 ( 36490 PWs)   bands (ev):

   -80.9465 -80.9464 -80.9461 -80.9460 -47.9219 -47.9218 -47.9213 -47.9213
   -46.6770 -46.6769 -46.6765 -46.6764 -46.4054 -46.4052 -46.4048 -46.4048
   -43.0308 -43.0307 -43.0219 -43.0218 -15.2396 -15.2313 -15.1329 -15.1295
   -15.0455 -15.0384 -15.0374 -15.0371 -14.9762 -14.9761 -14.9439 -14.9438
   -14.3914 -14.3009 -14.2539 -14.1937 -11.9952 -11.9898 -11.9616 -11.8977
   -11.8735 -11.8440 -11.8252 -11.7814 -11.7685 -11.7586 -11.6851 -11.6754
    -1.9266  -1.6732  -1.6084  -1.5193   0.1186   0.1812   0.3431   0.3612
     0.5421   0.5796   0.6360   0.7238   0.7722   0.9597   0.9800   1.0175
     1.9713   2.1385   2.2535   2.4506   2.5119   2.5530   2.6904   2.7023
     2.7429   2.8035   2.8905   3.1422   3.2602   3.3018   3.3753   3.4245
     3.5905   3.5991   3.8386   3.8808   4.1866   4.2338   4.2548   4.3069
     4.3348   4.5443   4.5947   4.7479   4.8710   5.0153   5.2096   5.3038
     5.5315   5.5392   5.5944   5.7253   5.7419   5.7445   5.9144   6.0118
     6.3739   6.4817   6.7128   6.7485   6.7708   6.8207   6.8524   6.9087
     6.9154   7.0485   7.3469   7.3578  11.4845  12.7785  12.8995  13.3922
    13.6933  13.7140  13.9518  14.4087  14.4280  14.7051  14.8003  14.9509
    15.0101  15.3435

     occupation numbers 
     1.0000   1.0000   1.0000   1.0000   1.0000   1.0000   1.0000   1.0000
     1.0000   1.0000   1.0000   1.0000   1.0000   1.0000   1.0000   1.0000
     1.0000   1.0000   1.0000   1.0000   1.0000   1.0000   1.0000   1.0000
     1.0000   1.0000   1.0000   1.0000   1.0000   1.0000   1.0000   1.0000
     1.0000   1.0000   1.0000   1.0000   1.0000   1.0000   1.0000   1.0000
     1.0000   1.0000   1.0000   1.0000   1.0000   1.0000   1.0000   1.0000
     1.0000   1.0000   1.0000   1.0000   1.0000   1.0000   1.0000   1.0000
     1.0000   1.0000   1.0000   1.0000   1.0000   1.0000   1.0000   1.0000
     1.0000   1.0000   1.0000   1.0000   1.0000   1.0000   1.0000   1.0000
     1.0000   1.0000   1.0000   1.0000   1.0000   1.0000   1.0000   1.0000
     1.0000   1.0000   1.0000   1.0000   1.0000   1.0000   1.0000   1.0000
     1.0000   1.0000   1.0000   1.0000   1.0000   1.0000   1.0000   1.0000
     1.0000   1.0000   1.0000   1.0000   1.0000   1.0000   1.0000   1.0000
     1.0000   1.0000   1.0000   1.0000   1.0000   1.0000   1.0000   1.0000
     1.0000   1.0000   1.0000   1.0000   0.0000   0.0000   0.0000   0.0000
     0.0000   0.0000   0.0000   0.0000   0.0000   0.0000   0.0000   0.0000
     0.0000   0.0000

          k = 0.0000 0.0000 0.9094 ( 36580 PWs)   bands (ev):

   -80.9465 -80.9464 -80.9461 -80.9460 -47.9218 -47.9217 -47.9214 -47.9213
   -46.6770 -46.6769 -46.6765 -46.6764 -46.4054 -46.4052 -46.4048 -46.4048
   -43.0308 -43.0307 -43.0219 -43.0218 -15.2419 -15.2384 -15.1346 -15.1340
   -15.0383 -15.0381 -15.0376 -15.0354 -14.9763 -14.9762 -14.9441 -14.9440
   -14.3210 -14.2905 -14.2501 -14.2278 -12.0061 -12.0056 -11.9706 -11.9493
   -11.8366 -11.8221 -11.8139 -11.8030 -11.7941 -11.7933 -11.6733 -11.6694
    -1.8160  -1.7022  -1.6344  -1.5797   0.3003   0.3766   0.3927   0.4153
     0.5170   0.5319   0.6462   0.7086   0.8318   0.9188   1.0941   1.1045
     1.9659   2.0705   2.1809   2.2941   2.4384   2.4851   2.5786   2.6599
     2.6815   2.7054   2.9023   3.0026   3.2898   3.3046   3.3815   3.3858
     3.6413   3.6590   3.7248   3.7757   4.2557   4.2914   4.2946   4.3289
     4.5549   4.6078   4.6862   4.7099   4.7571   4.8922   5.3167   5.3971
     5.4973   5.5794   5.6115   5.6240   5.6473   5.6531   5.9510   5.9881
     6.5388   6.6293   6.7040   6.7309   6.7505   6.7805   6.7981   6.8255
     6.9767   7.0193   7.3479   7.3541  12.0648  12.5768  13.0276  13.2903
    13.7578  13.8202  13.9885  14.1961  14.3383  14.5643  14.7957  14.8649
    14.8652  15.0316

     occupation numbers 
     1.0000   1.0000   1.0000   1.0000   1.0000   1.0000   1.0000   1.0000
     1.0000   1.0000   1.0000   1.0000   1.0000   1.0000   1.0000   1.0000
     1.0000   1.0000   1.0000   1.0000   1.0000   1.0000   1.0000   1.0000
     1.0000   1.0000   1.0000   1.0000   1.0000   1.0000   1.0000   1.0000
     1.0000   1.0000   1.0000   1.0000   1.0000   1.0000   1.0000   1.0000
     1.0000   1.0000   1.0000   1.0000   1.0000   1.0000   1.0000   1.0000
     1.0000   1.0000   1.0000   1.0000   1.0000   1.0000   1.0000   1.0000
     1.0000   1.0000   1.0000   1.0000   1.0000   1.0000   1.0000   1.0000
     1.0000   1.0000   1.0000   1.0000   1.0000   1.0000   1.0000   1.0000
     1.0000   1.0000   1.0000   1.0000   1.0000   1.0000   1.0000   1.0000
     1.0000   1.0000   1.0000   1.0000   1.0000   1.0000   1.0000   1.0000
     1.0000   1.0000   1.0000   1.0000   1.0000   1.0000   1.0000   1.0000
     1.0000   1.0000   1.0000   1.0000   1.0000   1.0000   1.0000   1.0000
     1.0000   1.0000   1.0000   1.0000   1.0000   1.0000   1.0000   1.0000
     1.0000   1.0000   1.0000   1.0000   0.0000   0.0000   0.0000   0.0000
     0.0000   0.0000   0.0000   0.0000   0.0000   0.0000   0.0000   0.0000
     0.0000   0.0000

          k = 0.0000 0.2390 0.0000 ( 36476 PWs)   bands (ev):

   -80.9465 -80.9464 -80.9461 -80.9460 -47.9220 -47.9219 -47.9212 -47.9211
   -46.6770 -46.6769 -46.6765 -46.6764 -46.4054 -46.4053 -46.4048 -46.4047
   -43.0303 -43.0302 -43.0223 -43.0223 -15.2519 -15.2408 -15.0852 -15.0788
   -15.0427 -15.0402 -15.0195 -15.0173 -14.9965 -14.9929 -14.9478 -14.9476
   -14.5853 -14.4132 -14.2221 -14.1205 -11.9604 -11.9446 -11.9239 -11.8990
   -11.8886 -11.8719 -11.7704 -11.7265 -11.7101 -11.7073 -11.7019 -11.6992
    -2.0581  -1.6709  -1.5075  -1.4721  -0.3694  -0.0410   0.1064   0.2158
     0.3291   0.4896   0.6809   0.7472   0.8511   0.8540   0.8952   1.1504
     2.0023   2.1590   2.4445   2.4805   2.5722   2.7709   2.8133   2.9496
     2.9776   3.0322   3.1504   3.2934   3.3011   3.3193   3.5520   3.6341
     3.6537   3.6547   3.7169   3.8228   3.9943   4.0047   4.0587   4.2553
     4.2859   4.4061   4.5444   4.7626   4.8122   4.9085   5.1291   5.3205
     5.5276   5.5670   5.6239   5.7634   5.8390   5.9636   5.9957   6.1390
     6.1564   6.2367   6.6747   6.6758   6.7083   6.7283   6.7958   6.9137
     6.9198   7.3091   7.4073   7.4086  10.5504  12.5020  12.7028  13.1976
    13.7623  13.9149  14.1690  14.6902  15.0539  15.2079  15.2648  15.2895
    15.3735  15.6729

     occupation numbers 
     1.0000   1.0000   1.0000   1.0000   1.0000   1.0000   1.0000   1.0000
     1.0000   1.0000   1.0000   1.0000   1.0000   1.0000   1.0000   1.0000
     1.0000   1.0000   1.0000   1.0000   1.0000   1.0000   1.0000   1.0000
     1.0000   1.0000   1.0000   1.0000   1.0000   1.0000   1.0000   1.0000
     1.0000   1.0000   1.0000   1.0000   1.0000   1.0000   1.0000   1.0000
     1.0000   1.0000   1.0000   1.0000   1.0000   1.0000   1.0000   1.0000
     1.0000   1.0000   1.0000   1.0000   1.0000   1.0000   1.0000   1.0000
     1.0000   1.0000   1.0000   1.0000   1.0000   1.0000   1.0000   1.0000
     1.0000   1.0000   1.0000   1.0000   1.0000   1.0000   1.0000   1.0000
     1.0000   1.0000   1.0000   1.0000   1.0000   1.0000   1.0000   1.0000
     1.0000   1.0000   1.0000   1.0000   1.0000   1.0000   1.0000   1.0000
     1.0000   1.0000   1.0000   1.0000   1.0000   1.0000   1.0000   1.0000
     1.0000   1.0000   1.0000   1.0000   1.0000   1.0000   1.0000   1.0000
     1.0000   1.0000   1.0000   1.0000   1.0000   1.0000   1.0000   1.0000
     1.0000   1.0000   1.0000   1.0000   0.0000   0.0000   0.0000   0.0000
     0.0000   0.0000   0.0000   0.0000   0.0000   0.0000   0.0000   0.0000
     0.0000   0.0000

          k = 0.0000 0.2390 0.2273 ( 36497 PWs)   bands (ev):

   -80.9465 -80.9464 -80.9461 -80.9460 -47.9220 -47.9219 -47.9212 -47.9212
   -46.6770 -46.6769 -46.6765 -46.6764 -46.4054 -46.4052 -46.4048 -46.4047
   -43.0303 -43.0302 -43.0223 -43.0223 -15.2461 -15.2356 -15.0914 -15.0856
   -15.0438 -15.0435 -15.0310 -15.0256 -14.9916 -14.9903 -14.9481 -14.9480
   -14.5506 -14.3911 -14.2277 -14.1320 -11.9682 -11.9533 -11.9248 -11.9013
   -11.8826 -11.8700 -11.7872 -11.7245 -11.7179 -11.7101 -11.7079 -11.6971
    -2.0387  -1.6710  -1.5155  -1.4701  -0.3064  -0.0150   0.1558   0.2613
     0.3370   0.5032   0.6931   0.7631   0.8310   0.8575   0.8688   1.1323
     2.0029   2.1461   2.4320   2.4924   2.5267   2.7435   2.7648   2.8937
     2.9197   3.0796   3.1660   3.2285   3.2769   3.3213   3.5516   3.5662
     3.6303   3.6594   3.7666   3.8844   4.0236   4.0380   4.0421   4.2338
     4.2758   4.4394   4.5564   4.7711   4.8186   4.9310   5.1190   5.3020
     5.5190   5.5462   5.6244   5.7756   5.8446   5.9532   6.0015   6.0941
     6.1349   6.2507   6.6842   6.7141   6.7409   6.7517   6.7961   6.8835
     6.9031   7.2843   7.4038   7.4160  10.6966  12.5501  12.7959  13.2133
    13.7674  13.8065  14.3565  14.4495  14.9996  15.0686  15.0720  15.3586
    15.4576  15.5366

     occupation numbers 
     1.0000   1.0000   1.0000   1.0000   1.0000   1.0000   1.0000   1.0000
     1.0000   1.0000   1.0000   1.0000   1.0000   1.0000   1.0000   1.0000
     1.0000   1.0000   1.0000   1.0000   1.0000   1.0000   1.0000   1.0000
     1.0000   1.0000   1.0000   1.0000   1.0000   1.0000   1.0000   1.0000
     1.0000   1.0000   1.0000   1.0000   1.0000   1.0000   1.0000   1.0000
     1.0000   1.0000   1.0000   1.0000   1.0000   1.0000   1.0000   1.0000
     1.0000   1.0000   1.0000   1.0000   1.0000   1.0000   1.0000   1.0000
     1.0000   1.0000   1.0000   1.0000   1.0000   1.0000   1.0000   1.0000
     1.0000   1.0000   1.0000   1.0000   1.0000   1.0000   1.0000   1.0000
     1.0000   1.0000   1.0000   1.0000   1.0000   1.0000   1.0000   1.0000
     1.0000   1.0000   1.0000   1.0000   1.0000   1.0000   1.0000   1.0000
     1.0000   1.0000   1.0000   1.0000   1.0000   1.0000   1.0000   1.0000
     1.0000   1.0000   1.0000   1.0000   1.0000   1.0000   1.0000   1.0000
     1.0000   1.0000   1.0000   1.0000   1.0000   1.0000   1.0000   1.0000
     1.0000   1.0000   1.0000   1.0000   0.0000   0.0000   0.0000   0.0000
     0.0000   0.0000   0.0000   0.0000   0.0000   0.0000   0.0000   0.0000
     0.0000   0.0000

          k = 0.0000 0.2390 0.4547 ( 36511 PWs)   bands (ev):

   -80.9465 -80.9464 -80.9461 -80.9460 -47.9219 -47.9218 -47.9213 -47.9212
   -46.6770 -46.6769 -46.6765 -46.6764 -46.4054 -46.4052 -46.4048 -46.4048
   -43.0303 -43.0302 -43.0223 -43.0223 -15.2339 -15.2248 -15.1118 -15.1063
   -15.0503 -15.0449 -15.0358 -15.0327 -14.9885 -14.9881 -14.9490 -14.9489
   -14.4688 -14.3405 -14.2410 -14.1627 -11.9863 -11.9723 -11.9467 -11.8839
   -11.8713 -11.8686 -11.8278 -11.7411 -11.7359 -11.7333 -11.6956 -11.6881
    -1.9825  -1.6668  -1.5392  -1.4827  -0.1217   0.0638   0.2727   0.3258
     0.4160   0.5341   0.7185   0.7785   0.7933   0.8418   0.8790   1.0801
     1.9921   2.1249   2.3674   2.4383   2.5174   2.6508   2.6586   2.7906
     2.8898   3.0234   3.1440   3.1456   3.2554   3.3058   3.3818   3.5008
     3.5940   3.6549   3.8756   3.9002   4.0831   4.1130   4.1625   4.2161
     4.2892   4.4988   4.5416   4.7677   4.8731   4.9766   5.1015   5.2602
     5.5038   5.5070   5.6268   5.7810   5.8587   5.9244   5.9359   6.0408
     6.1702   6.2942   6.7111   6.7674   6.7814   6.7843   6.8141   6.8420
     6.8590   7.2302   7.3971   7.4242  11.0877  12.6787  13.0201  13.2572
    13.7377  13.8118  14.0438  14.6145  14.7512  14.8203  14.9661  15.0259
    15.3330  15.4900

     occupation numbers 
     1.0000   1.0000   1.0000   1.0000   1.0000   1.0000   1.0000   1.0000
     1.0000   1.0000   1.0000   1.0000   1.0000   1.0000   1.0000   1.0000
     1.0000   1.0000   1.0000   1.0000   1.0000   1.0000   1.0000   1.0000
     1.0000   1.0000   1.0000   1.0000   1.0000   1.0000   1.0000   1.0000
     1.0000   1.0000   1.0000   1.0000   1.0000   1.0000   1.0000   1.0000
     1.0000   1.0000   1.0000   1.0000   1.0000   1.0000   1.0000   1.0000
     1.0000   1.0000   1.0000   1.0000   1.0000   1.0000   1.0000   1.0000
     1.0000   1.0000   1.0000   1.0000   1.0000   1.0000   1.0000   1.0000
     1.0000   1.0000   1.0000   1.0000   1.0000   1.0000   1.0000   1.0000
     1.0000   1.0000   1.0000   1.0000   1.0000   1.0000   1.0000   1.0000
     1.0000   1.0000   1.0000   1.0000   1.0000   1.0000   1.0000   1.0000
     1.0000   1.0000   1.0000   1.0000   1.0000   1.0000   1.0000   1.0000
     1.0000   1.0000   1.0000   1.0000   1.0000   1.0000   1.0000   1.0000
     1.0000   1.0000   1.0000   1.0000   1.0000   1.0000   1.0000   1.0000
     1.0000   1.0000   1.0000   1.0000   0.0000   0.0000   0.0000   0.0000
[...]
     atom    4 type  2   force =     0.00000000    0.00000000    0.00000000
     atom    5 type  1   force =    -0.07364940    0.00000525    0.07010149
     atom    6 type  1   force =     0.07361855   -0.00000896    0.07015345
     atom    7 type  1   force =     0.07364940   -0.00000525   -0.07010149
     atom    8 type  1   force =    -0.07361855    0.00000896   -0.07015345
     atom    9 type  4   force =     0.02662202   -0.00000950    0.00156560
     atom   10 type  4   force =    -0.02660118    0.00000759    0.00163608
     atom   11 type  4   force =    -0.02662202    0.00000950   -0.00156560
     atom   12 type  4   force =     0.02660118   -0.00000759   -0.00163608
     atom   13 type  3   force =     0.16599754    0.00001629   -1.47471227
     atom   14 type  3   force =    -0.16602763   -0.00001396   -1.47466909
     atom   15 type  3   force =    -0.16599754   -0.00001629    1.47471227
     atom   16 type  3   force =     0.16602763    0.00001396    1.47466909
     atom   17 type  3   force =     1.24793022    0.00001261   -0.67328185
     atom   18 type  3   force =    -1.24791545   -0.00005850   -0.67332186
     atom   19 type  3   force =    -1.24793022   -0.00001261    0.67328185
     atom   20 type  3   force =     1.24791545    0.00005850    0.67332186
     atom   21 type  3   force =    -0.70539400   -0.96880576    0.71836722
     atom   22 type  3   force =     0.70536941    0.96885085    0.71834464
     atom   23 type  3   force =     0.70534832   -0.96877625   -0.71832803
     atom   24 type  3   force =    -0.70534021    0.96882929   -0.71830682
     atom   25 type  3   force =     0.70539400    0.96880576   -0.71836722
     atom   26 type  3   force =    -0.70536941   -0.96885085   -0.71834464
     atom   27 type  3   force =    -0.70534832    0.96877625    0.71832803
     atom   28 type  3   force =     0.70534021   -0.96882929    0.71830682
     The ionic contribution  to forces
     atom    1 type  2   force =     0.00010288   -0.00005938   -0.00004784
     atom    2 type  2   force =     0.00004305   -0.00004480   -0.00005039
     atom    3 type  2   force =    -0.00013661   -0.00014483   -0.00014291
     atom    4 type  2   force =    -0.00004113   -0.00001184   -0.00000061
     atom    5 type  1   force =     2.36143301    0.00085960   -0.62012562
     atom    6 type  1   force =    -2.36220893   -0.00079827   -0.62018429
     atom    7 type  1   force =    -2.36141181   -0.00069025    0.62002561
     atom    8 type  1   force =     2.36216613    0.00084054    0.62025141
     atom    9 type  4   force =    -0.65946117    0.00025698    1.72357314
     atom   10 type  4   force =     0.65952110   -0.00015518    1.72397546
     atom   11 type  4   force =     0.65946651   -0.00022105   -1.72322232
     atom   12 type  4   force =    -0.65951403    0.00024522   -1.72393804
     atom   13 type  3   force =    -3.85095813    0.00032286    1.38407408
     atom   14 type  3   force =     3.85093150   -0.00026972    1.38364281
     atom   15 type  3   force =     3.85088355   -0.00018699   -1.38443201
     atom   16 type  3   force =    -3.85093634    0.00031975   -1.38364492
     atom   17 type  3   force =    -1.41650998    0.00019623    3.05696355
     atom   18 type  3   force =     1.41649296   -0.00010757    3.05708989
     atom   19 type  3   force =     1.41654532   -0.00018778   -3.05694168
     atom   20 type  3   force =    -1.41655084    0.00017053   -3.05698167
     atom   21 type  3   force =     0.71506802    1.42213811   -1.74837456
     atom   22 type  3   force =    -0.71531127   -1.42247728   -1.74826330
     atom   23 type  3   force =    -0.71469747    1.42181407    1.74803290
     atom   24 type  3   force =     0.71499362   -1.42235352    1.74780024
     atom   25 type  3   force =    -0.71501233   -1.42203687    1.74841061
     atom   26 type  3   force =     0.71522160    1.42232993    1.74827434
     atom   27 type  3   force =     0.71484150   -1.42201040   -1.74789507
     atom   28 type  3   force =    -0.71496069    1.42226189   -1.74786881
     The local contribution  to forces
     atom    1 type  2   force =    -0.00482640   -0.00212893   -0.00229778
     atom    2 type  2   force =    -0.00475772   -0.00017189   -0.00153144
     atom    3 type  2   force =    -0.00625184   -0.00158034   -0.00222571
     atom    4 type  2   force =    -0.00634217    0.00023842   -0.00153585
     atom    5 type  1   force =    -2.30665824   -0.00077408    0.54961014
     atom    6 type  1   force =     2.28165703    0.00082227    0.54945523
     atom    7 type  1   force =     2.28093550    0.00077409   -0.55672783
     atom    8 type  1   force =    -2.30751270   -0.00082226   -0.55704890
     atom    9 type  4   force =     0.63847130   -0.00023845   -1.69698867
     atom   10 type  4   force =    -0.63848890    0.00019233   -1.69744046
     atom   11 type  4   force =    -0.63845292    0.00023847    1.69695202
     atom   12 type  4   force =     0.63851754   -0.00019233    1.69754259
     atom   13 type  3   force =     3.68069955   -0.00052563    0.07370010
     atom   14 type  3   force =    -3.68620676    0.00005273    0.07425805
     atom   15 type  3   force =    -3.68611384    0.00001550   -0.07554492
     atom   16 type  3   force =     3.68057978   -0.00056284   -0.07599576
     atom   17 type  3   force =     0.14384229   -0.00020491   -2.38013531
     atom   18 type  3   force =    -0.14866768    0.00019299   -2.38090580
     atom   19 type  3   force =    -0.14857372    0.00020493    2.37922710
     atom   20 type  3   force =     0.14375960   -0.00019296    2.37854882
     atom   21 type  3   force =    -0.00330727   -0.43622029    1.02662596
     atom   22 type  3   force =    -0.00283451    0.43660335    1.02668104
     atom   23 type  3   force =    -0.00294538   -0.43673070   -1.02802589
     atom   24 type  3   force =    -0.00323961    0.43630671   -1.02769172
     atom   25 type  3   force =    -0.00270158    0.43665657   -1.02839747
     atom   26 type  3   force =    -0.00390103   -0.43677950   -1.02811418
     atom   27 type  3   force =    -0.00309073    0.43587017    1.02621862
     atom   28 type  3   force =    -0.00269900   -0.43693339    1.02630518
     The core correction contribution to forces
     atom    1 type  2   force =     0.00000000    0.00000000    0.00000000
     atom    2 type  2   force =     0.00000000    0.00000000    0.00000000
     atom    3 type  2   force =     0.00000000    0.00000000    0.00000000
     atom    4 type  2   force =     0.00000000    0.00000000    0.00000000
     atom    5 type  1   force =     0.00386472   -0.00000171   -0.00281173
     atom    6 type  1   force =    -0.00294331    0.00000172   -0.00282645
     atom    7 type  1   force =    -0.00293960    0.00000170    0.00308699
     atom    8 type  1   force =     0.00386044   -0.00000173    0.00307311
     atom    9 type  4   force =    -0.00221420    0.00000059   -0.00243699
     atom   10 type  4   force =     0.00223105   -0.00000054   -0.00244081
     atom   11 type  4   force =     0.00223297   -0.00000059    0.00243714
     atom   12 type  4   force =    -0.00221232    0.00000054    0.00244624
     atom   13 type  3   force =    -0.00206881   -0.00000028    0.01274331
     atom   14 type  3   force =     0.00206474   -0.00000001    0.01274520
     atom   15 type  3   force =     0.00206418    0.00000001   -0.01274779
     atom   16 type  3   force =    -0.00206888   -0.00000026   -0.01274702
     atom   17 type  3   force =    -0.00989868   -0.00000010    0.00627274
     atom   18 type  3   force =     0.00989002    0.00000057    0.00627161
     atom   19 type  3   force =     0.00989050    0.00000010   -0.00627250
     atom   20 type  3   force =    -0.00989887   -0.00000057   -0.00627438
     atom   21 type  3   force =     0.00596719    0.00786958   -0.00639432
     atom   22 type  3   force =    -0.00597111   -0.00787169   -0.00639557
     atom   23 type  3   force =    -0.00597029    0.00787056    0.00639392
     atom   24 type  3   force =     0.00596601   -0.00786965    0.00639203
     atom   25 type  3   force =    -0.00597084   -0.00787096    0.00639433
     atom   26 type  3   force =     0.00596590    0.00786901    0.00639226
     atom   27 type  3   force =     0.00596677   -0.00786979   -0.00639397
     atom   28 type  3   force =    -0.00597037    0.00787087   -0.00639498
     The Hubbard contrib.    to forces
     atom    1 type  2   force =     0.00000000    0.00000000    0.00000000
     atom    2 type  2   force =     0.00000000    0.00000000    0.00000000
     atom    3 type  2   force =     0.00000000    0.00000000    0.00000000
     atom    4 type  2   force =     0.00000000    0.00000000    0.00000000
     atom    5 type  1   force =     0.00000000    0.00000000    0.00000000
     atom    6 type  1   force =     0.00000000    0.00000000    0.00000000
     atom    7 type  1   force =     0.00000000    0.00000000    0.00000000
     atom    8 type  1   force =     0.00000000    0.00000000    0.00000000
     atom    9 type  4   force =     0.00000000    0.00000000    0.00000000
     atom   10 type  4   force =     0.00000000    0.00000000    0.00000000
     atom   11 type  4   force =     0.00000000    0.00000000    0.00000000
     atom   12 type  4   force =     0.00000000    0.00000000    0.00000000
     atom   13 type  3   force =     0.00000000    0.00000000    0.00000000
     atom   14 type  3   force =     0.00000000    0.00000000    0.00000000
     atom   15 type  3   force =     0.00000000    0.00000000    0.00000000
     atom   16 type  3   force =     0.00000000    0.00000000    0.00000000
     atom   17 type  3   force =     0.00000000    0.00000000    0.00000000
     atom   18 type  3   force =     0.00000000    0.00000000    0.00000000
     atom   19 type  3   force =     0.00000000    0.00000000    0.00000000
     atom   20 type  3   force =     0.00000000    0.00000000    0.00000000
     atom   21 type  3   force =     0.00000000    0.00000000    0.00000000
     atom   22 type  3   force =     0.00000000    0.00000000    0.00000000
     atom   23 type  3   force =     0.00000000    0.00000000    0.00000000
     atom   24 type  3   force =     0.00000000    0.00000000    0.00000000
     atom   25 type  3   force =     0.00000000    0.00000000    0.00000000
     atom   26 type  3   force =     0.00000000    0.00000000    0.00000000
     atom   27 type  3   force =     0.00000000    0.00000000    0.00000000
     atom   28 type  3   force =     0.00000000    0.00000000    0.00000000
     The SCF correction term to forces
     atom    1 type  2   force =     0.00000000    0.00000000    0.00000000
     atom    2 type  2   force =     0.00000000    0.00000000    0.00000000
     atom    3 type  2   force =     0.00000000    0.00000000    0.00000000
     atom    4 type  2   force =     0.00000000   -0.00000000    0.00000000
     atom    5 type  1   force =     0.00000239    0.00000012    0.00000399
     atom    6 type  1   force =     0.00000173   -0.00000009    0.00000189
     atom    7 type  1   force =    -0.00000237   -0.00000011   -0.00000398
     atom    8 type  1   force =    -0.00000171    0.00000009   -0.00000188
     atom    9 type  4   force =     0.00000054   -0.00000012    0.00000049
     atom   10 type  4   force =     0.00000172   -0.00000001    0.00000018
     atom   11 type  4   force =    -0.00000054    0.00000012   -0.00000049
     atom   12 type  4   force =    -0.00000172    0.00000001   -0.00000018
     atom   13 type  3   force =     0.00000132   -0.00000002   -0.00000034
     atom   14 type  3   force =     0.00000171   -0.00000003    0.00000042
     atom   15 type  3   force =    -0.00000132    0.00000002    0.00000034
     atom   16 type  3   force =    -0.00000171    0.00000003   -0.00000042
     atom   17 type  3   force =     0.00000084    0.00000016   -0.00000092
     atom   18 type  3   force =    -0.00000185   -0.00000011   -0.00000092
     atom   19 type  3   force =    -0.00000084   -0.00000016    0.00000092
     atom   20 type  3   force =     0.00000185    0.00000011    0.00000093
     atom   21 type  3   force =     0.00000030   -0.00000140    0.00000016
     atom   22 type  3   force =     0.00000123   -0.00000122    0.00000031
     atom   23 type  3   force =    -0.00000000   -0.00000040   -0.00000031
     atom   24 type  3   force =    -0.00000156   -0.00000185   -0.00000075
     atom   25 type  3   force =    -0.00000029    0.00000140   -0.00000016
     atom   26 type  3   force =    -0.00000123    0.00000122   -0.00000031
     atom   27 type  3   force =     0.00000000    0.00000040    0.00000032
     atom   28 type  3   force =     0.00000156    0.00000185    0.00000075

     Total force =     0.121572     Total SCF correction =     0.000010


     Computing stress (Cartesian axis) and pressure


     negative rho (up, down):  0.000E+00 5.476E-04
          total   stress  (Ry/bohr**3)                   (kbar)     P=       53.00
   0.00045223  -0.00000001   0.00000004           66.53       -0.00        0.01
  -0.00000001   0.00046576  -0.00000001           -0.00       68.52       -0.00
   0.00000004  -0.00000001   0.00016295            0.01       -0.00       23.97

     kinetic stress (kbar)  32321.10     -0.02     -0.00
                               -0.02  32158.96     -0.00
                               -0.00     -0.00  32173.72

     local   stress (kbar)  -3529.27     -0.10     -0.19
                               -0.10  -6367.27     -0.02
                               -0.19     -0.02  -1713.19

     nonloc. stress (kbar)  -9641.73     -0.00      0.00
                               -0.00  -9773.78     -0.00
                                0.00     -0.00  -9605.81

     hartree stress (kbar)  14462.53      0.02      0.06
                                0.02  15635.13      0.01
                                0.06      0.01  13509.93

     exc-cor stress (kbar)  -3648.75      0.00      0.00
                                0.00  -3654.76      0.00
                                0.00      0.00  -3647.23

     corecor stress (kbar)  -3120.87      0.00     -0.00
                                0.00  -3100.46      0.00
                               -0.00      0.00  -3123.10

     ewald   stress (kbar) -26776.49      0.10      0.14
                                0.10 -24829.31      0.02
                                0.14      0.02 -27570.36

     hubbard stress (kbar)      0.00      0.00      0.00
                                0.00      0.00      0.00
                                0.00      0.00      0.00

     DFT-D   stress (kbar)      0.00      0.00      0.00
                                0.00      0.00      0.00
                                0.00      0.00      0.00

     XDM     stress (kbar)      0.00      0.00      0.00
                                0.00      0.00      0.00
                                0.00      0.00      0.00

     dft-nl  stress (kbar)      0.00      0.00      0.00
                                0.00      0.00      0.00
                                0.00      0.00      0.00

     TS-vdW  stress (kbar)      0.00      0.00      0.00
                                0.00      0.00      0.00
                                0.00      0.00      0.00



     init_run     :     96.75s CPU     98.83s WALL (       1 calls)
     electrons    :   8981.39s CPU   9120.03s WALL (       1 calls)
     forces       :     47.95s CPU     48.85s WALL (       1 calls)
     stress       :    591.40s CPU    593.96s WALL (       1 calls)

     Called by init_run:
     wfcinit      :     86.08s CPU     87.80s WALL (       1 calls)
     wfcinit:atom :      1.95s CPU      1.98s WALL (     316 calls)
     wfcinit:wfcr :     77.08s CPU     78.71s WALL (     316 calls)
     potinit      :      3.85s CPU      3.94s WALL (       1 calls)
     hinit0       :      4.82s CPU      4.90s WALL (       1 calls)

     Called by electrons:
     c_bands      :   7741.89s CPU   7847.92s WALL (      39 calls)
     sum_band     :   1139.64s CPU   1167.51s WALL (      39 calls)
     v_of_rho     :     21.13s CPU     21.83s WALL (      40 calls)
     v_h          :      0.96s CPU      1.01s WALL (      40 calls)
     v_xc         :     21.18s CPU     21.87s WALL (      42 calls)
     newd         :     54.92s CPU     58.75s WALL (      40 calls)
     PAW_pot      :     19.49s CPU     19.57s WALL (      40 calls)
     mix_rho      :      4.41s CPU      4.59s WALL (      39 calls)

     Called by c_bands:
     init_us_2    :    169.80s CPU    172.77s WALL (   25596 calls)
     cegterg      :   7400.93s CPU   7503.44s WALL (   12324 calls)

     Called by sum_band:
     sum_band:wei :      0.36s CPU      0.36s WALL (      39 calls)
     sum_band:loo :   1035.42s CPU   1053.35s WALL (      39 calls)
     sum_band:buf :     44.60s CPU     45.08s WALL (   12324 calls)
     sum_band:ini :     83.76s CPU     85.18s WALL (   12324 calls)
     sum_band:cal :    272.01s CPU    278.65s WALL (   12324 calls)
     sum_band:bec :      2.17s CPU      2.21s WALL (   12324 calls)
     addusdens    :    101.58s CPU    111.22s WALL (      39 calls)
     addusd:skk   :      0.66s CPU      0.68s WALL (     117 calls)
     addusd:dgemm :     20.01s CPU     28.87s WALL (     234 calls)
     addusd:qvan2 :     79.91s CPU     80.52s WALL (     234 calls)

     Called by *egterg:
     cdiaghg      :    452.33s CPU    460.80s WALL (   44024 calls)
     cegterg:over :    608.23s CPU    618.88s WALL (   31700 calls)
     cegterg:upda :    434.81s CPU    438.84s WALL (   31700 calls)
     cegterg:last :    802.26s CPU    809.43s WALL (   20518 calls)
     h_psi        :   3931.43s CPU   3992.45s WALL (   44340 calls)
     s_psi        :    749.49s CPU    755.61s WALL (   44340 calls)
     g_psi        :     38.80s CPU     39.36s WALL (   31700 calls)

     Called by h_psi:
     h_psi:calbec :    669.22s CPU    684.13s WALL (   44340 calls)
     vloc_psi     :   2399.19s CPU   2436.29s WALL (   44340 calls)
     add_vuspsi   :    768.70s CPU    776.44s WALL (   44340 calls)

     General routines
     calbec       :    979.10s CPU   1001.57s WALL (   58244 calls)
     fft          :     15.50s CPU     16.57s WALL (    1038 calls)
     ffts         :      0.17s CPU      0.19s WALL (     158 calls)
     fftw         :   2483.74s CPU   2521.71s WALL ( 8820254 calls)
     interpolate  :      1.57s CPU      1.66s WALL (      80 calls)

     Parallel routines
     fft_scatt_xy :    370.45s CPU    376.37s WALL ( 8821450 calls)
     fft_scatt_yz :    632.60s CPU    644.75s WALL ( 8821450 calls)

     PAW routines
     PAW_pot      :     19.49s CPU     19.57s WALL (      40 calls)
     PAW_symme    :      0.02s CPU      0.02s WALL (      79 calls)

     PWSCF        :      2h41m CPU      2h44m WALL


   This run was terminated on:  23:25:31   5Mar2023            

=------------------------------------------------------------------------------=
   JOB DONE.
=------------------------------------------------------------------------------=
Note: The following floating-point exceptions are signalling: IEEE_UNDERFLOW_FLAG IEEE_DENORMAL
Note: The following floating-point exceptions are signalling: IEEE_DENORMAL
Note: The following floating-point exceptions are signalling: IEEE_DENORMAL
Note: The following floating-point exceptions are signalling: IEEE_DENORMAL
Note: The following floating-point exceptions are signalling: IEEE_DENORMAL
Note: The following floating-point exceptions are signalling: IEEE_DENORMAL
Note: The following floating-point exceptions are signalling: IEEE_DENORMAL
Note: The following floating-point exceptions are signalling: IEEE_DENORMAL
Note: The following floating-point exceptions are signalling: IEEE_DENORMAL
Note: The following floating-point exceptions are signalling: IEEE_INVALID_FLAG IEEE_DENORMAL
Note: The following floating-point exceptions are signalling: IEEE_DENORMAL
