
     Program PWSCF v.6.7MaX starts on  6Mar2023 at  5:46:20 

     This program is part of the open-source Quantum ESPRESSO suite
     for quantum simulation of materials; please cite
         "P. Giannozzi et al., J. Phys.:Condens. Matter 21 395502 (2009);
         "P. Giannozzi et al., J. Phys.:Condens. Matter 29 465901 (2017);
          URL http://www.quantum-espresso.org", 
     in publications or presentations arising from this work. More details at
     http://www.quantum-espresso.org/quote

     Parallel version (MPI), running on    16 processors

     MPI processes distributed on     1 nodes
     R & G space division:  proc/nbgrp/npool/nimage =      16
     Reading input from scale_2dab-05.in

     Current dimensions of program PWSCF are:
     Max number of different atomic species (ntypx) = 10
     Max number of k-points (npk) =  40000
     Max angular momentum in pseudopotentials (lmaxx) =  3
     Message from routine read_pp_mesh:
     mesh size missing, using the one in header
     file Fe.pbe-spn-kjpaw_psl.0.2.1.UPF: wavefunction(s)  3D renormalized
     file O.pbe-n-kjpaw_psl.0.1.UPF: wavefunction(s)  2P renormalized

     Subspace diagonalization in iterative solution of the eigenvalue problem:
     a serial algorithm will be used

     Message from routine setup:
     using ibrav=0 with symmetry is DISCOURAGED, use correct ibrav instead

     Parallelization info
     --------------------
     sticks:   dense  smooth     PW     G-vecs:    dense   smooth      PW
     Min        1390     515    138                92358    20823    2914
     Max        1392     516    140                92359    20824    2915
     Sum       22243    8247   2225              1477729   333175   46631



     bravais-lattice index     =            0
     lattice parameter (alat)  =      20.8118  a.u.
     unit-cell volume          =    2465.9002 (a.u.)^3
     number of atoms/cell      =           28
     number of atomic types    =            4
     number of electrons       =       216.00
     number of Kohn-Sham states=          130
     kinetic-energy cutoff     =     100.0000  Ry
     charge density cutoff     =    1080.0000  Ry
     scf convergence threshold =      2.0E-10
     mixing beta               =       0.4000
     number of iterations used =            8  plain     mixing
     Exchange-correlation= PBE
                           (   1   4   3   4   0   0   0)

     celldm(1)=  20.811809  celldm(2)=   0.000000  celldm(3)=   0.000000
     celldm(4)=   0.000000  celldm(5)=   0.000000  celldm(6)=   0.000000

     crystal axes: (cart. coord. in units of alat)
               a(1) = (   1.000000   0.000000   0.000000 )  
               a(2) = (  -0.000003   0.597653   0.000000 )  
               a(3) = (  -0.000001  -0.000000   0.457717 )  

     reciprocal axes: (cart. coord. in units 2 pi/alat)
               b(1) = (  1.000000  0.000005  0.000002 )  
               b(2) = ( -0.000000  1.673213  0.000000 )  
               b(3) = (  0.000000 -0.000000  2.184756 )  


     PseudoPot. # 1 for Fe read from file:
     /opt/QEpot/SSSP_precision_pseudos/Fe.pbe-spn-kjpaw_psl.0.2.1.UPF
     MD5 check sum: e86618425769142926afa95317d90200
     Pseudo is Projector augmented-wave + core cor, Zval = 16.0
     Generated using "atomic" code by A. Dal Corso  v.5.0.99 svn rev. 10869
     Shape of augmentation charge: PSQ
     Using radial grid of 1191 points,  6 beta functions with: 
                l(1) =   0
                l(2) =   0
                l(3) =   1
                l(4) =   1
                l(5) =   2
                l(6) =   2
     Q(r) pseudized with 0 coefficients 


     PseudoPot. # 2 for Na read from file:
     /opt/QEpot/SSSP_precision_pseudos/Na_ONCV_PBE-1.0.oncvpsp.upf
     MD5 check sum: 24a298df0a6742ae313db96548fdb2a4
     Pseudo is Norm-conserving, Zval =  9.0
     Generated using ONCVPSP code by D. R. Hamann
     Using radial grid of 1992 points,  4 beta functions with: 
                l(1) =   0
                l(2) =   0
                l(3) =   1
                l(4) =   1

     PseudoPot. # 3 for O  read from file:
     /opt/QEpot/SSSP_precision_pseudos/O.pbe-n-kjpaw_psl.0.1.UPF
     MD5 check sum: 0234752ac141de4415c5fc33072bef88
     Pseudo is Projector augmented-wave + core cor, Zval =  6.0
     Generated using "atomic" code by A. Dal Corso  v.5.0.99 svn rev. 10869
     Shape of augmentation charge: BESSEL
     Using radial grid of 1095 points,  4 beta functions with: 
                l(1) =   0
                l(2) =   0
                l(3) =   1
                l(4) =   1
     Q(r) pseudized with 0 coefficients 


     PseudoPot. # 4 for P  read from file:
     /opt/QEpot/SSSP_precision_pseudos/P.pbe-n-rrkjus_psl.1.0.0.UPF
     MD5 check sum: 8b930f418f0a4573dca56cd030ffe088
     Pseudo is Ultrasoft + core correction, Zval =  5.0
     Generated using "atomic" code by A. Dal Corso  v.5.1
     Using radial grid of 1147 points,  6 beta functions with: 
                l(1) =   0
                l(2) =   0
                l(3) =   1
                l(4) =   1
                l(5) =   2
                l(6) =   2
     Q(r) pseudized with 0 coefficients 


     atomic species   valence    mass     pseudopotential
        Fe            16.00    55.84500     Fe( 1.00)
        Na             9.00    22.98977     Na( 1.00)
        O              6.00    15.99940     O ( 1.00)
        P              5.00    30.97376     P ( 1.00)

     Starting magnetic structure 
     atomic species   magnetization
        Fe           0.312
        Na           0.000
        O            0.000
        P            0.000

      2 Sym. Ops., with inversion, found


                                    s                        frac. trans.

      isym =  1     identity                                     

 cryst.   s( 1) = (     1          0          0      )
                  (     0          1          0      )
                  (     0          0          1      )

 cart.    s( 1) = (  1.0000000  0.0000000  0.0000000 )
                  (  0.0000000  1.0000000  0.0000000 )
                  (  0.0000000  0.0000000  1.0000000 )


      isym =  2     inversion                                    

 cryst.   s( 2) = (    -1          0          0      )
                  (     0         -1          0      )
                  (     0          0         -1      )

 cart.    s( 2) = ( -1.0000000  0.0000000  0.0000000 )
                  (  0.0000000 -1.0000000  0.0000000 )
                  (  0.0000000  0.0000000 -1.0000000 )


   Cartesian axes

     site n.     atom                  positions (alat units)
         1           Na  tau(   1) = (   0.0000030   0.0000012   0.0000014  )
         2           Na  tau(   2) = (   0.5000026  -0.0000000   0.2288595  )
         3           Na  tau(   3) = (   0.0000024   0.2988276   0.0000014  )
         4           Na  tau(   4) = (   0.5000020   0.2988264   0.2288595  )
         5           Fe  tau(   5) = (   0.2874879   0.4482365   0.4489770  )
         6           Fe  tau(   6) = (   0.2125158   0.1494174   0.2201189  )
         7           Fe  tau(   7) = (   0.7125152   0.1494162   0.0087419  )
         8           Fe  tau(   8) = (   0.7874872   0.4482354   0.2376000  )
         9           P   tau(   9) = (   0.1088453   0.4482419   0.2030222  )
        10           P   tau(  10) = (   0.3911565   0.1494120   0.4318790  )
        11           P   tau(  11) = (   0.8911578   0.1494108   0.2546948  )
        12           P   tau(  12) = (   0.6088466   0.4482407   0.0258400  )
        13           O   tau(  13) = (   0.1132501   0.4482401   0.3433885  )
        14           O   tau(  14) = (   0.3867530   0.1494144   0.1145309  )
        15           O   tau(  15) = (   0.8867530   0.1494132   0.1143313  )
        16           O   tau(  16) = (   0.6132501   0.4482389   0.3431880  )
        17           O   tau(  17) = (   0.4686005   0.4482389   0.0733478  )
        18           O   tau(  18) = (   0.0314027   0.1494150   0.3022072  )
        19           O   tau(  19) = (   0.5314025   0.1494138   0.3843707  )
        20           O   tau(  20) = (   0.9686004   0.4482377   0.1555121  )
        21           O   tau(  21) = (   0.1792128   0.5664026   0.1446857  )
        22           O   tau(  22) = (   0.3207912   0.0312519   0.3735443  )
        23           O   tau(  23) = (   0.8207871   0.2675703   0.3130350  )
        24           O   tau(  24) = (   0.6792151   0.3300824   0.0841765  )
        25           O   tau(  25) = (   0.8207903   0.0312501   0.3130332  )
        26           O   tau(  26) = (   0.6792129   0.5664015   0.0841746  )
        27           O   tau(  27) = (   0.1792160   0.3300830   0.1446839  )
        28           O   tau(  28) = (   0.3207879   0.2675709   0.3735425  )

   Crystallographic axes

     site n.     atom                  positions (cryst. coord.)
         1           Na  tau(   1) = (  0.0000030  0.0000020  0.0000030  )
         2           Na  tau(   2) = (  0.5000030  0.0000000  0.5000020  )
         3           Na  tau(   3) = (  0.0000040  0.5000020  0.0000030  )
         4           Na  tau(   4) = (  0.5000040  0.5000000  0.5000020  )
         5           Fe  tau(   5) = (  0.2874910  0.7499950  0.9809050  )
         6           Fe  tau(   6) = (  0.2125170  0.2500070  0.4809060  )
         7           Fe  tau(   7) = (  0.7125160  0.2500050  0.0190990  )
         8           Fe  tau(   8) = (  0.7874900  0.7499930  0.5190980  )
         9           P   tau(   9) = (  0.1088480  0.7500040  0.4435540  )
        10           P   tau(  10) = (  0.3911580  0.2499980  0.9435500  )
        11           P   tau(  11) = (  0.8911590  0.2499960  0.5564460  )
        12           P   tau(  12) = (  0.6088490  0.7500020  0.0564540  )
        13           O   tau(  13) = (  0.1132530  0.7500010  0.7502200  )
        14           O   tau(  14) = (  0.3867540  0.2500020  0.2502220  )
        15           O   tau(  15) = (  0.8867540  0.2500000  0.2497860  )
        16           O   tau(  16) = (  0.6132530  0.7499990  0.7497820  )
        17           O   tau(  17) = (  0.4686030  0.7499990  0.1602470  )
        18           O   tau(  18) = (  0.0314040  0.2500030  0.6602490  )
        19           O   tau(  19) = (  0.5314040  0.2500010  0.8397560  )
        20           O   tau(  20) = (  0.9686030  0.7499970  0.3397560  )
        21           O   tau(  21) = (  0.1792160  0.9477120  0.3161030  )
        22           O   tau(  22) = (  0.3207920  0.0522910  0.8161030  )
        23           O   tau(  23) = (  0.8207890  0.4477020  0.6839050  )
        24           O   tau(  24) = (  0.6792170  0.5522980  0.1839050  )
        25           O   tau(  25) = (  0.8207910  0.0522880  0.6839010  )
        26           O   tau(  26) = (  0.6792160  0.9477100  0.1839010  )
        27           O   tau(  27) = (  0.1792180  0.5522990  0.3160990  )
        28           O   tau(  28) = (  0.3207900  0.4477030  0.8160990  )

     number of k points=   158  Marzari-Vanderbilt smearing, width (Ry)=  0.0073
                       cart. coord. in units 2pi/alat
        k(    1) = (   0.0000000   0.0000000   0.0000000), wk =   0.0031746
        k(    2) = (   0.0000000   0.0000000   0.2427506), wk =   0.0063492
        k(    3) = (   0.0000000   0.0000000   0.4855013), wk =   0.0063492
        k(    4) = (   0.0000000   0.0000000   0.7282519), wk =   0.0063492
        k(    5) = (   0.0000000   0.0000000   0.9710025), wk =   0.0063492
        k(    6) = (   0.0000000   0.2390304   0.0000000), wk =   0.0063492
        k(    7) = (   0.0000000   0.2390304   0.2427506), wk =   0.0063492
        k(    8) = (   0.0000000   0.2390304   0.4855013), wk =   0.0063492
        k(    9) = (   0.0000000   0.2390304   0.7282519), wk =   0.0063492
        k(   10) = (   0.0000000   0.2390304   0.9710025), wk =   0.0063492
        k(   11) = (   0.0000000   0.2390304  -0.9710025), wk =   0.0063492
        k(   12) = (   0.0000000   0.2390304  -0.7282519), wk =   0.0063492
        k(   13) = (   0.0000000   0.2390304  -0.4855013), wk =   0.0063492
        k(   14) = (   0.0000000   0.2390304  -0.2427506), wk =   0.0063492
        k(   15) = (   0.0000000   0.4780607   0.0000000), wk =   0.0063492
        k(   16) = (   0.0000000   0.4780607   0.2427506), wk =   0.0063492
        k(   17) = (   0.0000000   0.4780607   0.4855013), wk =   0.0063492
        k(   18) = (   0.0000000   0.4780607   0.7282519), wk =   0.0063492
        k(   19) = (   0.0000000   0.4780607   0.9710025), wk =   0.0063492
        k(   20) = (   0.0000000   0.4780607  -0.9710025), wk =   0.0063492
        k(   21) = (   0.0000000   0.4780607  -0.7282519), wk =   0.0063492
        k(   22) = (   0.0000000   0.4780607  -0.4855013), wk =   0.0063492
        k(   23) = (   0.0000000   0.4780607  -0.2427506), wk =   0.0063492
        k(   24) = (   0.0000000   0.7170911   0.0000000), wk =   0.0063492
        k(   25) = (   0.0000000   0.7170911   0.2427506), wk =   0.0063492
        k(   26) = (   0.0000000   0.7170911   0.4855013), wk =   0.0063492
        k(   27) = (   0.0000000   0.7170911   0.7282519), wk =   0.0063492
        k(   28) = (   0.0000000   0.7170911   0.9710025), wk =   0.0063492
        k(   29) = (   0.0000000   0.7170911  -0.9710025), wk =   0.0063492
        k(   30) = (   0.0000000   0.7170911  -0.7282519), wk =   0.0063492
        k(   31) = (   0.0000000   0.7170911  -0.4855013), wk =   0.0063492
        k(   32) = (   0.0000000   0.7170911  -0.2427506), wk =   0.0063492
        k(   33) = (   0.2000000   0.0000010   0.0000003), wk =   0.0063492
        k(   34) = (   0.2000000   0.0000010   0.2427510), wk =   0.0063492
        k(   35) = (   0.2000000   0.0000010   0.4855016), wk =   0.0063492
        k(   36) = (   0.2000000   0.0000010   0.7282522), wk =   0.0063492
        k(   37) = (   0.2000000   0.0000010   0.9710029), wk =   0.0063492
        k(   38) = (   0.2000000   0.0000010  -0.9710022), wk =   0.0063492
        k(   39) = (   0.2000000   0.0000010  -0.7282516), wk =   0.0063492
        k(   40) = (   0.2000000   0.0000010  -0.4855009), wk =   0.0063492
        k(   41) = (   0.2000000   0.0000010  -0.2427503), wk =   0.0063492
        k(   42) = (   0.2000000   0.2390314   0.0000003), wk =   0.0063492
        k(   43) = (   0.2000000   0.2390314   0.2427510), wk =   0.0063492
        k(   44) = (   0.2000000   0.2390314   0.4855016), wk =   0.0063492
        k(   45) = (   0.2000000   0.2390314   0.7282522), wk =   0.0063492
        k(   46) = (   0.2000000   0.2390314   0.9710029), wk =   0.0063492
        k(   47) = (   0.2000000   0.2390314  -0.9710022), wk =   0.0063492
        k(   48) = (   0.2000000   0.2390314  -0.7282516), wk =   0.0063492
        k(   49) = (   0.2000000   0.2390314  -0.4855009), wk =   0.0063492
        k(   50) = (   0.2000000   0.2390314  -0.2427503), wk =   0.0063492
        k(   51) = (   0.2000000   0.4780618   0.0000003), wk =   0.0063492
        k(   52) = (   0.2000000   0.4780618   0.2427510), wk =   0.0063492
        k(   53) = (   0.2000000   0.4780618   0.4855016), wk =   0.0063492
        k(   54) = (   0.2000000   0.4780618   0.7282522), wk =   0.0063492
        k(   55) = (   0.2000000   0.4780618   0.9710029), wk =   0.0063492
        k(   56) = (   0.2000000   0.4780618  -0.9710022), wk =   0.0063492
        k(   57) = (   0.2000000   0.4780618  -0.7282516), wk =   0.0063492
        k(   58) = (   0.2000000   0.4780618  -0.4855009), wk =   0.0063492
        k(   59) = (   0.2000000   0.4780618  -0.2427503), wk =   0.0063492
        k(   60) = (   0.2000000   0.7170921   0.0000003), wk =   0.0063492
        k(   61) = (   0.2000000   0.7170921   0.2427510), wk =   0.0063492
        k(   62) = (   0.2000000   0.7170921   0.4855016), wk =   0.0063492
        k(   63) = (   0.2000000   0.7170921   0.7282522), wk =   0.0063492
        k(   64) = (   0.2000000   0.7170921   0.9710029), wk =   0.0063492
        k(   65) = (   0.2000000   0.7170921  -0.9710022), wk =   0.0063492
        k(   66) = (   0.2000000   0.7170921  -0.7282516), wk =   0.0063492
        k(   67) = (   0.2000000   0.7170921  -0.4855009), wk =   0.0063492
        k(   68) = (   0.2000000   0.7170921  -0.2427503), wk =   0.0063492
        k(   69) = (   0.2000000  -0.7170900   0.0000003), wk =   0.0063492
        k(   70) = (   0.2000000  -0.7170900   0.2427510), wk =   0.0063492
        k(   71) = (   0.2000000  -0.7170900   0.4855016), wk =   0.0063492
        k(   72) = (   0.2000000  -0.7170900   0.7282522), wk =   0.0063492
        k(   73) = (   0.2000000  -0.7170900   0.9710029), wk =   0.0063492
        k(   74) = (   0.2000000  -0.7170900  -0.9710022), wk =   0.0063492
        k(   75) = (   0.2000000  -0.7170900  -0.7282516), wk =   0.0063492
        k(   76) = (   0.2000000  -0.7170900  -0.4855009), wk =   0.0063492
        k(   77) = (   0.2000000  -0.7170900  -0.2427503), wk =   0.0063492
        k(   78) = (   0.2000000  -0.4780597   0.0000003), wk =   0.0063492
        k(   79) = (   0.2000000  -0.4780597   0.2427510), wk =   0.0063492
        k(   80) = (   0.2000000  -0.4780597   0.4855016), wk =   0.0063492
        k(   81) = (   0.2000000  -0.4780597   0.7282522), wk =   0.0063492
        k(   82) = (   0.2000000  -0.4780597   0.9710029), wk =   0.0063492
        k(   83) = (   0.2000000  -0.4780597  -0.9710022), wk =   0.0063492
        k(   84) = (   0.2000000  -0.4780597  -0.7282516), wk =   0.0063492
        k(   85) = (   0.2000000  -0.4780597  -0.4855009), wk =   0.0063492
        k(   86) = (   0.2000000  -0.4780597  -0.2427503), wk =   0.0063492
        k(   87) = (   0.2000000  -0.2390293   0.0000003), wk =   0.0063492
        k(   88) = (   0.2000000  -0.2390293   0.2427510), wk =   0.0063492
        k(   89) = (   0.2000000  -0.2390293   0.4855016), wk =   0.0063492
        k(   90) = (   0.2000000  -0.2390293   0.7282522), wk =   0.0063492
        k(   91) = (   0.2000000  -0.2390293   0.9710029), wk =   0.0063492
        k(   92) = (   0.2000000  -0.2390293  -0.9710022), wk =   0.0063492
        k(   93) = (   0.2000000  -0.2390293  -0.7282516), wk =   0.0063492
        k(   94) = (   0.2000000  -0.2390293  -0.4855009), wk =   0.0063492
        k(   95) = (   0.2000000  -0.2390293  -0.2427503), wk =   0.0063492
        k(   96) = (   0.4000000   0.0000021   0.0000007), wk =   0.0063492
        k(   97) = (   0.4000000   0.0000021   0.2427513), wk =   0.0063492
        k(   98) = (   0.4000000   0.0000021   0.4855020), wk =   0.0063492
        k(   99) = (   0.4000000   0.0000021   0.7282526), wk =   0.0063492
        k(  100) = (   0.4000000   0.0000021   0.9710032), wk =   0.0063492
        k(  101) = (   0.4000000   0.0000021  -0.9710018), wk =   0.0063492
        k(  102) = (   0.4000000   0.0000021  -0.7282512), wk =   0.0063492
        k(  103) = (   0.4000000   0.0000021  -0.4855006), wk =   0.0063492
        k(  104) = (   0.4000000   0.0000021  -0.2427499), wk =   0.0063492
        k(  105) = (   0.4000000   0.2390325   0.0000007), wk =   0.0063492
        k(  106) = (   0.4000000   0.2390325   0.2427513), wk =   0.0063492
        k(  107) = (   0.4000000   0.2390325   0.4855020), wk =   0.0063492
        k(  108) = (   0.4000000   0.2390325   0.7282526), wk =   0.0063492
        k(  109) = (   0.4000000   0.2390325   0.9710032), wk =   0.0063492
        k(  110) = (   0.4000000   0.2390325  -0.9710018), wk =   0.0063492
        k(  111) = (   0.4000000   0.2390325  -0.7282512), wk =   0.0063492
        k(  112) = (   0.4000000   0.2390325  -0.4855006), wk =   0.0063492
        k(  113) = (   0.4000000   0.2390325  -0.2427499), wk =   0.0063492
        k(  114) = (   0.4000000   0.4780628   0.0000007), wk =   0.0063492
        k(  115) = (   0.4000000   0.4780628   0.2427513), wk =   0.0063492
        k(  116) = (   0.4000000   0.4780628   0.4855020), wk =   0.0063492
        k(  117) = (   0.4000000   0.4780628   0.7282526), wk =   0.0063492
        k(  118) = (   0.4000000   0.4780628   0.9710032), wk =   0.0063492
        k(  119) = (   0.4000000   0.4780628  -0.9710018), wk =   0.0063492
        k(  120) = (   0.4000000   0.4780628  -0.7282512), wk =   0.0063492
        k(  121) = (   0.4000000   0.4780628  -0.4855006), wk =   0.0063492
        k(  122) = (   0.4000000   0.4780628  -0.2427499), wk =   0.0063492
        k(  123) = (   0.4000000   0.7170932   0.0000007), wk =   0.0063492
        k(  124) = (   0.4000000   0.7170932   0.2427513), wk =   0.0063492
        k(  125) = (   0.4000000   0.7170932   0.4855020), wk =   0.0063492
        k(  126) = (   0.4000000   0.7170932   0.7282526), wk =   0.0063492
        k(  127) = (   0.4000000   0.7170932   0.9710032), wk =   0.0063492
        k(  128) = (   0.4000000   0.7170932  -0.9710018), wk =   0.0063492
        k(  129) = (   0.4000000   0.7170932  -0.7282512), wk =   0.0063492
        k(  130) = (   0.4000000   0.7170932  -0.4855006), wk =   0.0063492
        k(  131) = (   0.4000000   0.7170932  -0.2427499), wk =   0.0063492
        k(  132) = (   0.4000000  -0.7170890   0.0000007), wk =   0.0063492
        k(  133) = (   0.4000000  -0.7170890   0.2427513), wk =   0.0063492
        k(  134) = (   0.4000000  -0.7170890   0.4855020), wk =   0.0063492
        k(  135) = (   0.4000000  -0.7170890   0.7282526), wk =   0.0063492
        k(  136) = (   0.4000000  -0.7170890   0.9710032), wk =   0.0063492
        k(  137) = (   0.4000000  -0.7170890  -0.9710018), wk =   0.0063492
        k(  138) = (   0.4000000  -0.7170890  -0.7282512), wk =   0.0063492
        k(  139) = (   0.4000000  -0.7170890  -0.4855006), wk =   0.0063492
        k(  140) = (   0.4000000  -0.7170890  -0.2427499), wk =   0.0063492
        k(  141) = (   0.4000000  -0.4780586   0.0000007), wk =   0.0063492
        k(  142) = (   0.4000000  -0.4780586   0.2427513), wk =   0.0063492
        k(  143) = (   0.4000000  -0.4780586   0.4855020), wk =   0.0063492
        k(  144) = (   0.4000000  -0.4780586   0.7282526), wk =   0.0063492
        k(  145) = (   0.4000000  -0.4780586   0.9710032), wk =   0.0063492
        k(  146) = (   0.4000000  -0.4780586  -0.9710018), wk =   0.0063492
        k(  147) = (   0.4000000  -0.4780586  -0.7282512), wk =   0.0063492
        k(  148) = (   0.4000000  -0.4780586  -0.4855006), wk =   0.0063492
        k(  149) = (   0.4000000  -0.4780586  -0.2427499), wk =   0.0063492
        k(  150) = (   0.4000000  -0.2390283   0.0000007), wk =   0.0063492
        k(  151) = (   0.4000000  -0.2390283   0.2427513), wk =   0.0063492
        k(  152) = (   0.4000000  -0.2390283   0.4855020), wk =   0.0063492
        k(  153) = (   0.4000000  -0.2390283   0.7282526), wk =   0.0063492
        k(  154) = (   0.4000000  -0.2390283   0.9710032), wk =   0.0063492
        k(  155) = (   0.4000000  -0.2390283  -0.9710018), wk =   0.0063492
        k(  156) = (   0.4000000  -0.2390283  -0.7282512), wk =   0.0063492
        k(  157) = (   0.4000000  -0.2390283  -0.4855006), wk =   0.0063492
        k(  158) = (   0.4000000  -0.2390283  -0.2427499), wk =   0.0063492

                       cryst. coord.
        k(    1) = (   0.0000000   0.0000000   0.0000000), wk =   0.0031746
        k(    2) = (   0.0000000   0.0000000   0.1111111), wk =   0.0063492
        k(    3) = (   0.0000000   0.0000000   0.2222222), wk =   0.0063492
        k(    4) = (   0.0000000   0.0000000   0.3333333), wk =   0.0063492
        k(    5) = (   0.0000000   0.0000000   0.4444444), wk =   0.0063492
        k(    6) = (   0.0000000   0.1428571   0.0000000), wk =   0.0063492
        k(    7) = (   0.0000000   0.1428571   0.1111111), wk =   0.0063492
        k(    8) = (   0.0000000   0.1428571   0.2222222), wk =   0.0063492
        k(    9) = (   0.0000000   0.1428571   0.3333333), wk =   0.0063492
        k(   10) = (   0.0000000   0.1428571   0.4444444), wk =   0.0063492
        k(   11) = (   0.0000000   0.1428571  -0.4444444), wk =   0.0063492
        k(   12) = (   0.0000000   0.1428571  -0.3333333), wk =   0.0063492
        k(   13) = (   0.0000000   0.1428571  -0.2222222), wk =   0.0063492
        k(   14) = (   0.0000000   0.1428571  -0.1111111), wk =   0.0063492
        k(   15) = (   0.0000000   0.2857143   0.0000000), wk =   0.0063492
        k(   16) = (   0.0000000   0.2857143   0.1111111), wk =   0.0063492
        k(   17) = (   0.0000000   0.2857143   0.2222222), wk =   0.0063492
        k(   18) = (   0.0000000   0.2857143   0.3333333), wk =   0.0063492
        k(   19) = (   0.0000000   0.2857143   0.4444444), wk =   0.0063492
        k(   20) = (   0.0000000   0.2857143  -0.4444444), wk =   0.0063492
        k(   21) = (   0.0000000   0.2857143  -0.3333333), wk =   0.0063492
        k(   22) = (   0.0000000   0.2857143  -0.2222222), wk =   0.0063492
        k(   23) = (   0.0000000   0.2857143  -0.1111111), wk =   0.0063492
        k(   24) = (   0.0000000   0.4285714   0.0000000), wk =   0.0063492
        k(   25) = (   0.0000000   0.4285714   0.1111111), wk =   0.0063492
        k(   26) = (   0.0000000   0.4285714   0.2222222), wk =   0.0063492
        k(   27) = (   0.0000000   0.4285714   0.3333333), wk =   0.0063492
        k(   28) = (   0.0000000   0.4285714   0.4444444), wk =   0.0063492
        k(   29) = (   0.0000000   0.4285714  -0.4444444), wk =   0.0063492
        k(   30) = (   0.0000000   0.4285714  -0.3333333), wk =   0.0063492
        k(   31) = (   0.0000000   0.4285714  -0.2222222), wk =   0.0063492
        k(   32) = (   0.0000000   0.4285714  -0.1111111), wk =   0.0063492
        k(   33) = (   0.2000000  -0.0000000  -0.0000000), wk =   0.0063492
        k(   34) = (   0.2000000  -0.0000000   0.1111111), wk =   0.0063492
        k(   35) = (   0.2000000  -0.0000000   0.2222222), wk =   0.0063492
        k(   36) = (   0.2000000  -0.0000000   0.3333333), wk =   0.0063492
        k(   37) = (   0.2000000  -0.0000000   0.4444444), wk =   0.0063492
        k(   38) = (   0.2000000  -0.0000000  -0.4444444), wk =   0.0063492
        k(   39) = (   0.2000000  -0.0000000  -0.3333333), wk =   0.0063492
        k(   40) = (   0.2000000  -0.0000000  -0.2222222), wk =   0.0063492
        k(   41) = (   0.2000000  -0.0000000  -0.1111111), wk =   0.0063492
        k(   42) = (   0.2000000   0.1428571  -0.0000000), wk =   0.0063492
        k(   43) = (   0.2000000   0.1428571   0.1111111), wk =   0.0063492
        k(   44) = (   0.2000000   0.1428571   0.2222222), wk =   0.0063492
        k(   45) = (   0.2000000   0.1428571   0.3333333), wk =   0.0063492
        k(   46) = (   0.2000000   0.1428571   0.4444444), wk =   0.0063492
        k(   47) = (   0.2000000   0.1428571  -0.4444444), wk =   0.0063492
        k(   48) = (   0.2000000   0.1428571  -0.3333333), wk =   0.0063492
        k(   49) = (   0.2000000   0.1428571  -0.2222222), wk =   0.0063492
        k(   50) = (   0.2000000   0.1428571  -0.1111111), wk =   0.0063492
        k(   51) = (   0.2000000   0.2857143  -0.0000000), wk =   0.0063492
        k(   52) = (   0.2000000   0.2857143   0.1111111), wk =   0.0063492
        k(   53) = (   0.2000000   0.2857143   0.2222222), wk =   0.0063492
        k(   54) = (   0.2000000   0.2857143   0.3333333), wk =   0.0063492
        k(   55) = (   0.2000000   0.2857143   0.4444444), wk =   0.0063492
        k(   56) = (   0.2000000   0.2857143  -0.4444444), wk =   0.0063492
        k(   57) = (   0.2000000   0.2857143  -0.3333333), wk =   0.0063492
        k(   58) = (   0.2000000   0.2857143  -0.2222222), wk =   0.0063492
        k(   59) = (   0.2000000   0.2857143  -0.1111111), wk =   0.0063492
        k(   60) = (   0.2000000   0.4285714  -0.0000000), wk =   0.0063492
        k(   61) = (   0.2000000   0.4285714   0.1111111), wk =   0.0063492
        k(   62) = (   0.2000000   0.4285714   0.2222222), wk =   0.0063492
        k(   63) = (   0.2000000   0.4285714   0.3333333), wk =   0.0063492
        k(   64) = (   0.2000000   0.4285714   0.4444444), wk =   0.0063492
        k(   65) = (   0.2000000   0.4285714  -0.4444444), wk =   0.0063492
        k(   66) = (   0.2000000   0.4285714  -0.3333333), wk =   0.0063492
        k(   67) = (   0.2000000   0.4285714  -0.2222222), wk =   0.0063492
        k(   68) = (   0.2000000   0.4285714  -0.1111111), wk =   0.0063492
        k(   69) = (   0.2000000  -0.4285714  -0.0000000), wk =   0.0063492
        k(   70) = (   0.2000000  -0.4285714   0.1111111), wk =   0.0063492
        k(   71) = (   0.2000000  -0.4285714   0.2222222), wk =   0.0063492
        k(   72) = (   0.2000000  -0.4285714   0.3333333), wk =   0.0063492
        k(   73) = (   0.2000000  -0.4285714   0.4444444), wk =   0.0063492
        k(   74) = (   0.2000000  -0.4285714  -0.4444444), wk =   0.0063492
        k(   75) = (   0.2000000  -0.4285714  -0.3333333), wk =   0.0063492
        k(   76) = (   0.2000000  -0.4285714  -0.2222222), wk =   0.0063492
        k(   77) = (   0.2000000  -0.4285714  -0.1111111), wk =   0.0063492
        k(   78) = (   0.2000000  -0.2857143  -0.0000000), wk =   0.0063492
        k(   79) = (   0.2000000  -0.2857143   0.1111111), wk =   0.0063492
        k(   80) = (   0.2000000  -0.2857143   0.2222222), wk =   0.0063492
        k(   81) = (   0.2000000  -0.2857143   0.3333333), wk =   0.0063492
        k(   82) = (   0.2000000  -0.2857143   0.4444444), wk =   0.0063492
        k(   83) = (   0.2000000  -0.2857143  -0.4444444), wk =   0.0063492
        k(   84) = (   0.2000000  -0.2857143  -0.3333333), wk =   0.0063492
        k(   85) = (   0.2000000  -0.2857143  -0.2222222), wk =   0.0063492
        k(   86) = (   0.2000000  -0.2857143  -0.1111111), wk =   0.0063492
        k(   87) = (   0.2000000  -0.1428571   0.0000000), wk =   0.0063492
        k(   88) = (   0.2000000  -0.1428571   0.1111111), wk =   0.0063492
        k(   89) = (   0.2000000  -0.1428571   0.2222222), wk =   0.0063492
        k(   90) = (   0.2000000  -0.1428571   0.3333333), wk =   0.0063492
        k(   91) = (   0.2000000  -0.1428571   0.4444444), wk =   0.0063492
        k(   92) = (   0.2000000  -0.1428571  -0.4444444), wk =   0.0063492
        k(   93) = (   0.2000000  -0.1428571  -0.3333333), wk =   0.0063492
        k(   94) = (   0.2000000  -0.1428571  -0.2222222), wk =   0.0063492
        k(   95) = (   0.2000000  -0.1428571  -0.1111111), wk =   0.0063492
        k(   96) = (   0.4000000  -0.0000000  -0.0000000), wk =   0.0063492
        k(   97) = (   0.4000000  -0.0000000   0.1111111), wk =   0.0063492
        k(   98) = (   0.4000000  -0.0000000   0.2222222), wk =   0.0063492
        k(   99) = (   0.4000000  -0.0000000   0.3333333), wk =   0.0063492
        k(  100) = (   0.4000000  -0.0000000   0.4444444), wk =   0.0063492
        k(  101) = (   0.4000000  -0.0000000  -0.4444444), wk =   0.0063492
        k(  102) = (   0.4000000  -0.0000000  -0.3333333), wk =   0.0063492
        k(  103) = (   0.4000000  -0.0000000  -0.2222222), wk =   0.0063492
        k(  104) = (   0.4000000  -0.0000000  -0.1111111), wk =   0.0063492
        k(  105) = (   0.4000000   0.1428571   0.0000000), wk =   0.0063492
        k(  106) = (   0.4000000   0.1428571   0.1111111), wk =   0.0063492
        k(  107) = (   0.4000000   0.1428571   0.2222222), wk =   0.0063492
        k(  108) = (   0.4000000   0.1428571   0.3333333), wk =   0.0063492
        k(  109) = (   0.4000000   0.1428571   0.4444444), wk =   0.0063492
        k(  110) = (   0.4000000   0.1428571  -0.4444444), wk =   0.0063492
        k(  111) = (   0.4000000   0.1428571  -0.3333333), wk =   0.0063492
        k(  112) = (   0.4000000   0.1428571  -0.2222222), wk =   0.0063492
        k(  113) = (   0.4000000   0.1428571  -0.1111111), wk =   0.0063492
        k(  114) = (   0.4000000   0.2857143  -0.0000000), wk =   0.0063492
        k(  115) = (   0.4000000   0.2857143   0.1111111), wk =   0.0063492
        k(  116) = (   0.4000000   0.2857143   0.2222222), wk =   0.0063492
        k(  117) = (   0.4000000   0.2857143   0.3333333), wk =   0.0063492
        k(  118) = (   0.4000000   0.2857143   0.4444444), wk =   0.0063492
        k(  119) = (   0.4000000   0.2857143  -0.4444444), wk =   0.0063492
        k(  120) = (   0.4000000   0.2857143  -0.3333333), wk =   0.0063492
        k(  121) = (   0.4000000   0.2857143  -0.2222222), wk =   0.0063492
        k(  122) = (   0.4000000   0.2857143  -0.1111111), wk =   0.0063492
        k(  123) = (   0.4000000   0.4285714  -0.0000000), wk =   0.0063492
        k(  124) = (   0.4000000   0.4285714   0.1111111), wk =   0.0063492
        k(  125) = (   0.4000000   0.4285714   0.2222222), wk =   0.0063492
        k(  126) = (   0.4000000   0.4285714   0.3333333), wk =   0.0063492
        k(  127) = (   0.4000000   0.4285714   0.4444444), wk =   0.0063492
        k(  128) = (   0.4000000   0.4285714  -0.4444444), wk =   0.0063492
        k(  129) = (   0.4000000   0.4285714  -0.3333333), wk =   0.0063492
        k(  130) = (   0.4000000   0.4285714  -0.2222222), wk =   0.0063492
        k(  131) = (   0.4000000   0.4285714  -0.1111111), wk =   0.0063492
        k(  132) = (   0.4000000  -0.4285714  -0.0000000), wk =   0.0063492
        k(  133) = (   0.4000000  -0.4285714   0.1111111), wk =   0.0063492
        k(  134) = (   0.4000000  -0.4285714   0.2222222), wk =   0.0063492
        k(  135) = (   0.4000000  -0.4285714   0.3333333), wk =   0.0063492
        k(  136) = (   0.4000000  -0.4285714   0.4444444), wk =   0.0063492
        k(  137) = (   0.4000000  -0.4285714  -0.4444444), wk =   0.0063492
        k(  138) = (   0.4000000  -0.4285714  -0.3333333), wk =   0.0063492
        k(  139) = (   0.4000000  -0.4285714  -0.2222222), wk =   0.0063492
        k(  140) = (   0.4000000  -0.4285714  -0.1111111), wk =   0.0063492
        k(  141) = (   0.4000000  -0.2857143   0.0000000), wk =   0.0063492
        k(  142) = (   0.4000000  -0.2857143   0.1111111), wk =   0.0063492
        k(  143) = (   0.4000000  -0.2857143   0.2222222), wk =   0.0063492
        k(  144) = (   0.4000000  -0.2857143   0.3333333), wk =   0.0063492
        k(  145) = (   0.4000000  -0.2857143   0.4444444), wk =   0.0063492
        k(  146) = (   0.4000000  -0.2857143  -0.4444444), wk =   0.0063492
        k(  147) = (   0.4000000  -0.2857143  -0.3333333), wk =   0.0063492
        k(  148) = (   0.4000000  -0.2857143  -0.2222222), wk =   0.0063492
        k(  149) = (   0.4000000  -0.2857143  -0.1111111), wk =   0.0063492
        k(  150) = (   0.4000000  -0.1428571  -0.0000000), wk =   0.0063492
        k(  151) = (   0.4000000  -0.1428571   0.1111111), wk =   0.0063492
        k(  152) = (   0.4000000  -0.1428571   0.2222222), wk =   0.0063492
        k(  153) = (   0.4000000  -0.1428571   0.3333333), wk =   0.0063492
        k(  154) = (   0.4000000  -0.1428571   0.4444444), wk =   0.0063492
        k(  155) = (   0.4000000  -0.1428571  -0.4444444), wk =   0.0063492
        k(  156) = (   0.4000000  -0.1428571  -0.3333333), wk =   0.0063492
        k(  157) = (   0.4000000  -0.1428571  -0.2222222), wk =   0.0063492
        k(  158) = (   0.4000000  -0.1428571  -0.1111111), wk =   0.0063492

     Dense  grid:  1477729 G-vectors     FFT dimensions: ( 225, 135, 100)

     Smooth grid:   333175 G-vectors     FFT dimensions: ( 135,  80,  64)

     Dynamical RAM for                 wfc:       5.16 MB

     Dynamical RAM for     wfc (w. buffer):    1636.18 MB

     Dynamical RAM for           str. fact:       5.64 MB

     Dynamical RAM for           local pot:       0.00 MB

     Dynamical RAM for          nlocal pot:      12.07 MB

     Dynamical RAM for                qrad:      10.54 MB

     Dynamical RAM for          rho,v,vnew:      18.19 MB

     Dynamical RAM for               rhoin:       6.06 MB

     Dynamical RAM for            rho*nmix:      45.10 MB

     Dynamical RAM for           G-vectors:       5.44 MB

     Dynamical RAM for          h,s,v(r/c):       3.09 MB

     Dynamical RAM for          <psi|beta>:       0.60 MB

     Dynamical RAM for                 psi:      10.32 MB

     Dynamical RAM for                hpsi:      10.32 MB

     Dynamical RAM for                spsi:      10.32 MB

     Dynamical RAM for      wfcinit/wfcrot:      12.60 MB

     Dynamical RAM for           addusdens:     286.09 MB

     Dynamical RAM for          addusforce:     328.49 MB

     Dynamical RAM for         addusstress:     285.38 MB

     Estimated static dynamical RAM per process >       1.71 GB

     Estimated max dynamical RAM per process >       2.04 GB

     Estimated total dynamical RAM >      32.57 GB

     Check: negative core charge=   -0.000003
     Generating pointlists ...
     new r_m :   0.0819 (alat units)  1.7049 (a.u.) for type    1
     new r_m :   0.0899 (alat units)  1.8709 (a.u.) for type    2
     new r_m :   0.0579 (alat units)  1.2056 (a.u.) for type    3
     new r_m :   0.0579 (alat units)  1.2056 (a.u.) for type    4

     Initial potential from superposition of free atoms

     starting charge  215.97252, renormalised to  216.00000
     Starting wfcs are  152 randomized atomic wfcs
     Checking if some PAW data can be deallocated... 
       PAW data deallocated on   14 nodes for type:  1
       PAW data deallocated on    6 nodes for type:  3

     total cpu time spent up to now is      114.0 secs

     Self-consistent Calculation

     iteration #  1     ecut=   100.00 Ry     beta= 0.40
     Davidson diagonalization with overlap
     ethr =  1.00E-02,  avg # of iterations =  3.0

     negative rho (up, down):  0.000E+00 4.809E-05

     total cpu time spent up to now is      426.5 secs

     total energy              =   -2380.41538065 Ry
     estimated scf accuracy    <       5.84355773 Ry

     total magnetization       =    16.15 Bohr mag/cell
     absolute magnetization    =    16.15 Bohr mag/cell

     iteration #  2     ecut=   100.00 Ry     beta= 0.40
     Davidson diagonalization with overlap
     ethr =  2.71E-03,  avg # of iterations =  2.0

     negative rho (up, down):  0.000E+00 1.356E-04

     total cpu time spent up to now is      719.8 secs

     total energy              =   -2381.86446082 Ry
     estimated scf accuracy    <       0.78103738 Ry

     total magnetization       =    16.00 Bohr mag/cell
     absolute magnetization    =    16.01 Bohr mag/cell

     iteration #  3     ecut=   100.00 Ry     beta= 0.40
     Davidson diagonalization with overlap
     ethr =  3.62E-04,  avg # of iterations =  7.2

     negative rho (up, down):  0.000E+00 1.529E-04

     total cpu time spent up to now is     1051.2 secs

     total energy              =   -2381.93502649 Ry
     estimated scf accuracy    <       3.86723523 Ry

     total magnetization       =    16.13 Bohr mag/cell
     absolute magnetization    =    16.17 Bohr mag/cell

     iteration #  4     ecut=   100.00 Ry     beta= 0.40
     Davidson diagonalization with overlap
     ethr =  3.62E-04,  avg # of iterations =  2.0

     negative rho (up, down):  0.000E+00 3.021E-04

     total cpu time spent up to now is     1311.4 secs

     total energy              =   -2381.95715674 Ry
     estimated scf accuracy    <       1.60937860 Ry

     total magnetization       =    16.00 Bohr mag/cell
     absolute magnetization    =    16.05 Bohr mag/cell

     iteration #  5     ecut=   100.00 Ry     beta= 0.40
     Davidson diagonalization with overlap
     ethr =  3.62E-04,  avg # of iterations =  1.6

     negative rho (up, down):  0.000E+00 5.651E-04

     total cpu time spent up to now is     1553.6 secs

     total energy              =   -2381.89615503 Ry
     estimated scf accuracy    <       2.62344587 Ry

     total magnetization       =    16.00 Bohr mag/cell
     absolute magnetization    =    16.04 Bohr mag/cell

     iteration #  6     ecut=   100.00 Ry     beta= 0.40
     Davidson diagonalization with overlap
     ethr =  3.62E-04,  avg # of iterations =  1.8

     negative rho (up, down):  0.000E+00 5.828E-04

     total cpu time spent up to now is     1804.4 secs

     total energy              =   -2382.07612480 Ry
     estimated scf accuracy    <       2.88621312 Ry

     total magnetization       =    16.00 Bohr mag/cell
     absolute magnetization    =    16.06 Bohr mag/cell

     iteration #  7     ecut=   100.00 Ry     beta= 0.40
     Davidson diagonalization with overlap
     ethr =  3.62E-04,  avg # of iterations =  1.0

     negative rho (up, down):  0.000E+00 6.146E-04

     total cpu time spent up to now is     2025.9 secs

     total energy              =   -2382.07420086 Ry
     estimated scf accuracy    <       0.46921450 Ry

     total magnetization       =    16.00 Bohr mag/cell
     absolute magnetization    =    16.06 Bohr mag/cell

     iteration #  8     ecut=   100.00 Ry     beta= 0.40
     Davidson diagonalization with overlap
     ethr =  2.17E-04,  avg # of iterations =  1.0

     negative rho (up, down):  0.000E+00 6.140E-04

     total cpu time spent up to now is     2247.9 secs

     total energy              =   -2382.09610189 Ry
     estimated scf accuracy    <       0.18913961 Ry

     total magnetization       =    16.00 Bohr mag/cell
     absolute magnetization    =    16.06 Bohr mag/cell

     iteration #  9     ecut=   100.00 Ry     beta= 0.40
     Davidson diagonalization with overlap
     c_bands:  1 eigenvalues not converged
     ethr =  8.76E-05,  avg # of iterations =  1.9

     negative rho (up, down):  0.000E+00 6.072E-04

     total cpu time spent up to now is     2487.5 secs

     total energy              =   -2382.09567800 Ry
     estimated scf accuracy    <       0.25164036 Ry

     total magnetization       =    16.00 Bohr mag/cell
     absolute magnetization    =    16.06 Bohr mag/cell

     iteration # 10     ecut=   100.00 Ry     beta= 0.40
     Davidson diagonalization with overlap
     ethr =  8.76E-05,  avg # of iterations =  2.6

     negative rho (up, down):  0.000E+00 5.962E-04

     total cpu time spent up to now is     2743.7 secs

     total energy              =   -2382.08180883 Ry
     estimated scf accuracy    <       0.51903506 Ry

     total magnetization       =    16.00 Bohr mag/cell
     absolute magnetization    =    16.06 Bohr mag/cell

     iteration # 11     ecut=   100.00 Ry     beta= 0.40
     Davidson diagonalization with overlap
     c_bands:  2 eigenvalues not converged
     ethr =  8.76E-05,  avg # of iterations =  1.3

     negative rho (up, down):  0.000E+00 5.969E-04

     total cpu time spent up to now is     2972.9 secs

     total energy              =   -2382.08502244 Ry
     estimated scf accuracy    <       0.12480094 Ry

     total magnetization       =    16.00 Bohr mag/cell
     absolute magnetization    =    16.07 Bohr mag/cell

     iteration # 12     ecut=   100.00 Ry     beta= 0.40
     Davidson diagonalization with overlap
     ethr =  5.78E-05,  avg # of iterations =  1.5

     negative rho (up, down):  0.000E+00 6.044E-04

     total cpu time spent up to now is     3206.1 secs

     total energy              =   -2382.08942497 Ry
     estimated scf accuracy    <       0.09027855 Ry

     total magnetization       =    16.00 Bohr mag/cell
     absolute magnetization    =    16.07 Bohr mag/cell

     iteration # 13     ecut=   100.00 Ry     beta= 0.40
     Davidson diagonalization with overlap
     c_bands:  1 eigenvalues not converged
     c_bands:  1 eigenvalues not converged
     c_bands:  1 eigenvalues not converged
     ethr =  4.18E-05,  avg # of iterations =  3.3

     negative rho (up, down):  0.000E+00 6.078E-04

     total cpu time spent up to now is     3464.3 secs

     total energy              =   -2382.09440250 Ry
     estimated scf accuracy    <       0.31042388 Ry

     total magnetization       =    16.00 Bohr mag/cell
     absolute magnetization    =    16.07 Bohr mag/cell

     iteration # 14     ecut=   100.00 Ry     beta= 0.40
     Davidson diagonalization with overlap
     ethr =  4.18E-05,  avg # of iterations =  1.1

     negative rho (up, down):  0.000E+00 6.056E-04

     total cpu time spent up to now is     3688.4 secs

     total energy              =   -2382.09772144 Ry
     estimated scf accuracy    <       0.12935662 Ry

     total magnetization       =    16.00 Bohr mag/cell
     absolute magnetization    =    16.07 Bohr mag/cell

     iteration # 15     ecut=   100.00 Ry     beta= 0.40
     Davidson diagonalization with overlap
     ethr =  4.18E-05,  avg # of iterations =  1.0

     negative rho (up, down):  0.000E+00 5.908E-04

     total cpu time spent up to now is     3910.1 secs

     total energy              =   -2382.09839161 Ry
     estimated scf accuracy    <       0.12100940 Ry

     total magnetization       =    16.00 Bohr mag/cell
     absolute magnetization    =    16.07 Bohr mag/cell

     iteration # 16     ecut=   100.00 Ry     beta= 0.40
     Davidson diagonalization with overlap
     ethr =  4.18E-05,  avg # of iterations =  1.0

     negative rho (up, down):  0.000E+00 5.917E-04

     total cpu time spent up to now is     4131.6 secs

     total energy              =   -2382.09450230 Ry
     estimated scf accuracy    <       0.09634365 Ry

     total magnetization       =    16.00 Bohr mag/cell
     absolute magnetization    =    16.07 Bohr mag/cell

     iteration # 17     ecut=   100.00 Ry     beta= 0.40
     Davidson diagonalization with overlap
     ethr =  4.18E-05,  avg # of iterations =  1.0

     negative rho (up, down):  0.000E+00 6.004E-04

     total cpu time spent up to now is     4352.9 secs

     total energy              =   -2382.09530812 Ry
     estimated scf accuracy    <       0.10759561 Ry

     total magnetization       =    16.00 Bohr mag/cell
     absolute magnetization    =    16.07 Bohr mag/cell

     iteration # 18     ecut=   100.00 Ry     beta= 0.40
     Davidson diagonalization with overlap
     ethr =  4.18E-05,  avg # of iterations =  1.0

     negative rho (up, down):  0.000E+00 6.142E-04

     total cpu time spent up to now is     4574.8 secs

     total energy              =   -2382.09508794 Ry
     estimated scf accuracy    <       0.09965458 Ry

     total magnetization       =    16.00 Bohr mag/cell
     absolute magnetization    =    16.07 Bohr mag/cell

     iteration # 19     ecut=   100.00 Ry     beta= 0.40
     Davidson diagonalization with overlap
     c_bands:  1 eigenvalues not converged
     ethr =  4.18E-05,  avg # of iterations =  1.3

     negative rho (up, down):  0.000E+00 6.142E-04

     total cpu time spent up to now is     4802.8 secs

     total energy              =   -2382.10395039 Ry
     estimated scf accuracy    <       0.09239093 Ry

     total magnetization       =    16.00 Bohr mag/cell
     absolute magnetization    =    16.06 Bohr mag/cell

     iteration # 20     ecut=   100.00 Ry     beta= 0.40
     Davidson diagonalization with overlap
     ethr =  4.18E-05,  avg # of iterations =  2.0

     negative rho (up, down):  0.000E+00 6.232E-04

     total cpu time spent up to now is     5064.3 secs

     total energy              =   -2382.11631442 Ry
     estimated scf accuracy    <       0.01430658 Ry

     total magnetization       =    16.00 Bohr mag/cell
     absolute magnetization    =    16.06 Bohr mag/cell

     iteration # 21     ecut=   100.00 Ry     beta= 0.40
     Davidson diagonalization with overlap
     c_bands:  1 eigenvalues not converged
     c_bands:  1 eigenvalues not converged
     c_bands:  2 eigenvalues not converged
     c_bands:  1 eigenvalues not converged
     c_bands:  1 eigenvalues not converged
     c_bands:  1 eigenvalues not converged
     c_bands:  1 eigenvalues not converged
     c_bands:  1 eigenvalues not converged
     c_bands:  1 eigenvalues not converged
     c_bands:  1 eigenvalues not converged
     c_bands:  1 eigenvalues not converged
     c_bands:  1 eigenvalues not converged
     c_bands:  2 eigenvalues not converged
     c_bands:  2 eigenvalues not converged
     c_bands:  1 eigenvalues not converged
     c_bands:  1 eigenvalues not converged
     c_bands:  1 eigenvalues not converged
     c_bands:  1 eigenvalues not converged
     c_bands:  1 eigenvalues not converged
     c_bands:  1 eigenvalues not converged
     c_bands:  1 eigenvalues not converged
     c_bands:  1 eigenvalues not converged
     c_bands:  1 eigenvalues not converged
     c_bands:  1 eigenvalues not converged
     c_bands:  1 eigenvalues not converged
     c_bands:  1 eigenvalues not converged
     c_bands:  1 eigenvalues not converged
     c_bands:  1 eigenvalues not converged
     c_bands:  1 eigenvalues not converged
     ethr =  6.62E-06,  avg # of iterations = 13.1

     negative rho (up, down):  0.000E+00 6.251E-04

     total cpu time spent up to now is     5450.7 secs

     total energy              =   -2382.11665309 Ry
     estimated scf accuracy    <       0.01898638 Ry

     total magnetization       =    16.00 Bohr mag/cell
     absolute magnetization    =    16.06 Bohr mag/cell

     iteration # 22     ecut=   100.00 Ry     beta= 0.40
     Davidson diagonalization with overlap
     c_bands:  1 eigenvalues not converged
     ethr =  6.62E-06,  avg # of iterations =  1.3

     negative rho (up, down):  0.000E+00 6.298E-04

     total cpu time spent up to now is     5676.4 secs

     total energy              =   -2382.11589401 Ry
     estimated scf accuracy    <       0.01227354 Ry

     total magnetization       =    16.00 Bohr mag/cell
     absolute magnetization    =    16.06 Bohr mag/cell

     iteration # 23     ecut=   100.00 Ry     beta= 0.40
     Davidson diagonalization with overlap
     ethr =  5.68E-06,  avg # of iterations =  1.0

     negative rho (up, down):  0.000E+00 6.316E-04

     total cpu time spent up to now is     5897.8 secs

     total energy              =   -2382.11624097 Ry
     estimated scf accuracy    <       0.01883526 Ry

     total magnetization       =    16.00 Bohr mag/cell
     absolute magnetization    =    16.06 Bohr mag/cell

     iteration # 24     ecut=   100.00 Ry     beta= 0.40
     Davidson diagonalization with overlap
     ethr =  5.68E-06,  avg # of iterations =  1.0

     negative rho (up, down):  0.000E+00 6.356E-04

     total cpu time spent up to now is     6118.9 secs

     total energy              =   -2382.11694167 Ry
     estimated scf accuracy    <       0.01636138 Ry

     total magnetization       =    16.00 Bohr mag/cell
     absolute magnetization    =    16.06 Bohr mag/cell

     iteration # 25     ecut=   100.00 Ry     beta= 0.40
     Davidson diagonalization with overlap
     ethr =  5.68E-06,  avg # of iterations =  1.0

     negative rho (up, down):  0.000E+00 6.422E-04

     total cpu time spent up to now is     6339.8 secs

     total energy              =   -2382.11755333 Ry
     estimated scf accuracy    <       0.01181950 Ry

     total magnetization       =    16.00 Bohr mag/cell
     absolute magnetization    =    16.06 Bohr mag/cell

     iteration # 26     ecut=   100.00 Ry     beta= 0.40
     Davidson diagonalization with overlap
     ethr =  5.47E-06,  avg # of iterations =  1.0

     negative rho (up, down):  0.000E+00 6.428E-04

     total cpu time spent up to now is     6560.5 secs

     total energy              =   -2382.11806115 Ry
     estimated scf accuracy    <       0.01787759 Ry

     total magnetization       =    16.00 Bohr mag/cell
     absolute magnetization    =    16.06 Bohr mag/cell

     iteration # 27     ecut=   100.00 Ry     beta= 0.40
     Davidson diagonalization with overlap
     ethr =  5.47E-06,  avg # of iterations =  1.0

     negative rho (up, down):  0.000E+00 6.429E-04

     total cpu time spent up to now is     6781.7 secs

     total energy              =   -2382.11741394 Ry
     estimated scf accuracy    <       0.01939687 Ry

     total magnetization       =    16.00 Bohr mag/cell
     absolute magnetization    =    16.06 Bohr mag/cell

     iteration # 28     ecut=   100.00 Ry     beta= 0.40
     Davidson diagonalization with overlap
     ethr =  5.47E-06,  avg # of iterations =  1.0

     negative rho (up, down):  0.000E+00 6.422E-04

     total cpu time spent up to now is     7002.3 secs

     total energy              =   -2382.11704320 Ry
     estimated scf accuracy    <       0.01245075 Ry

     total magnetization       =    16.00 Bohr mag/cell
     absolute magnetization    =    16.06 Bohr mag/cell

     iteration # 29     ecut=   100.00 Ry     beta= 0.40
     Davidson diagonalization with overlap
     ethr =  5.47E-06,  avg # of iterations =  1.0

     negative rho (up, down):  0.000E+00 6.422E-04

     total cpu time spent up to now is     7223.8 secs

     total energy              =   -2382.11752881 Ry
     estimated scf accuracy    <       0.01083643 Ry

     total magnetization       =    16.00 Bohr mag/cell
     absolute magnetization    =    16.06 Bohr mag/cell

     iteration # 30     ecut=   100.00 Ry     beta= 0.40
     Davidson diagonalization with overlap
     ethr =  5.02E-06,  avg # of iterations =  1.0

     negative rho (up, down):  0.000E+00 6.419E-04

     total cpu time spent up to now is     7445.7 secs

     total energy              =   -2382.11755073 Ry
     estimated scf accuracy    <       0.01269132 Ry

     total magnetization       =    16.00 Bohr mag/cell
     absolute magnetization    =    16.06 Bohr mag/cell

     iteration # 31     ecut=   100.00 Ry     beta= 0.40
     Davidson diagonalization with overlap
     ethr =  5.02E-06,  avg # of iterations =  1.0

     negative rho (up, down):  0.000E+00 6.467E-04

     total cpu time spent up to now is     7665.6 secs

     total energy              =   -2382.11586925 Ry
     estimated scf accuracy    <       0.01289755 Ry

     total magnetization       =    16.00 Bohr mag/cell
     absolute magnetization    =    16.06 Bohr mag/cell

     iteration # 32     ecut=   100.00 Ry     beta= 0.40
     Davidson diagonalization with overlap
     ethr =  5.02E-06,  avg # of iterations =  1.5

     negative rho (up, down):  0.000E+00 6.491E-04

     total cpu time spent up to now is     7903.0 secs

     total energy              =   -2382.11448594 Ry
     estimated scf accuracy    <       0.01268838 Ry

     total magnetization       =    16.00 Bohr mag/cell
     absolute magnetization    =    16.07 Bohr mag/cell

     iteration # 33     ecut=   100.00 Ry     beta= 0.40
     Davidson diagonalization with overlap
     ethr =  5.02E-06,  avg # of iterations =  1.5

     negative rho (up, down):  0.000E+00 6.510E-04

     total cpu time spent up to now is     8140.4 secs

     total energy              =   -2382.11526737 Ry
     estimated scf accuracy    <       0.02223204 Ry

     total magnetization       =    16.00 Bohr mag/cell
     absolute magnetization    =    16.07 Bohr mag/cell

     iteration # 34     ecut=   100.00 Ry     beta= 0.40
     Davidson diagonalization with overlap
     ethr =  5.02E-06,  avg # of iterations =  1.0

     negative rho (up, down):  0.000E+00 6.508E-04

     total cpu time spent up to now is     8362.4 secs

     total energy              =   -2382.11568263 Ry
     estimated scf accuracy    <       0.00189625 Ry

     total magnetization       =    16.00 Bohr mag/cell
     absolute magnetization    =    16.07 Bohr mag/cell

     iteration # 35     ecut=   100.00 Ry     beta= 0.40
     Davidson diagonalization with overlap
     ethr =  8.78E-07,  avg # of iterations =  1.7

     negative rho (up, down):  0.000E+00 6.509E-04

     total cpu time spent up to now is     8601.8 secs

     total energy              =   -2382.11569445 Ry
     estimated scf accuracy    <       0.00701636 Ry

     total magnetization       =    16.00 Bohr mag/cell
     absolute magnetization    =    16.07 Bohr mag/cell

     iteration # 36     ecut=   100.00 Ry     beta= 0.40
     Davidson diagonalization with overlap
     ethr =  8.78E-07,  avg # of iterations =  1.1

     negative rho (up, down):  0.000E+00 6.526E-04

     total cpu time spent up to now is     8823.5 secs

     total energy              =   -2382.11585290 Ry
     estimated scf accuracy    <       0.00070514 Ry

     total magnetization       =    16.00 Bohr mag/cell
     absolute magnetization    =    16.07 Bohr mag/cell

     iteration # 37     ecut=   100.00 Ry     beta= 0.40
     Davidson diagonalization with overlap
     ethr =  3.26E-07,  avg # of iterations =  2.0

     negative rho (up, down):  0.000E+00 6.531E-04

     total cpu time spent up to now is     9082.0 secs

     total energy              =   -2382.11607651 Ry
     estimated scf accuracy    <       0.01623081 Ry

     total magnetization       =    16.00 Bohr mag/cell
     absolute magnetization    =    16.07 Bohr mag/cell

     iteration # 38     ecut=   100.00 Ry     beta= 0.40
     Davidson diagonalization with overlap
     c_bands:  1 eigenvalues not converged
     ethr =  3.26E-07,  avg # of iterations =  1.1

     negative rho (up, down):  0.000E+00 6.531E-04

     total cpu time spent up to now is     9304.5 secs

     total energy              =   -2382.11612320 Ry
     estimated scf accuracy    <       0.01115673 Ry

     total magnetization       =    16.00 Bohr mag/cell
     absolute magnetization    =    16.07 Bohr mag/cell

     iteration # 39     ecut=   100.00 Ry     beta= 0.40
     Davidson diagonalization with overlap
     ethr =  3.26E-07,  avg # of iterations =  1.0

     negative rho (up, down):  0.000E+00 6.530E-04

     total cpu time spent up to now is     9524.1 secs

     total energy              =   -2382.11561232 Ry
     estimated scf accuracy    <       0.01136746 Ry

     total magnetization       =    16.00 Bohr mag/cell
     absolute magnetization    =    16.07 Bohr mag/cell

     iteration # 40     ecut=   100.00 Ry     beta= 0.40
     Davidson diagonalization with overlap
     ethr =  3.26E-07,  avg # of iterations =  2.0

     negative rho (up, down):  0.000E+00 6.528E-04

     total cpu time spent up to now is     9778.0 secs

     total energy              =   -2382.11593144 Ry
     estimated scf accuracy    <       0.00035599 Ry

     total magnetization       =    16.00 Bohr mag/cell
     absolute magnetization    =    16.07 Bohr mag/cell

     iteration # 41     ecut=   100.00 Ry     beta= 0.40
     Davidson diagonalization with overlap
     ethr =  1.65E-07,  avg # of iterations =  1.0

     negative rho (up, down):  0.000E+00 6.527E-04

     total cpu time spent up to now is     9998.5 secs

     total energy              =   -2382.11593907 Ry
     estimated scf accuracy    <       0.00010704 Ry

     total magnetization       =    16.00 Bohr mag/cell
     absolute magnetization    =    16.07 Bohr mag/cell

     iteration # 42     ecut=   100.00 Ry     beta= 0.40
     Davidson diagonalization with overlap
     ethr =  4.96E-08,  avg # of iterations =  1.0

     negative rho (up, down):  0.000E+00 6.528E-04

     total cpu time spent up to now is    10217.7 secs

     total energy              =   -2382.11593986 Ry
     estimated scf accuracy    <       0.00002589 Ry

     total magnetization       =    16.00 Bohr mag/cell
     absolute magnetization    =    16.07 Bohr mag/cell

     iteration # 43     ecut=   100.00 Ry     beta= 0.40
     Davidson diagonalization with overlap
     ethr =  1.20E-08,  avg # of iterations =  1.0

     negative rho (up, down):  0.000E+00 6.525E-04

     total cpu time spent up to now is    10437.5 secs

     total energy              =   -2382.11594220 Ry
     estimated scf accuracy    <       0.00003365 Ry

     total magnetization       =    16.00 Bohr mag/cell
     absolute magnetization    =    16.07 Bohr mag/cell

     iteration # 44     ecut=   100.00 Ry     beta= 0.40
     Davidson diagonalization with overlap
     ethr =  1.20E-08,  avg # of iterations =  2.0

     negative rho (up, down):  0.000E+00 6.523E-04

     total cpu time spent up to now is    10691.0 secs

     total energy              =   -2382.11594447 Ry
     estimated scf accuracy    <       0.00004447 Ry

     total magnetization       =    16.00 Bohr mag/cell
     absolute magnetization    =    16.07 Bohr mag/cell

     iteration # 45     ecut=   100.00 Ry     beta= 0.40
     Davidson diagonalization with overlap
     ethr =  1.20E-08,  avg # of iterations =  2.0

     negative rho (up, down):  0.000E+00 6.523E-04

     total cpu time spent up to now is    10946.0 secs

     total energy              =   -2382.11594765 Ry
     estimated scf accuracy    <       0.00003983 Ry

     total magnetization       =    16.00 Bohr mag/cell
     absolute magnetization    =    16.07 Bohr mag/cell

     iteration # 46     ecut=   100.00 Ry     beta= 0.40
     Davidson diagonalization with overlap
     ethr =  1.20E-08,  avg # of iterations =  1.0

     negative rho (up, down):  0.000E+00 6.521E-04

     total cpu time spent up to now is    11165.7 secs

     total energy              =   -2382.11594205 Ry
     estimated scf accuracy    <       0.00005421 Ry

     total magnetization       =    16.00 Bohr mag/cell
     absolute magnetization    =    16.07 Bohr mag/cell

     iteration # 47     ecut=   100.00 Ry     beta= 0.40
     Davidson diagonalization with overlap
     ethr =  1.20E-08,  avg # of iterations =  2.0

     negative rho (up, down):  0.000E+00 6.521E-04

     total cpu time spent up to now is    11420.8 secs

     total energy              =   -2382.11594726 Ry
     estimated scf accuracy    <       0.00000080 Ry

     total magnetization       =    16.00 Bohr mag/cell
     absolute magnetization    =    16.07 Bohr mag/cell

     iteration # 48     ecut=   100.00 Ry     beta= 0.40
     Davidson diagonalization with overlap
     ethr =  3.73E-10,  avg # of iterations =  4.0

     negative rho (up, down):  0.000E+00 6.522E-04

     total cpu time spent up to now is    11731.3 secs

     total energy              =   -2382.11594905 Ry
     estimated scf accuracy    <       0.00000055 Ry

     total magnetization       =    16.00 Bohr mag/cell
     absolute magnetization    =    16.07 Bohr mag/cell

     iteration # 49     ecut=   100.00 Ry     beta= 0.40
     Davidson diagonalization with overlap
     ethr =  2.53E-10,  avg # of iterations =  2.0

     negative rho (up, down):  0.000E+00 6.523E-04

     total cpu time spent up to now is    11994.7 secs

     total energy              =   -2382.11594934 Ry
     estimated scf accuracy    <       0.00000004 Ry

     total magnetization       =    16.00 Bohr mag/cell
     absolute magnetization    =    16.07 Bohr mag/cell

     iteration # 50     ecut=   100.00 Ry     beta= 0.40
     Davidson diagonalization with overlap
     c_bands:  1 eigenvalues not converged
     c_bands:  1 eigenvalues not converged
     c_bands:  1 eigenvalues not converged
     ethr =  1.70E-11,  avg # of iterations =  5.4

     negative rho (up, down):  0.000E+00 6.524E-04

     total cpu time spent up to now is    12397.0 secs

     total energy              =   -2382.11594978 Ry
     estimated scf accuracy    <       0.00000001 Ry

     total magnetization       =    16.00 Bohr mag/cell
     absolute magnetization    =    16.07 Bohr mag/cell

     iteration # 51     ecut=   100.00 Ry     beta= 0.40
     Davidson diagonalization with overlap
     ethr =  5.48E-12,  avg # of iterations =  4.0

     negative rho (up, down):  0.000E+00 6.524E-04

     total cpu time spent up to now is    12722.7 secs

     total energy              =   -2382.11594991 Ry
     estimated scf accuracy    <       0.00000002 Ry

     total magnetization       =    16.00 Bohr mag/cell
     absolute magnetization    =    16.07 Bohr mag/cell

     iteration # 52     ecut=   100.00 Ry     beta= 0.40
     Davidson diagonalization with overlap
     ethr =  5.48E-12,  avg # of iterations =  2.2

     negative rho (up, down):  0.000E+00 6.524E-04

     total cpu time spent up to now is    13009.7 secs

     total energy              =   -2382.11594997 Ry
     estimated scf accuracy    <          5.0E-09 Ry

     total magnetization       =    16.00 Bohr mag/cell
     absolute magnetization    =    16.07 Bohr mag/cell

     iteration # 53     ecut=   100.00 Ry     beta= 0.40
     Davidson diagonalization with overlap
     ethr =  2.33E-12,  avg # of iterations =  2.3

     negative rho (up, down):  0.000E+00 6.524E-04

     total cpu time spent up to now is    13282.4 secs

     total energy              =   -2382.11594999 Ry
     estimated scf accuracy    <          1.4E-09 Ry

     total magnetization       =    16.00 Bohr mag/cell
     absolute magnetization    =    16.07 Bohr mag/cell

     iteration # 54     ecut=   100.00 Ry     beta= 0.40
     Davidson diagonalization with overlap
     ethr =  6.66E-13,  avg # of iterations =  2.3

     negative rho (up, down):  0.000E+00 6.524E-04

     total cpu time spent up to now is    13552.7 secs

     total energy              =   -2382.11594999 Ry
     estimated scf accuracy    <          5.4E-10 Ry

     total magnetization       =    16.00 Bohr mag/cell
     absolute magnetization    =    16.07 Bohr mag/cell

     iteration # 55     ecut=   100.00 Ry     beta= 0.40
     Davidson diagonalization with overlap
     ethr =  2.48E-13,  avg # of iterations =  3.5

     negative rho (up, down):  0.000E+00 6.524E-04

     Magnetic moment per site:
     atom:    1    charge:    7.9819    magn:    0.0001    constr:    0.0000
     atom:    2    charge:    7.9819    magn:    0.0001    constr:    0.0000
     atom:    3    charge:    7.9819    magn:    0.0001    constr:    0.0000
     atom:    4    charge:    7.9819    magn:    0.0001    constr:    0.0000
     atom:    5    charge:   13.5355    magn:    3.4356    constr:    0.0000
     atom:    6    charge:   13.5355    magn:    3.4356    constr:    0.0000
     atom:    7    charge:   13.5355    magn:    3.4356    constr:    0.0000
     atom:    8    charge:   13.5355    magn:    3.4356    constr:    0.0000
     atom:    9    charge:    0.8274    magn:    0.0056    constr:    0.0000
     atom:   10    charge:    0.8275    magn:    0.0056    constr:    0.0000
     atom:   11    charge:    0.8274    magn:    0.0056    constr:    0.0000
     atom:   12    charge:    0.8275    magn:    0.0056    constr:    0.0000
     atom:   13    charge:    4.2802    magn:    0.0266    constr:    0.0000
     atom:   14    charge:    4.2806    magn:    0.0266    constr:    0.0000
     atom:   15    charge:    4.2802    magn:    0.0266    constr:    0.0000
     atom:   16    charge:    4.2806    magn:    0.0266    constr:    0.0000
     atom:   17    charge:    4.2363    magn:    0.0362    constr:    0.0000
     atom:   18    charge:    4.2367    magn:    0.0362    constr:    0.0000
     atom:   19    charge:    4.2363    magn:    0.0362    constr:    0.0000
     atom:   20    charge:    4.2367    magn:    0.0362    constr:    0.0000
     atom:   21    charge:    4.2217    magn:    0.0675    constr:    0.0000
     atom:   22    charge:    4.2217    magn:    0.0675    constr:    0.0000
     atom:   23    charge:    4.2217    magn:    0.0676    constr:    0.0000
     atom:   24    charge:    4.2217    magn:    0.0675    constr:    0.0000
     atom:   25    charge:    4.2217    magn:    0.0675    constr:    0.0000
     atom:   26    charge:    4.2217    magn:    0.0675    constr:    0.0000
     atom:   27    charge:    4.2217    magn:    0.0676    constr:    0.0000
     atom:   28    charge:    4.2217    magn:    0.0675    constr:    0.0000

     total cpu time spent up to now is    13853.2 secs

     End of self-consistent calculation

 ------ SPIN UP ------------


          k = 0.0000 0.0000 0.0000 ( 41591 PWs)   bands (ev):

   -82.9313 -82.9311 -82.9307 -82.9306 -49.8907 -49.8905 -49.8900 -49.8900
   -48.7358 -48.7358 -48.7353 -48.7351 -48.2961 -48.2959 -48.2954 -48.2953
   -44.5860 -44.5859 -44.5821 -44.5821 -16.6429 -16.6425 -16.5845 -16.5818
   -16.5685 -16.5678 -16.5346 -16.5341 -16.5122 -16.5119 -16.4965 -16.4964
   -15.1842 -15.0471 -14.9831 -14.8816 -13.0394 -13.0147 -12.9998 -12.9822
   -12.7587 -12.7293 -12.7053 -12.6297 -12.6028 -12.5942 -12.5893 -12.5623
    -3.3278  -3.0361  -2.8641  -2.8481  -1.2516  -1.0207  -0.8666  -0.7953
    -0.5836  -0.4981  -0.2971  -0.2733  -0.2516  -0.2131  -0.1469   0.0811
     1.0457   1.1432   1.3704   1.3899   1.6688   1.7349   1.7405   1.8544
     1.8798   1.9993   2.0369   2.1292   2.2062   2.2419   2.3650   2.4687
     2.4937   2.5137   2.5702   2.6125   2.6727   2.7431   2.9159   2.9199
     2.9388   2.9808   3.1290   3.2566   3.2829   3.4602   3.5033   3.6943
     3.7866   3.8124   3.9865   4.0012   4.1058   4.1682   4.1862   4.2217
     4.2729   4.3563   4.4101   4.6519   4.7913   4.8276   4.8506   5.0073
     5.1023   5.1336   5.1479   5.2233   7.9770   9.8716  10.2308  10.8509
    11.2615  11.8857  12.0001  12.0274  12.7745  12.8539  12.9998  13.0295
    13.1457  13.3010

     occupation numbers 
     1.0000   1.0000   1.0000   1.0000   1.0000   1.0000   1.0000   1.0000
     1.0000   1.0000   1.0000   1.0000   1.0000   1.0000   1.0000   1.0000
     1.0000   1.0000   1.0000   1.0000   1.0000   1.0000   1.0000   1.0000
     1.0000   1.0000   1.0000   1.0000   1.0000   1.0000   1.0000   1.0000
     1.0000   1.0000   1.0000   1.0000   1.0000   1.0000   1.0000   1.0000
     1.0000   1.0000   1.0000   1.0000   1.0000   1.0000   1.0000   1.0000
     1.0000   1.0000   1.0000   1.0000   1.0000   1.0000   1.0000   1.0000
     1.0000   1.0000   1.0000   1.0000   1.0000   1.0000   1.0000   1.0000
     1.0000   1.0000   1.0000   1.0000   1.0000   1.0000   1.0000   1.0000
     1.0000   1.0000   1.0000   1.0000   1.0000   1.0000   1.0000   1.0000
     1.0000   1.0000   1.0000   1.0000   1.0000   1.0000   1.0000   1.0000
     1.0000   1.0000   1.0000   1.0000   1.0000   1.0000   1.0000   1.0000
     1.0000   1.0000   1.0000   1.0000   1.0000   1.0000   1.0000   1.0000
     1.0000   1.0000   1.0000   1.0000   1.0000   1.0000   1.0000   1.0000
     1.0000   1.0000   1.0000   1.0000   0.0000   0.0000   0.0000   0.0000
     0.0000   0.0000   0.0000   0.0000   0.0000   0.0000   0.0000   0.0000
     0.0000   0.0000

          k = 0.0000 0.0000 0.2428 ( 41629 PWs)   bands (ev):

   -82.9313 -82.9311 -82.9307 -82.9306 -49.8907 -49.8905 -49.8900 -49.8900
   -48.7358 -48.7358 -48.7353 -48.7351 -48.2961 -48.2959 -48.2954 -48.2953
   -44.5860 -44.5859 -44.5821 -44.5821 -16.6406 -16.6403 -16.5850 -16.5825
   -16.5686 -16.5679 -16.5373 -16.5365 -16.5122 -16.5119 -16.4966 -16.4965
   -15.1657 -15.0356 -14.9808 -14.8853 -13.0474 -13.0288 -13.0113 -12.9960
   -12.7526 -12.7249 -12.7063 -12.6235 -12.6185 -12.5932 -12.5823 -12.5680
    -3.3171  -3.0397  -2.8841  -2.8459  -1.1912  -0.9896  -0.8123  -0.7417
    -0.5828  -0.4815  -0.2801  -0.2750  -0.2504  -0.2176  -0.1698   0.0633
     1.0403   1.1363   1.3544   1.3770   1.6647   1.6807   1.6992   1.8114
     1.8696   1.9803   2.0375   2.0886   2.2133   2.2468   2.3147   2.4270
     2.4519   2.5886   2.6258   2.6590   2.6682   2.7838   2.8554   2.8854
     2.9169   3.0272   3.1890   3.2717   3.2812   3.4619   3.4965   3.6790
     3.7792   3.8105   3.9727   4.0319   4.0765   4.1111   4.1291   4.2616
     4.2689   4.3683   4.4580   4.7017   4.7949   4.8487   4.8651   4.9722
     5.0792   5.1281   5.1489   5.2174   8.1259   9.9250  10.2643  10.8646
    11.3164  11.7167  11.9031  12.2251  12.6153  12.9028  12.9618  12.9757
    12.9867  13.1862

     occupation numbers 
     1.0000   1.0000   1.0000   1.0000   1.0000   1.0000   1.0000   1.0000
     1.0000   1.0000   1.0000   1.0000   1.0000   1.0000   1.0000   1.0000
     1.0000   1.0000   1.0000   1.0000   1.0000   1.0000   1.0000   1.0000
     1.0000   1.0000   1.0000   1.0000   1.0000   1.0000   1.0000   1.0000
     1.0000   1.0000   1.0000   1.0000   1.0000   1.0000   1.0000   1.0000
     1.0000   1.0000   1.0000   1.0000   1.0000   1.0000   1.0000   1.0000
     1.0000   1.0000   1.0000   1.0000   1.0000   1.0000   1.0000   1.0000
     1.0000   1.0000   1.0000   1.0000   1.0000   1.0000   1.0000   1.0000
     1.0000   1.0000   1.0000   1.0000   1.0000   1.0000   1.0000   1.0000
     1.0000   1.0000   1.0000   1.0000   1.0000   1.0000   1.0000   1.0000
     1.0000   1.0000   1.0000   1.0000   1.0000   1.0000   1.0000   1.0000
     1.0000   1.0000   1.0000   1.0000   1.0000   1.0000   1.0000   1.0000
     1.0000   1.0000   1.0000   1.0000   1.0000   1.0000   1.0000   1.0000
     1.0000   1.0000   1.0000   1.0000   1.0000   1.0000   1.0000   1.0000
     1.0000   1.0000   1.0000   1.0000   0.0000   0.0000   0.0000   0.0000
     0.0000   0.0000   0.0000   0.0000   0.0000   0.0000   0.0000   0.0000
     0.0000   0.0000

          k = 0.0000 0.0000 0.4855 ( 41642 PWs)   bands (ev):

   -82.9313 -82.9311 -82.9307 -82.9306 -49.8906 -49.8905 -49.8901 -49.8900
   -48.7358 -48.7358 -48.7353 -48.7351 -48.2961 -48.2959 -48.2954 -48.2954
   -44.5860 -44.5859 -44.5821 -44.5820 -16.6349 -16.6348 -16.5871 -16.5852
   -16.5686 -16.5681 -16.5426 -16.5414 -16.5121 -16.5119 -16.4969 -16.4968
   -15.1165 -15.0076 -14.9741 -14.8959 -13.0776 -13.0546 -13.0430 -13.0304
   -12.7351 -12.7121 -12.7065 -12.6397 -12.6085 -12.6047 -12.5845 -12.5719
    -3.2835  -3.0436  -2.9257  -2.8631  -1.0210  -0.9019  -0.6885  -0.6077
    -0.5752  -0.4434  -0.2742  -0.2571  -0.2336  -0.2132  -0.1979   0.0117
     1.0197   1.1252   1.2667   1.3983   1.5738   1.6178   1.6487   1.7054
     1.8076   1.8524   2.0757   2.1023   2.1220   2.2120   2.2864   2.2990
     2.4192   2.5952   2.6420   2.7289   2.7516   2.8159   2.8343   2.8827
     2.9554   3.1028   3.1364   3.3423   3.3697   3.4712   3.4787   3.6474
     3.7550   3.8045   3.9379   3.9419   3.9928   4.1243   4.1322   4.2561
     4.3283   4.4287   4.5327   4.7936   4.8066   4.8774   4.9013   4.9274
     5.0101   5.0685   5.1668   5.2021   8.5149  10.0760  10.3062  10.9401
    11.4672  11.5658  11.6699  12.2987  12.5453  12.5588  12.7429  12.9443
    12.9745  13.0487

     occupation numbers 
     1.0000   1.0000   1.0000   1.0000   1.0000   1.0000   1.0000   1.0000
     1.0000   1.0000   1.0000   1.0000   1.0000   1.0000   1.0000   1.0000
     1.0000   1.0000   1.0000   1.0000   1.0000   1.0000   1.0000   1.0000
     1.0000   1.0000   1.0000   1.0000   1.0000   1.0000   1.0000   1.0000
     1.0000   1.0000   1.0000   1.0000   1.0000   1.0000   1.0000   1.0000
     1.0000   1.0000   1.0000   1.0000   1.0000   1.0000   1.0000   1.0000
     1.0000   1.0000   1.0000   1.0000   1.0000   1.0000   1.0000   1.0000
     1.0000   1.0000   1.0000   1.0000   1.0000   1.0000   1.0000   1.0000
     1.0000   1.0000   1.0000   1.0000   1.0000   1.0000   1.0000   1.0000
     1.0000   1.0000   1.0000   1.0000   1.0000   1.0000   1.0000   1.0000
     1.0000   1.0000   1.0000   1.0000   1.0000   1.0000   1.0000   1.0000
     1.0000   1.0000   1.0000   1.0000   1.0000   1.0000   1.0000   1.0000
     1.0000   1.0000   1.0000   1.0000   1.0000   1.0000   1.0000   1.0000
     1.0000   1.0000   1.0000   1.0000   1.0000   1.0000   1.0000   1.0000
     1.0000   1.0000   1.0000   1.0000   0.0000   0.0000   0.0000   0.0000
     0.0000   0.0000   0.0000   0.0000   0.0000   0.0000   0.0000   0.0000
     0.0000   0.0000

          k = 0.0000 0.0000 0.7283 ( 41664 PWs)   bands (ev):

   -82.9313 -82.9311 -82.9307 -82.9306 -49.8906 -49.8905 -49.8901 -49.8900
   -48.7358 -48.7358 -48.7353 -48.7351 -48.2961 -48.2959 -48.2954 -48.2954
   -44.5860 -44.5859 -44.5821 -44.5820 -16.6289 -16.6287 -16.5911 -16.5899
   -16.5686 -16.5683 -16.5460 -16.5448 -16.5120 -16.5119 -16.4972 -16.4972
   -15.0532 -14.9795 -14.9633 -14.9123 -13.1202 -13.0925 -13.0738 -13.0611
   -12.7085 -12.7024 -12.6926 -12.6606 -12.6227 -12.6100 -12.5915 -12.5672
    -3.2256  -3.0354  -2.9850  -2.9067  -0.7985  -0.7683  -0.6047  -0.5496
    -0.4697  -0.3956  -0.3236  -0.2799  -0.2582  -0.0857  -0.0836  -0.0649
     0.9828   1.1291   1.1543   1.4356   1.4383   1.5623   1.5846   1.6178
     1.7088   1.7159   1.8785   1.9838   2.1176   2.2435   2.2943   2.3292
     2.3902   2.5289   2.5803   2.6071   2.8180   2.8631   2.8919   2.9963
     3.0101   3.1788   3.1866   3.3433   3.4018   3.4458   3.5648   3.6318
     3.7133   3.7968   3.8203   3.8795   3.9485   4.1298   4.2107   4.2375
     4.4223   4.5478   4.5974   4.8031   4.8331   4.8632   4.8967   4.9516
     4.9704   4.9833   5.1700   5.1839   9.0283  10.2423  10.3062  11.0249
    11.4608  11.4972  11.7350  12.0752  12.0830  12.6264  12.6644  12.7525
    12.8689  12.9109

     occupation numbers 
     1.0000   1.0000   1.0000   1.0000   1.0000   1.0000   1.0000   1.0000
     1.0000   1.0000   1.0000   1.0000   1.0000   1.0000   1.0000   1.0000
     1.0000   1.0000   1.0000   1.0000   1.0000   1.0000   1.0000   1.0000
     1.0000   1.0000   1.0000   1.0000   1.0000   1.0000   1.0000   1.0000
     1.0000   1.0000   1.0000   1.0000   1.0000   1.0000   1.0000   1.0000
     1.0000   1.0000   1.0000   1.0000   1.0000   1.0000   1.0000   1.0000
     1.0000   1.0000   1.0000   1.0000   1.0000   1.0000   1.0000   1.0000
     1.0000   1.0000   1.0000   1.0000   1.0000   1.0000   1.0000   1.0000
     1.0000   1.0000   1.0000   1.0000   1.0000   1.0000   1.0000   1.0000
     1.0000   1.0000   1.0000   1.0000   1.0000   1.0000   1.0000   1.0000
     1.0000   1.0000   1.0000   1.0000   1.0000   1.0000   1.0000   1.0000
     1.0000   1.0000   1.0000   1.0000   1.0000   1.0000   1.0000   1.0000
     1.0000   1.0000   1.0000   1.0000   1.0000   1.0000   1.0000   1.0000
     1.0000   1.0000   1.0000   1.0000   1.0000   1.0000   1.0000   1.0000
     1.0000   1.0000   1.0000   1.0000   0.0000   0.0000   0.0000   0.0000
     0.0000   0.0000   0.0000   0.0000   0.0000   0.0000   0.0000   0.0000
     0.0000   0.0000

          k = 0.0000 0.0000 0.9710 ( 41612 PWs)   bands (ev):

   -82.9313 -82.9311 -82.9307 -82.9306 -49.8906 -49.8905 -49.8901 -49.8900
   -48.7358 -48.7358 -48.7353 -48.7351 -48.2961 -48.2959 -48.2954 -48.2954
   -44.5860 -44.5859 -44.5821 -44.5820 -16.6252 -16.6251 -16.5945 -16.5940
   -16.5686 -16.5684 -16.5464 -16.5460 -16.5120 -16.5119 -16.4974 -16.4974
   -14.9979 -14.9713 -14.9495 -14.9321 -13.1443 -13.1336 -13.0841 -13.0802
   -12.6930 -12.6788 -12.6764 -12.6689 -12.6458 -12.6410 -12.5774 -12.5690
    -3.1474  -3.0617  -3.0077  -2.9615  -0.6781  -0.6100  -0.5706  -0.4971
    -0.4618  -0.4180  -0.3209  -0.2699  -0.2163  -0.1479   0.0454   0.0462
     0.9675   1.0347   1.1652   1.2733   1.5030   1.5122   1.5545   1.5638
     1.5796   1.5971   1.7768   1.8471   2.1936   2.2621   2.3296   2.3707
     2.3916   2.4727   2.4866   2.5021   2.8535   2.8755   2.9286   2.9829
     3.1345   3.2364   3.2913   3.3340   3.3850   3.4087   3.6273   3.6558
     3.6659   3.7220   3.7956   3.8165   4.0175   4.0947   4.2300   4.2308
     4.5769   4.6601   4.6924   4.7291   4.7462   4.8400   4.8575   4.8766
     5.0086   5.0248   5.1639   5.1683   9.5568   9.9931  10.5883  10.8661
    11.5265  11.5689  11.7096  11.8129  12.0875  12.4262  12.6354  12.6854
    12.7709  12.7744

     occupation numbers 
     1.0000   1.0000   1.0000   1.0000   1.0000   1.0000   1.0000   1.0000
     1.0000   1.0000   1.0000   1.0000   1.0000   1.0000   1.0000   1.0000
     1.0000   1.0000   1.0000   1.0000   1.0000   1.0000   1.0000   1.0000
     1.0000   1.0000   1.0000   1.0000   1.0000   1.0000   1.0000   1.0000
     1.0000   1.0000   1.0000   1.0000   1.0000   1.0000   1.0000   1.0000
     1.0000   1.0000   1.0000   1.0000   1.0000   1.0000   1.0000   1.0000
     1.0000   1.0000   1.0000   1.0000   1.0000   1.0000   1.0000   1.0000
     1.0000   1.0000   1.0000   1.0000   1.0000   1.0000   1.0000   1.0000
     1.0000   1.0000   1.0000   1.0000   1.0000   1.0000   1.0000   1.0000
     1.0000   1.0000   1.0000   1.0000   1.0000   1.0000   1.0000   1.0000
     1.0000   1.0000   1.0000   1.0000   1.0000   1.0000   1.0000   1.0000
     1.0000   1.0000   1.0000   1.0000   1.0000   1.0000   1.0000   1.0000
     1.0000   1.0000   1.0000   1.0000   1.0000   1.0000   1.0000   1.0000
[...]
     atom    2 type  2   force =     0.00000000    0.00000000    0.00000000
     atom    3 type  2   force =     0.00000000    0.00000000    0.00000000
     atom    4 type  2   force =     0.00000000    0.00000000    0.00000000
     atom    5 type  1   force =    -0.03087957    0.00001144    0.01009738
     atom    6 type  1   force =     0.03085585   -0.00001451    0.01013990
     atom    7 type  1   force =     0.03087957   -0.00001144   -0.01009738
     atom    8 type  1   force =    -0.03085585    0.00001451   -0.01013990
     atom    9 type  4   force =     0.01109264   -0.00000815   -0.10505669
     atom   10 type  4   force =    -0.01107820    0.00000617   -0.10499307
     atom   11 type  4   force =    -0.01109264    0.00000815    0.10505669
     atom   12 type  4   force =     0.01107820   -0.00000617    0.10499307
     atom   13 type  3   force =     0.17330181    0.00002006   -1.53589840
     atom   14 type  3   force =    -0.17333451   -0.00001706   -1.53585624
     atom   15 type  3   force =    -0.17330181   -0.00002006    1.53589840
     atom   16 type  3   force =     0.17333451    0.00001706    1.53585624
     atom   17 type  3   force =     1.28151539    0.00001269   -0.60290217
     atom   18 type  3   force =    -1.28150809   -0.00005649   -0.60293918
     atom   19 type  3   force =    -1.28151539   -0.00001269    0.60290217
     atom   20 type  3   force =     1.28150809    0.00005649    0.60293918
     atom   21 type  3   force =    -0.72909465   -1.01981632    0.63179253
     atom   22 type  3   force =     0.72907927    1.01986748    0.63177494
     atom   23 type  3   force =     0.72905071   -1.01977659   -0.63175166
     atom   24 type  3   force =    -0.72904802    1.01983786   -0.63173615
     atom   25 type  3   force =     0.72909465    1.01981632   -0.63179253
     atom   26 type  3   force =    -0.72907927   -1.01986748   -0.63177494
     atom   27 type  3   force =    -0.72905071    1.01977659    0.63175166
     atom   28 type  3   force =     0.72904802   -1.01983786    0.63173615
     The ionic contribution  to forces
     atom    1 type  2   force =     0.00009664   -0.00006515   -0.00003081
     atom    2 type  2   force =     0.00004338   -0.00004058   -0.00004588
     atom    3 type  2   force =    -0.00012367   -0.00014252   -0.00012866
     atom    4 type  2   force =    -0.00003831   -0.00001029    0.00000048
     atom    5 type  1   force =     3.13344160    0.00088350   -0.88916621
     atom    6 type  1   force =    -3.13417373   -0.00083046   -0.88922426
     atom    7 type  1   force =    -3.13342164   -0.00073193    0.88907899
     atom    8 type  1   force =     3.13413687    0.00086385    0.88927687
     atom    9 type  4   force =    -0.94082782    0.00026644    0.56285804
     atom   10 type  4   force =     0.94088110   -0.00017644    0.56324726
     atom   11 type  4   force =     0.94083233   -0.00023036   -0.56251669
     atom   12 type  4   force =    -0.94087709    0.00025885   -0.56321434
     atom   13 type  3   force =    -3.58714907    0.00029940    2.17968235
     atom   14 type  3   force =     3.58713575   -0.00024001    2.17927164
     atom   15 type  3   force =     3.58708651   -0.00016218   -2.18003342
     atom   16 type  3   force =    -3.58714225    0.00029474   -2.17927372
     atom   17 type  3   force =    -1.32731197    0.00018713    2.32652438
     atom   18 type  3   force =     1.32732322   -0.00010804    2.32663531
     atom   19 type  3   force =     1.32734150   -0.00018329   -2.32650590
     atom   20 type  3   force =    -1.32736617    0.00017655   -2.32654137
     atom   21 type  3   force =     0.40976281    1.56910501   -1.25309746
     atom   22 type  3   force =    -0.40998683   -1.56941128   -1.25299339
     atom   23 type  3   force =    -0.40938582    1.56883094    1.25276628
     atom   24 type  3   force =     0.40965336   -1.56931532    1.25255523
     atom   25 type  3   force =    -0.40972191   -1.56902176    1.25312836
     atom   26 type  3   force =     0.40990265    1.56927805    1.25300465
     atom   27 type  3   force =     0.40951009   -1.56900403   -1.25264181
     atom   28 type  3   force =    -0.40962156    1.56922918   -1.25261593
     The local contribution  to forces
     atom    1 type  2   force =    -0.00518635   -0.00225463   -0.00233235
     atom    2 type  2   force =    -0.00512698   -0.00015246   -0.00155787
     atom    3 type  2   force =    -0.00674958   -0.00174782   -0.00225286
     atom    4 type  2   force =    -0.00683426    0.00021274   -0.00156338
     atom    5 type  1   force =    -3.11535230   -0.00081606    0.87893393
     atom    6 type  1   force =     3.08834773    0.00085884    0.87882539
     atom    7 type  1   force =     3.08764577    0.00081607   -0.88615434
     atom    8 type  1   force =    -3.11615118   -0.00085882   -0.88641646
     atom    9 type  4   force =     0.92443369   -0.00024466   -0.51697273
     atom   10 type  4   force =    -0.92451142    0.00020773   -0.51742104
     atom   11 type  4   force =    -0.92447586    0.00024468    0.51694650
     atom   12 type  4   force =     0.92447614   -0.00020772    0.51751774
     atom   13 type  3   force =     3.42125255   -0.00052489   -0.65379151
     atom   14 type  3   force =    -3.42722912    0.00000986   -0.65321397
     atom   15 type  3   force =    -3.42715519   -0.00002368    0.65187804
     atom   16 type  3   force =     3.42115271   -0.00055841    0.65149525
     atom   17 type  3   force =     0.12743032   -0.00019701   -1.75000581
     atom   18 type  3   force =    -0.13277811    0.00019233   -1.75073334
     atom   19 type  3   force =    -0.13267856    0.00019703    1.74907076
     atom   20 type  3   force =     0.12738220   -0.00019231    1.74842221
     atom   21 type  3   force =     0.27441331   -0.61651146    0.64402957
     atom   22 type  3   force =    -0.28095794    0.61676802    0.64407095
     atom   23 type  3   force =    -0.28103030   -0.61698298   -0.64541458
     atom   24 type  3   force =     0.27451311    0.61654769   -0.64512397
     atom   25 type  3   force =    -0.28076437    0.61686060   -0.64576859
     atom   26 type  3   force =     0.27380444   -0.61704268   -0.64552301
     atom   27 type  3   force =     0.27465777    0.61616947    0.64364363
     atom   28 type  3   force =    -0.28080780   -0.61716581    0.64371450
     The core correction contribution to forces
     atom    1 type  2   force =     0.00000000    0.00000000    0.00000000
     atom    2 type  2   force =     0.00000000    0.00000000    0.00000000
     atom    3 type  2   force =     0.00000000    0.00000000    0.00000000
     atom    4 type  2   force =     0.00000000    0.00000000    0.00000000
     atom    5 type  1   force =     0.00302951   -0.00000027   -0.00123968
     atom    6 type  1   force =    -0.00205366    0.00000012   -0.00125664
     atom    7 type  1   force =    -0.00205012    0.00000026    0.00151818
     atom    8 type  1   force =     0.00302509   -0.00000012    0.00150458
     atom    9 type  4   force =    -0.00087537    0.00000048    0.00889342
     atom   10 type  4   force =     0.00089138   -0.00000037    0.00889001
     atom   11 type  4   force =     0.00089288   -0.00000048   -0.00889313
     atom   12 type  4   force =    -0.00087395    0.00000037   -0.00888446
     atom   13 type  3   force =    -0.00222520   -0.00000034    0.01330470
     atom   14 type  3   force =     0.00222060    0.00000002    0.01330678
     atom   15 type  3   force =     0.00221996    0.00000005   -0.01330939
     atom   16 type  3   force =    -0.00222529   -0.00000031   -0.01330852
     atom   17 type  3   force =    -0.01197699   -0.00000010    0.00621912
     atom   18 type  3   force =     0.01196504    0.00000058    0.00621751
     atom   19 type  3   force =     0.01196555    0.00000010   -0.00621824
     atom   20 type  3   force =    -0.01197737   -0.00000058   -0.00622060
     atom   21 type  3   force =     0.00705742    0.00964103   -0.00621738
     atom   22 type  3   force =    -0.00706229   -0.00964488   -0.00621946
     atom   23 type  3   force =    -0.00706100    0.00964295    0.00621778
     atom   24 type  3   force =     0.00705628   -0.00964114    0.00621539
     atom   25 type  3   force =    -0.00706161   -0.00964367    0.00621827
     atom   26 type  3   force =     0.00705603    0.00964037    0.00621559
     atom   27 type  3   force =     0.00705706   -0.00964114   -0.00621699
     atom   28 type  3   force =    -0.00706135    0.00964359   -0.00621875
     The Hubbard contrib.    to forces
     atom    1 type  2   force =     0.00000000    0.00000000    0.00000000
     atom    2 type  2   force =     0.00000000    0.00000000    0.00000000
     atom    3 type  2   force =     0.00000000    0.00000000    0.00000000
     atom    4 type  2   force =     0.00000000    0.00000000    0.00000000
     atom    5 type  1   force =     0.00000000    0.00000000    0.00000000
     atom    6 type  1   force =     0.00000000    0.00000000    0.00000000
     atom    7 type  1   force =     0.00000000    0.00000000    0.00000000
     atom    8 type  1   force =     0.00000000    0.00000000    0.00000000
     atom    9 type  4   force =     0.00000000    0.00000000    0.00000000
     atom   10 type  4   force =     0.00000000    0.00000000    0.00000000
     atom   11 type  4   force =     0.00000000    0.00000000    0.00000000
     atom   12 type  4   force =     0.00000000    0.00000000    0.00000000
     atom   13 type  3   force =     0.00000000    0.00000000    0.00000000
     atom   14 type  3   force =     0.00000000    0.00000000    0.00000000
     atom   15 type  3   force =     0.00000000    0.00000000    0.00000000
     atom   16 type  3   force =     0.00000000    0.00000000    0.00000000
     atom   17 type  3   force =     0.00000000    0.00000000    0.00000000
     atom   18 type  3   force =     0.00000000    0.00000000    0.00000000
     atom   19 type  3   force =     0.00000000    0.00000000    0.00000000
     atom   20 type  3   force =     0.00000000    0.00000000    0.00000000
     atom   21 type  3   force =     0.00000000    0.00000000    0.00000000
     atom   22 type  3   force =     0.00000000    0.00000000    0.00000000
     atom   23 type  3   force =     0.00000000    0.00000000    0.00000000
     atom   24 type  3   force =     0.00000000    0.00000000    0.00000000
     atom   25 type  3   force =     0.00000000    0.00000000    0.00000000
     atom   26 type  3   force =     0.00000000    0.00000000    0.00000000
     atom   27 type  3   force =     0.00000000    0.00000000    0.00000000
     atom   28 type  3   force =     0.00000000    0.00000000    0.00000000
     The SCF correction term to forces
     atom    1 type  2   force =     0.00000000    0.00000000    0.00000000
     atom    2 type  2   force =     0.00000000    0.00000000    0.00000000
     atom    3 type  2   force =     0.00000000    0.00000000    0.00000000
     atom    4 type  2   force =     0.00000000    0.00000000    0.00000000
     atom    5 type  1   force =    -0.00000044   -0.00000003   -0.00000077
     atom    6 type  1   force =    -0.00000073    0.00000018    0.00000002
     atom    7 type  1   force =     0.00000045    0.00000002    0.00000077
     atom    8 type  1   force =     0.00000074   -0.00000018   -0.00000002
     atom    9 type  4   force =    -0.00000030   -0.00000003    0.00000022
     atom   10 type  4   force =    -0.00000135   -0.00000009   -0.00000002
     atom   11 type  4   force =     0.00000030    0.00000003   -0.00000022
     atom   12 type  4   force =     0.00000135    0.00000009    0.00000002
     atom   13 type  3   force =    -0.00000100   -0.00000001   -0.00000090
     atom   14 type  3   force =    -0.00000160    0.00000001    0.00000152
     atom   15 type  3   force =     0.00000100    0.00000001    0.00000090
     atom   16 type  3   force =     0.00000160   -0.00000001   -0.00000152
     atom   17 type  3   force =     0.00000203   -0.00000010    0.00000066
     atom   18 type  3   force =     0.00000046    0.00000014   -0.00000078
     atom   19 type  3   force =    -0.00000203    0.00000010   -0.00000066
     atom   20 type  3   force =    -0.00000046   -0.00000014    0.00000078
     atom   21 type  3   force =    -0.00000021    0.00000220    0.00000151
     atom   22 type  3   force =    -0.00000088    0.00000025   -0.00000137
     atom   23 type  3   force =    -0.00000014    0.00000153   -0.00000125
     atom   24 type  3   force =     0.00000109    0.00000119    0.00000162
     atom   25 type  3   force =     0.00000021   -0.00000220   -0.00000151
     atom   26 type  3   force =     0.00000088   -0.00000025    0.00000137
     atom   27 type  3   force =     0.00000015   -0.00000153    0.00000125
     atom   28 type  3   force =    -0.00000109   -0.00000119   -0.00000162

     Total force =     0.268193     Total SCF correction =     0.000008


     Computing stress (Cartesian axis) and pressure


     negative rho (up, down):  0.000E+00 6.524E-04
          total   stress  (Ry/bohr**3)                   (kbar)     P=     -112.29
  -0.00096402  -0.00000002   0.00000003         -141.81       -0.00        0.00
  -0.00000002  -0.00099527  -0.00000000           -0.00     -146.41       -0.00
   0.00000003  -0.00000000  -0.00033077            0.00       -0.00      -48.66

     kinetic stress (kbar)  27938.54     -0.01     -0.00
                               -0.01  27808.25     -0.00
                               -0.00     -0.00  27996.71

     local   stress (kbar)  -4654.55     -0.09     -0.16
                               -0.09  -7036.11     -0.02
                               -0.16     -0.02  -2898.12

     nonloc. stress (kbar)  -8341.80     -0.00      0.00
                               -0.00  -8439.91     -0.00
                                0.00     -0.00  -8296.29

     hartree stress (kbar)  13239.84      0.02      0.05
                                0.02  14289.92      0.01
                                0.05      0.01  12283.33

     exc-cor stress (kbar)  -3167.52      0.00      0.00
                                0.00  -3172.69      0.00
                                0.00      0.00  -3165.13

     corecor stress (kbar)  -2731.56      0.00     -0.00
                                0.00  -2715.14      0.00
                               -0.00      0.00  -2737.70

     ewald   stress (kbar) -22424.77      0.08      0.11
                                0.08 -20880.72      0.02
                                0.11      0.02 -23231.46

     hubbard stress (kbar)      0.00      0.00      0.00
                                0.00      0.00      0.00
                                0.00      0.00      0.00

     DFT-D   stress (kbar)      0.00      0.00      0.00
                                0.00      0.00      0.00
                                0.00      0.00      0.00

     XDM     stress (kbar)      0.00      0.00      0.00
                                0.00      0.00      0.00
                                0.00      0.00      0.00

     dft-nl  stress (kbar)      0.00      0.00      0.00
                                0.00      0.00      0.00
                                0.00      0.00      0.00

     TS-vdW  stress (kbar)      0.00      0.00      0.00
                                0.00      0.00      0.00
                                0.00      0.00      0.00



     init_run     :    108.72s CPU    113.63s WALL (       1 calls)
     electrons    :  13187.87s CPU  13739.24s WALL (       1 calls)
     forces       :     53.91s CPU     54.88s WALL (       1 calls)
     stress       :    683.57s CPU    686.48s WALL (       1 calls)

     Called by init_run:
     wfcinit      :     96.55s CPU    101.15s WALL (       1 calls)
     wfcinit:atom :      2.25s CPU      2.28s WALL (     316 calls)
     wfcinit:wfcr :     86.40s CPU     90.91s WALL (     316 calls)
     potinit      :      4.32s CPU      4.39s WALL (       1 calls)
     hinit0       :      5.48s CPU      5.55s WALL (       1 calls)

     Called by electrons:
     c_bands      :  11206.17s CPU  11638.31s WALL (      55 calls)
     sum_band     :   1821.57s CPU   1933.09s WALL (      55 calls)
     v_of_rho     :     34.44s CPU     35.64s WALL (      56 calls)
     v_h          :      1.61s CPU      1.70s WALL (      56 calls)
     v_xc         :     34.00s CPU     35.17s WALL (      58 calls)
     newd         :     89.45s CPU     95.53s WALL (      56 calls)
     PAW_pot      :     27.51s CPU     27.63s WALL (      56 calls)
     mix_rho      :      7.59s CPU      7.90s WALL (      55 calls)

     Called by c_bands:
     init_us_2    :    268.82s CPU    273.41s WALL (   35708 calls)
     cegterg      :  10651.58s CPU  11077.98s WALL (   17380 calls)

     Called by sum_band:
     sum_band:wei :      0.51s CPU      0.51s WALL (      55 calls)
     sum_band:loo :   1646.00s CPU   1739.90s WALL (      55 calls)
     sum_band:buf :     71.30s CPU     72.07s WALL (   17380 calls)
     sum_band:ini :    133.01s CPU    135.20s WALL (   17380 calls)
     sum_band:cal :    437.67s CPU    447.69s WALL (   17380 calls)
     sum_band:bec :      2.94s CPU      3.04s WALL (   17380 calls)
     addusdens    :    170.54s CPU    187.68s WALL (      55 calls)
     addusd:skk   :      1.32s CPU      1.36s WALL (     165 calls)
     addusd:dgemm :     38.42s CPU     54.31s WALL (     330 calls)
     addusd:qvan2 :    129.18s CPU    130.08s WALL (     330 calls)

     Called by *egterg:
     cdiaghg      :    528.01s CPU    537.74s WALL (   52424 calls)
     cegterg:over :    897.24s CPU    911.83s WALL (   35044 calls)
     cegterg:upda :    616.01s CPU    621.97s WALL (   35044 calls)
     cegterg:last :   1014.03s CPU   1023.23s WALL (   25502 calls)
     h_psi        :   5775.84s CPU   6148.41s WALL (   52740 calls)
     s_psi        :   1114.74s CPU   1123.67s WALL (   52740 calls)
     g_psi        :     60.21s CPU     61.14s WALL (   35044 calls)

     Called by h_psi:
     h_psi:calbec :   1002.47s CPU   1025.10s WALL (   52740 calls)
     vloc_psi     :   3498.27s CPU   3835.50s WALL (   52740 calls)
     add_vuspsi   :   1130.63s CPU   1141.72s WALL (   52740 calls)

     General routines
     calbec       :   1486.24s CPU   1519.82s WALL (   71700 calls)
     fft          :     26.11s CPU     27.91s WALL (    1438 calls)
     ffts         :      0.30s CPU      0.31s WALL (     222 calls)
     fftw         :   3713.58s CPU   4065.55s WALL (11924936 calls)
     interpolate  :      2.65s CPU      2.79s WALL (     112 calls)

     Parallel routines
     fft_scatt_xy :    545.95s CPU    597.87s WALL (11926596 calls)
     fft_scatt_yz :   1000.66s CPU   1121.63s WALL (11926596 calls)

     PAW routines
     PAW_pot      :     27.51s CPU     27.63s WALL (      56 calls)
     PAW_symme    :      0.04s CPU      0.04s WALL (     111 calls)

     PWSCF        :      3h53m CPU      4h 3m WALL


   This run was terminated on:   9:49:35   6Mar2023            

=------------------------------------------------------------------------------=
   JOB DONE.
=------------------------------------------------------------------------------=
Note: The following floating-point exceptions are signalling: IEEE_UNDERFLOW_FLAG IEEE_DENORMAL
Note: The following floating-point exceptions are signalling: IEEE_DENORMAL
Note: The following floating-point exceptions are signalling: IEEE_DENORMAL
Note: The following floating-point exceptions are signalling: IEEE_DENORMAL
Note: The following floating-point exceptions are signalling: IEEE_DENORMAL
Note: The following floating-point exceptions are signalling: IEEE_DENORMAL
Note: The following floating-point exceptions are signalling: IEEE_DENORMAL
Note: The following floating-point exceptions are signalling: IEEE_DENORMAL
Note: The following floating-point exceptions are signalling: IEEE_DENORMAL
