
     Program PWSCF v.6.7MaX starts on  5Mar2023 at 16: 9:41 

     This program is part of the open-source Quantum ESPRESSO suite
     for quantum simulation of materials; please cite
         "P. Giannozzi et al., J. Phys.:Condens. Matter 21 395502 (2009);
         "P. Giannozzi et al., J. Phys.:Condens. Matter 29 465901 (2017);
          URL http://www.quantum-espresso.org", 
     in publications or presentations arising from this work. More details at
     http://www.quantum-espresso.org/quote

     Parallel version (MPI), running on    16 processors

     MPI processes distributed on     1 nodes
     R & G space division:  proc/nbgrp/npool/nimage =      16
     Reading input from scale_2dab-00.in

     Current dimensions of program PWSCF are:
     Max number of different atomic species (ntypx) = 10
     Max number of k-points (npk) =  40000
     Max angular momentum in pseudopotentials (lmaxx) =  3
     Message from routine read_pp_mesh:
     mesh size missing, using the one in header
     file Fe.pbe-spn-kjpaw_psl.0.2.1.UPF: wavefunction(s)  3D renormalized
     file O.pbe-n-kjpaw_psl.0.1.UPF: wavefunction(s)  2P renormalized

     Subspace diagonalization in iterative solution of the eigenvalue problem:
     a serial algorithm will be used

     Message from routine setup:
     using ibrav=0 with symmetry is DISCOURAGED, use correct ibrav instead

     Parallelization info
     --------------------
     sticks:   dense  smooth     PW     G-vecs:    dense   smooth      PW
     Min        1138     420    114                75604    17044    2402
     Max        1139     422    115                75606    17045    2404
     Sum       18211    6733   1827              1209685   272713   38437



     bravais-lattice index     =            0
     lattice parameter (alat)  =      18.8297  a.u.
     unit-cell volume          =    2018.5714 (a.u.)^3
     number of atoms/cell      =           28
     number of atomic types    =            4
     number of electrons       =       216.00
     number of Kohn-Sham states=          130
     kinetic-energy cutoff     =     100.0000  Ry
     charge density cutoff     =    1080.0000  Ry
     scf convergence threshold =      2.0E-10
     mixing beta               =       0.4000
     number of iterations used =            8  plain     mixing
     Exchange-correlation= PBE
                           (   1   4   3   4   0   0   0)

     celldm(1)=  18.829732  celldm(2)=   0.000000  celldm(3)=   0.000000
     celldm(4)=   0.000000  celldm(5)=   0.000000  celldm(6)=   0.000000

     crystal axes: (cart. coord. in units of alat)
               a(1) = (   1.000000   0.000000   0.000000 )  
               a(2) = (  -0.000003   0.597653   0.000000 )  
               a(3) = (  -0.000001  -0.000000   0.505898 )  

     reciprocal axes: (cart. coord. in units 2 pi/alat)
               b(1) = (  1.000000  0.000005  0.000002 )  
               b(2) = ( -0.000000  1.673213  0.000000 )  
               b(3) = (  0.000000 -0.000000  1.976684 )  


     PseudoPot. # 1 for Fe read from file:
     /opt/QEpot/SSSP_precision_pseudos/Fe.pbe-spn-kjpaw_psl.0.2.1.UPF
     MD5 check sum: e86618425769142926afa95317d90200
     Pseudo is Projector augmented-wave + core cor, Zval = 16.0
     Generated using "atomic" code by A. Dal Corso  v.5.0.99 svn rev. 10869
     Shape of augmentation charge: PSQ
     Using radial grid of 1191 points,  6 beta functions with: 
                l(1) =   0
                l(2) =   0
                l(3) =   1
                l(4) =   1
                l(5) =   2
                l(6) =   2
     Q(r) pseudized with 0 coefficients 


     PseudoPot. # 2 for Na read from file:
     /opt/QEpot/SSSP_precision_pseudos/Na_ONCV_PBE-1.0.oncvpsp.upf
     MD5 check sum: 24a298df0a6742ae313db96548fdb2a4
     Pseudo is Norm-conserving, Zval =  9.0
     Generated using ONCVPSP code by D. R. Hamann
     Using radial grid of 1992 points,  4 beta functions with: 
                l(1) =   0
                l(2) =   0
                l(3) =   1
                l(4) =   1

     PseudoPot. # 3 for O  read from file:
     /opt/QEpot/SSSP_precision_pseudos/O.pbe-n-kjpaw_psl.0.1.UPF
     MD5 check sum: 0234752ac141de4415c5fc33072bef88
     Pseudo is Projector augmented-wave + core cor, Zval =  6.0
     Generated using "atomic" code by A. Dal Corso  v.5.0.99 svn rev. 10869
     Shape of augmentation charge: BESSEL
     Using radial grid of 1095 points,  4 beta functions with: 
                l(1) =   0
                l(2) =   0
                l(3) =   1
                l(4) =   1
     Q(r) pseudized with 0 coefficients 


     PseudoPot. # 4 for P  read from file:
     /opt/QEpot/SSSP_precision_pseudos/P.pbe-n-rrkjus_psl.1.0.0.UPF
     MD5 check sum: 8b930f418f0a4573dca56cd030ffe088
     Pseudo is Ultrasoft + core correction, Zval =  5.0
     Generated using "atomic" code by A. Dal Corso  v.5.1
     Using radial grid of 1147 points,  6 beta functions with: 
                l(1) =   0
                l(2) =   0
                l(3) =   1
                l(4) =   1
                l(5) =   2
                l(6) =   2
     Q(r) pseudized with 0 coefficients 


     atomic species   valence    mass     pseudopotential
        Fe            16.00    55.84500     Fe( 1.00)
        Na             9.00    22.98977     Na( 1.00)
        O              6.00    15.99940     O ( 1.00)
        P              5.00    30.97376     P ( 1.00)

     Starting magnetic structure 
     atomic species   magnetization
        Fe           0.312
        Na           0.000
        O            0.000
        P            0.000

      2 Sym. Ops., with inversion, found


                                    s                        frac. trans.

      isym =  1     identity                                     

 cryst.   s( 1) = (     1          0          0      )
                  (     0          1          0      )
                  (     0          0          1      )

 cart.    s( 1) = (  1.0000000  0.0000000  0.0000000 )
                  (  0.0000000  1.0000000  0.0000000 )
                  (  0.0000000  0.0000000  1.0000000 )


      isym =  2     inversion                                    

 cryst.   s( 2) = (    -1          0          0      )
                  (     0         -1          0      )
                  (     0          0         -1      )

 cart.    s( 2) = ( -1.0000000  0.0000000 -0.0000000 )
                  (  0.0000000 -1.0000000  0.0000000 )
                  (  0.0000000  0.0000000 -1.0000000 )


   Cartesian axes

     site n.     atom                  positions (alat units)
         1           Na  tau(   1) = (   0.0000030   0.0000012   0.0000015  )
         2           Na  tau(   2) = (   0.5000026  -0.0000000   0.2529499  )
         3           Na  tau(   3) = (   0.0000024   0.2988276   0.0000015  )
         4           Na  tau(   4) = (   0.5000020   0.2988264   0.2529499  )
         5           Fe  tau(   5) = (   0.2874878   0.4482365   0.4962377  )
         6           Fe  tau(   6) = (   0.2125158   0.1494174   0.2432893  )
         7           Fe  tau(   7) = (   0.7125152   0.1494162   0.0096621  )
         8           Fe  tau(   8) = (   0.7874872   0.4482354   0.2626105  )
         9           P   tau(   9) = (   0.1088453   0.4482419   0.2243930  )
        10           P   tau(  10) = (   0.3911564   0.1494120   0.4773399  )
        11           P   tau(  11) = (   0.8911577   0.1494108   0.2815048  )
        12           P   tau(  12) = (   0.6088466   0.4482407   0.0285600  )
        13           O   tau(  13) = (   0.1132500   0.4482401   0.3795347  )
        14           O   tau(  14) = (   0.3867530   0.1494144   0.1265868  )
        15           O   tau(  15) = (   0.8867530   0.1494132   0.1263662  )
        16           O   tau(  16) = (   0.6132500   0.4482389   0.3793131  )
        17           O   tau(  17) = (   0.4686005   0.4482389   0.0810686  )
        18           O   tau(  18) = (   0.0314026   0.1494150   0.3340185  )
        19           O   tau(  19) = (   0.5314025   0.1494138   0.4248307  )
        20           O   tau(  20) = (   0.9686004   0.4482377   0.1718818  )
        21           O   tau(  21) = (   0.1792128   0.5664026   0.1599158  )
        22           O   tau(  22) = (   0.3207911   0.0312519   0.4128647  )
        23           O   tau(  23) = (   0.8207870   0.2675703   0.3459861  )
        24           O   tau(  24) = (   0.6792151   0.3300824   0.0930371  )
        25           O   tau(  25) = (   0.8207902   0.0312501   0.3459840  )
        26           O   tau(  26) = (   0.6792129   0.5664015   0.0930351  )
        27           O   tau(  27) = (   0.1792160   0.3300830   0.1599138  )
        28           O   tau(  28) = (   0.3207879   0.2675709   0.4128627  )

   Crystallographic axes

     site n.     atom                  positions (cryst. coord.)
         1           Na  tau(   1) = (  0.0000030  0.0000020  0.0000030  )
         2           Na  tau(   2) = (  0.5000030  0.0000000  0.5000020  )
         3           Na  tau(   3) = (  0.0000040  0.5000020  0.0000030  )
         4           Na  tau(   4) = (  0.5000040  0.5000000  0.5000020  )
         5           Fe  tau(   5) = (  0.2874910  0.7499950  0.9809050  )
         6           Fe  tau(   6) = (  0.2125170  0.2500070  0.4809060  )
         7           Fe  tau(   7) = (  0.7125160  0.2500050  0.0190990  )
         8           Fe  tau(   8) = (  0.7874900  0.7499930  0.5190980  )
         9           P   tau(   9) = (  0.1088480  0.7500040  0.4435540  )
        10           P   tau(  10) = (  0.3911580  0.2499980  0.9435500  )
        11           P   tau(  11) = (  0.8911590  0.2499960  0.5564460  )
        12           P   tau(  12) = (  0.6088490  0.7500020  0.0564540  )
        13           O   tau(  13) = (  0.1132530  0.7500010  0.7502200  )
        14           O   tau(  14) = (  0.3867540  0.2500020  0.2502220  )
        15           O   tau(  15) = (  0.8867540  0.2500000  0.2497860  )
        16           O   tau(  16) = (  0.6132530  0.7499990  0.7497820  )
        17           O   tau(  17) = (  0.4686030  0.7499990  0.1602470  )
        18           O   tau(  18) = (  0.0314040  0.2500030  0.6602490  )
        19           O   tau(  19) = (  0.5314040  0.2500010  0.8397560  )
        20           O   tau(  20) = (  0.9686030  0.7499970  0.3397560  )
        21           O   tau(  21) = (  0.1792160  0.9477120  0.3161030  )
        22           O   tau(  22) = (  0.3207920  0.0522910  0.8161030  )
        23           O   tau(  23) = (  0.8207890  0.4477020  0.6839050  )
        24           O   tau(  24) = (  0.6792170  0.5522980  0.1839050  )
        25           O   tau(  25) = (  0.8207910  0.0522880  0.6839010  )
        26           O   tau(  26) = (  0.6792160  0.9477100  0.1839010  )
        27           O   tau(  27) = (  0.1792180  0.5522990  0.3160990  )
        28           O   tau(  28) = (  0.3207900  0.4477030  0.8160990  )

     number of k points=   158  Marzari-Vanderbilt smearing, width (Ry)=  0.0073
                       cart. coord. in units 2pi/alat
        k(    1) = (   0.0000000   0.0000000   0.0000000), wk =   0.0031746
        k(    2) = (   0.0000000   0.0000000   0.2196315), wk =   0.0063492
        k(    3) = (   0.0000000   0.0000000   0.4392631), wk =   0.0063492
        k(    4) = (   0.0000000   0.0000000   0.6588946), wk =   0.0063492
        k(    5) = (   0.0000000   0.0000000   0.8785261), wk =   0.0063492
        k(    6) = (   0.0000000   0.2390304   0.0000000), wk =   0.0063492
        k(    7) = (   0.0000000   0.2390304   0.2196315), wk =   0.0063492
        k(    8) = (   0.0000000   0.2390304   0.4392631), wk =   0.0063492
        k(    9) = (   0.0000000   0.2390304   0.6588946), wk =   0.0063492
        k(   10) = (   0.0000000   0.2390304   0.8785261), wk =   0.0063492
        k(   11) = (   0.0000000   0.2390304  -0.8785261), wk =   0.0063492
        k(   12) = (   0.0000000   0.2390304  -0.6588946), wk =   0.0063492
        k(   13) = (   0.0000000   0.2390304  -0.4392631), wk =   0.0063492
        k(   14) = (   0.0000000   0.2390304  -0.2196315), wk =   0.0063492
        k(   15) = (   0.0000000   0.4780607   0.0000000), wk =   0.0063492
        k(   16) = (   0.0000000   0.4780607   0.2196315), wk =   0.0063492
        k(   17) = (   0.0000000   0.4780607   0.4392631), wk =   0.0063492
        k(   18) = (   0.0000000   0.4780607   0.6588946), wk =   0.0063492
        k(   19) = (   0.0000000   0.4780607   0.8785261), wk =   0.0063492
        k(   20) = (   0.0000000   0.4780607  -0.8785261), wk =   0.0063492
        k(   21) = (   0.0000000   0.4780607  -0.6588946), wk =   0.0063492
        k(   22) = (   0.0000000   0.4780607  -0.4392631), wk =   0.0063492
        k(   23) = (   0.0000000   0.4780607  -0.2196315), wk =   0.0063492
        k(   24) = (   0.0000000   0.7170911   0.0000000), wk =   0.0063492
        k(   25) = (   0.0000000   0.7170911   0.2196315), wk =   0.0063492
        k(   26) = (   0.0000000   0.7170911   0.4392631), wk =   0.0063492
        k(   27) = (   0.0000000   0.7170911   0.6588946), wk =   0.0063492
        k(   28) = (   0.0000000   0.7170911   0.8785261), wk =   0.0063492
        k(   29) = (   0.0000000   0.7170911  -0.8785261), wk =   0.0063492
        k(   30) = (   0.0000000   0.7170911  -0.6588946), wk =   0.0063492
        k(   31) = (   0.0000000   0.7170911  -0.4392631), wk =   0.0063492
        k(   32) = (   0.0000000   0.7170911  -0.2196315), wk =   0.0063492
        k(   33) = (   0.2000000   0.0000010   0.0000003), wk =   0.0063492
        k(   34) = (   0.2000000   0.0000010   0.2196319), wk =   0.0063492
        k(   35) = (   0.2000000   0.0000010   0.4392634), wk =   0.0063492
        k(   36) = (   0.2000000   0.0000010   0.6588949), wk =   0.0063492
        k(   37) = (   0.2000000   0.0000010   0.8785265), wk =   0.0063492
        k(   38) = (   0.2000000   0.0000010  -0.8785258), wk =   0.0063492
        k(   39) = (   0.2000000   0.0000010  -0.6588942), wk =   0.0063492
        k(   40) = (   0.2000000   0.0000010  -0.4392627), wk =   0.0063492
        k(   41) = (   0.2000000   0.0000010  -0.2196312), wk =   0.0063492
        k(   42) = (   0.2000000   0.2390314   0.0000003), wk =   0.0063492
        k(   43) = (   0.2000000   0.2390314   0.2196319), wk =   0.0063492
        k(   44) = (   0.2000000   0.2390314   0.4392634), wk =   0.0063492
        k(   45) = (   0.2000000   0.2390314   0.6588949), wk =   0.0063492
        k(   46) = (   0.2000000   0.2390314   0.8785265), wk =   0.0063492
        k(   47) = (   0.2000000   0.2390314  -0.8785258), wk =   0.0063492
        k(   48) = (   0.2000000   0.2390314  -0.6588942), wk =   0.0063492
        k(   49) = (   0.2000000   0.2390314  -0.4392627), wk =   0.0063492
        k(   50) = (   0.2000000   0.2390314  -0.2196312), wk =   0.0063492
        k(   51) = (   0.2000000   0.4780618   0.0000003), wk =   0.0063492
        k(   52) = (   0.2000000   0.4780618   0.2196319), wk =   0.0063492
        k(   53) = (   0.2000000   0.4780618   0.4392634), wk =   0.0063492
        k(   54) = (   0.2000000   0.4780618   0.6588949), wk =   0.0063492
        k(   55) = (   0.2000000   0.4780618   0.8785265), wk =   0.0063492
        k(   56) = (   0.2000000   0.4780618  -0.8785258), wk =   0.0063492
        k(   57) = (   0.2000000   0.4780618  -0.6588942), wk =   0.0063492
        k(   58) = (   0.2000000   0.4780618  -0.4392627), wk =   0.0063492
        k(   59) = (   0.2000000   0.4780618  -0.2196312), wk =   0.0063492
        k(   60) = (   0.2000000   0.7170921   0.0000003), wk =   0.0063492
        k(   61) = (   0.2000000   0.7170921   0.2196319), wk =   0.0063492
        k(   62) = (   0.2000000   0.7170921   0.4392634), wk =   0.0063492
        k(   63) = (   0.2000000   0.7170921   0.6588949), wk =   0.0063492
        k(   64) = (   0.2000000   0.7170921   0.8785265), wk =   0.0063492
        k(   65) = (   0.2000000   0.7170921  -0.8785258), wk =   0.0063492
        k(   66) = (   0.2000000   0.7170921  -0.6588942), wk =   0.0063492
        k(   67) = (   0.2000000   0.7170921  -0.4392627), wk =   0.0063492
        k(   68) = (   0.2000000   0.7170921  -0.2196312), wk =   0.0063492
        k(   69) = (   0.2000000  -0.7170900   0.0000003), wk =   0.0063492
        k(   70) = (   0.2000000  -0.7170900   0.2196319), wk =   0.0063492
        k(   71) = (   0.2000000  -0.7170900   0.4392634), wk =   0.0063492
        k(   72) = (   0.2000000  -0.7170900   0.6588949), wk =   0.0063492
        k(   73) = (   0.2000000  -0.7170900   0.8785264), wk =   0.0063492
        k(   74) = (   0.2000000  -0.7170900  -0.8785258), wk =   0.0063492
        k(   75) = (   0.2000000  -0.7170900  -0.6588942), wk =   0.0063492
        k(   76) = (   0.2000000  -0.7170900  -0.4392627), wk =   0.0063492
        k(   77) = (   0.2000000  -0.7170900  -0.2196312), wk =   0.0063492
        k(   78) = (   0.2000000  -0.4780597   0.0000003), wk =   0.0063492
        k(   79) = (   0.2000000  -0.4780597   0.2196319), wk =   0.0063492
        k(   80) = (   0.2000000  -0.4780597   0.4392634), wk =   0.0063492
        k(   81) = (   0.2000000  -0.4780597   0.6588949), wk =   0.0063492
        k(   82) = (   0.2000000  -0.4780597   0.8785265), wk =   0.0063492
        k(   83) = (   0.2000000  -0.4780597  -0.8785258), wk =   0.0063492
        k(   84) = (   0.2000000  -0.4780597  -0.6588942), wk =   0.0063492
        k(   85) = (   0.2000000  -0.4780597  -0.4392627), wk =   0.0063492
        k(   86) = (   0.2000000  -0.4780597  -0.2196312), wk =   0.0063492
        k(   87) = (   0.2000000  -0.2390293   0.0000003), wk =   0.0063492
        k(   88) = (   0.2000000  -0.2390293   0.2196319), wk =   0.0063492
        k(   89) = (   0.2000000  -0.2390293   0.4392634), wk =   0.0063492
        k(   90) = (   0.2000000  -0.2390293   0.6588949), wk =   0.0063492
        k(   91) = (   0.2000000  -0.2390293   0.8785265), wk =   0.0063492
        k(   92) = (   0.2000000  -0.2390293  -0.8785258), wk =   0.0063492
        k(   93) = (   0.2000000  -0.2390293  -0.6588942), wk =   0.0063492
        k(   94) = (   0.2000000  -0.2390293  -0.4392627), wk =   0.0063492
        k(   95) = (   0.2000000  -0.2390293  -0.2196312), wk =   0.0063492
        k(   96) = (   0.4000000   0.0000021   0.0000007), wk =   0.0063492
        k(   97) = (   0.4000000   0.0000021   0.2196322), wk =   0.0063492
        k(   98) = (   0.4000000   0.0000021   0.4392637), wk =   0.0063492
        k(   99) = (   0.4000000   0.0000021   0.6588953), wk =   0.0063492
        k(  100) = (   0.4000000   0.0000021   0.8785268), wk =   0.0063492
        k(  101) = (   0.4000000   0.0000021  -0.8785254), wk =   0.0063492
        k(  102) = (   0.4000000   0.0000021  -0.6588939), wk =   0.0063492
        k(  103) = (   0.4000000   0.0000021  -0.4392624), wk =   0.0063492
        k(  104) = (   0.4000000   0.0000021  -0.2196308), wk =   0.0063492
        k(  105) = (   0.4000000   0.2390325   0.0000007), wk =   0.0063492
        k(  106) = (   0.4000000   0.2390325   0.2196322), wk =   0.0063492
        k(  107) = (   0.4000000   0.2390325   0.4392637), wk =   0.0063492
        k(  108) = (   0.4000000   0.2390325   0.6588953), wk =   0.0063492
        k(  109) = (   0.4000000   0.2390325   0.8785268), wk =   0.0063492
        k(  110) = (   0.4000000   0.2390325  -0.8785254), wk =   0.0063492
        k(  111) = (   0.4000000   0.2390325  -0.6588939), wk =   0.0063492
        k(  112) = (   0.4000000   0.2390325  -0.4392624), wk =   0.0063492
        k(  113) = (   0.4000000   0.2390325  -0.2196308), wk =   0.0063492
        k(  114) = (   0.4000000   0.4780628   0.0000007), wk =   0.0063492
        k(  115) = (   0.4000000   0.4780628   0.2196322), wk =   0.0063492
        k(  116) = (   0.4000000   0.4780628   0.4392637), wk =   0.0063492
        k(  117) = (   0.4000000   0.4780628   0.6588953), wk =   0.0063492
        k(  118) = (   0.4000000   0.4780628   0.8785268), wk =   0.0063492
        k(  119) = (   0.4000000   0.4780628  -0.8785254), wk =   0.0063492
        k(  120) = (   0.4000000   0.4780628  -0.6588939), wk =   0.0063492
        k(  121) = (   0.4000000   0.4780628  -0.4392624), wk =   0.0063492
        k(  122) = (   0.4000000   0.4780628  -0.2196308), wk =   0.0063492
        k(  123) = (   0.4000000   0.7170932   0.0000007), wk =   0.0063492
        k(  124) = (   0.4000000   0.7170932   0.2196322), wk =   0.0063492
        k(  125) = (   0.4000000   0.7170932   0.4392637), wk =   0.0063492
        k(  126) = (   0.4000000   0.7170932   0.6588953), wk =   0.0063492
        k(  127) = (   0.4000000   0.7170932   0.8785268), wk =   0.0063492
        k(  128) = (   0.4000000   0.7170932  -0.8785254), wk =   0.0063492
        k(  129) = (   0.4000000   0.7170932  -0.6588939), wk =   0.0063492
        k(  130) = (   0.4000000   0.7170932  -0.4392624), wk =   0.0063492
        k(  131) = (   0.4000000   0.7170932  -0.2196308), wk =   0.0063492
        k(  132) = (   0.4000000  -0.7170890   0.0000007), wk =   0.0063492
        k(  133) = (   0.4000000  -0.7170890   0.2196322), wk =   0.0063492
        k(  134) = (   0.4000000  -0.7170890   0.4392637), wk =   0.0063492
        k(  135) = (   0.4000000  -0.7170890   0.6588953), wk =   0.0063492
        k(  136) = (   0.4000000  -0.7170890   0.8785268), wk =   0.0063492
        k(  137) = (   0.4000000  -0.7170890  -0.8785254), wk =   0.0063492
        k(  138) = (   0.4000000  -0.7170890  -0.6588939), wk =   0.0063492
        k(  139) = (   0.4000000  -0.7170890  -0.4392624), wk =   0.0063492
        k(  140) = (   0.4000000  -0.7170890  -0.2196308), wk =   0.0063492
        k(  141) = (   0.4000000  -0.4780586   0.0000007), wk =   0.0063492
        k(  142) = (   0.4000000  -0.4780586   0.2196322), wk =   0.0063492
        k(  143) = (   0.4000000  -0.4780586   0.4392637), wk =   0.0063492
        k(  144) = (   0.4000000  -0.4780586   0.6588953), wk =   0.0063492
        k(  145) = (   0.4000000  -0.4780586   0.8785268), wk =   0.0063492
        k(  146) = (   0.4000000  -0.4780586  -0.8785254), wk =   0.0063492
        k(  147) = (   0.4000000  -0.4780586  -0.6588939), wk =   0.0063492
        k(  148) = (   0.4000000  -0.4780586  -0.4392624), wk =   0.0063492
        k(  149) = (   0.4000000  -0.4780586  -0.2196308), wk =   0.0063492
        k(  150) = (   0.4000000  -0.2390283   0.0000007), wk =   0.0063492
        k(  151) = (   0.4000000  -0.2390283   0.2196322), wk =   0.0063492
        k(  152) = (   0.4000000  -0.2390283   0.4392637), wk =   0.0063492
        k(  153) = (   0.4000000  -0.2390283   0.6588953), wk =   0.0063492
        k(  154) = (   0.4000000  -0.2390283   0.8785268), wk =   0.0063492
        k(  155) = (   0.4000000  -0.2390283  -0.8785254), wk =   0.0063492
        k(  156) = (   0.4000000  -0.2390283  -0.6588939), wk =   0.0063492
        k(  157) = (   0.4000000  -0.2390283  -0.4392624), wk =   0.0063492
        k(  158) = (   0.4000000  -0.2390283  -0.2196308), wk =   0.0063492

                       cryst. coord.
        k(    1) = (   0.0000000   0.0000000   0.0000000), wk =   0.0031746
        k(    2) = (   0.0000000   0.0000000   0.1111111), wk =   0.0063492
        k(    3) = (   0.0000000   0.0000000   0.2222222), wk =   0.0063492
        k(    4) = (   0.0000000   0.0000000   0.3333333), wk =   0.0063492
        k(    5) = (   0.0000000   0.0000000   0.4444444), wk =   0.0063492
        k(    6) = (   0.0000000   0.1428571   0.0000000), wk =   0.0063492
        k(    7) = (   0.0000000   0.1428571   0.1111111), wk =   0.0063492
        k(    8) = (   0.0000000   0.1428571   0.2222222), wk =   0.0063492
        k(    9) = (   0.0000000   0.1428571   0.3333333), wk =   0.0063492
        k(   10) = (   0.0000000   0.1428571   0.4444444), wk =   0.0063492
        k(   11) = (   0.0000000   0.1428571  -0.4444444), wk =   0.0063492
        k(   12) = (   0.0000000   0.1428571  -0.3333333), wk =   0.0063492
        k(   13) = (   0.0000000   0.1428571  -0.2222222), wk =   0.0063492
        k(   14) = (   0.0000000   0.1428571  -0.1111111), wk =   0.0063492
        k(   15) = (   0.0000000   0.2857143   0.0000000), wk =   0.0063492
        k(   16) = (   0.0000000   0.2857143   0.1111111), wk =   0.0063492
        k(   17) = (   0.0000000   0.2857143   0.2222222), wk =   0.0063492
        k(   18) = (   0.0000000   0.2857143   0.3333333), wk =   0.0063492
        k(   19) = (   0.0000000   0.2857143   0.4444444), wk =   0.0063492
        k(   20) = (   0.0000000   0.2857143  -0.4444444), wk =   0.0063492
        k(   21) = (   0.0000000   0.2857143  -0.3333333), wk =   0.0063492
        k(   22) = (   0.0000000   0.2857143  -0.2222222), wk =   0.0063492
        k(   23) = (   0.0000000   0.2857143  -0.1111111), wk =   0.0063492
        k(   24) = (   0.0000000   0.4285714   0.0000000), wk =   0.0063492
        k(   25) = (   0.0000000   0.4285714   0.1111111), wk =   0.0063492
        k(   26) = (   0.0000000   0.4285714   0.2222222), wk =   0.0063492
        k(   27) = (   0.0000000   0.4285714   0.3333333), wk =   0.0063492
        k(   28) = (   0.0000000   0.4285714   0.4444444), wk =   0.0063492
        k(   29) = (   0.0000000   0.4285714  -0.4444444), wk =   0.0063492
        k(   30) = (   0.0000000   0.4285714  -0.3333333), wk =   0.0063492
        k(   31) = (   0.0000000   0.4285714  -0.2222222), wk =   0.0063492
        k(   32) = (   0.0000000   0.4285714  -0.1111111), wk =   0.0063492
        k(   33) = (   0.2000000   0.0000000   0.0000000), wk =   0.0063492
        k(   34) = (   0.2000000   0.0000000   0.1111111), wk =   0.0063492
        k(   35) = (   0.2000000   0.0000000   0.2222222), wk =   0.0063492
        k(   36) = (   0.2000000   0.0000000   0.3333333), wk =   0.0063492
        k(   37) = (   0.2000000   0.0000000   0.4444444), wk =   0.0063492
        k(   38) = (   0.2000000   0.0000000  -0.4444444), wk =   0.0063492
        k(   39) = (   0.2000000   0.0000000  -0.3333333), wk =   0.0063492
        k(   40) = (   0.2000000   0.0000000  -0.2222222), wk =   0.0063492
        k(   41) = (   0.2000000   0.0000000  -0.1111111), wk =   0.0063492
        k(   42) = (   0.2000000   0.1428571   0.0000000), wk =   0.0063492
        k(   43) = (   0.2000000   0.1428571   0.1111111), wk =   0.0063492
        k(   44) = (   0.2000000   0.1428571   0.2222222), wk =   0.0063492
        k(   45) = (   0.2000000   0.1428571   0.3333333), wk =   0.0063492
        k(   46) = (   0.2000000   0.1428571   0.4444444), wk =   0.0063492
        k(   47) = (   0.2000000   0.1428571  -0.4444444), wk =   0.0063492
        k(   48) = (   0.2000000   0.1428571  -0.3333333), wk =   0.0063492
        k(   49) = (   0.2000000   0.1428571  -0.2222222), wk =   0.0063492
        k(   50) = (   0.2000000   0.1428571  -0.1111111), wk =   0.0063492
        k(   51) = (   0.2000000   0.2857143   0.0000000), wk =   0.0063492
        k(   52) = (   0.2000000   0.2857143   0.1111111), wk =   0.0063492
        k(   53) = (   0.2000000   0.2857143   0.2222222), wk =   0.0063492
        k(   54) = (   0.2000000   0.2857143   0.3333333), wk =   0.0063492
        k(   55) = (   0.2000000   0.2857143   0.4444444), wk =   0.0063492
        k(   56) = (   0.2000000   0.2857143  -0.4444444), wk =   0.0063492
        k(   57) = (   0.2000000   0.2857143  -0.3333333), wk =   0.0063492
        k(   58) = (   0.2000000   0.2857143  -0.2222222), wk =   0.0063492
        k(   59) = (   0.2000000   0.2857143  -0.1111111), wk =   0.0063492
        k(   60) = (   0.2000000   0.4285714   0.0000000), wk =   0.0063492
        k(   61) = (   0.2000000   0.4285714   0.1111111), wk =   0.0063492
        k(   62) = (   0.2000000   0.4285714   0.2222222), wk =   0.0063492
        k(   63) = (   0.2000000   0.4285714   0.3333333), wk =   0.0063492
        k(   64) = (   0.2000000   0.4285714   0.4444444), wk =   0.0063492
        k(   65) = (   0.2000000   0.4285714  -0.4444444), wk =   0.0063492
        k(   66) = (   0.2000000   0.4285714  -0.3333333), wk =   0.0063492
        k(   67) = (   0.2000000   0.4285714  -0.2222222), wk =   0.0063492
        k(   68) = (   0.2000000   0.4285714  -0.1111111), wk =   0.0063492
        k(   69) = (   0.2000000  -0.4285714   0.0000000), wk =   0.0063492
        k(   70) = (   0.2000000  -0.4285714   0.1111111), wk =   0.0063492
        k(   71) = (   0.2000000  -0.4285714   0.2222222), wk =   0.0063492
        k(   72) = (   0.2000000  -0.4285714   0.3333333), wk =   0.0063492
        k(   73) = (   0.2000000  -0.4285714   0.4444444), wk =   0.0063492
        k(   74) = (   0.2000000  -0.4285714  -0.4444444), wk =   0.0063492
        k(   75) = (   0.2000000  -0.4285714  -0.3333333), wk =   0.0063492
        k(   76) = (   0.2000000  -0.4285714  -0.2222222), wk =   0.0063492
        k(   77) = (   0.2000000  -0.4285714  -0.1111111), wk =   0.0063492
        k(   78) = (   0.2000000  -0.2857143   0.0000000), wk =   0.0063492
        k(   79) = (   0.2000000  -0.2857143   0.1111111), wk =   0.0063492
        k(   80) = (   0.2000000  -0.2857143   0.2222222), wk =   0.0063492
        k(   81) = (   0.2000000  -0.2857143   0.3333333), wk =   0.0063492
        k(   82) = (   0.2000000  -0.2857143   0.4444444), wk =   0.0063492
        k(   83) = (   0.2000000  -0.2857143  -0.4444444), wk =   0.0063492
        k(   84) = (   0.2000000  -0.2857143  -0.3333333), wk =   0.0063492
        k(   85) = (   0.2000000  -0.2857143  -0.2222222), wk =   0.0063492
        k(   86) = (   0.2000000  -0.2857143  -0.1111111), wk =   0.0063492
        k(   87) = (   0.2000000  -0.1428571   0.0000000), wk =   0.0063492
        k(   88) = (   0.2000000  -0.1428571   0.1111111), wk =   0.0063492
        k(   89) = (   0.2000000  -0.1428571   0.2222222), wk =   0.0063492
        k(   90) = (   0.2000000  -0.1428571   0.3333333), wk =   0.0063492
        k(   91) = (   0.2000000  -0.1428571   0.4444444), wk =   0.0063492
        k(   92) = (   0.2000000  -0.1428571  -0.4444444), wk =   0.0063492
        k(   93) = (   0.2000000  -0.1428571  -0.3333333), wk =   0.0063492
        k(   94) = (   0.2000000  -0.1428571  -0.2222222), wk =   0.0063492
        k(   95) = (   0.2000000  -0.1428571  -0.1111111), wk =   0.0063492
        k(   96) = (   0.4000000   0.0000000   0.0000000), wk =   0.0063492
        k(   97) = (   0.4000000   0.0000000   0.1111111), wk =   0.0063492
        k(   98) = (   0.4000000   0.0000000   0.2222222), wk =   0.0063492
        k(   99) = (   0.4000000   0.0000000   0.3333333), wk =   0.0063492
        k(  100) = (   0.4000000   0.0000000   0.4444444), wk =   0.0063492
        k(  101) = (   0.4000000   0.0000000  -0.4444444), wk =   0.0063492
        k(  102) = (   0.4000000   0.0000000  -0.3333333), wk =   0.0063492
        k(  103) = (   0.4000000   0.0000000  -0.2222222), wk =   0.0063492
        k(  104) = (   0.4000000   0.0000000  -0.1111111), wk =   0.0063492
        k(  105) = (   0.4000000   0.1428571   0.0000000), wk =   0.0063492
        k(  106) = (   0.4000000   0.1428571   0.1111111), wk =   0.0063492
        k(  107) = (   0.4000000   0.1428571   0.2222222), wk =   0.0063492
        k(  108) = (   0.4000000   0.1428571   0.3333333), wk =   0.0063492
        k(  109) = (   0.4000000   0.1428571   0.4444444), wk =   0.0063492
        k(  110) = (   0.4000000   0.1428571  -0.4444444), wk =   0.0063492
        k(  111) = (   0.4000000   0.1428571  -0.3333333), wk =   0.0063492
        k(  112) = (   0.4000000   0.1428571  -0.2222222), wk =   0.0063492
        k(  113) = (   0.4000000   0.1428571  -0.1111111), wk =   0.0063492
        k(  114) = (   0.4000000   0.2857143   0.0000000), wk =   0.0063492
        k(  115) = (   0.4000000   0.2857143   0.1111111), wk =   0.0063492
        k(  116) = (   0.4000000   0.2857143   0.2222222), wk =   0.0063492
        k(  117) = (   0.4000000   0.2857143   0.3333333), wk =   0.0063492
        k(  118) = (   0.4000000   0.2857143   0.4444444), wk =   0.0063492
        k(  119) = (   0.4000000   0.2857143  -0.4444444), wk =   0.0063492
        k(  120) = (   0.4000000   0.2857143  -0.3333333), wk =   0.0063492
        k(  121) = (   0.4000000   0.2857143  -0.2222222), wk =   0.0063492
        k(  122) = (   0.4000000   0.2857143  -0.1111111), wk =   0.0063492
        k(  123) = (   0.4000000   0.4285714   0.0000000), wk =   0.0063492
        k(  124) = (   0.4000000   0.4285714   0.1111111), wk =   0.0063492
        k(  125) = (   0.4000000   0.4285714   0.2222222), wk =   0.0063492
        k(  126) = (   0.4000000   0.4285714   0.3333333), wk =   0.0063492
        k(  127) = (   0.4000000   0.4285714   0.4444444), wk =   0.0063492
        k(  128) = (   0.4000000   0.4285714  -0.4444444), wk =   0.0063492
        k(  129) = (   0.4000000   0.4285714  -0.3333333), wk =   0.0063492
        k(  130) = (   0.4000000   0.4285714  -0.2222222), wk =   0.0063492
        k(  131) = (   0.4000000   0.4285714  -0.1111111), wk =   0.0063492
        k(  132) = (   0.4000000  -0.4285714   0.0000000), wk =   0.0063492
        k(  133) = (   0.4000000  -0.4285714   0.1111111), wk =   0.0063492
        k(  134) = (   0.4000000  -0.4285714   0.2222222), wk =   0.0063492
        k(  135) = (   0.4000000  -0.4285714   0.3333333), wk =   0.0063492
        k(  136) = (   0.4000000  -0.4285714   0.4444444), wk =   0.0063492
        k(  137) = (   0.4000000  -0.4285714  -0.4444444), wk =   0.0063492
        k(  138) = (   0.4000000  -0.4285714  -0.3333333), wk =   0.0063492
        k(  139) = (   0.4000000  -0.4285714  -0.2222222), wk =   0.0063492
        k(  140) = (   0.4000000  -0.4285714  -0.1111111), wk =   0.0063492
        k(  141) = (   0.4000000  -0.2857143   0.0000000), wk =   0.0063492
        k(  142) = (   0.4000000  -0.2857143   0.1111111), wk =   0.0063492
        k(  143) = (   0.4000000  -0.2857143   0.2222222), wk =   0.0063492
        k(  144) = (   0.4000000  -0.2857143   0.3333333), wk =   0.0063492
        k(  145) = (   0.4000000  -0.2857143   0.4444444), wk =   0.0063492
        k(  146) = (   0.4000000  -0.2857143  -0.4444444), wk =   0.0063492
        k(  147) = (   0.4000000  -0.2857143  -0.3333333), wk =   0.0063492
        k(  148) = (   0.4000000  -0.2857143  -0.2222222), wk =   0.0063492
        k(  149) = (   0.4000000  -0.2857143  -0.1111111), wk =   0.0063492
        k(  150) = (   0.4000000  -0.1428571   0.0000000), wk =   0.0063492
        k(  151) = (   0.4000000  -0.1428571   0.1111111), wk =   0.0063492
        k(  152) = (   0.4000000  -0.1428571   0.2222222), wk =   0.0063492
        k(  153) = (   0.4000000  -0.1428571   0.3333333), wk =   0.0063492
        k(  154) = (   0.4000000  -0.1428571   0.4444444), wk =   0.0063492
        k(  155) = (   0.4000000  -0.1428571  -0.4444444), wk =   0.0063492
        k(  156) = (   0.4000000  -0.1428571  -0.3333333), wk =   0.0063492
        k(  157) = (   0.4000000  -0.1428571  -0.2222222), wk =   0.0063492
        k(  158) = (   0.4000000  -0.1428571  -0.1111111), wk =   0.0063492

     Dense  grid:  1209685 G-vectors     FFT dimensions: ( 200, 120, 100)

     Smooth grid:   272713 G-vectors     FFT dimensions: ( 120,  72,  64)

     Dynamical RAM for                 wfc:       4.23 MB

     Dynamical RAM for     wfc (w. buffer):    1339.38 MB

     Dynamical RAM for           str. fact:       4.61 MB

     Dynamical RAM for           local pot:       0.00 MB

     Dynamical RAM for          nlocal pot:       9.88 MB

     Dynamical RAM for                qrad:      10.54 MB

     Dynamical RAM for          rho,v,vnew:      14.61 MB

     Dynamical RAM for               rhoin:       4.87 MB

     Dynamical RAM for            rho*nmix:      36.92 MB

     Dynamical RAM for           G-vectors:       4.46 MB

     Dynamical RAM for          h,s,v(r/c):       3.09 MB

     Dynamical RAM for          <psi|beta>:       0.60 MB

     Dynamical RAM for                 psi:       8.45 MB

     Dynamical RAM for                hpsi:       8.45 MB

     Dynamical RAM for                spsi:       8.45 MB

     Dynamical RAM for      wfcinit/wfcrot:      10.41 MB

     Dynamical RAM for           addusdens:     234.19 MB

     Dynamical RAM for          addusforce:     268.93 MB

     Dynamical RAM for         addusstress:     233.62 MB

     Estimated static dynamical RAM per process >       1.41 GB

     Estimated max dynamical RAM per process >       1.67 GB

     Estimated total dynamical RAM >      26.68 GB

     Check: negative core charge=   -0.000003
     Generating pointlists ...
     new r_m :   0.0832 (alat units)  1.5670 (a.u.) for type    1
     new r_m :   0.0933 (alat units)  1.7561 (a.u.) for type    2
     new r_m :   0.0618 (alat units)  1.1632 (a.u.) for type    3
     new r_m :   0.0618 (alat units)  1.1632 (a.u.) for type    4

     Initial potential from superposition of free atoms

     starting charge  215.97252, renormalised to  216.00000
     Starting wfcs are  152 randomized atomic wfcs
     Checking if some PAW data can be deallocated... 
       PAW data deallocated on   14 nodes for type:  1
       PAW data deallocated on    6 nodes for type:  3

     total cpu time spent up to now is       90.5 secs

     Self-consistent Calculation

     iteration #  1     ecut=   100.00 Ry     beta= 0.40
     Davidson diagonalization with overlap
     ethr =  1.00E-02,  avg # of iterations =  3.7

     total cpu time spent up to now is      360.4 secs

     total energy              =   -2380.57351823 Ry
     estimated scf accuracy    <       5.70516909 Ry

     total magnetization       =    16.00 Bohr mag/cell
     absolute magnetization    =    16.00 Bohr mag/cell

     iteration #  2     ecut=   100.00 Ry     beta= 0.40
     Davidson diagonalization with overlap
     ethr =  2.64E-03,  avg # of iterations =  2.0

     negative rho (up, down):  0.000E+00 1.644E-04

     total cpu time spent up to now is      593.0 secs

     total energy              =   -2381.91067989 Ry
     estimated scf accuracy    <       0.44822810 Ry

     total magnetization       =    16.00 Bohr mag/cell
     absolute magnetization    =    16.01 Bohr mag/cell

     iteration #  3     ecut=   100.00 Ry     beta= 0.40
     Davidson diagonalization with overlap
     ethr =  2.08E-04,  avg # of iterations =  8.9

     negative rho (up, down):  0.000E+00 1.901E-04

     total cpu time spent up to now is      915.2 secs

     total energy              =   -2381.88926358 Ry
     estimated scf accuracy    <       3.22742864 Ry

     total magnetization       =    16.00 Bohr mag/cell
     absolute magnetization    =    16.04 Bohr mag/cell

     iteration #  4     ecut=   100.00 Ry     beta= 0.40
     Davidson diagonalization with overlap
     ethr =  2.08E-04,  avg # of iterations =  2.0

     negative rho (up, down):  0.000E+00 3.430E-04

     total cpu time spent up to now is     1121.8 secs

     total energy              =   -2381.95120486 Ry
     estimated scf accuracy    <       1.66198783 Ry

     total magnetization       =    16.00 Bohr mag/cell
     absolute magnetization    =    16.05 Bohr mag/cell

     iteration #  5     ecut=   100.00 Ry     beta= 0.40
     Davidson diagonalization with overlap
     ethr =  2.08E-04,  avg # of iterations =  1.5

     negative rho (up, down):  0.000E+00 5.066E-04

     total cpu time spent up to now is     1311.7 secs

     total energy              =   -2381.96145218 Ry
     estimated scf accuracy    <       1.61308436 Ry

     total magnetization       =    16.00 Bohr mag/cell
     absolute magnetization    =    16.05 Bohr mag/cell

     iteration #  6     ecut=   100.00 Ry     beta= 0.40
     Davidson diagonalization with overlap
     ethr =  2.08E-04,  avg # of iterations =  1.8

     negative rho (up, down):  0.000E+00 5.237E-04

     total cpu time spent up to now is     1508.2 secs

     total energy              =   -2382.01074256 Ry
     estimated scf accuracy    <       1.78303190 Ry

     total magnetization       =    16.00 Bohr mag/cell
     absolute magnetization    =    16.07 Bohr mag/cell

     iteration #  7     ecut=   100.00 Ry     beta= 0.40
     Davidson diagonalization with overlap
     ethr =  2.08E-04,  avg # of iterations =  1.0

     negative rho (up, down):  0.000E+00 5.288E-04

     total cpu time spent up to now is     1683.2 secs

     total energy              =   -2382.05849594 Ry
     estimated scf accuracy    <       0.11698792 Ry

     total magnetization       =    16.00 Bohr mag/cell
     absolute magnetization    =    16.05 Bohr mag/cell

     iteration #  8     ecut=   100.00 Ry     beta= 0.40
     Davidson diagonalization with overlap
     ethr =  5.42E-05,  avg # of iterations =  1.0

     negative rho (up, down):  0.000E+00 5.294E-04

     total cpu time spent up to now is     1858.2 secs

     total energy              =   -2382.06236231 Ry
     estimated scf accuracy    <       0.27102381 Ry

     total magnetization       =    16.00 Bohr mag/cell
     absolute magnetization    =    16.06 Bohr mag/cell

     iteration #  9     ecut=   100.00 Ry     beta= 0.40
     Davidson diagonalization with overlap
     ethr =  5.42E-05,  avg # of iterations =  1.0

     negative rho (up, down):  0.000E+00 5.285E-04

     total cpu time spent up to now is     2033.6 secs

     total energy              =   -2382.05798089 Ry
     estimated scf accuracy    <       0.25373194 Ry

     total magnetization       =    16.00 Bohr mag/cell
     absolute magnetization    =    16.06 Bohr mag/cell

     iteration # 10     ecut=   100.00 Ry     beta= 0.40
     Davidson diagonalization with overlap
     ethr =  5.42E-05,  avg # of iterations =  1.0

     negative rho (up, down):  0.000E+00 5.253E-04

     total cpu time spent up to now is     2208.5 secs

     total energy              =   -2382.06263090 Ry
     estimated scf accuracy    <       0.05791670 Ry

     total magnetization       =    16.00 Bohr mag/cell
     absolute magnetization    =    16.06 Bohr mag/cell

     iteration # 11     ecut=   100.00 Ry     beta= 0.40
     Davidson diagonalization with overlap
     ethr =  2.68E-05,  avg # of iterations =  1.0

     negative rho (up, down):  0.000E+00 5.245E-04

     total cpu time spent up to now is     2384.0 secs

     total energy              =   -2382.06338506 Ry
     estimated scf accuracy    <       0.03371117 Ry

     total magnetization       =    16.00 Bohr mag/cell
     absolute magnetization    =    16.06 Bohr mag/cell

     iteration # 12     ecut=   100.00 Ry     beta= 0.40
     Davidson diagonalization with overlap
     c_bands:  1 eigenvalues not converged
     c_bands:  1 eigenvalues not converged
     ethr =  1.56E-05,  avg # of iterations =  1.6

     negative rho (up, down):  0.000E+00 5.186E-04

     total cpu time spent up to now is     2569.0 secs

     total energy              =   -2382.06585270 Ry
     estimated scf accuracy    <       0.03828968 Ry

     total magnetization       =    16.00 Bohr mag/cell
     absolute magnetization    =    16.06 Bohr mag/cell

     iteration # 13     ecut=   100.00 Ry     beta= 0.40
     Davidson diagonalization with overlap
     ethr =  1.56E-05,  avg # of iterations =  1.0

     negative rho (up, down):  0.000E+00 5.127E-04

     total cpu time spent up to now is     2743.4 secs

     total energy              =   -2382.06881019 Ry
     estimated scf accuracy    <       0.02487356 Ry

     total magnetization       =    16.00 Bohr mag/cell
     absolute magnetization    =    16.06 Bohr mag/cell

     iteration # 14     ecut=   100.00 Ry     beta= 0.40
     Davidson diagonalization with overlap
     ethr =  1.15E-05,  avg # of iterations =  1.0

     negative rho (up, down):  0.000E+00 5.097E-04

     total cpu time spent up to now is     2918.1 secs

     total energy              =   -2382.07105270 Ry
     estimated scf accuracy    <       0.01665900 Ry

     total magnetization       =    16.00 Bohr mag/cell
     absolute magnetization    =    16.06 Bohr mag/cell

     iteration # 15     ecut=   100.00 Ry     beta= 0.40
     Davidson diagonalization with overlap
     c_bands:  1 eigenvalues not converged
     c_bands:  1 eigenvalues not converged
     c_bands:  1 eigenvalues not converged
     ethr =  7.71E-06,  avg # of iterations =  2.1

     negative rho (up, down):  0.000E+00 4.920E-04

     total cpu time spent up to now is     3106.9 secs

     total energy              =   -2382.07051381 Ry
     estimated scf accuracy    <       0.01114502 Ry

     total magnetization       =    16.00 Bohr mag/cell
     absolute magnetization    =    16.06 Bohr mag/cell

     iteration # 16     ecut=   100.00 Ry     beta= 0.40
     Davidson diagonalization with overlap
     c_bands:  1 eigenvalues not converged
     c_bands:  1 eigenvalues not converged
     c_bands:  1 eigenvalues not converged
     c_bands:  1 eigenvalues not converged
     c_bands:  1 eigenvalues not converged
     c_bands:  1 eigenvalues not converged
     c_bands:  1 eigenvalues not converged
     c_bands:  1 eigenvalues not converged
     c_bands:  2 eigenvalues not converged
     c_bands:  1 eigenvalues not converged
     c_bands:  2 eigenvalues not converged
     c_bands:  1 eigenvalues not converged
     c_bands:  1 eigenvalues not converged
     c_bands:  1 eigenvalues not converged
     ethr =  5.16E-06,  avg # of iterations =  7.2

     negative rho (up, down):  0.000E+00 4.956E-04

     total cpu time spent up to now is     3377.1 secs

     total energy              =   -2382.07497460 Ry
     estimated scf accuracy    <       0.00403498 Ry

     total magnetization       =    16.00 Bohr mag/cell
     absolute magnetization    =    16.06 Bohr mag/cell

     iteration # 17     ecut=   100.00 Ry     beta= 0.40
     Davidson diagonalization with overlap
     c_bands:  1 eigenvalues not converged
     c_bands:  1 eigenvalues not converged
     c_bands:  1 eigenvalues not converged
     c_bands:  1 eigenvalues not converged
     c_bands:  1 eigenvalues not converged
     c_bands:  1 eigenvalues not converged
     c_bands:  2 eigenvalues not converged
     c_bands:  1 eigenvalues not converged
     c_bands:  1 eigenvalues not converged
     c_bands:  1 eigenvalues not converged
     c_bands:  1 eigenvalues not converged
     c_bands:  1 eigenvalues not converged
     c_bands:  2 eigenvalues not converged
     c_bands:  1 eigenvalues not converged
     c_bands:  1 eigenvalues not converged
     c_bands:  1 eigenvalues not converged
     c_bands:  1 eigenvalues not converged
     c_bands:  2 eigenvalues not converged
     c_bands:  1 eigenvalues not converged
     c_bands:  1 eigenvalues not converged
     c_bands:  1 eigenvalues not converged
     c_bands:  1 eigenvalues not converged
     ethr =  1.87E-06,  avg # of iterations =  9.2

     negative rho (up, down):  0.000E+00 4.973E-04

     total cpu time spent up to now is     3641.8 secs

     total energy              =   -2382.07503652 Ry
     estimated scf accuracy    <       0.00177030 Ry

     total magnetization       =    16.00 Bohr mag/cell
     absolute magnetization    =    16.06 Bohr mag/cell

     iteration # 18     ecut=   100.00 Ry     beta= 0.40
     Davidson diagonalization with overlap
     c_bands:  1 eigenvalues not converged
     ethr =  8.20E-07,  avg # of iterations =  1.8

     negative rho (up, down):  0.000E+00 5.021E-04

     total cpu time spent up to now is     3832.0 secs

     total energy              =   -2382.07520160 Ry
     estimated scf accuracy    <       0.00184562 Ry

     total magnetization       =    16.00 Bohr mag/cell
     absolute magnetization    =    16.06 Bohr mag/cell

     iteration # 19     ecut=   100.00 Ry     beta= 0.40
     Davidson diagonalization with overlap
     ethr =  8.20E-07,  avg # of iterations =  2.0

     negative rho (up, down):  0.000E+00 5.028E-04

     total cpu time spent up to now is     4040.8 secs

     total energy              =   -2382.07555762 Ry
     estimated scf accuracy    <       0.00245948 Ry

     total magnetization       =    16.00 Bohr mag/cell
     absolute magnetization    =    16.06 Bohr mag/cell

     iteration # 20     ecut=   100.00 Ry     beta= 0.40
     Davidson diagonalization with overlap
     ethr =  8.20E-07,  avg # of iterations =  1.0

     negative rho (up, down):  0.000E+00 5.009E-04

     total cpu time spent up to now is     4215.0 secs

     total energy              =   -2382.07558097 Ry
     estimated scf accuracy    <       0.00136472 Ry

     total magnetization       =    16.00 Bohr mag/cell
     absolute magnetization    =    16.06 Bohr mag/cell

     iteration # 21     ecut=   100.00 Ry     beta= 0.40
     Davidson diagonalization with overlap
     ethr =  6.32E-07,  avg # of iterations =  1.0

     negative rho (up, down):  0.000E+00 4.997E-04

     total cpu time spent up to now is     4389.3 secs

     total energy              =   -2382.07564607 Ry
     estimated scf accuracy    <       0.00008964 Ry

     total magnetization       =    16.00 Bohr mag/cell
     absolute magnetization    =    16.06 Bohr mag/cell

     iteration # 22     ecut=   100.00 Ry     beta= 0.40
     Davidson diagonalization with overlap
     ethr =  4.15E-08,  avg # of iterations =  3.6

     negative rho (up, down):  0.000E+00 4.981E-04

     total cpu time spent up to now is     4611.9 secs

     total energy              =   -2382.07567218 Ry
     estimated scf accuracy    <       0.00004349 Ry

     total magnetization       =    16.00 Bohr mag/cell
     absolute magnetization    =    16.06 Bohr mag/cell

     iteration # 23     ecut=   100.00 Ry     beta= 0.40
     Davidson diagonalization with overlap
     ethr =  2.01E-08,  avg # of iterations =  2.2

     negative rho (up, down):  0.000E+00 4.938E-04

     total cpu time spent up to now is     4828.6 secs

     total energy              =   -2382.07559745 Ry
     estimated scf accuracy    <       0.00003850 Ry

     total magnetization       =    16.00 Bohr mag/cell
     absolute magnetization    =    16.06 Bohr mag/cell

     iteration # 24     ecut=   100.00 Ry     beta= 0.40
     Davidson diagonalization with overlap
     ethr =  1.78E-08,  avg # of iterations =  3.7

     negative rho (up, down):  0.000E+00 4.929E-04

     total cpu time spent up to now is     5086.1 secs

     total energy              =   -2382.07573912 Ry
     estimated scf accuracy    <       0.00000681 Ry

     total magnetization       =    16.00 Bohr mag/cell
     absolute magnetization    =    16.06 Bohr mag/cell

     iteration # 25     ecut=   100.00 Ry     beta= 0.40
     Davidson diagonalization with overlap
     ethr =  3.15E-09,  avg # of iterations =  4.2

     negative rho (up, down):  0.000E+00 4.927E-04

     total cpu time spent up to now is     5366.6 secs

     total energy              =   -2382.07576917 Ry
     estimated scf accuracy    <       0.00000507 Ry

     total magnetization       =    16.00 Bohr mag/cell
     absolute magnetization    =    16.06 Bohr mag/cell

     iteration # 26     ecut=   100.00 Ry     beta= 0.40
     Davidson diagonalization with overlap
     ethr =  2.35E-09,  avg # of iterations =  2.0

     negative rho (up, down):  0.000E+00 4.925E-04

     total cpu time spent up to now is     5583.0 secs

     total energy              =   -2382.07577471 Ry
     estimated scf accuracy    <       0.00000109 Ry

     total magnetization       =    16.00 Bohr mag/cell
     absolute magnetization    =    16.06 Bohr mag/cell

     iteration # 27     ecut=   100.00 Ry     beta= 0.40
     Davidson diagonalization with overlap
     ethr =  5.05E-10,  avg # of iterations =  4.0

     negative rho (up, down):  0.000E+00 4.927E-04

     total cpu time spent up to now is     5849.4 secs

     total energy              =   -2382.07578256 Ry
     estimated scf accuracy    <       0.00000020 Ry

     total magnetization       =    16.00 Bohr mag/cell
     absolute magnetization    =    16.06 Bohr mag/cell

     iteration # 28     ecut=   100.00 Ry     beta= 0.40
     Davidson diagonalization with overlap
     ethr =  9.10E-11,  avg # of iterations =  2.9

     negative rho (up, down):  0.000E+00 4.927E-04

     total cpu time spent up to now is     6076.2 secs

     total energy              =   -2382.07578354 Ry
     estimated scf accuracy    <       0.00000002 Ry

     total magnetization       =    16.00 Bohr mag/cell
     absolute magnetization    =    16.06 Bohr mag/cell

     iteration # 29     ecut=   100.00 Ry     beta= 0.40
     Davidson diagonalization with overlap
     ethr =  8.21E-12,  avg # of iterations =  4.6

     negative rho (up, down):  0.000E+00 4.927E-04

     total cpu time spent up to now is     6371.8 secs

     total energy              =   -2382.07578392 Ry
     estimated scf accuracy    <          7.6E-09 Ry

     total magnetization       =    16.00 Bohr mag/cell
     absolute magnetization    =    16.06 Bohr mag/cell

     iteration # 30     ecut=   100.00 Ry     beta= 0.40
     Davidson diagonalization with overlap
     ethr =  3.54E-12,  avg # of iterations =  2.0

     negative rho (up, down):  0.000E+00 4.927E-04

     total cpu time spent up to now is     6580.9 secs

     total energy              =   -2382.07578406 Ry
     estimated scf accuracy    <          5.9E-09 Ry

     total magnetization       =    16.00 Bohr mag/cell
     absolute magnetization    =    16.06 Bohr mag/cell

     iteration # 31     ecut=   100.00 Ry     beta= 0.40
     Davidson diagonalization with overlap
     ethr =  2.73E-12,  avg # of iterations =  1.6

     negative rho (up, down):  0.000E+00 4.927E-04

     total cpu time spent up to now is     6771.8 secs

     total energy              =   -2382.07578412 Ry
     estimated scf accuracy    <          2.0E-09 Ry

     total magnetization       =    16.00 Bohr mag/cell
     absolute magnetization    =    16.06 Bohr mag/cell

     iteration # 32     ecut=   100.00 Ry     beta= 0.40
     Davidson diagonalization with overlap
     ethr =  9.41E-13,  avg # of iterations =  1.6

     negative rho (up, down):  0.000E+00 4.927E-04

     total cpu time spent up to now is     6961.2 secs

     total energy              =   -2382.07578413 Ry
     estimated scf accuracy    <          2.3E-10 Ry

     total magnetization       =    16.00 Bohr mag/cell
     absolute magnetization    =    16.06 Bohr mag/cell

     iteration # 33     ecut=   100.00 Ry     beta= 0.40
     Davidson diagonalization with overlap
     ethr =  1.05E-13,  avg # of iterations =  4.7

     negative rho (up, down):  0.000E+00 4.927E-04

     Magnetic moment per site:
     atom:    1    charge:    7.9400    magn:    0.0001    constr:    0.0000
     atom:    2    charge:    7.9400    magn:    0.0001    constr:    0.0000
     atom:    3    charge:    7.9400    magn:    0.0001    constr:    0.0000
     atom:    4    charge:    7.9400    magn:    0.0001    constr:    0.0000
     atom:    5    charge:   13.2462    magn:    3.2877    constr:    0.0000
     atom:    6    charge:   13.2462    magn:    3.2877    constr:    0.0000
     atom:    7    charge:   13.2462    magn:    3.2877    constr:    0.0000
     atom:    8    charge:   13.2462    magn:    3.2877    constr:    0.0000
     atom:    9    charge:    0.8060    magn:    0.0068    constr:    0.0000
     atom:   10    charge:    0.8060    magn:    0.0068    constr:    0.0000
     atom:   11    charge:    0.8060    magn:    0.0068    constr:    0.0000
     atom:   12    charge:    0.8060    magn:    0.0068    constr:    0.0000
     atom:   13    charge:    4.1193    magn:    0.0346    constr:    0.0000
     atom:   14    charge:    4.1193    magn:    0.0346    constr:    0.0000
     atom:   15    charge:    4.1193    magn:    0.0346    constr:    0.0000
     atom:   16    charge:    4.1193    magn:    0.0346    constr:    0.0000
     atom:   17    charge:    4.1652    magn:    0.0440    constr:    0.0000
     atom:   18    charge:    4.1652    magn:    0.0440    constr:    0.0000
     atom:   19    charge:    4.1652    magn:    0.0440    constr:    0.0000
     atom:   20    charge:    4.1652    magn:    0.0440    constr:    0.0000
     atom:   21    charge:    4.1454    magn:    0.0780    constr:    0.0000
     atom:   22    charge:    4.1454    magn:    0.0780    constr:    0.0000
     atom:   23    charge:    4.1454    magn:    0.0780    constr:    0.0000
     atom:   24    charge:    4.1454    magn:    0.0780    constr:    0.0000
     atom:   25    charge:    4.1454    magn:    0.0780    constr:    0.0000
     atom:   26    charge:    4.1454    magn:    0.0780    constr:    0.0000
     atom:   27    charge:    4.1454    magn:    0.0780    constr:    0.0000
     atom:   28    charge:    4.1454    magn:    0.0780    constr:    0.0000

     total cpu time spent up to now is     7244.4 secs

     End of self-consistent calculation

 ------ SPIN UP ------------


          k = 0.0000 0.0000 0.0000 ( 34083 PWs)   bands (ev):

   -79.8397 -79.8396 -79.8393 -79.8393 -46.8190 -46.8189 -46.8178 -46.8178
   -45.5273 -45.5272 -45.5267 -45.5265 -45.3654 -45.3653 -45.3648 -45.3647
   -42.1648 -42.1647 -42.1513 -42.1512 -14.6052 -14.5650 -14.3230 -14.2676
   -14.2576 -14.1920 -14.1911 -14.1865 -14.1860 -14.1161 -14.1156 -14.1124
   -14.0761 -14.0759 -13.6980 -13.5991 -11.4390 -11.4244 -11.3581 -11.3508
   -11.3480 -11.3389 -11.2399 -11.1756 -11.0672 -11.0179 -10.9877 -10.9687
    -1.3876  -0.9370  -0.7148  -0.7075   0.0593   0.4932   0.6308   0.7709
     0.8223   1.0481   1.3188   1.3916   1.4146   1.4484   1.4842   1.8164
     2.5410   2.7262   3.0552   3.1459   3.2323   3.4706   3.4982   3.5643
     3.5913   3.6586   3.7403   3.9529   3.9793   4.0540   4.2408   4.2525
     4.2545   4.2814   4.4124   4.4523   4.6170   4.6817   4.8763   4.9516
     5.1004   5.1925   5.3998   5.5669   5.6848   5.8785   5.9749   6.1797
     6.6151   6.6438   6.7272   6.9080   6.9178   7.0585   7.0878   7.1332
     7.2604   7.4370   7.7144   7.7591   7.7713   7.7887   7.9251   8.2198
     8.2555   8.4374   8.5865   8.6272  11.6874  13.7692  13.7830  14.5600
    14.8397  15.1366  15.3177  15.9932  16.1756  16.4845  16.5621  16.6728
    16.7297  16.8320

     occupation numbers 
     1.0000   1.0000   1.0000   1.0000   1.0000   1.0000   1.0000   1.0000
     1.0000   1.0000   1.0000   1.0000   1.0000   1.0000   1.0000   1.0000
     1.0000   1.0000   1.0000   1.0000   1.0000   1.0000   1.0000   1.0000
     1.0000   1.0000   1.0000   1.0000   1.0000   1.0000   1.0000   1.0000
     1.0000   1.0000   1.0000   1.0000   1.0000   1.0000   1.0000   1.0000
     1.0000   1.0000   1.0000   1.0000   1.0000   1.0000   1.0000   1.0000
     1.0000   1.0000   1.0000   1.0000   1.0000   1.0000   1.0000   1.0000
     1.0000   1.0000   1.0000   1.0000   1.0000   1.0000   1.0000   1.0000
     1.0000   1.0000   1.0000   1.0000   1.0000   1.0000   1.0000   1.0000
     1.0000   1.0000   1.0000   1.0000   1.0000   1.0000   1.0000   1.0000
     1.0000   1.0000   1.0000   1.0000   1.0000   1.0000   1.0000   1.0000
     1.0000   1.0000   1.0000   1.0000   1.0000   1.0000   1.0000   1.0000
     1.0000   1.0000   1.0000   1.0000   1.0000   1.0000   1.0000   1.0000
     1.0000   1.0000   1.0000   1.0000   1.0000   1.0000   1.0000   1.0000
     1.0000   1.0000   1.0000   1.0000   0.0000   0.0000   0.0000   0.0000
     0.0000   0.0000   0.0000   0.0000   0.0000   0.0000   0.0000   0.0000
     0.0000   0.0000

          k = 0.0000 0.0000 0.2196 ( 34033 PWs)   bands (ev):

   -79.8397 -79.8396 -79.8393 -79.8393 -46.8189 -46.8189 -46.8179 -46.8178
   -45.5273 -45.5272 -45.5267 -45.5265 -45.3654 -45.3653 -45.3648 -45.3647
   -42.1648 -42.1647 -42.1513 -42.1512 -14.6035 -14.5628 -14.3678 -14.2953
   -14.2532 -14.2111 -14.1911 -14.1868 -14.1330 -14.1162 -14.1157 -14.0762
   -14.0761 -14.0361 -13.7088 -13.6162 -11.4467 -11.4167 -11.3741 -11.3472
   -11.3421 -11.3350 -11.2430 -11.1828 -11.0677 -11.0249 -11.0079 -10.9670
    -1.3637  -0.9365  -0.7359  -0.6925   0.1287   0.5181   0.6793   0.7782
     0.8697   1.0643   1.3226   1.4029   1.4129   1.4243   1.4666   1.7999
     2.5479   2.7211   3.0617   3.1099   3.2473   3.3859   3.4934   3.4980
     3.5710   3.5727   3.7973   3.9226   3.9745   3.9977   4.1467   4.2035
     4.2490   4.3118   4.5109   4.5458   4.6351   4.7491   4.8333   4.9462
     5.0711   5.2321   5.4084   5.5578   5.7114   5.9016   5.9633   6.1578
     6.6096   6.6418   6.7058   6.8847   6.9276   7.0065   7.0725   7.0969
     7.2972   7.4593   7.7277   7.7827   7.7995   7.8348   7.9203   8.1934
     8.2339   8.4031   8.6008   8.6238  11.8390  13.8064  13.8843  14.5432
    14.7973  15.1370  15.4706  15.7343  16.1681  16.3160  16.3286  16.6268
    16.7976  16.8501

     occupation numbers 
     1.0000   1.0000   1.0000   1.0000   1.0000   1.0000   1.0000   1.0000
     1.0000   1.0000   1.0000   1.0000   1.0000   1.0000   1.0000   1.0000
     1.0000   1.0000   1.0000   1.0000   1.0000   1.0000   1.0000   1.0000
     1.0000   1.0000   1.0000   1.0000   1.0000   1.0000   1.0000   1.0000
     1.0000   1.0000   1.0000   1.0000   1.0000   1.0000   1.0000   1.0000
     1.0000   1.0000   1.0000   1.0000   1.0000   1.0000   1.0000   1.0000
     1.0000   1.0000   1.0000   1.0000   1.0000   1.0000   1.0000   1.0000
     1.0000   1.0000   1.0000   1.0000   1.0000   1.0000   1.0000   1.0000
     1.0000   1.0000   1.0000   1.0000   1.0000   1.0000   1.0000   1.0000
     1.0000   1.0000   1.0000   1.0000   1.0000   1.0000   1.0000   1.0000
     1.0000   1.0000   1.0000   1.0000   1.0000   1.0000   1.0000   1.0000
     1.0000   1.0000   1.0000   1.0000   1.0000   1.0000   1.0000   1.0000
     1.0000   1.0000   1.0000   1.0000   1.0000   1.0000   1.0000   1.0000
     1.0000   1.0000   1.0000   1.0000   1.0000   1.0000   1.0000   1.0000
     1.0000   1.0000   1.0000   1.0000   0.0000   0.0000   0.0000   0.0000
     0.0000   0.0000   0.0000   0.0000   0.0000   0.0000   0.0000   0.0000
     0.0000   0.0000

          k = 0.0000 0.0000 0.4393 ( 34070 PWs)   bands (ev):

   -79.8397 -79.8396 -79.8393 -79.8393 -46.8189 -46.8188 -46.8179 -46.8179
   -45.5272 -45.5271 -45.5267 -45.5266 -45.3654 -45.3653 -45.3648 -45.3648
   -42.1648 -42.1647 -42.1513 -42.1512 -14.6103 -14.5688 -14.3906 -14.3444
   -14.2448 -14.2129 -14.1910 -14.1874 -14.1164 -14.1160 -14.0766 -14.0765
   -14.0343 -13.9469 -13.7323 -13.6552 -11.4625 -11.4036 -11.3947 -11.3368
   -11.3367 -11.3279 -11.2519 -11.2038 -11.0914 -11.0669 -11.0194 -10.9590
    -1.2955  -0.9295  -0.7736  -0.6987   0.3345   0.6001   0.7960   0.8037
     0.9914   1.1040   1.3177   1.3392   1.3926   1.4494   1.4891   1.7466
     2.5602   2.7111   3.0193   3.0813   3.2121   3.2780   3.3249   3.4317
     3.4950   3.5076   3.7421   3.9029   3.9258   3.9344   3.9995   4.1124
     4.2251   4.2988   4.6481   4.6595   4.7659   4.8174   4.8928   4.9578
     5.0420   5.2886   5.4037   5.5330   5.7712   5.8934   5.9975   6.1199
     6.6055   6.6375   6.6555   6.8292   6.8911   6.9450   6.9542   7.1057
     7.3966   7.5296   7.7661   7.8079   7.8651   7.8977   7.9495   8.1176
     8.1694   8.3362   8.6172   8.6195  12.2432  13.9004  14.1561  14.4691
    14.8180  15.1536  15.3356  15.7350  16.0479  16.0944  16.1402  16.1449
    16.6748  16.7943

     occupation numbers 
     1.0000   1.0000   1.0000   1.0000   1.0000   1.0000   1.0000   1.0000
     1.0000   1.0000   1.0000   1.0000   1.0000   1.0000   1.0000   1.0000
     1.0000   1.0000   1.0000   1.0000   1.0000   1.0000   1.0000   1.0000
     1.0000   1.0000   1.0000   1.0000   1.0000   1.0000   1.0000   1.0000
     1.0000   1.0000   1.0000   1.0000   1.0000   1.0000   1.0000   1.0000
     1.0000   1.0000   1.0000   1.0000   1.0000   1.0000   1.0000   1.0000
     1.0000   1.0000   1.0000   1.0000   1.0000   1.0000   1.0000   1.0000
     1.0000   1.0000   1.0000   1.0000   1.0000   1.0000   1.0000   1.0000
     1.0000   1.0000   1.0000   1.0000   1.0000   1.0000   1.0000   1.0000
     1.0000   1.0000   1.0000   1.0000   1.0000   1.0000   1.0000   1.0000
     1.0000   1.0000   1.0000   1.0000   1.0000   1.0000   1.0000   1.0000
     1.0000   1.0000   1.0000   1.0000   1.0000   1.0000   1.0000   1.0000
     1.0000   1.0000   1.0000   1.0000   1.0000   1.0000   1.0000   1.0000
     1.0000   1.0000   1.0000   1.0000   1.0000   1.0000   1.0000   1.0000
     1.0000   1.0000   1.0000   1.0000   0.0000   0.0000   0.0000   0.0000
     0.0000   0.0000   0.0000   0.0000   0.0000   0.0000   0.0000   0.0000
     0.0000   0.0000

          k = 0.0000 0.0000 0.6589 ( 34080 PWs)   bands (ev):

   -79.8397 -79.8396 -79.8393 -79.8393 -46.8187 -46.8187 -46.8181 -46.8180
   -45.5272 -45.5271 -45.5267 -45.5266 -45.3653 -45.3652 -45.3649 -45.3648
   -42.1648 -42.1647 -42.1513 -42.1512 -14.6294 -14.5971 -14.3643 -14.3468
   -14.2321 -14.2051 -14.1907 -14.1884 -14.1166 -14.1163 -14.0770 -14.0769
   -13.9731 -13.9188 -13.7370 -13.6801 -11.4743 -11.4346 -11.3613 -11.3408
   -11.3207 -11.3138 -11.2663 -11.2358 -11.1380 -11.1338 -10.9969 -10.9540
    -1.1922  -0.9069  -0.8401  -0.7436   0.6367   0.7386   0.8557   0.9068
     1.1183   1.1491   1.1889   1.3107   1.3796   1.5534   1.5948   1.6569
     2.5544   2.7209   2.8830   3.0140   3.1172   3.1329   3.2921   3.3470
     3.3481   3.4156   3.5337   3.8302   3.9012   3.9056   4.0065   4.0238
     4.2546   4.3044   4.5509   4.6232   4.9485   4.9752   5.0066   5.0580
     5.1137   5.3287   5.4052   5.4916   5.7459   5.8004   6.1044   6.1556
     6.5982   6.6225   6.6390   6.7420   6.7778   6.8398   6.9751   7.0939
     7.5359   7.6446   7.8211   7.8317   7.8710   7.9210   8.0006   8.0528
     8.0662   8.2711   8.6150   8.6279  12.7898  14.0462  14.2224  14.5815
    14.9171  14.9416  15.3201  15.7610  15.7688  15.9046  15.9645  16.0840
    16.3266  16.6369

     occupation numbers 
     1.0000   1.0000   1.0000   1.0000   1.0000   1.0000   1.0000   1.0000
     1.0000   1.0000   1.0000   1.0000   1.0000   1.0000   1.0000   1.0000
     1.0000   1.0000   1.0000   1.0000   1.0000   1.0000   1.0000   1.0000
     1.0000   1.0000   1.0000   1.0000   1.0000   1.0000   1.0000   1.0000
     1.0000   1.0000   1.0000   1.0000   1.0000   1.0000   1.0000   1.0000
     1.0000   1.0000   1.0000   1.0000   1.0000   1.0000   1.0000   1.0000
     1.0000   1.0000   1.0000   1.0000   1.0000   1.0000   1.0000   1.0000
     1.0000   1.0000   1.0000   1.0000   1.0000   1.0000   1.0000   1.0000
     1.0000   1.0000   1.0000   1.0000   1.0000   1.0000   1.0000   1.0000
     1.0000   1.0000   1.0000   1.0000   1.0000   1.0000   1.0000   1.0000
     1.0000   1.0000   1.0000   1.0000   1.0000   1.0000   1.0000   1.0000
     1.0000   1.0000   1.0000   1.0000   1.0000   1.0000   1.0000   1.0000
     1.0000   1.0000   1.0000   1.0000   1.0000   1.0000   1.0000   1.0000
     1.0000   1.0000   1.0000   1.0000   1.0000   1.0000   1.0000   1.0000
     1.0000   1.0000   1.0000   1.0000   0.0000   0.0000   0.0000   0.0000
     0.0000   0.0000   0.0000   0.0000   0.0000   0.0000   0.0000   0.0000
     0.0000   0.0000

          k = 0.0000 0.0000 0.8785 ( 34078 PWs)   bands (ev):

   -79.8397 -79.8396 -79.8393 -79.8393 -46.8186 -46.8185 -46.8182 -46.8182
   -45.5272 -45.5271 -45.5267 -45.5266 -45.3653 -45.3652 -45.3649 -45.3649
   -42.1648 -42.1647 -42.1513 -42.1512 -14.6391 -14.6272 -14.3338 -14.3312
   -14.2094 -14.1971 -14.1901 -14.1893 -14.1167 -14.1166 -14.0772 -14.0771
   -13.9664 -13.9496 -13.7068 -13.6844 -11.4742 -11.4601 -11.3335 -11.3214
   -11.3155 -11.3010 -11.2862 -11.2736 -11.1794 -11.1700 -10.9739 -10.9585
    -1.0679  -0.9424  -0.8649  -0.8071   0.8698   0.9399   0.9402   0.9435
     1.0555   1.1014   1.2079   1.2705   1.4509   1.5495   1.6805   1.7025
     2.5567   2.6780   2.7741   2.8778   2.9996   3.0462   3.1765   3.2524
     3.3287   3.3484   3.5855   3.6943   3.9074   3.9125   3.9757   3.9761
     4.3483   4.3767   4.4354   4.5149   5.0342   5.0576   5.0625   5.0842
     5.3621   5.3703   5.4321   5.4779   5.6110   5.6647   6.2055   6.2300
     6.5733   6.6376   6.6559   6.6691   6.6989   6.7431   7.0170   7.0610
     7.6944   7.7865   7.8451   7.8546   7.8569   7.8797   7.9187   7.9335
     8.1417   8.2109   8.6201   8.6269  13.3677  13.8772  14.2591  14.5151
    15.0844  15.0881  15.2858  15.4829  15.7231  15.8701  15.9474  16.0068
    16.1581  16.3134

     occupation numbers 
     1.0000   1.0000   1.0000   1.0000   1.0000   1.0000   1.0000   1.0000
     1.0000   1.0000   1.0000   1.0000   1.0000   1.0000   1.0000   1.0000
     1.0000   1.0000   1.0000   1.0000   1.0000   1.0000   1.0000   1.0000
     1.0000   1.0000   1.0000   1.0000   1.0000   1.0000   1.0000   1.0000
     1.0000   1.0000   1.0000   1.0000   1.0000   1.0000   1.0000   1.0000
     1.0000   1.0000   1.0000   1.0000   1.0000   1.0000   1.0000   1.0000
     1.0000   1.0000   1.0000   1.0000   1.0000   1.0000   1.0000   1.0000
     1.0000   1.0000   1.0000   1.0000   1.0000   1.0000   1.0000   1.0000
     1.0000   1.0000   1.0000   1.0000   1.0000   1.0000   1.0000   1.0000
     1.0000   1.0000   1.0000   1.0000   1.0000   1.0000   1.0000   1.0000
     1.0000   1.0000   1.0000   1.0000   1.0000   1.0000   1.0000   1.0000
     1.0000   1.0000   1.0000   1.0000   1.0000   1.0000   1.0000   1.0000
     1.0000   1.0000   1.0000   1.0000   1.0000   1.0000   1.0000   1.0000
     1.0000   1.0000   1.0000   1.0000   1.0000   1.0000   1.0000   1.0000
     1.0000   1.0000   1.0000   1.0000   0.0000   0.0000   0.0000   0.0000
     0.0000   0.0000   0.0000   0.0000   0.0000   0.0000   0.0000   0.0000
     0.0000   0.0000

          k = 0.0000 0.2390 0.0000 ( 34088 PWs)   bands (ev):

   -79.8397 -79.8396 -79.8393 -79.8393 -46.8189 -46.8189 -46.8179 -46.8178
   -45.5273 -45.5272 -45.5267 -45.5265 -45.3654 -45.3653 -45.3648 -45.3647
   -42.1641 -42.1640 -42.1520 -42.1519 -14.5915 -14.5555 -14.3463 -14.2620
   -14.2526 -14.2396 -14.1867 -14.1815 -14.1768 -14.1610 -14.0958 -14.0842
   -14.0789 -14.0198 -13.7047 -13.6230 -11.4667 -11.4340 -11.4071 -11.3444
   -11.3206 -11.3181 -11.2241 -11.1957 -11.0522 -11.0160 -10.9870 -10.9713
    -1.3508  -0.9058  -0.7442  -0.6910   0.1087   0.5127   0.6481   0.7786
     0.8537   1.0556   1.2740   1.3747   1.4614   1.4870   1.4895   1.7896
     2.5601   2.7268   3.0363   3.1027   3.1399   3.3568   3.4511   3.6227
     3.6363   3.6514   3.7414   3.9184   3.9424   3.9522   4.2595   4.2888
     4.2922   4.3211   4.3289   4.5376   4.7250   4.7589   4.7750   5.0006
     5.0888   5.2048   5.3652   5.5840   5.6361   5.8248   5.9149   6.1974
     6.5948   6.6168   6.6775   6.8465   6.8999   6.9824   7.1208   7.2592
     7.2732   7.3885   7.7180   7.7762   7.7766   7.8254   8.0058   8.0629
     8.0728   8.5644   8.6628   8.6672  11.8529  13.8548  13.8705  14.4985
    14.9377  15.2118  15.2920  15.9388  16.1669  16.4568  16.4975  16.6316
    16.6616  17.0221

     occupation numbers 
     1.0000   1.0000   1.0000   1.0000   1.0000   1.0000   1.0000   1.0000
     1.0000   1.0000   1.0000   1.0000   1.0000   1.0000   1.0000   1.0000
     1.0000   1.0000   1.0000   1.0000   1.0000   1.0000   1.0000   1.0000
     1.0000   1.0000   1.0000   1.0000   1.0000   1.0000   1.0000   1.0000
     1.0000   1.0000   1.0000   1.0000   1.0000   1.0000   1.0000   1.0000
     1.0000   1.0000   1.0000   1.0000   1.0000   1.0000   1.0000   1.0000
     1.0000   1.0000   1.0000   1.0000   1.0000   1.0000   1.0000   1.0000
     1.0000   1.0000   1.0000   1.0000   1.0000   1.0000   1.0000   1.0000
     1.0000   1.0000   1.0000   1.0000   1.0000   1.0000   1.0000   1.0000
     1.0000   1.0000   1.0000   1.0000   1.0000   1.0000   1.0000   1.0000
     1.0000   1.0000   1.0000   1.0000   1.0000   1.0000   1.0000   1.0000
     1.0000   1.0000   1.0000   1.0000   1.0000   1.0000   1.0000   1.0000
     1.0000   1.0000   1.0000   1.0000   1.0000   1.0000   1.0000   1.0000
     1.0000   1.0000   1.0000   1.0000   1.0000   1.0000   1.0000   1.0000
     1.0000   1.0000   1.0000   1.0000   0.0000   0.0000   0.0000   0.0000
     0.0000   0.0000   0.0000   0.0000   0.0000   0.0000   0.0000   0.0000
     0.0000   0.0000

          k = 0.0000 0.2390 0.2196 ( 34070 PWs)   bands (ev):

   -79.8397 -79.8396 -79.8393 -79.8393 -46.8189 -46.8188 -46.8179 -46.8178
   -45.5272 -45.5271 -45.5267 -45.5266 -45.3654 -45.3653 -45.3648 -45.3648
   -42.1641 -42.1640 -42.1520 -42.1519 -14.5896 -14.5530 -14.3745 -14.3006
   -14.2532 -14.2272 -14.1883 -14.1881 -14.1533 -14.1445 -14.0854 -14.0839
   -14.0663 -13.9831 -13.7141 -13.6371 -11.4710 -11.4392 -11.3960 -11.3397
   -11.3300 -11.3160 -11.2333 -11.1993 -11.0552 -11.0212 -11.0036 -10.9718
    -1.3272  -0.9051  -0.7474  -0.6897   0.1749   0.5365   0.6952   0.8036
     0.8823   1.0700   1.2890   1.3841   1.4418   1.4615   1.4869   1.7709
     2.5672   2.7144   3.0301   3.1052   3.1149   3.3204   3.3898   3.5611
     3.5651   3.6820   3.7929   3.8548   3.9235   3.9591   4.1848   4.2248
     4.2473   4.3700   4.4245   4.5938   4.7414   4.7475   4.8211   4.9871
     5.0678   5.2371   5.3726   5.5756   5.6615   5.8436   5.9049   6.1731
     6.5872   6.6054   6.6785   6.8502   6.9043   6.9704   7.0961   7.2263
     7.2649   7.4035   7.7312   7.7890   7.8158   7.8581   8.0135   8.0325
     8.0557   8.5332   8.6651   8.6744  11.9989  13.8937  13.9730  14.5121
    14.8779  15.2004  15.4618  15.6635  16.1515  16.2658  16.4015  16.6374
    16.8286  16.8425

     occupation numbers 
     1.0000   1.0000   1.0000   1.0000   1.0000   1.0000   1.0000   1.0000
     1.0000   1.0000   1.0000   1.0000   1.0000   1.0000   1.0000   1.0000
     1.0000   1.0000   1.0000   1.0000   1.0000   1.0000   1.0000   1.0000
     1.0000   1.0000   1.0000   1.0000   1.0000   1.0000   1.0000   1.0000
     1.0000   1.0000   1.0000   1.0000   1.0000   1.0000   1.0000   1.0000
     1.0000   1.0000   1.0000   1.0000   1.0000   1.0000   1.0000   1.0000
     1.0000   1.0000   1.0000   1.0000   1.0000   1.0000   1.0000   1.0000
     1.0000   1.0000   1.0000   1.0000   1.0000   1.0000   1.0000   1.0000
     1.0000   1.0000   1.0000   1.0000   1.0000   1.0000   1.0000   1.0000
     1.0000   1.0000   1.0000   1.0000   1.0000   1.0000   1.0000   1.0000
     1.0000   1.0000   1.0000   1.0000   1.0000   1.0000   1.0000   1.0000
     1.0000   1.0000   1.0000   1.0000   1.0000   1.0000   1.0000   1.0000
     1.0000   1.0000   1.0000   1.0000   1.0000   1.0000   1.0000   1.0000
     1.0000   1.0000   1.0000   1.0000   1.0000   1.0000   1.0000   1.0000
     1.0000   1.0000   1.0000   1.0000   0.0000   0.0000   0.0000   0.0000
     0.0000   0.0000   0.0000   0.0000   0.0000   0.0000   0.0000   0.0000
     0.0000   0.0000

          k = 0.0000 0.2390 0.4393 ( 34043 PWs)   bands (ev):

   -79.8397 -79.8396 -79.8393 -79.8393 -46.8188 -46.8188 -46.8180 -46.8179
   -45.5272 -45.5271 -45.5267 -45.5266 -45.3654 -45.3653 -45.3648 -45.3648
   -42.1641 -42.1640 -42.1520 -42.1519 -14.5951 -14.5573 -14.3891 -14.3438
   -14.2461 -14.2219 -14.1904 -14.1897 -14.1384 -14.1368 -14.0856 -14.0854
   -13.9967 -13.9165 -13.7343 -13.6690 -11.4803 -11.4485 -11.3721 -11.3402
   -11.3282 -11.3212 -11.2561 -11.2124 -11.0817 -11.0545 -11.0146 -10.9668
    -1.2597  -0.8987  -0.7641  -0.7049   0.3728   0.6134   0.8098   0.8386
     0.9925   1.1040   1.3214   1.3587   1.3941   1.4518   1.5064   1.7170
     2.5707   2.6957   2.9902   3.0155   3.1413   3.2313   3.2490   3.4453
     3.5386   3.6302   3.7515   3.7890   3.8781   3.9497   4.0448   4.1246
     4.2042   4.3586   4.5880   4.6028   4.8182   4.8303   4.9384   4.9825
     5.0540   5.2926   5.3626   5.5515   5.7306   5.8312   5.9363   6.1169
     6.5738   6.5808   6.6834   6.8469   6.9109   6.9432   7.0018   7.1579
     7.3220   7.4498   7.7690   7.8169   7.8846   7.8964   7.9576   7.9963
     8.0616   8.4687   8.6622   8.6878  12.3904  13.9889  14.2491  14.5112
    14.8903  15.1993  15.2641  15.7406  16.0463  16.0507  16.2046  16.2381
    16.6424  16.8038

     occupation numbers 
     1.0000   1.0000   1.0000   1.0000   1.0000   1.0000   1.0000   1.0000
     1.0000   1.0000   1.0000   1.0000   1.0000   1.0000   1.0000   1.0000
     1.0000   1.0000   1.0000   1.0000   1.0000   1.0000   1.0000   1.0000
     1.0000   1.0000   1.0000   1.0000   1.0000   1.0000   1.0000   1.0000
     1.0000   1.0000   1.0000   1.0000   1.0000   1.0000   1.0000   1.0000
     1.0000   1.0000   1.0000   1.0000   1.0000   1.0000   1.0000   1.0000
     1.0000   1.0000   1.0000   1.0000   1.0000   1.0000   1.0000   1.0000
     1.0000   1.0000   1.0000   1.0000   1.0000   1.0000   1.0000   1.0000
     1.0000   1.0000   1.0000   1.0000   1.0000   1.0000   1.0000   1.0000
     1.0000   1.0000   1.0000   1.0000   1.0000   1.0000   1.0000   1.0000
     1.0000   1.0000   1.0000   1.0000   1.0000   1.0000   1.0000   1.0000
     1.0000   1.0000   1.0000   1.0000   1.0000   1.0000   1.0000   1.0000
     1.0000   1.0000   1.0000   1.0000   1.0000   1.0000   1.0000   1.0000
     1.0000   1.0000   1.0000   1.0000   1.0000   1.0000   1.0000   1.0000
     1.0000   1.0000   1.0000   1.0000   0.0000   0.0000   0.0000   0.0000
     0.0000   0.0000   0.0000   0.0000   0.0000   0.0000   0.0000   0.0000
     0.0000   0.0000

          k = 0.0000 0.2390 0.6589 ( 34068 PWs)   bands (ev):

   -79.8397 -79.8396 -79.8393 -79.8393 -46.8187 -46.8186 -46.8181 -46.8180
   -45.5272 -45.5271 -45.5267 -45.5266 -45.3653 -45.3652 -45.3649 -45.3648
   -42.1641 -42.1640 -42.1520 -42.1519 -14.6122 -14.5824 -14.3595 -14.3416
   -14.2388 -14.2169 -14.1916 -14.1914 -14.1377 -14.1374 -14.0894 -14.0890
   -13.9384 -13.8897 -13.7375 -13.6875 -11.4870 -11.4616 -11.3463 -11.3412
   -11.3230 -11.3164 -11.2861 -11.2360 -11.1205 -11.1141 -10.9966 -10.9636
    -1.1579  -0.8793  -0.8137  -0.7496   0.6663   0.7394   0.8775   0.9298
     1.1279   1.1362   1.2534   1.2839   1.3982   1.5440   1.5922   1.6433
     2.5391   2.7074   2.8470   2.9100   3.0817   3.1744   3.1831   3.3768
     3.3819   3.5255   3.5769   3.7188   3.8689   3.8899   4.0373   4.0595
     4.2234   4.3493   4.5205   4.5933   4.9494   4.9797   5.0182   5.0456
     5.1414   5.3430   5.3596   5.5113   5.7469   5.7578   6.0240   6.0878
     6.5624   6.5682   6.6977   6.8181   6.8714   6.8970   6.9581   7.0983
     7.4343   7.5322   7.8170   7.8357   7.8554   7.8964   7.9110   7.9279
     8.1513   8.3961   8.6654   8.6920  12.9235  14.1300  14.3218  14.6646
    14.9463  15.0136  15.3139  15.7776  15.8183  15.9268  15.9536  16.1007
    16.3504  16.6149

     occupation numbers 
     1.0000   1.0000   1.0000   1.0000   1.0000   1.0000   1.0000   1.0000
     1.0000   1.0000   1.0000   1.0000   1.0000   1.0000   1.0000   1.0000
     1.0000   1.0000   1.0000   1.0000   1.0000   1.0000   1.0000   1.0000
     1.0000   1.0000   1.0000   1.0000   1.0000   1.0000   1.0000   1.0000
     1.0000   1.0000   1.0000   1.0000   1.0000   1.0000   1.0000   1.0000
     1.0000   1.0000   1.0000   1.0000   1.0000   1.0000   1.0000   1.0000
     1.0000   1.0000   1.0000   1.0000   1.0000   1.0000   1.0000   1.0000
     1.0000   1.0000   1.0000   1.0000   1.0000   1.0000   1.0000   1.0000
     1.0000   1.0000   1.0000   1.0000   1.0000   1.0000   1.0000   1.0000
     1.0000   1.0000   1.0000   1.0000   1.0000   1.0000   1.0000   1.0000
     1.0000   1.0000   1.0000   1.0000   1.0000   1.0000   1.0000   1.0000
     1.0000   1.0000   1.0000   1.0000   1.0000   1.0000   1.0000   1.0000
     1.0000   1.0000   1.0000   1.0000   1.0000   1.0000   1.0000   1.0000
     1.0000   1.0000   1.0000   1.0000   1.0000   1.0000   1.0000   1.0000
     1.0000   1.0000   1.0000   1.0000   0.0000   0.0000   0.0000   0.0000
     0.0000   0.0000   0.0000   0.0000   0.0000   0.0000   0.0000   0.0000
     0.0000   0.0000

          k = 0.0000 0.2390 0.8785 ( 34066 PWs)   bands (ev):

   -79.8397 -79.8396 -79.8393 -79.8393 -46.8186 -46.8185 -46.8182 -46.8182
[...]
     atom    7 type  1   force =     0.09446449   -0.00000316   -0.10257889
     atom    8 type  1   force =    -0.09444123    0.00000628   -0.10262979
     atom    9 type  4   force =     0.03827141   -0.00001285    0.07890135
     atom   10 type  4   force =    -0.03824709    0.00000958    0.07897592
     atom   11 type  4   force =    -0.03827141    0.00001285   -0.07890135
     atom   12 type  4   force =     0.03824709   -0.00000958   -0.07897592
     atom   13 type  3   force =     0.15817929    0.00001376   -1.44784481
     atom   14 type  3   force =    -0.15820705   -0.00001431   -1.44780084
     atom   15 type  3   force =    -0.15817929   -0.00001376    1.44784481
     atom   16 type  3   force =     0.15820705    0.00001431    1.44780084
     atom   17 type  3   force =     1.20156216    0.00001500   -0.70781644
     atom   18 type  3   force =    -1.20154458   -0.00005950   -0.70785967
     atom   19 type  3   force =    -1.20156216   -0.00001500    0.70781644
     atom   20 type  3   force =     1.20154458    0.00005950    0.70785967
     atom   21 type  3   force =    -0.67882647   -0.92016321    0.76098570
     atom   22 type  3   force =     0.67879841    0.92019877    0.76095708
     atom   23 type  3   force =     0.67878383   -0.92012600   -0.76094725
     atom   24 type  3   force =    -0.67877332    0.92017606   -0.76092576
     atom   25 type  3   force =     0.67882647    0.92016321   -0.76098570
     atom   26 type  3   force =    -0.67879841   -0.92019877   -0.76095708
     atom   27 type  3   force =    -0.67878383    0.92012600    0.76094725
     atom   28 type  3   force =     0.67877332   -0.92017606    0.76092576
     The ionic contribution  to forces
     atom    1 type  2   force =     0.00010666   -0.00005642   -0.00005805
     atom    2 type  2   force =     0.00004291   -0.00004712   -0.00005250
     atom    3 type  2   force =    -0.00014390   -0.00014602   -0.00015041
     atom    4 type  2   force =    -0.00004290   -0.00001282   -0.00000131
     atom    5 type  1   force =     1.89609216    0.00084280   -0.41892729
     atom    6 type  1   force =    -1.89689162   -0.00077683   -0.41898551
     atom    7 type  1   force =    -1.89607051   -0.00066356    0.41882013
     atom    8 type  1   force =     1.89684556    0.00082433    0.41906177
     atom    9 type  4   force =    -0.48775879    0.00025153    2.39003211
     atom   10 type  4   force =     0.48782204   -0.00014329    2.39044191
     atom   11 type  4   force =     0.48776500   -0.00021580   -2.38967544
     atom   12 type  4   force =    -0.48781305    0.00023713   -2.39040214
     atom   13 type  3   force =    -3.99070052    0.00033486    0.93344276
     atom   14 type  3   force =     3.99066657   -0.00028536    0.93299962
     atom   15 type  3   force =     3.99061869   -0.00020017   -0.93380460
     atom   16 type  3   force =    -3.99067035    0.00033273   -0.93300165
     atom   17 type  3   force =    -1.48593752    0.00020099    3.50392309
     atom   18 type  3   force =     1.48590123   -0.00010689    3.50405777
     atom   19 type  3   force =     1.48597623   -0.00018985   -3.50389926
     atom   20 type  3   force =    -1.48596848    0.00016692   -3.50394192
     atom   21 type  3   force =     0.89093464    1.34355396   -2.06853475
     atom   22 type  3   force =    -0.89118887   -1.34391158   -2.06842058
     atom   23 type  3   force =    -0.89056825    1.34320247    2.06818966
     atom   24 type  3   force =     0.89088076   -1.34377330    2.06794644
     atom   25 type  3   force =    -0.89086990   -1.34344180    2.06857345
     atom   26 type  3   force =     0.89109592    1.34375655    2.06843111
     atom   27 type  3   force =     0.89072379   -1.34341229   -2.06804516
     atom   28 type  3   force =    -0.89084751    1.34367883   -2.06801925
     The local contribution  to forces
     atom    1 type  2   force =    -0.00464575   -0.00206595   -0.00227851
     atom    2 type  2   force =    -0.00457121   -0.00018320   -0.00151590
     atom    3 type  2   force =    -0.00600090   -0.00149542   -0.00221153
     atom    4 type  2   force =    -0.00609370    0.00025322   -0.00151949
     atom    5 type  1   force =    -1.82876128   -0.00075016    0.31946716
     atom    6 type  1   force =     1.80476517    0.00080211    0.31929031
     atom    7 type  1   force =     1.80403268    0.00075016   -0.32652722
     atom    8 type  1   force =    -1.82964759   -0.00080209   -0.32688254
     atom    9 type  4   force =     0.46583623   -0.00023271   -2.36458995
     atom   10 type  4   force =    -0.46582295    0.00018388   -2.36504421
     atom   11 type  4   force =    -0.46579194    0.00023273    2.36454794
     atom   12 type  4   force =     0.46587941   -0.00018388    2.36514859
     atom   13 type  3   force =     3.81973950   -0.00052631    0.48823836
     atom   14 type  3   force =    -3.82500883    0.00007684    0.48878520
     atom   15 type  3   force =    -3.82490856    0.00003557   -0.49004461
     atom   16 type  3   force =     3.81960406   -0.00056757   -0.49053305
     atom   17 type  3   force =     0.17839228   -0.00021088   -2.76487308
     atom   18 type  3   force =    -0.18296262    0.00019392   -2.76566587
     atom   19 type  3   force =    -0.18287176    0.00021090    2.76397959
     atom   20 type  3   force =     0.17828936   -0.00019389    2.76328301
     atom   21 type  3   force =    -0.16718424   -0.34601259    1.27919897
     atom   22 type  3   force =     0.16124135    0.34645809    1.27926256
     atom   23 type  3   force =     0.16110897   -0.34655238   -1.28060826
     atom   24 type  3   force =    -0.16713473    0.34612932   -1.28025175
     atom   25 type  3   force =     0.16134185    0.34649386   -1.28098672
     atom   26 type  3   force =    -0.16777255   -0.34658719   -1.28068796
     atom   27 type  3   force =    -0.16698151    0.34566653    1.27878262
     atom   28 type  3   force =     0.16137017   -0.34675889    1.27887541
     The core correction contribution to forces
     atom    1 type  2   force =     0.00000000    0.00000000    0.00000000
     atom    2 type  2   force =     0.00000000    0.00000000    0.00000000
     atom    3 type  2   force =     0.00000000    0.00000000    0.00000000
     atom    4 type  2   force =     0.00000000    0.00000000    0.00000000
     atom    5 type  1   force =     0.00425194   -0.00000065   -0.00377919
     atom    6 type  1   force =    -0.00335722    0.00000048   -0.00379291
     atom    7 type  1   force =    -0.00335417    0.00000065    0.00405139
     atom    8 type  1   force =     0.00424754   -0.00000048    0.00403930
     atom    9 type  4   force =    -0.00313128    0.00000078   -0.01007667
     atom   10 type  4   force =     0.00314869   -0.00000070   -0.01008075
     atom   11 type  4   force =     0.00315078   -0.00000078    0.01007675
     atom   12 type  4   force =    -0.00312921    0.00000070    0.01008613
     atom   13 type  3   force =    -0.00192867   -0.00000024    0.01253721
     atom   14 type  3   force =     0.00192485    0.00000000    0.01253901
     atom   15 type  3   force =     0.00192434   -0.00000001   -0.01254159
     atom   16 type  3   force =    -0.00192873   -0.00000026   -0.01254089
     atom   17 type  3   force =    -0.00833686   -0.00000011    0.00615787
     atom   18 type  3   force =     0.00832982    0.00000054    0.00615705
     atom   19 type  3   force =     0.00833022    0.00000011   -0.00615801
     atom   20 type  3   force =    -0.00833698   -0.00000054   -0.00615962
     atom   21 type  3   force =     0.00517591    0.00660790   -0.00633538
     atom   22 type  3   force =    -0.00517943   -0.00660909   -0.00633616
     atom   23 type  3   force =    -0.00517887    0.00660831    0.00633456
     atom   24 type  3   force =     0.00517477   -0.00660783    0.00633297
     atom   25 type  3   force =    -0.00517935   -0.00660870    0.00633493
     atom   26 type  3   force =     0.00517468    0.00660731    0.00633316
     atom   27 type  3   force =     0.00517551   -0.00660803   -0.00633505
     atom   28 type  3   force =    -0.00517881    0.00660843   -0.00633571
     The Hubbard contrib.    to forces
     atom    1 type  2   force =     0.00000000    0.00000000    0.00000000
     atom    2 type  2   force =     0.00000000    0.00000000    0.00000000
     atom    3 type  2   force =     0.00000000    0.00000000    0.00000000
     atom    4 type  2   force =     0.00000000    0.00000000    0.00000000
     atom    5 type  1   force =     0.00000000    0.00000000    0.00000000
     atom    6 type  1   force =     0.00000000    0.00000000    0.00000000
     atom    7 type  1   force =     0.00000000    0.00000000    0.00000000
     atom    8 type  1   force =     0.00000000    0.00000000    0.00000000
     atom    9 type  4   force =     0.00000000    0.00000000    0.00000000
     atom   10 type  4   force =     0.00000000    0.00000000    0.00000000
     atom   11 type  4   force =     0.00000000    0.00000000    0.00000000
     atom   12 type  4   force =     0.00000000    0.00000000    0.00000000
     atom   13 type  3   force =     0.00000000    0.00000000    0.00000000
     atom   14 type  3   force =     0.00000000    0.00000000    0.00000000
     atom   15 type  3   force =     0.00000000    0.00000000    0.00000000
     atom   16 type  3   force =     0.00000000    0.00000000    0.00000000
     atom   17 type  3   force =     0.00000000    0.00000000    0.00000000
     atom   18 type  3   force =     0.00000000    0.00000000    0.00000000
     atom   19 type  3   force =     0.00000000    0.00000000    0.00000000
     atom   20 type  3   force =     0.00000000    0.00000000    0.00000000
     atom   21 type  3   force =     0.00000000    0.00000000    0.00000000
     atom   22 type  3   force =     0.00000000    0.00000000    0.00000000
     atom   23 type  3   force =     0.00000000    0.00000000    0.00000000
     atom   24 type  3   force =     0.00000000    0.00000000    0.00000000
     atom   25 type  3   force =     0.00000000    0.00000000    0.00000000
     atom   26 type  3   force =     0.00000000    0.00000000    0.00000000
     atom   27 type  3   force =     0.00000000    0.00000000    0.00000000
     atom   28 type  3   force =     0.00000000    0.00000000    0.00000000
     The SCF correction term to forces
     atom    1 type  2   force =    -0.00000000   -0.00000000   -0.00000000
     atom    2 type  2   force =    -0.00000000    0.00000000   -0.00000000
     atom    3 type  2   force =    -0.00000000   -0.00000000   -0.00000000
     atom    4 type  2   force =    -0.00000000    0.00000000   -0.00000000
     atom    5 type  1   force =     0.00000022   -0.00000024   -0.00000137
     atom    6 type  1   force =    -0.00000052   -0.00000008   -0.00000067
     atom    7 type  1   force =    -0.00000022    0.00000024    0.00000137
     atom    8 type  1   force =     0.00000052    0.00000008    0.00000067
     atom    9 type  4   force =     0.00000035    0.00000020    0.00000007
     atom   10 type  4   force =     0.00000020    0.00000023   -0.00000016
     atom   11 type  4   force =    -0.00000035   -0.00000020   -0.00000007
     atom   12 type  4   force =    -0.00000020   -0.00000023    0.00000016
     atom   13 type  3   force =    -0.00000006    0.00000013   -0.00000009
     atom   14 type  3   force =     0.00000109    0.00000008    0.00000024
     atom   15 type  3   force =     0.00000006   -0.00000013    0.00000009
     atom   16 type  3   force =    -0.00000109   -0.00000008   -0.00000024
     atom   17 type  3   force =     0.00000007   -0.00000011    0.00000022
     atom   18 type  3   force =    -0.00000029   -0.00000006    0.00000007
     atom   19 type  3   force =    -0.00000007    0.00000011   -0.00000022
     atom   20 type  3   force =     0.00000029    0.00000006   -0.00000007
     atom   21 type  3   force =    -0.00000012    0.00000055    0.00000007
     atom   22 type  3   force =     0.00000020   -0.00000056    0.00000007
     atom   23 type  3   force =     0.00000022    0.00000025   -0.00000047
     atom   24 type  3   force =    -0.00000025   -0.00000116    0.00000004
     atom   25 type  3   force =     0.00000012   -0.00000055   -0.00000007
     atom   26 type  3   force =    -0.00000020    0.00000056   -0.00000007
     atom   27 type  3   force =    -0.00000022   -0.00000025    0.00000047
     atom   28 type  3   force =     0.00000025    0.00000116   -0.00000004

     Total force =     0.426084     Total SCF correction =     0.000004


     Computing stress (Cartesian axis) and pressure


     negative rho (up, down):  0.000E+00 4.927E-04
          total   stress  (Ry/bohr**3)                   (kbar)     P=      190.57
   0.00161472   0.00000001   0.00000006          237.53        0.00        0.01
   0.00000001   0.00166199   0.00000002            0.00      244.49        0.00
   0.00000006   0.00000002   0.00060978            0.01        0.00       89.70

     kinetic stress (kbar)  34933.64     -0.01     -0.00
                               -0.01  34755.65      0.01
                               -0.00      0.01  34639.25

     local   stress (kbar)  -2762.46     -0.12     -0.21
                               -0.12  -5843.69     -0.04
                               -0.21     -0.04   -917.28

     nonloc. stress (kbar) -10411.99     -0.00      0.00
                               -0.00 -10567.68      0.00
                                0.00      0.00 -10384.36

     hartree stress (kbar)  15148.25      0.03      0.07
                                0.03  16370.04      0.02
                                0.07      0.02  14193.99

     exc-cor stress (kbar)  -3932.14      0.00      0.00
                                0.00  -3938.57      0.00
                                0.00      0.00  -3931.13

     corecor stress (kbar)  -3348.06      0.00     -0.00
                                0.00  -3325.29     -0.00
                               -0.00     -0.00  -3347.44

     ewald   stress (kbar) -29389.72      0.11      0.15
                                0.11 -27205.98      0.02
                                0.15      0.02 -30163.33

     hubbard stress (kbar)      0.00      0.00      0.00
                                0.00      0.00      0.00
                                0.00      0.00      0.00

     DFT-D   stress (kbar)      0.00      0.00      0.00
                                0.00      0.00      0.00
                                0.00      0.00      0.00

     XDM     stress (kbar)      0.00      0.00      0.00
                                0.00      0.00      0.00
                                0.00      0.00      0.00

     dft-nl  stress (kbar)      0.00      0.00      0.00
                                0.00      0.00      0.00
                                0.00      0.00      0.00

     TS-vdW  stress (kbar)      0.00      0.00      0.00
                                0.00      0.00      0.00
                                0.00      0.00      0.00



     init_run     :     88.18s CPU     90.15s WALL (       1 calls)
     electrons    :   7043.24s CPU   7153.91s WALL (       1 calls)
     forces       :     44.69s CPU     45.51s WALL (       1 calls)
     stress       :    546.70s CPU    549.11s WALL (       1 calls)

     Called by init_run:
     wfcinit      :     78.32s CPU     79.96s WALL (       1 calls)
     wfcinit:atom :      1.82s CPU      1.85s WALL (     316 calls)
     wfcinit:wfcr :     69.77s CPU     71.30s WALL (     316 calls)
     potinit      :      3.60s CPU      3.69s WALL (       1 calls)
     hinit0       :      4.47s CPU      4.57s WALL (       1 calls)

     Called by electrons:
     c_bands      :   6122.13s CPU   6206.31s WALL (      33 calls)
     sum_band     :    844.37s CPU    866.91s WALL (      33 calls)
     v_of_rho     :     15.74s CPU     16.32s WALL (      34 calls)
     v_h          :      0.69s CPU      0.74s WALL (      34 calls)
     v_xc         :     15.94s CPU     16.50s WALL (      36 calls)
     newd         :     41.57s CPU     44.80s WALL (      34 calls)
     PAW_pot      :     16.65s CPU     16.71s WALL (      34 calls)
     mix_rho      :      3.24s CPU      3.39s WALL (      33 calls)

     Called by c_bands:
     init_us_2    :    136.12s CPU    138.43s WALL (   21804 calls)
     cegterg      :   5850.83s CPU   5932.21s WALL (   10428 calls)

     Called by sum_band:
     sum_band:wei :      0.30s CPU      0.30s WALL (      33 calls)
     sum_band:loo :    764.96s CPU    778.92s WALL (      33 calls)
     sum_band:buf :     35.23s CPU     35.65s WALL (   10428 calls)
     sum_band:ini :     66.64s CPU     67.73s WALL (   10428 calls)
     sum_band:cal :    216.32s CPU    221.88s WALL (   10428 calls)
     sum_band:bec :      1.81s CPU      1.85s WALL (   10428 calls)
     addusdens    :     76.77s CPU     85.14s WALL (      33 calls)
     addusd:skk   :      0.58s CPU      0.60s WALL (      99 calls)
     addusd:dgemm :     19.40s CPU     27.17s WALL (     198 calls)
     addusd:qvan2 :     56.01s CPU     56.39s WALL (     198 calls)

     Called by *egterg:
     cdiaghg      :    408.83s CPU    416.22s WALL (   38901 calls)
     cegterg:over :    504.94s CPU    513.69s WALL (   28473 calls)
     cegterg:upda :    357.60s CPU    360.89s WALL (   28473 calls)
     cegterg:last :    630.61s CPU    636.08s WALL (   17311 calls)
     h_psi        :   3014.20s CPU   3061.80s WALL (   39217 calls)
     s_psi        :    601.85s CPU    606.72s WALL (   39217 calls)
     g_psi        :     30.93s CPU     31.38s WALL (   28473 calls)

     Called by h_psi:
     h_psi:calbec :    541.46s CPU    553.72s WALL (   39217 calls)
     vloc_psi     :   1788.55s CPU   1816.99s WALL (   39217 calls)
     add_vuspsi   :    607.76s CPU    613.65s WALL (   39217 calls)

     General routines
     calbec       :    788.95s CPU    807.58s WALL (   51225 calls)
     fft          :     11.35s CPU     12.22s WALL (     888 calls)
     ffts         :      0.13s CPU      0.17s WALL (     134 calls)
     fftw         :   1861.77s CPU   1891.05s WALL ( 7563134 calls)
     interpolate  :      1.15s CPU      1.24s WALL (      68 calls)

     Parallel routines
     fft_scatt_xy :    286.56s CPU    291.03s WALL ( 7564156 calls)
     fft_scatt_yz :    478.10s CPU    487.35s WALL ( 7564156 calls)

     PAW routines
     PAW_pot      :     16.65s CPU     16.71s WALL (      34 calls)
     PAW_symme    :      0.05s CPU      0.05s WALL (      67 calls)

     PWSCF        :      2h 8m CPU      2h10m WALL


   This run was terminated on:  18:20:20   5Mar2023            

=------------------------------------------------------------------------------=
   JOB DONE.
=------------------------------------------------------------------------------=
Note: The following floating-point exceptions are signalling: IEEE_UNDERFLOW_FLAG IEEE_DENORMAL
Note: The following floating-point exceptions are signalling: IEEE_DENORMAL
Note: The following floating-point exceptions are signalling: IEEE_DENORMAL
Note: The following floating-point exceptions are signalling: IEEE_DENORMAL
Note: The following floating-point exceptions are signalling: IEEE_DENORMAL
Note: The following floating-point exceptions are signalling: IEEE_DENORMAL
Note: The following floating-point exceptions are signalling: IEEE_DENORMAL
Note: The following floating-point exceptions are signalling: IEEE_DENORMAL
Note: The following floating-point exceptions are signalling: IEEE_DENORMAL
Note: The following floating-point exceptions are signalling: IEEE_DENORMAL
Note: The following floating-point exceptions are signalling: IEEE_DENORMAL
Note: The following floating-point exceptions are signalling: IEEE_DENORMAL
Note: The following floating-point exceptions are signalling: IEEE_DENORMAL
Note: The following floating-point exceptions are signalling: IEEE_DENORMAL
