
     Program PWSCF v.6.7MaX starts on  5Mar2023 at  7:25:45 

     This program is part of the open-source Quantum ESPRESSO suite
     for quantum simulation of materials; please cite
         "P. Giannozzi et al., J. Phys.:Condens. Matter 21 395502 (2009);
         "P. Giannozzi et al., J. Phys.:Condens. Matter 29 465901 (2017);
          URL http://www.quantum-espresso.org", 
     in publications or presentations arising from this work. More details at
     http://www.quantum-espresso.org/quote

     Parallel version (MPI), running on    16 processors

     MPI processes distributed on     1 nodes
     R & G space division:  proc/nbgrp/npool/nimage =      16
     Reading input from scale_1da-03.in

     Current dimensions of program PWSCF are:
     Max number of different atomic species (ntypx) = 10
     Max number of k-points (npk) =  40000
     Max angular momentum in pseudopotentials (lmaxx) =  3
     Message from routine read_pp_mesh:
     mesh size missing, using the one in header
     file Fe.pbe-spn-kjpaw_psl.0.2.1.UPF: wavefunction(s)  3D renormalized
     file O.pbe-n-kjpaw_psl.0.1.UPF: wavefunction(s)  2P renormalized

     Subspace diagonalization in iterative solution of the eigenvalue problem:
     a serial algorithm will be used

     Message from routine setup:
     using ibrav=0 with symmetry is DISCOURAGED, use correct ibrav instead

     Parallelization info
     --------------------
     sticks:   dense  smooth     PW     G-vecs:    dense   smooth      PW
     Min        1282     474    128                85182    19205    2693
     Max        1283     476    130                85184    19206    2695
     Sum       20517    7599   2057              1362919   307283   43103



     bravais-lattice index     =            0
     lattice parameter (alat)  =      20.1511  a.u.
     unit-cell volume          =    2273.9216 (a.u.)^3
     number of atoms/cell      =           28
     number of atomic types    =            4
     number of electrons       =       216.00
     number of Kohn-Sham states=          130
     kinetic-energy cutoff     =     100.0000  Ry
     charge density cutoff     =    1080.0000  Ry
     scf convergence threshold =      2.0E-10
     mixing beta               =       0.4000
     number of iterations used =            8  plain     mixing
     Exchange-correlation= PBE
                           (   1   4   3   4   0   0   0)

     celldm(1)=  20.151117  celldm(2)=   0.000000  celldm(3)=   0.000000
     celldm(4)=   0.000000  celldm(5)=   0.000000  celldm(6)=   0.000000

     crystal axes: (cart. coord. in units of alat)
               a(1) = (   1.000000   0.000000   0.000000 )  
               a(2) = (  -0.000003   0.587855   0.000000 )  
               a(3) = (  -0.000001  -0.000000   0.472724 )  

     reciprocal axes: (cart. coord. in units 2 pi/alat)
               b(1) = (  1.000000  0.000005  0.000002 )  
               b(2) = ( -0.000000  1.701099  0.000000 )  
               b(3) = (  0.000000 -0.000000  2.115398 )  


     PseudoPot. # 1 for Fe read from file:
     /opt/QEpot/SSSP_precision_pseudos/Fe.pbe-spn-kjpaw_psl.0.2.1.UPF
     MD5 check sum: e86618425769142926afa95317d90200
     Pseudo is Projector augmented-wave + core cor, Zval = 16.0
     Generated using "atomic" code by A. Dal Corso  v.5.0.99 svn rev. 10869
     Shape of augmentation charge: PSQ
     Using radial grid of 1191 points,  6 beta functions with: 
                l(1) =   0
                l(2) =   0
                l(3) =   1
                l(4) =   1
                l(5) =   2
                l(6) =   2
     Q(r) pseudized with 0 coefficients 


     PseudoPot. # 2 for Na read from file:
     /opt/QEpot/SSSP_precision_pseudos/Na_ONCV_PBE-1.0.oncvpsp.upf
     MD5 check sum: 24a298df0a6742ae313db96548fdb2a4
     Pseudo is Norm-conserving, Zval =  9.0
     Generated using ONCVPSP code by D. R. Hamann
     Using radial grid of 1992 points,  4 beta functions with: 
                l(1) =   0
                l(2) =   0
                l(3) =   1
                l(4) =   1

     PseudoPot. # 3 for O  read from file:
     /opt/QEpot/SSSP_precision_pseudos/O.pbe-n-kjpaw_psl.0.1.UPF
     MD5 check sum: 0234752ac141de4415c5fc33072bef88
     Pseudo is Projector augmented-wave + core cor, Zval =  6.0
     Generated using "atomic" code by A. Dal Corso  v.5.0.99 svn rev. 10869
     Shape of augmentation charge: BESSEL
     Using radial grid of 1095 points,  4 beta functions with: 
                l(1) =   0
                l(2) =   0
                l(3) =   1
                l(4) =   1
     Q(r) pseudized with 0 coefficients 


     PseudoPot. # 4 for P  read from file:
     /opt/QEpot/SSSP_precision_pseudos/P.pbe-n-rrkjus_psl.1.0.0.UPF
     MD5 check sum: 8b930f418f0a4573dca56cd030ffe088
     Pseudo is Ultrasoft + core correction, Zval =  5.0
     Generated using "atomic" code by A. Dal Corso  v.5.1
     Using radial grid of 1147 points,  6 beta functions with: 
                l(1) =   0
                l(2) =   0
                l(3) =   1
                l(4) =   1
                l(5) =   2
                l(6) =   2
     Q(r) pseudized with 0 coefficients 


     atomic species   valence    mass     pseudopotential
        Fe            16.00    55.84500     Fe( 1.00)
        Na             9.00    22.98977     Na( 1.00)
        O              6.00    15.99940     O ( 1.00)
        P              5.00    30.97376     P ( 1.00)

     Starting magnetic structure 
     atomic species   magnetization
        Fe           0.312
        Na           0.000
        O            0.000
        P            0.000

      2 Sym. Ops., with inversion, found


                                    s                        frac. trans.

      isym =  1     identity                                     

 cryst.   s( 1) = (     1          0          0      )
                  (     0          1          0      )
                  (     0          0          1      )

 cart.    s( 1) = (  1.0000000  0.0000000  0.0000000 )
                  (  0.0000000  1.0000000  0.0000000 )
                  (  0.0000000  0.0000000  1.0000000 )


      isym =  2     inversion                                    

 cryst.   s( 2) = (    -1          0          0      )
                  (     0         -1          0      )
                  (     0          0         -1      )

 cart.    s( 2) = ( -1.0000000  0.0000000  0.0000000 )
                  (  0.0000000 -1.0000000  0.0000000 )
                  (  0.0000000  0.0000000 -1.0000000 )


   Cartesian axes

     site n.     atom                  positions (alat units)
         1           Na  tau(   1) = (   0.0000030   0.0000012   0.0000014  )
         2           Na  tau(   2) = (   0.5000026  -0.0000000   0.2363630  )
         3           Na  tau(   3) = (   0.0000025   0.2939287   0.0000014  )
         4           Na  tau(   4) = (   0.5000020   0.2939276   0.2363630  )
         5           Fe  tau(   5) = (   0.2874879   0.4408884   0.4636975  )
         6           Fe  tau(   6) = (   0.2125158   0.1469679   0.2273359  )
         7           Fe  tau(   7) = (   0.7125152   0.1469667   0.0090286  )
         8           Fe  tau(   8) = (   0.7874873   0.4408872   0.2453902  )
         9           P   tau(   9) = (   0.1088453   0.4408937   0.2096787  )
        10           P   tau(  10) = (   0.3911565   0.1469626   0.4460389  )
        11           P   tau(  11) = (   0.8911578   0.1469614   0.2630455  )
        12           P   tau(  12) = (   0.6088466   0.4408925   0.0266872  )
        13           O   tau(  13) = (   0.1132501   0.4408919   0.3546471  )
        14           O   tau(  14) = (   0.3867530   0.1469650   0.1182860  )
        15           O   tau(  15) = (   0.8867530   0.1469638   0.1180799  )
        16           O   tau(  16) = (   0.6132501   0.4408908   0.3544401  )
        17           O   tau(  17) = (   0.4686006   0.4408908   0.0757526  )
        18           O   tau(  18) = (   0.0314027   0.1469655   0.3121157  )
        19           O   tau(  19) = (   0.5314025   0.1469644   0.3969730  )
        20           O   tau(  20) = (   0.9686004   0.4408896   0.1606109  )
        21           O   tau(  21) = (   0.1792128   0.5571174   0.1494295  )
        22           O   tau(  22) = (   0.3207912   0.0307395   0.3857916  )
        23           O   tau(  23) = (   0.8207871   0.2631839   0.3232984  )
        24           O   tau(  24) = (   0.6792151   0.3246712   0.0869363  )
        25           O   tau(  25) = (   0.8207903   0.0307378   0.3232966  )
        26           O   tau(  26) = (   0.6792129   0.5571162   0.0869345  )
        27           O   tau(  27) = (   0.1792160   0.3246718   0.1494276  )
        28           O   tau(  28) = (   0.3207879   0.2631845   0.3857897  )

   Crystallographic axes

     site n.     atom                  positions (cryst. coord.)
         1           Na  tau(   1) = (  0.0000030  0.0000020  0.0000030  )
         2           Na  tau(   2) = (  0.5000030  0.0000000  0.5000020  )
         3           Na  tau(   3) = (  0.0000040  0.5000020  0.0000030  )
         4           Na  tau(   4) = (  0.5000040  0.5000000  0.5000020  )
         5           Fe  tau(   5) = (  0.2874910  0.7499950  0.9809050  )
         6           Fe  tau(   6) = (  0.2125170  0.2500070  0.4809060  )
         7           Fe  tau(   7) = (  0.7125160  0.2500050  0.0190990  )
         8           Fe  tau(   8) = (  0.7874900  0.7499930  0.5190980  )
         9           P   tau(   9) = (  0.1088480  0.7500040  0.4435540  )
        10           P   tau(  10) = (  0.3911580  0.2499980  0.9435500  )
        11           P   tau(  11) = (  0.8911590  0.2499960  0.5564460  )
        12           P   tau(  12) = (  0.6088490  0.7500020  0.0564540  )
        13           O   tau(  13) = (  0.1132530  0.7500010  0.7502200  )
        14           O   tau(  14) = (  0.3867540  0.2500020  0.2502220  )
        15           O   tau(  15) = (  0.8867540  0.2500000  0.2497860  )
        16           O   tau(  16) = (  0.6132530  0.7499990  0.7497820  )
        17           O   tau(  17) = (  0.4686030  0.7499990  0.1602470  )
        18           O   tau(  18) = (  0.0314040  0.2500030  0.6602490  )
        19           O   tau(  19) = (  0.5314040  0.2500010  0.8397560  )
        20           O   tau(  20) = (  0.9686030  0.7499970  0.3397560  )
        21           O   tau(  21) = (  0.1792160  0.9477120  0.3161030  )
        22           O   tau(  22) = (  0.3207920  0.0522910  0.8161030  )
        23           O   tau(  23) = (  0.8207890  0.4477020  0.6839050  )
        24           O   tau(  24) = (  0.6792170  0.5522980  0.1839050  )
        25           O   tau(  25) = (  0.8207910  0.0522880  0.6839010  )
        26           O   tau(  26) = (  0.6792160  0.9477100  0.1839010  )
        27           O   tau(  27) = (  0.1792180  0.5522990  0.3160990  )
        28           O   tau(  28) = (  0.3207900  0.4477030  0.8160990  )

     number of k points=   158  Marzari-Vanderbilt smearing, width (Ry)=  0.0073
                       cart. coord. in units 2pi/alat
        k(    1) = (   0.0000000   0.0000000   0.0000000), wk =   0.0031746
        k(    2) = (   0.0000000   0.0000000   0.2350443), wk =   0.0063492
        k(    3) = (   0.0000000   0.0000000   0.4700885), wk =   0.0063492
        k(    4) = (   0.0000000   0.0000000   0.7051328), wk =   0.0063492
        k(    5) = (   0.0000000   0.0000000   0.9401771), wk =   0.0063492
        k(    6) = (   0.0000000   0.2430142   0.0000000), wk =   0.0063492
        k(    7) = (   0.0000000   0.2430142   0.2350443), wk =   0.0063492
        k(    8) = (   0.0000000   0.2430142   0.4700885), wk =   0.0063492
        k(    9) = (   0.0000000   0.2430142   0.7051328), wk =   0.0063492
        k(   10) = (   0.0000000   0.2430142   0.9401771), wk =   0.0063492
        k(   11) = (   0.0000000   0.2430142  -0.9401771), wk =   0.0063492
        k(   12) = (   0.0000000   0.2430142  -0.7051328), wk =   0.0063492
        k(   13) = (   0.0000000   0.2430142  -0.4700885), wk =   0.0063492
        k(   14) = (   0.0000000   0.2430142  -0.2350443), wk =   0.0063492
        k(   15) = (   0.0000000   0.4860284   0.0000000), wk =   0.0063492
        k(   16) = (   0.0000000   0.4860284   0.2350443), wk =   0.0063492
        k(   17) = (   0.0000000   0.4860284   0.4700885), wk =   0.0063492
        k(   18) = (   0.0000000   0.4860284   0.7051328), wk =   0.0063492
        k(   19) = (   0.0000000   0.4860284   0.9401771), wk =   0.0063492
        k(   20) = (   0.0000000   0.4860284  -0.9401771), wk =   0.0063492
        k(   21) = (   0.0000000   0.4860284  -0.7051328), wk =   0.0063492
        k(   22) = (   0.0000000   0.4860284  -0.4700885), wk =   0.0063492
        k(   23) = (   0.0000000   0.4860284  -0.2350443), wk =   0.0063492
        k(   24) = (   0.0000000   0.7290426   0.0000000), wk =   0.0063492
        k(   25) = (   0.0000000   0.7290426   0.2350443), wk =   0.0063492
        k(   26) = (   0.0000000   0.7290426   0.4700885), wk =   0.0063492
        k(   27) = (   0.0000000   0.7290426   0.7051328), wk =   0.0063492
        k(   28) = (   0.0000000   0.7290426   0.9401771), wk =   0.0063492
        k(   29) = (   0.0000000   0.7290426  -0.9401771), wk =   0.0063492
        k(   30) = (   0.0000000   0.7290426  -0.7051328), wk =   0.0063492
        k(   31) = (   0.0000000   0.7290426  -0.4700885), wk =   0.0063492
        k(   32) = (   0.0000000   0.7290426  -0.2350443), wk =   0.0063492
        k(   33) = (   0.2000000   0.0000010   0.0000003), wk =   0.0063492
        k(   34) = (   0.2000000   0.0000010   0.2350446), wk =   0.0063492
        k(   35) = (   0.2000000   0.0000010   0.4700889), wk =   0.0063492
        k(   36) = (   0.2000000   0.0000010   0.7051331), wk =   0.0063492
        k(   37) = (   0.2000000   0.0000010   0.9401774), wk =   0.0063492
        k(   38) = (   0.2000000   0.0000010  -0.9401767), wk =   0.0063492
        k(   39) = (   0.2000000   0.0000010  -0.7051324), wk =   0.0063492
        k(   40) = (   0.2000000   0.0000010  -0.4700882), wk =   0.0063492
        k(   41) = (   0.2000000   0.0000010  -0.2350439), wk =   0.0063492
        k(   42) = (   0.2000000   0.2430152   0.0000003), wk =   0.0063492
        k(   43) = (   0.2000000   0.2430152   0.2350446), wk =   0.0063492
        k(   44) = (   0.2000000   0.2430152   0.4700889), wk =   0.0063492
        k(   45) = (   0.2000000   0.2430152   0.7051331), wk =   0.0063492
        k(   46) = (   0.2000000   0.2430152   0.9401774), wk =   0.0063492
        k(   47) = (   0.2000000   0.2430152  -0.9401767), wk =   0.0063492
        k(   48) = (   0.2000000   0.2430152  -0.7051324), wk =   0.0063492
        k(   49) = (   0.2000000   0.2430152  -0.4700882), wk =   0.0063492
        k(   50) = (   0.2000000   0.2430152  -0.2350439), wk =   0.0063492
        k(   51) = (   0.2000000   0.4860294   0.0000003), wk =   0.0063492
        k(   52) = (   0.2000000   0.4860294   0.2350446), wk =   0.0063492
        k(   53) = (   0.2000000   0.4860294   0.4700889), wk =   0.0063492
        k(   54) = (   0.2000000   0.4860294   0.7051331), wk =   0.0063492
        k(   55) = (   0.2000000   0.4860294   0.9401774), wk =   0.0063492
        k(   56) = (   0.2000000   0.4860294  -0.9401767), wk =   0.0063492
        k(   57) = (   0.2000000   0.4860294  -0.7051324), wk =   0.0063492
        k(   58) = (   0.2000000   0.4860294  -0.4700882), wk =   0.0063492
        k(   59) = (   0.2000000   0.4860294  -0.2350439), wk =   0.0063492
        k(   60) = (   0.2000000   0.7290436   0.0000003), wk =   0.0063492
        k(   61) = (   0.2000000   0.7290436   0.2350446), wk =   0.0063492
        k(   62) = (   0.2000000   0.7290436   0.4700889), wk =   0.0063492
        k(   63) = (   0.2000000   0.7290436   0.7051331), wk =   0.0063492
        k(   64) = (   0.2000000   0.7290436   0.9401774), wk =   0.0063492
        k(   65) = (   0.2000000   0.7290436  -0.9401767), wk =   0.0063492
        k(   66) = (   0.2000000   0.7290436  -0.7051324), wk =   0.0063492
        k(   67) = (   0.2000000   0.7290436  -0.4700882), wk =   0.0063492
        k(   68) = (   0.2000000   0.7290436  -0.2350439), wk =   0.0063492
        k(   69) = (   0.2000000  -0.7290416   0.0000003), wk =   0.0063492
        k(   70) = (   0.2000000  -0.7290416   0.2350446), wk =   0.0063492
        k(   71) = (   0.2000000  -0.7290416   0.4700889), wk =   0.0063492
        k(   72) = (   0.2000000  -0.7290416   0.7051331), wk =   0.0063492
        k(   73) = (   0.2000000  -0.7290416   0.9401774), wk =   0.0063492
        k(   74) = (   0.2000000  -0.7290416  -0.9401767), wk =   0.0063492
        k(   75) = (   0.2000000  -0.7290416  -0.7051324), wk =   0.0063492
        k(   76) = (   0.2000000  -0.7290416  -0.4700882), wk =   0.0063492
        k(   77) = (   0.2000000  -0.7290416  -0.2350439), wk =   0.0063492
        k(   78) = (   0.2000000  -0.4860274   0.0000003), wk =   0.0063492
        k(   79) = (   0.2000000  -0.4860274   0.2350446), wk =   0.0063492
        k(   80) = (   0.2000000  -0.4860274   0.4700889), wk =   0.0063492
        k(   81) = (   0.2000000  -0.4860274   0.7051331), wk =   0.0063492
        k(   82) = (   0.2000000  -0.4860274   0.9401774), wk =   0.0063492
        k(   83) = (   0.2000000  -0.4860274  -0.9401767), wk =   0.0063492
        k(   84) = (   0.2000000  -0.4860274  -0.7051324), wk =   0.0063492
        k(   85) = (   0.2000000  -0.4860274  -0.4700882), wk =   0.0063492
        k(   86) = (   0.2000000  -0.4860274  -0.2350439), wk =   0.0063492
        k(   87) = (   0.2000000  -0.2430132   0.0000003), wk =   0.0063492
        k(   88) = (   0.2000000  -0.2430132   0.2350446), wk =   0.0063492
        k(   89) = (   0.2000000  -0.2430132   0.4700889), wk =   0.0063492
        k(   90) = (   0.2000000  -0.2430132   0.7051331), wk =   0.0063492
        k(   91) = (   0.2000000  -0.2430132   0.9401774), wk =   0.0063492
        k(   92) = (   0.2000000  -0.2430132  -0.9401767), wk =   0.0063492
        k(   93) = (   0.2000000  -0.2430132  -0.7051324), wk =   0.0063492
        k(   94) = (   0.2000000  -0.2430132  -0.4700882), wk =   0.0063492
        k(   95) = (   0.2000000  -0.2430132  -0.2350439), wk =   0.0063492
        k(   96) = (   0.4000000   0.0000021   0.0000007), wk =   0.0063492
        k(   97) = (   0.4000000   0.0000021   0.2350450), wk =   0.0063492
        k(   98) = (   0.4000000   0.0000021   0.4700892), wk =   0.0063492
        k(   99) = (   0.4000000   0.0000021   0.7051335), wk =   0.0063492
        k(  100) = (   0.4000000   0.0000021   0.9401778), wk =   0.0063492
        k(  101) = (   0.4000000   0.0000021  -0.9401764), wk =   0.0063492
        k(  102) = (   0.4000000   0.0000021  -0.7051321), wk =   0.0063492
        k(  103) = (   0.4000000   0.0000021  -0.4700878), wk =   0.0063492
        k(  104) = (   0.4000000   0.0000021  -0.2350436), wk =   0.0063492
        k(  105) = (   0.4000000   0.2430163   0.0000007), wk =   0.0063492
        k(  106) = (   0.4000000   0.2430163   0.2350450), wk =   0.0063492
        k(  107) = (   0.4000000   0.2430163   0.4700892), wk =   0.0063492
        k(  108) = (   0.4000000   0.2430163   0.7051335), wk =   0.0063492
        k(  109) = (   0.4000000   0.2430163   0.9401778), wk =   0.0063492
        k(  110) = (   0.4000000   0.2430163  -0.9401764), wk =   0.0063492
        k(  111) = (   0.4000000   0.2430163  -0.7051321), wk =   0.0063492
        k(  112) = (   0.4000000   0.2430163  -0.4700878), wk =   0.0063492
        k(  113) = (   0.4000000   0.2430163  -0.2350436), wk =   0.0063492
        k(  114) = (   0.4000000   0.4860305   0.0000007), wk =   0.0063492
        k(  115) = (   0.4000000   0.4860305   0.2350450), wk =   0.0063492
        k(  116) = (   0.4000000   0.4860305   0.4700892), wk =   0.0063492
        k(  117) = (   0.4000000   0.4860305   0.7051335), wk =   0.0063492
        k(  118) = (   0.4000000   0.4860305   0.9401778), wk =   0.0063492
        k(  119) = (   0.4000000   0.4860305  -0.9401764), wk =   0.0063492
        k(  120) = (   0.4000000   0.4860305  -0.7051321), wk =   0.0063492
        k(  121) = (   0.4000000   0.4860305  -0.4700878), wk =   0.0063492
        k(  122) = (   0.4000000   0.4860305  -0.2350436), wk =   0.0063492
        k(  123) = (   0.4000000   0.7290447   0.0000007), wk =   0.0063492
        k(  124) = (   0.4000000   0.7290447   0.2350450), wk =   0.0063492
        k(  125) = (   0.4000000   0.7290447   0.4700892), wk =   0.0063492
        k(  126) = (   0.4000000   0.7290447   0.7051335), wk =   0.0063492
        k(  127) = (   0.4000000   0.7290447   0.9401778), wk =   0.0063492
        k(  128) = (   0.4000000   0.7290447  -0.9401764), wk =   0.0063492
        k(  129) = (   0.4000000   0.7290447  -0.7051321), wk =   0.0063492
        k(  130) = (   0.4000000   0.7290447  -0.4700878), wk =   0.0063492
        k(  131) = (   0.4000000   0.7290447  -0.2350436), wk =   0.0063492
        k(  132) = (   0.4000000  -0.7290405   0.0000007), wk =   0.0063492
        k(  133) = (   0.4000000  -0.7290405   0.2350450), wk =   0.0063492
        k(  134) = (   0.4000000  -0.7290405   0.4700892), wk =   0.0063492
        k(  135) = (   0.4000000  -0.7290405   0.7051335), wk =   0.0063492
        k(  136) = (   0.4000000  -0.7290405   0.9401778), wk =   0.0063492
        k(  137) = (   0.4000000  -0.7290405  -0.9401764), wk =   0.0063492
        k(  138) = (   0.4000000  -0.7290405  -0.7051321), wk =   0.0063492
        k(  139) = (   0.4000000  -0.7290405  -0.4700878), wk =   0.0063492
        k(  140) = (   0.4000000  -0.7290405  -0.2350436), wk =   0.0063492
        k(  141) = (   0.4000000  -0.4860263   0.0000007), wk =   0.0063492
        k(  142) = (   0.4000000  -0.4860263   0.2350450), wk =   0.0063492
        k(  143) = (   0.4000000  -0.4860263   0.4700892), wk =   0.0063492
        k(  144) = (   0.4000000  -0.4860263   0.7051335), wk =   0.0063492
        k(  145) = (   0.4000000  -0.4860263   0.9401778), wk =   0.0063492
        k(  146) = (   0.4000000  -0.4860263  -0.9401764), wk =   0.0063492
        k(  147) = (   0.4000000  -0.4860263  -0.7051321), wk =   0.0063492
        k(  148) = (   0.4000000  -0.4860263  -0.4700878), wk =   0.0063492
        k(  149) = (   0.4000000  -0.4860263  -0.2350436), wk =   0.0063492
        k(  150) = (   0.4000000  -0.2430121   0.0000007), wk =   0.0063492
        k(  151) = (   0.4000000  -0.2430121   0.2350450), wk =   0.0063492
        k(  152) = (   0.4000000  -0.2430121   0.4700892), wk =   0.0063492
        k(  153) = (   0.4000000  -0.2430121   0.7051335), wk =   0.0063492
        k(  154) = (   0.4000000  -0.2430121   0.9401778), wk =   0.0063492
        k(  155) = (   0.4000000  -0.2430121  -0.9401764), wk =   0.0063492
        k(  156) = (   0.4000000  -0.2430121  -0.7051321), wk =   0.0063492
        k(  157) = (   0.4000000  -0.2430121  -0.4700878), wk =   0.0063492
        k(  158) = (   0.4000000  -0.2430121  -0.2350436), wk =   0.0063492

                       cryst. coord.
        k(    1) = (   0.0000000   0.0000000   0.0000000), wk =   0.0031746
        k(    2) = (   0.0000000   0.0000000   0.1111111), wk =   0.0063492
        k(    3) = (   0.0000000   0.0000000   0.2222222), wk =   0.0063492
        k(    4) = (   0.0000000   0.0000000   0.3333333), wk =   0.0063492
        k(    5) = (   0.0000000   0.0000000   0.4444444), wk =   0.0063492
        k(    6) = (   0.0000000   0.1428571   0.0000000), wk =   0.0063492
        k(    7) = (   0.0000000   0.1428571   0.1111111), wk =   0.0063492
        k(    8) = (   0.0000000   0.1428571   0.2222222), wk =   0.0063492
        k(    9) = (   0.0000000   0.1428571   0.3333333), wk =   0.0063492
        k(   10) = (   0.0000000   0.1428571   0.4444444), wk =   0.0063492
        k(   11) = (   0.0000000   0.1428571  -0.4444444), wk =   0.0063492
        k(   12) = (   0.0000000   0.1428571  -0.3333333), wk =   0.0063492
        k(   13) = (   0.0000000   0.1428571  -0.2222222), wk =   0.0063492
        k(   14) = (   0.0000000   0.1428571  -0.1111111), wk =   0.0063492
        k(   15) = (   0.0000000   0.2857143   0.0000000), wk =   0.0063492
        k(   16) = (   0.0000000   0.2857143   0.1111111), wk =   0.0063492
        k(   17) = (   0.0000000   0.2857143   0.2222222), wk =   0.0063492
        k(   18) = (   0.0000000   0.2857143   0.3333333), wk =   0.0063492
        k(   19) = (   0.0000000   0.2857143   0.4444444), wk =   0.0063492
        k(   20) = (   0.0000000   0.2857143  -0.4444444), wk =   0.0063492
        k(   21) = (   0.0000000   0.2857143  -0.3333333), wk =   0.0063492
        k(   22) = (   0.0000000   0.2857143  -0.2222222), wk =   0.0063492
        k(   23) = (   0.0000000   0.2857143  -0.1111111), wk =   0.0063492
        k(   24) = (   0.0000000   0.4285714   0.0000000), wk =   0.0063492
        k(   25) = (   0.0000000   0.4285714   0.1111111), wk =   0.0063492
        k(   26) = (   0.0000000   0.4285714   0.2222222), wk =   0.0063492
        k(   27) = (   0.0000000   0.4285714   0.3333333), wk =   0.0063492
        k(   28) = (   0.0000000   0.4285714   0.4444444), wk =   0.0063492
        k(   29) = (   0.0000000   0.4285714  -0.4444444), wk =   0.0063492
        k(   30) = (   0.0000000   0.4285714  -0.3333333), wk =   0.0063492
        k(   31) = (   0.0000000   0.4285714  -0.2222222), wk =   0.0063492
        k(   32) = (   0.0000000   0.4285714  -0.1111111), wk =   0.0063492
        k(   33) = (   0.2000000  -0.0000000   0.0000000), wk =   0.0063492
        k(   34) = (   0.2000000  -0.0000000   0.1111111), wk =   0.0063492
        k(   35) = (   0.2000000  -0.0000000   0.2222222), wk =   0.0063492
        k(   36) = (   0.2000000  -0.0000000   0.3333333), wk =   0.0063492
        k(   37) = (   0.2000000  -0.0000000   0.4444444), wk =   0.0063492
        k(   38) = (   0.2000000  -0.0000000  -0.4444444), wk =   0.0063492
        k(   39) = (   0.2000000  -0.0000000  -0.3333333), wk =   0.0063492
        k(   40) = (   0.2000000  -0.0000000  -0.2222222), wk =   0.0063492
        k(   41) = (   0.2000000  -0.0000000  -0.1111111), wk =   0.0063492
        k(   42) = (   0.2000000   0.1428571   0.0000000), wk =   0.0063492
        k(   43) = (   0.2000000   0.1428571   0.1111111), wk =   0.0063492
        k(   44) = (   0.2000000   0.1428571   0.2222222), wk =   0.0063492
        k(   45) = (   0.2000000   0.1428571   0.3333333), wk =   0.0063492
        k(   46) = (   0.2000000   0.1428571   0.4444444), wk =   0.0063492
        k(   47) = (   0.2000000   0.1428571  -0.4444444), wk =   0.0063492
        k(   48) = (   0.2000000   0.1428571  -0.3333333), wk =   0.0063492
        k(   49) = (   0.2000000   0.1428571  -0.2222222), wk =   0.0063492
        k(   50) = (   0.2000000   0.1428571  -0.1111111), wk =   0.0063492
        k(   51) = (   0.2000000   0.2857143   0.0000000), wk =   0.0063492
        k(   52) = (   0.2000000   0.2857143   0.1111111), wk =   0.0063492
        k(   53) = (   0.2000000   0.2857143   0.2222222), wk =   0.0063492
        k(   54) = (   0.2000000   0.2857143   0.3333333), wk =   0.0063492
        k(   55) = (   0.2000000   0.2857143   0.4444444), wk =   0.0063492
        k(   56) = (   0.2000000   0.2857143  -0.4444444), wk =   0.0063492
        k(   57) = (   0.2000000   0.2857143  -0.3333333), wk =   0.0063492
        k(   58) = (   0.2000000   0.2857143  -0.2222222), wk =   0.0063492
        k(   59) = (   0.2000000   0.2857143  -0.1111111), wk =   0.0063492
        k(   60) = (   0.2000000   0.4285714   0.0000000), wk =   0.0063492
        k(   61) = (   0.2000000   0.4285714   0.1111111), wk =   0.0063492
        k(   62) = (   0.2000000   0.4285714   0.2222222), wk =   0.0063492
        k(   63) = (   0.2000000   0.4285714   0.3333333), wk =   0.0063492
        k(   64) = (   0.2000000   0.4285714   0.4444444), wk =   0.0063492
        k(   65) = (   0.2000000   0.4285714  -0.4444444), wk =   0.0063492
        k(   66) = (   0.2000000   0.4285714  -0.3333333), wk =   0.0063492
        k(   67) = (   0.2000000   0.4285714  -0.2222222), wk =   0.0063492
        k(   68) = (   0.2000000   0.4285714  -0.1111111), wk =   0.0063492
        k(   69) = (   0.2000000  -0.4285714   0.0000000), wk =   0.0063492
        k(   70) = (   0.2000000  -0.4285714   0.1111111), wk =   0.0063492
        k(   71) = (   0.2000000  -0.4285714   0.2222222), wk =   0.0063492
        k(   72) = (   0.2000000  -0.4285714   0.3333333), wk =   0.0063492
        k(   73) = (   0.2000000  -0.4285714   0.4444444), wk =   0.0063492
        k(   74) = (   0.2000000  -0.4285714  -0.4444444), wk =   0.0063492
        k(   75) = (   0.2000000  -0.4285714  -0.3333333), wk =   0.0063492
        k(   76) = (   0.2000000  -0.4285714  -0.2222222), wk =   0.0063492
        k(   77) = (   0.2000000  -0.4285714  -0.1111111), wk =   0.0063492
        k(   78) = (   0.2000000  -0.2857143   0.0000000), wk =   0.0063492
        k(   79) = (   0.2000000  -0.2857143   0.1111111), wk =   0.0063492
        k(   80) = (   0.2000000  -0.2857143   0.2222222), wk =   0.0063492
        k(   81) = (   0.2000000  -0.2857143   0.3333333), wk =   0.0063492
        k(   82) = (   0.2000000  -0.2857143   0.4444444), wk =   0.0063492
        k(   83) = (   0.2000000  -0.2857143  -0.4444444), wk =   0.0063492
        k(   84) = (   0.2000000  -0.2857143  -0.3333333), wk =   0.0063492
        k(   85) = (   0.2000000  -0.2857143  -0.2222222), wk =   0.0063492
        k(   86) = (   0.2000000  -0.2857143  -0.1111111), wk =   0.0063492
        k(   87) = (   0.2000000  -0.1428571   0.0000000), wk =   0.0063492
        k(   88) = (   0.2000000  -0.1428571   0.1111111), wk =   0.0063492
        k(   89) = (   0.2000000  -0.1428571   0.2222222), wk =   0.0063492
        k(   90) = (   0.2000000  -0.1428571   0.3333333), wk =   0.0063492
        k(   91) = (   0.2000000  -0.1428571   0.4444444), wk =   0.0063492
        k(   92) = (   0.2000000  -0.1428571  -0.4444444), wk =   0.0063492
        k(   93) = (   0.2000000  -0.1428571  -0.3333333), wk =   0.0063492
        k(   94) = (   0.2000000  -0.1428571  -0.2222222), wk =   0.0063492
        k(   95) = (   0.2000000  -0.1428571  -0.1111111), wk =   0.0063492
        k(   96) = (   0.4000000  -0.0000000   0.0000000), wk =   0.0063492
        k(   97) = (   0.4000000  -0.0000000   0.1111111), wk =   0.0063492
        k(   98) = (   0.4000000  -0.0000000   0.2222222), wk =   0.0063492
        k(   99) = (   0.4000000  -0.0000000   0.3333333), wk =   0.0063492
        k(  100) = (   0.4000000  -0.0000000   0.4444444), wk =   0.0063492
        k(  101) = (   0.4000000  -0.0000000  -0.4444444), wk =   0.0063492
        k(  102) = (   0.4000000  -0.0000000  -0.3333333), wk =   0.0063492
        k(  103) = (   0.4000000  -0.0000000  -0.2222222), wk =   0.0063492
        k(  104) = (   0.4000000  -0.0000000  -0.1111111), wk =   0.0063492
        k(  105) = (   0.4000000   0.1428571   0.0000000), wk =   0.0063492
        k(  106) = (   0.4000000   0.1428571   0.1111111), wk =   0.0063492
        k(  107) = (   0.4000000   0.1428571   0.2222222), wk =   0.0063492
        k(  108) = (   0.4000000   0.1428571   0.3333333), wk =   0.0063492
        k(  109) = (   0.4000000   0.1428571   0.4444444), wk =   0.0063492
        k(  110) = (   0.4000000   0.1428571  -0.4444444), wk =   0.0063492
        k(  111) = (   0.4000000   0.1428571  -0.3333333), wk =   0.0063492
        k(  112) = (   0.4000000   0.1428571  -0.2222222), wk =   0.0063492
        k(  113) = (   0.4000000   0.1428571  -0.1111111), wk =   0.0063492
        k(  114) = (   0.4000000   0.2857143   0.0000000), wk =   0.0063492
        k(  115) = (   0.4000000   0.2857143   0.1111111), wk =   0.0063492
        k(  116) = (   0.4000000   0.2857143   0.2222222), wk =   0.0063492
        k(  117) = (   0.4000000   0.2857143   0.3333333), wk =   0.0063492
        k(  118) = (   0.4000000   0.2857143   0.4444444), wk =   0.0063492
        k(  119) = (   0.4000000   0.2857143  -0.4444444), wk =   0.0063492
        k(  120) = (   0.4000000   0.2857143  -0.3333333), wk =   0.0063492
        k(  121) = (   0.4000000   0.2857143  -0.2222222), wk =   0.0063492
        k(  122) = (   0.4000000   0.2857143  -0.1111111), wk =   0.0063492
        k(  123) = (   0.4000000   0.4285714   0.0000000), wk =   0.0063492
        k(  124) = (   0.4000000   0.4285714   0.1111111), wk =   0.0063492
        k(  125) = (   0.4000000   0.4285714   0.2222222), wk =   0.0063492
        k(  126) = (   0.4000000   0.4285714   0.3333333), wk =   0.0063492
        k(  127) = (   0.4000000   0.4285714   0.4444444), wk =   0.0063492
        k(  128) = (   0.4000000   0.4285714  -0.4444444), wk =   0.0063492
        k(  129) = (   0.4000000   0.4285714  -0.3333333), wk =   0.0063492
        k(  130) = (   0.4000000   0.4285714  -0.2222222), wk =   0.0063492
        k(  131) = (   0.4000000   0.4285714  -0.1111111), wk =   0.0063492
        k(  132) = (   0.4000000  -0.4285714   0.0000000), wk =   0.0063492
        k(  133) = (   0.4000000  -0.4285714   0.1111111), wk =   0.0063492
        k(  134) = (   0.4000000  -0.4285714   0.2222222), wk =   0.0063492
        k(  135) = (   0.4000000  -0.4285714   0.3333333), wk =   0.0063492
        k(  136) = (   0.4000000  -0.4285714   0.4444444), wk =   0.0063492
        k(  137) = (   0.4000000  -0.4285714  -0.4444444), wk =   0.0063492
        k(  138) = (   0.4000000  -0.4285714  -0.3333333), wk =   0.0063492
        k(  139) = (   0.4000000  -0.4285714  -0.2222222), wk =   0.0063492
        k(  140) = (   0.4000000  -0.4285714  -0.1111111), wk =   0.0063492
        k(  141) = (   0.4000000  -0.2857143   0.0000000), wk =   0.0063492
        k(  142) = (   0.4000000  -0.2857143   0.1111111), wk =   0.0063492
        k(  143) = (   0.4000000  -0.2857143   0.2222222), wk =   0.0063492
        k(  144) = (   0.4000000  -0.2857143   0.3333333), wk =   0.0063492
        k(  145) = (   0.4000000  -0.2857143   0.4444444), wk =   0.0063492
        k(  146) = (   0.4000000  -0.2857143  -0.4444444), wk =   0.0063492
        k(  147) = (   0.4000000  -0.2857143  -0.3333333), wk =   0.0063492
        k(  148) = (   0.4000000  -0.2857143  -0.2222222), wk =   0.0063492
        k(  149) = (   0.4000000  -0.2857143  -0.1111111), wk =   0.0063492
        k(  150) = (   0.4000000  -0.1428571   0.0000000), wk =   0.0063492
        k(  151) = (   0.4000000  -0.1428571   0.1111111), wk =   0.0063492
        k(  152) = (   0.4000000  -0.1428571   0.2222222), wk =   0.0063492
        k(  153) = (   0.4000000  -0.1428571   0.3333333), wk =   0.0063492
        k(  154) = (   0.4000000  -0.1428571   0.4444444), wk =   0.0063492
        k(  155) = (   0.4000000  -0.1428571  -0.4444444), wk =   0.0063492
        k(  156) = (   0.4000000  -0.1428571  -0.3333333), wk =   0.0063492
        k(  157) = (   0.4000000  -0.1428571  -0.2222222), wk =   0.0063492
        k(  158) = (   0.4000000  -0.1428571  -0.1111111), wk =   0.0063492

     Dense  grid:  1362919 G-vectors     FFT dimensions: ( 216, 125, 100)

     Smooth grid:   307283 G-vectors     FFT dimensions: ( 135,  75,  64)

     Dynamical RAM for                 wfc:       4.76 MB

     Dynamical RAM for     wfc (w. buffer):    1508.53 MB

     Dynamical RAM for           str. fact:       5.20 MB

     Dynamical RAM for           local pot:       0.00 MB

     Dynamical RAM for          nlocal pot:      11.13 MB

     Dynamical RAM for                qrad:      10.54 MB

     Dynamical RAM for          rho,v,vnew:      16.45 MB

     Dynamical RAM for               rhoin:       5.48 MB

     Dynamical RAM for            rho*nmix:      41.59 MB

     Dynamical RAM for           G-vectors:       5.02 MB

     Dynamical RAM for          h,s,v(r/c):       3.09 MB

     Dynamical RAM for          <psi|beta>:       0.60 MB

     Dynamical RAM for                 psi:       9.52 MB

     Dynamical RAM for                hpsi:       9.52 MB

     Dynamical RAM for                spsi:       9.52 MB

     Dynamical RAM for      wfcinit/wfcrot:      11.66 MB

     Dynamical RAM for           addusdens:     263.86 MB

     Dynamical RAM for          addusforce:     302.98 MB

     Dynamical RAM for         addusstress:     263.21 MB

     Estimated static dynamical RAM per process >       1.58 GB

     Estimated max dynamical RAM per process >       1.88 GB

     Estimated total dynamical RAM >      30.03 GB

     Check: negative core charge=   -0.000003
     Generating pointlists ...
     new r_m :   0.0812 (alat units)  1.6364 (a.u.) for type    1
     new r_m :   0.0907 (alat units)  1.8281 (a.u.) for type    2
     new r_m :   0.0598 (alat units)  1.2056 (a.u.) for type    3
     new r_m :   0.0598 (alat units)  1.2056 (a.u.) for type    4

     Initial potential from superposition of free atoms

     starting charge  215.97252, renormalised to  216.00000
     Starting wfcs are  152 randomized atomic wfcs
     Checking if some PAW data can be deallocated... 
       PAW data deallocated on   14 nodes for type:  1
       PAW data deallocated on    6 nodes for type:  3

     total cpu time spent up to now is      105.4 secs

     Self-consistent Calculation

     iteration #  1     ecut=   100.00 Ry     beta= 0.40
     Davidson diagonalization with overlap
     ethr =  1.00E-02,  avg # of iterations =  3.1

     negative rho (up, down):  0.000E+00 6.754E-05

     total cpu time spent up to now is      402.1 secs

     total energy              =   -2380.63347456 Ry
     estimated scf accuracy    <       5.71508898 Ry

     total magnetization       =    16.00 Bohr mag/cell
     absolute magnetization    =    16.01 Bohr mag/cell

     iteration #  2     ecut=   100.00 Ry     beta= 0.40
     Davidson diagonalization with overlap
     ethr =  2.65E-03,  avg # of iterations =  2.0

     negative rho (up, down):  0.000E+00 1.688E-04

     total cpu time spent up to now is      675.0 secs

     total energy              =   -2382.04101692 Ry
     estimated scf accuracy    <       0.56323287 Ry

     total magnetization       =    16.00 Bohr mag/cell
     absolute magnetization    =    16.01 Bohr mag/cell

     iteration #  3     ecut=   100.00 Ry     beta= 0.40
     Davidson diagonalization with overlap
     ethr =  2.61E-04,  avg # of iterations =  9.6

     negative rho (up, down):  0.000E+00 1.835E-04

     total cpu time spent up to now is     1033.7 secs

     total energy              =   -2382.04786911 Ry
     estimated scf accuracy    <       3.63334897 Ry

     total magnetization       =    16.00 Bohr mag/cell
     absolute magnetization    =    16.03 Bohr mag/cell

     iteration #  4     ecut=   100.00 Ry     beta= 0.40
     Davidson diagonalization with overlap
     ethr =  2.61E-04,  avg # of iterations =  2.0

     negative rho (up, down):  0.000E+00 3.287E-04

     total cpu time spent up to now is     1274.8 secs

     total energy              =   -2382.09329212 Ry
     estimated scf accuracy    <       1.56996780 Ry

     total magnetization       =    16.00 Bohr mag/cell
     absolute magnetization    =    16.05 Bohr mag/cell

     iteration #  5     ecut=   100.00 Ry     beta= 0.40
     Davidson diagonalization with overlap
     ethr =  2.61E-04,  avg # of iterations =  1.5

     negative rho (up, down):  0.000E+00 5.088E-04

     total cpu time spent up to now is     1496.4 secs

     total energy              =   -2382.07375695 Ry
     estimated scf accuracy    <       2.23661822 Ry

     total magnetization       =    16.00 Bohr mag/cell
     absolute magnetization    =    16.05 Bohr mag/cell

     iteration #  6     ecut=   100.00 Ry     beta= 0.40
     Davidson diagonalization with overlap
     ethr =  2.61E-04,  avg # of iterations =  2.0

     negative rho (up, down):  0.000E+00 5.202E-04

     total cpu time spent up to now is     1731.8 secs

     total energy              =   -2382.17297244 Ry
     estimated scf accuracy    <       2.37441850 Ry

     total magnetization       =    16.00 Bohr mag/cell
     absolute magnetization    =    16.07 Bohr mag/cell

     iteration #  7     ecut=   100.00 Ry     beta= 0.40
     Davidson diagonalization with overlap
     ethr =  2.61E-04,  avg # of iterations =  1.0

     negative rho (up, down):  0.000E+00 5.384E-04

     total cpu time spent up to now is     1936.7 secs

     total energy              =   -2382.20848661 Ry
     estimated scf accuracy    <       0.09147165 Ry

     total magnetization       =    16.00 Bohr mag/cell
     absolute magnetization    =    16.06 Bohr mag/cell

     iteration #  8     ecut=   100.00 Ry     beta= 0.40
     Davidson diagonalization with overlap
     ethr =  4.23E-05,  avg # of iterations =  2.2

     negative rho (up, down):  0.000E+00 5.392E-04

     total cpu time spent up to now is     2162.2 secs

     total energy              =   -2382.21739883 Ry
     estimated scf accuracy    <       0.24335749 Ry

     total magnetization       =    16.00 Bohr mag/cell
     absolute magnetization    =    16.06 Bohr mag/cell

     iteration #  9     ecut=   100.00 Ry     beta= 0.40
     Davidson diagonalization with overlap
     ethr =  4.23E-05,  avg # of iterations =  1.3

     negative rho (up, down):  0.000E+00 5.403E-04

     total cpu time spent up to now is     2372.2 secs

     total energy              =   -2382.21132000 Ry
     estimated scf accuracy    <       0.31307502 Ry

     total magnetization       =    16.00 Bohr mag/cell
     absolute magnetization    =    16.06 Bohr mag/cell

     iteration # 10     ecut=   100.00 Ry     beta= 0.40
     Davidson diagonalization with overlap
     ethr =  4.23E-05,  avg # of iterations =  1.4

     negative rho (up, down):  0.000E+00 5.411E-04

     total cpu time spent up to now is     2588.9 secs

     total energy              =   -2382.21653077 Ry
     estimated scf accuracy    <       0.08020685 Ry

     total magnetization       =    16.00 Bohr mag/cell
     absolute magnetization    =    16.07 Bohr mag/cell

     iteration # 11     ecut=   100.00 Ry     beta= 0.40
     Davidson diagonalization with overlap
     ethr =  3.71E-05,  avg # of iterations =  1.0

     negative rho (up, down):  0.000E+00 5.401E-04

     total cpu time spent up to now is     2794.6 secs

     total energy              =   -2382.21845991 Ry
     estimated scf accuracy    <       0.06891690 Ry

     total magnetization       =    16.00 Bohr mag/cell
     absolute magnetization    =    16.07 Bohr mag/cell

     iteration # 12     ecut=   100.00 Ry     beta= 0.40
     Davidson diagonalization with overlap
     ethr =  3.19E-05,  avg # of iterations =  1.0

     negative rho (up, down):  0.000E+00 5.421E-04

     total cpu time spent up to now is     3000.4 secs

     total energy              =   -2382.22111332 Ry
     estimated scf accuracy    <       0.04805891 Ry

     total magnetization       =    16.00 Bohr mag/cell
     absolute magnetization    =    16.07 Bohr mag/cell

     iteration # 13     ecut=   100.00 Ry     beta= 0.40
     Davidson diagonalization with overlap
     ethr =  2.22E-05,  avg # of iterations =  1.1

     negative rho (up, down):  0.000E+00 5.474E-04

     total cpu time spent up to now is     3208.7 secs

     total energy              =   -2382.22157862 Ry
     estimated scf accuracy    <       0.04590187 Ry

     total magnetization       =    16.00 Bohr mag/cell
     absolute magnetization    =    16.07 Bohr mag/cell

     iteration # 14     ecut=   100.00 Ry     beta= 0.40
     Davidson diagonalization with overlap
     c_bands:  1 eigenvalues not converged
     c_bands:  1 eigenvalues not converged
     c_bands:  1 eigenvalues not converged
     c_bands:  1 eigenvalues not converged
     ethr =  2.13E-05,  avg # of iterations =  2.6

     negative rho (up, down):  0.000E+00 5.584E-04

     total cpu time spent up to now is     3437.2 secs

     total energy              =   -2382.22596904 Ry
     estimated scf accuracy    <       0.03885028 Ry

     total magnetization       =    16.00 Bohr mag/cell
     absolute magnetization    =    16.07 Bohr mag/cell

     iteration # 15     ecut=   100.00 Ry     beta= 0.40
     Davidson diagonalization with overlap
     ethr =  1.80E-05,  avg # of iterations =  1.1

     negative rho (up, down):  0.000E+00 5.761E-04

     total cpu time spent up to now is     3644.1 secs

     total energy              =   -2382.22955928 Ry
     estimated scf accuracy    <       0.02098182 Ry

     total magnetization       =    16.00 Bohr mag/cell
     absolute magnetization    =    16.08 Bohr mag/cell

     iteration # 16     ecut=   100.00 Ry     beta= 0.40
     Davidson diagonalization with overlap
     ethr =  9.71E-06,  avg # of iterations =  3.1

     negative rho (up, down):  0.000E+00 5.741E-04

     total cpu time spent up to now is     3898.9 secs

     total energy              =   -2382.23190206 Ry
     estimated scf accuracy    <       0.00728788 Ry

     total magnetization       =    16.00 Bohr mag/cell
     absolute magnetization    =    16.08 Bohr mag/cell

     iteration # 17     ecut=   100.00 Ry     beta= 0.40
     Davidson diagonalization with overlap
     c_bands:  1 eigenvalues not converged
     c_bands:  1 eigenvalues not converged
     c_bands:  1 eigenvalues not converged
     c_bands:  1 eigenvalues not converged
     c_bands:  1 eigenvalues not converged
     c_bands:  1 eigenvalues not converged
     c_bands:  1 eigenvalues not converged
     c_bands:  1 eigenvalues not converged
     c_bands:  1 eigenvalues not converged
     c_bands:  1 eigenvalues not converged
     c_bands:  1 eigenvalues not converged
     c_bands:  3 eigenvalues not converged
     c_bands:  2 eigenvalues not converged
     c_bands:  1 eigenvalues not converged
     ethr =  3.37E-06,  avg # of iterations =  9.8

     negative rho (up, down):  0.000E+00 5.712E-04

     total cpu time spent up to now is     4213.7 secs

     total energy              =   -2382.23195778 Ry
     estimated scf accuracy    <       0.00991482 Ry

     total magnetization       =    16.00 Bohr mag/cell
     absolute magnetization    =    16.08 Bohr mag/cell

     iteration # 18     ecut=   100.00 Ry     beta= 0.40
     Davidson diagonalization with overlap
     c_bands:  1 eigenvalues not converged
     ethr =  3.37E-06,  avg # of iterations =  1.3

     negative rho (up, down):  0.000E+00 5.710E-04

     total cpu time spent up to now is     4423.6 secs

     total energy              =   -2382.23243994 Ry
     estimated scf accuracy    <       0.00896941 Ry

     total magnetization       =    16.00 Bohr mag/cell
     absolute magnetization    =    16.08 Bohr mag/cell

     iteration # 19     ecut=   100.00 Ry     beta= 0.40
     Davidson diagonalization with overlap
     ethr =  3.37E-06,  avg # of iterations =  1.1

     negative rho (up, down):  0.000E+00 5.677E-04

     total cpu time spent up to now is     4631.1 secs

     total energy              =   -2382.23231968 Ry
     estimated scf accuracy    <       0.01925142 Ry

     total magnetization       =    16.00 Bohr mag/cell
     absolute magnetization    =    16.08 Bohr mag/cell

     iteration # 20     ecut=   100.00 Ry     beta= 0.40
     Davidson diagonalization with overlap
     ethr =  3.37E-06,  avg # of iterations =  1.6

     negative rho (up, down):  0.000E+00 5.691E-04

     total cpu time spent up to now is     4852.0 secs

     total energy              =   -2382.23242405 Ry
     estimated scf accuracy    <       0.00804052 Ry

     total magnetization       =    16.00 Bohr mag/cell
     absolute magnetization    =    16.08 Bohr mag/cell

     iteration # 21     ecut=   100.00 Ry     beta= 0.40
     Davidson diagonalization with overlap
     ethr =  3.37E-06,  avg # of iterations =  1.0

     negative rho (up, down):  0.000E+00 5.743E-04

     total cpu time spent up to now is     5056.1 secs

     total energy              =   -2382.23248887 Ry
     estimated scf accuracy    <       0.00374163 Ry

     total magnetization       =    16.00 Bohr mag/cell
     absolute magnetization    =    16.08 Bohr mag/cell

     iteration # 22     ecut=   100.00 Ry     beta= 0.40
     Davidson diagonalization with overlap
     ethr =  1.73E-06,  avg # of iterations =  1.2

     negative rho (up, down):  0.000E+00 5.765E-04

     total cpu time spent up to now is     5264.3 secs

     total energy              =   -2382.23265968 Ry
     estimated scf accuracy    <       0.00096473 Ry

     total magnetization       =    16.00 Bohr mag/cell
     absolute magnetization    =    16.07 Bohr mag/cell

     iteration # 23     ecut=   100.00 Ry     beta= 0.40
     Davidson diagonalization with overlap
     ethr =  4.47E-07,  avg # of iterations =  1.0

     negative rho (up, down):  0.000E+00 5.814E-04

     total cpu time spent up to now is     5468.7 secs

     total energy              =   -2382.23234784 Ry
     estimated scf accuracy    <       0.00164180 Ry

     total magnetization       =    16.00 Bohr mag/cell
     absolute magnetization    =    16.07 Bohr mag/cell

     iteration # 24     ecut=   100.00 Ry     beta= 0.40
     Davidson diagonalization with overlap
     ethr =  4.47E-07,  avg # of iterations =  2.0

     negative rho (up, down):  0.000E+00 5.799E-04

     total cpu time spent up to now is     5714.6 secs

     total energy              =   -2382.23299041 Ry
     estimated scf accuracy    <       0.00005557 Ry

     total magnetization       =    16.00 Bohr mag/cell
     absolute magnetization    =    16.07 Bohr mag/cell

     iteration # 25     ecut=   100.00 Ry     beta= 0.40
     Davidson diagonalization with overlap
     ethr =  2.57E-08,  avg # of iterations =  4.4

     negative rho (up, down):  0.000E+00 5.799E-04

     total cpu time spent up to now is     6027.6 secs

     total energy              =   -2382.23310941 Ry
     estimated scf accuracy    <       0.00001907 Ry

     total magnetization       =    16.00 Bohr mag/cell
     absolute magnetization    =    16.07 Bohr mag/cell

     iteration # 26     ecut=   100.00 Ry     beta= 0.40
     Davidson diagonalization with overlap
     ethr =  8.83E-09,  avg # of iterations =  3.5

     negative rho (up, down):  0.000E+00 5.802E-04

     total cpu time spent up to now is     6322.1 secs

     total energy              =   -2382.23314768 Ry
     estimated scf accuracy    <       0.00000997 Ry

     total magnetization       =    16.00 Bohr mag/cell
     absolute magnetization    =    16.07 Bohr mag/cell

     iteration # 27     ecut=   100.00 Ry     beta= 0.40
     Davidson diagonalization with overlap
     ethr =  4.61E-09,  avg # of iterations =  4.0

     negative rho (up, down):  0.000E+00 5.801E-04

     total cpu time spent up to now is     6627.9 secs

     total energy              =   -2382.23322479 Ry
     estimated scf accuracy    <       0.00000722 Ry

     total magnetization       =    16.00 Bohr mag/cell
     absolute magnetization    =    16.07 Bohr mag/cell

     iteration # 28     ecut=   100.00 Ry     beta= 0.40
     Davidson diagonalization with overlap
     ethr =  3.34E-09,  avg # of iterations =  2.0

     negative rho (up, down):  0.000E+00 5.800E-04

     total cpu time spent up to now is     6884.0 secs

     total energy              =   -2382.23321873 Ry
     estimated scf accuracy    <       0.00000359 Ry

     total magnetization       =    16.00 Bohr mag/cell
     absolute magnetization    =    16.07 Bohr mag/cell

     iteration # 29     ecut=   100.00 Ry     beta= 0.40
     Davidson diagonalization with overlap
     ethr =  1.66E-09,  avg # of iterations =  4.0

     negative rho (up, down):  0.000E+00 5.798E-04

     total cpu time spent up to now is     7188.1 secs

     total energy              =   -2382.23325144 Ry
     estimated scf accuracy    <       0.00000044 Ry

     total magnetization       =    16.00 Bohr mag/cell
     absolute magnetization    =    16.07 Bohr mag/cell

     iteration # 30     ecut=   100.00 Ry     beta= 0.40
     Davidson diagonalization with overlap
     ethr =  2.02E-10,  avg # of iterations =  4.3

     negative rho (up, down):  0.000E+00 5.799E-04

     total cpu time spent up to now is     7518.6 secs

     total energy              =   -2382.23325618 Ry
     estimated scf accuracy    <       0.00000019 Ry

     total magnetization       =    16.00 Bohr mag/cell
     absolute magnetization    =    16.07 Bohr mag/cell

     iteration # 31     ecut=   100.00 Ry     beta= 0.40
     Davidson diagonalization with overlap
     ethr =  8.98E-11,  avg # of iterations =  2.0

     negative rho (up, down):  0.000E+00 5.799E-04

     total cpu time spent up to now is     7757.3 secs

     total energy              =   -2382.23325761 Ry
     estimated scf accuracy    <       0.00000008 Ry

     total magnetization       =    16.00 Bohr mag/cell
     absolute magnetization    =    16.07 Bohr mag/cell

     iteration # 32     ecut=   100.00 Ry     beta= 0.40
     Davidson diagonalization with overlap
     ethr =  3.91E-11,  avg # of iterations =  2.0

     negative rho (up, down):  0.000E+00 5.799E-04

     total cpu time spent up to now is     8000.1 secs

     total energy              =   -2382.23325823 Ry
     estimated scf accuracy    <       0.00000010 Ry

     total magnetization       =    16.00 Bohr mag/cell
     absolute magnetization    =    16.07 Bohr mag/cell

     iteration # 33     ecut=   100.00 Ry     beta= 0.40
     Davidson diagonalization with overlap
     ethr =  3.91E-11,  avg # of iterations =  2.0

     negative rho (up, down):  0.000E+00 5.799E-04

     total cpu time spent up to now is     8238.7 secs

     total energy              =   -2382.23325845 Ry
     estimated scf accuracy    <       0.00000015 Ry

     total magnetization       =    16.00 Bohr mag/cell
     absolute magnetization    =    16.07 Bohr mag/cell

     iteration # 34     ecut=   100.00 Ry     beta= 0.40
     Davidson diagonalization with overlap
     ethr =  3.91E-11,  avg # of iterations =  2.0

     negative rho (up, down):  0.000E+00 5.799E-04

     total cpu time spent up to now is     8487.1 secs

     total energy              =   -2382.23325856 Ry
     estimated scf accuracy    <       0.00000004 Ry

     total magnetization       =    16.00 Bohr mag/cell
     absolute magnetization    =    16.07 Bohr mag/cell

     iteration # 35     ecut=   100.00 Ry     beta= 0.40
     Davidson diagonalization with overlap
     ethr =  1.73E-11,  avg # of iterations =  3.9

     negative rho (up, down):  0.000E+00 5.799E-04

     total cpu time spent up to now is     8786.2 secs

     total energy              =   -2382.23325869 Ry
     estimated scf accuracy    <       0.00000001 Ry

     total magnetization       =    16.00 Bohr mag/cell
     absolute magnetization    =    16.07 Bohr mag/cell

     iteration # 36     ecut=   100.00 Ry     beta= 0.40
     Davidson diagonalization with overlap
     ethr =  5.55E-12,  avg # of iterations =  4.0

     negative rho (up, down):  0.000E+00 5.799E-04

     total cpu time spent up to now is     9090.7 secs

     total energy              =   -2382.23325878 Ry
     estimated scf accuracy    <          3.4E-09 Ry

     total magnetization       =    16.00 Bohr mag/cell
     absolute magnetization    =    16.07 Bohr mag/cell

     iteration # 37     ecut=   100.00 Ry     beta= 0.40
     Davidson diagonalization with overlap
     ethr =  1.58E-12,  avg # of iterations =  2.8

     negative rho (up, down):  0.000E+00 5.799E-04

     total cpu time spent up to now is     9370.2 secs

     total energy              =   -2382.23325879 Ry
     estimated scf accuracy    <          1.7E-09 Ry

     total magnetization       =    16.00 Bohr mag/cell
     absolute magnetization    =    16.07 Bohr mag/cell

     iteration # 38     ecut=   100.00 Ry     beta= 0.40
     Davidson diagonalization with overlap
     ethr =  7.94E-13,  avg # of iterations =  2.1

     negative rho (up, down):  0.000E+00 5.799E-04

     total cpu time spent up to now is     9622.2 secs

     total energy              =   -2382.23325879 Ry
     estimated scf accuracy    <          9.3E-10 Ry

     total magnetization       =    16.00 Bohr mag/cell
     absolute magnetization    =    16.07 Bohr mag/cell

     iteration # 39     ecut=   100.00 Ry     beta= 0.40
     Davidson diagonalization with overlap
     ethr =  4.31E-13,  avg # of iterations =  2.9

     negative rho (up, down):  0.000E+00 5.799E-04

     total cpu time spent up to now is     9883.5 secs

     total energy              =   -2382.23325880 Ry
     estimated scf accuracy    <          2.9E-10 Ry

     total magnetization       =    16.00 Bohr mag/cell
     absolute magnetization    =    16.07 Bohr mag/cell

     iteration # 40     ecut=   100.00 Ry     beta= 0.40
     Davidson diagonalization with overlap
     ethr =  1.35E-13,  avg # of iterations =  4.3

     negative rho (up, down):  0.000E+00 5.799E-04

     Magnetic moment per site:
     atom:    1    charge:    7.9710    magn:    0.0001    constr:    0.0000
     atom:    2    charge:    7.9710    magn:    0.0001    constr:    0.0000
     atom:    3    charge:    7.9710    magn:    0.0001    constr:    0.0000
     atom:    4    charge:    7.9710    magn:    0.0001    constr:    0.0000
     atom:    5    charge:   13.3973    magn:    3.3720    constr:    0.0000
     atom:    6    charge:   13.3973    magn:    3.3720    constr:    0.0000
     atom:    7    charge:   13.3973    magn:    3.3720    constr:    0.0000
     atom:    8    charge:   13.3973    magn:    3.3720    constr:    0.0000
     atom:    9    charge:    0.8599    magn:    0.0064    constr:    0.0000
     atom:   10    charge:    0.8599    magn:    0.0064    constr:    0.0000
     atom:   11    charge:    0.8599    magn:    0.0064    constr:    0.0000
     atom:   12    charge:    0.8599    magn:    0.0064    constr:    0.0000
     atom:   13    charge:    4.2926    magn:    0.0299    constr:    0.0000
     atom:   14    charge:    4.2925    magn:    0.0299    constr:    0.0000
     atom:   15    charge:    4.2926    magn:    0.0299    constr:    0.0000
     atom:   16    charge:    4.2925    magn:    0.0299    constr:    0.0000
     atom:   17    charge:    4.2761    magn:    0.0396    constr:    0.0000
     atom:   18    charge:    4.2760    magn:    0.0396    constr:    0.0000
     atom:   19    charge:    4.2761    magn:    0.0396    constr:    0.0000
     atom:   20    charge:    4.2761    magn:    0.0396    constr:    0.0000
     atom:   21    charge:    4.2716    magn:    0.0717    constr:    0.0000
     atom:   22    charge:    4.2716    magn:    0.0717    constr:    0.0000
     atom:   23    charge:    4.2713    magn:    0.0717    constr:    0.0000
     atom:   24    charge:    4.2713    magn:    0.0717    constr:    0.0000
     atom:   25    charge:    4.2716    magn:    0.0717    constr:    0.0000
     atom:   26    charge:    4.2716    magn:    0.0717    constr:    0.0000
     atom:   27    charge:    4.2713    magn:    0.0717    constr:    0.0000
     atom:   28    charge:    4.2714    magn:    0.0717    constr:    0.0000

     total cpu time spent up to now is    10177.0 secs

     End of self-consistent calculation

 ------ SPIN UP ------------


          k = 0.0000 0.0000 0.0000 ( 38367 PWs)   bands (ev):

   -81.7204 -81.7203 -81.7199 -81.7198 -48.6883 -48.6883 -48.6876 -48.6875
   -47.4905 -47.4904 -47.4900 -47.4899 -47.1315 -47.1314 -47.1309 -47.1307
   -43.6358 -43.6357 -43.6286 -43.6286 -15.7834 -15.7786 -15.6724 -15.6675
   -15.6351 -15.6336 -15.6074 -15.6061 -15.5717 -15.5716 -15.5447 -15.5446
   -14.8389 -14.6656 -14.5439 -14.4159 -12.3812 -12.3664 -12.3166 -12.3159
   -12.3095 -12.2688 -12.1379 -12.1141 -12.1010 -12.0601 -12.0401 -12.0205
    -2.5883  -2.2477  -2.0353  -2.0193  -0.7373  -0.4675  -0.2954  -0.1678
    -0.0749   0.1039   0.3044   0.3410   0.3978   0.4263   0.4427   0.7199
     1.5979   1.7478   2.0085   2.1226   2.2779   2.4138   2.4347   2.4653
     2.4717   2.6223   2.6515   2.8520   2.9355   2.9637   3.0068   3.1659
     3.1821   3.2408   3.2658   3.3807   3.4283   3.4504   3.6615   3.7252
     3.7482   3.8596   4.0378   4.2048   4.3027   4.3168   4.5639   4.6298
     4.8335   4.8712   5.0788   5.1252   5.2033   5.2341   5.2774   5.2792
     5.2994   5.4973   5.7326   5.8666   5.9359   5.9928   6.0231   6.2773
     6.3062   6.3483   6.4377   6.5027   9.4488  11.4304  11.7294  12.3463
    12.7001  13.1293  13.3638  13.7718  14.2258  14.2484  14.2917  14.4614
    14.4739  14.5557

     occupation numbers 
     1.0000   1.0000   1.0000   1.0000   1.0000   1.0000   1.0000   1.0000
     1.0000   1.0000   1.0000   1.0000   1.0000   1.0000   1.0000   1.0000
     1.0000   1.0000   1.0000   1.0000   1.0000   1.0000   1.0000   1.0000
     1.0000   1.0000   1.0000   1.0000   1.0000   1.0000   1.0000   1.0000
     1.0000   1.0000   1.0000   1.0000   1.0000   1.0000   1.0000   1.0000
     1.0000   1.0000   1.0000   1.0000   1.0000   1.0000   1.0000   1.0000
     1.0000   1.0000   1.0000   1.0000   1.0000   1.0000   1.0000   1.0000
     1.0000   1.0000   1.0000   1.0000   1.0000   1.0000   1.0000   1.0000
     1.0000   1.0000   1.0000   1.0000   1.0000   1.0000   1.0000   1.0000
     1.0000   1.0000   1.0000   1.0000   1.0000   1.0000   1.0000   1.0000
     1.0000   1.0000   1.0000   1.0000   1.0000   1.0000   1.0000   1.0000
     1.0000   1.0000   1.0000   1.0000   1.0000   1.0000   1.0000   1.0000
     1.0000   1.0000   1.0000   1.0000   1.0000   1.0000   1.0000   1.0000
     1.0000   1.0000   1.0000   1.0000   1.0000   1.0000   1.0000   1.0000
     1.0000   1.0000   1.0000   1.0000   0.0000   0.0000   0.0000   0.0000
     0.0000   0.0000   0.0000   0.0000   0.0000   0.0000   0.0000   0.0000
     0.0000   0.0000

          k = 0.0000 0.0000 0.2350 ( 38365 PWs)   bands (ev):

   -81.7204 -81.7203 -81.7199 -81.7198 -48.6883 -48.6882 -48.6876 -48.6875
   -47.4905 -47.4904 -47.4900 -47.4899 -47.1315 -47.1314 -47.1309 -47.1308
   -43.6358 -43.6357 -43.6286 -43.6286 -15.7786 -15.7744 -15.6749 -15.6705
   -15.6351 -15.6337 -15.6139 -15.6112 -15.5717 -15.5716 -15.5449 -15.5448
   -14.8126 -14.6492 -14.5458 -14.4256 -12.3929 -12.3730 -12.3432 -12.3095
   -12.3031 -12.2646 -12.1416 -12.1250 -12.1071 -12.0503 -12.0497 -12.0151
    -2.5722  -2.2485  -2.0531  -2.0145  -0.6745  -0.4382  -0.2425  -0.1159
    -0.0719   0.1183   0.3047   0.3599   0.4061   0.4142   0.4157   0.7008
     1.5970   1.7403   2.0164   2.0754   2.2798   2.3304   2.4115   2.4292
     2.4442   2.6123   2.6769   2.8027   2.9023   2.9176   3.0676   3.0839
     3.1396   3.2666   3.3483   3.4280   3.4291   3.5088   3.6462   3.6705
     3.7428   3.9031   4.0529   4.2303   4.3113   4.3268   4.5547   4.6225
     4.8185   4.8765   5.0204   5.1257   5.2166   5.2257   5.2373   5.2385
     5.3367   5.5176   5.7684   5.9093   5.9426   6.0053   6.0357   6.2516
     6.2815   6.3267   6.4471   6.4965   9.6010  11.4831  11.8071  12.3368
    12.7363  12.9893  13.5653  13.5751  14.0079  14.2156  14.2549  14.2908
    14.4753  14.5857

     occupation numbers 
     1.0000   1.0000   1.0000   1.0000   1.0000   1.0000   1.0000   1.0000
     1.0000   1.0000   1.0000   1.0000   1.0000   1.0000   1.0000   1.0000
     1.0000   1.0000   1.0000   1.0000   1.0000   1.0000   1.0000   1.0000
     1.0000   1.0000   1.0000   1.0000   1.0000   1.0000   1.0000   1.0000
     1.0000   1.0000   1.0000   1.0000   1.0000   1.0000   1.0000   1.0000
     1.0000   1.0000   1.0000   1.0000   1.0000   1.0000   1.0000   1.0000
     1.0000   1.0000   1.0000   1.0000   1.0000   1.0000   1.0000   1.0000
     1.0000   1.0000   1.0000   1.0000   1.0000   1.0000   1.0000   1.0000
     1.0000   1.0000   1.0000   1.0000   1.0000   1.0000   1.0000   1.0000
     1.0000   1.0000   1.0000   1.0000   1.0000   1.0000   1.0000   1.0000
     1.0000   1.0000   1.0000   1.0000   1.0000   1.0000   1.0000   1.0000
     1.0000   1.0000   1.0000   1.0000   1.0000   1.0000   1.0000   1.0000
     1.0000   1.0000   1.0000   1.0000   1.0000   1.0000   1.0000   1.0000
     1.0000   1.0000   1.0000   1.0000   1.0000   1.0000   1.0000   1.0000
     1.0000   1.0000   1.0000   1.0000   0.0000   0.0000   0.0000   0.0000
     0.0000   0.0000   0.0000   0.0000   0.0000   0.0000   0.0000   0.0000
     0.0000   0.0000

          k = 0.0000 0.0000 0.4701 ( 38364 PWs)   bands (ev):

   -81.7204 -81.7203 -81.7199 -81.7198 -48.6883 -48.6882 -48.6877 -48.6876
   -47.4905 -47.4904 -47.4900 -47.4899 -47.1314 -47.1313 -47.1309 -47.1308
   -43.6358 -43.6357 -43.6286 -43.6286 -15.7672 -15.7641 -15.6842 -15.6808
   -15.6351 -15.6340 -15.6239 -15.6194 -15.5717 -15.5716 -15.5452 -15.5451
   -14.7451 -14.6097 -14.5500 -14.4522 -12.4249 -12.3865 -12.3822 -12.3272
   -12.2845 -12.2526 -12.1523 -12.1427 -12.1246 -12.0721 -12.0292 -12.0055
    -2.5242  -2.2448  -2.0919  -2.0285  -0.4928  -0.3515  -0.1201  -0.0583
     0.0146   0.1539   0.3113   0.3413   0.3783   0.4283   0.4525   0.6449
     1.5887   1.7244   1.9581   2.0408   2.1948   2.2780   2.3088   2.3164
     2.4152   2.5040   2.7169   2.7804   2.8100   2.8791   2.8925   3.0770
     3.1103   3.2262   3.4101   3.4681   3.5819   3.6164   3.6323   3.6490
     3.7666   3.9747   4.0316   4.2964   4.2971   4.3872   4.5588   4.6015
     4.7973   4.8818   4.9340   5.1008   5.1127   5.1203   5.2075   5.2746
     5.4589   5.5908   5.8274   5.9629   5.9903   6.0253   6.0737   6.2089
     6.2093   6.2626   6.4593   6.4812  10.0036  11.6299  11.9663  12.3566
    12.8426  12.8708  13.1807  13.7359  13.8219  13.8789  14.0583  14.1809
    14.4585  14.5360

     occupation numbers 
     1.0000   1.0000   1.0000   1.0000   1.0000   1.0000   1.0000   1.0000
     1.0000   1.0000   1.0000   1.0000   1.0000   1.0000   1.0000   1.0000
     1.0000   1.0000   1.0000   1.0000   1.0000   1.0000   1.0000   1.0000
     1.0000   1.0000   1.0000   1.0000   1.0000   1.0000   1.0000   1.0000
     1.0000   1.0000   1.0000   1.0000   1.0000   1.0000   1.0000   1.0000
     1.0000   1.0000   1.0000   1.0000   1.0000   1.0000   1.0000   1.0000
     1.0000   1.0000   1.0000   1.0000   1.0000   1.0000   1.0000   1.0000
     1.0000   1.0000   1.0000   1.0000   1.0000   1.0000   1.0000   1.0000
     1.0000   1.0000   1.0000   1.0000   1.0000   1.0000   1.0000   1.0000
     1.0000   1.0000   1.0000   1.0000   1.0000   1.0000   1.0000   1.0000
     1.0000   1.0000   1.0000   1.0000   1.0000   1.0000   1.0000   1.0000
     1.0000   1.0000   1.0000   1.0000   1.0000   1.0000   1.0000   1.0000
     1.0000   1.0000   1.0000   1.0000   1.0000   1.0000   1.0000   1.0000
     1.0000   1.0000   1.0000   1.0000   1.0000   1.0000   1.0000   1.0000
     1.0000   1.0000   1.0000   1.0000   0.0000   0.0000   0.0000   0.0000
     0.0000   0.0000   0.0000   0.0000   0.0000   0.0000   0.0000   0.0000
     0.0000   0.0000

          k = 0.0000 0.0000 0.7051 ( 38392 PWs)   bands (ev):

   -81.7204 -81.7203 -81.7199 -81.7198 -48.6882 -48.6881 -48.6877 -48.6876
   -47.4905 -47.4904 -47.4900 -47.4899 -47.1314 -47.1313 -47.1309 -47.1308
   -43.6358 -43.6357 -43.6286 -43.6286 -15.7564 -15.7543 -15.6976 -15.6953
   -15.6351 -15.6343 -15.6262 -15.6225 -15.5718 -15.5717 -15.5455 -15.5454
   -14.6616 -14.5700 -14.5522 -14.4895 -12.4601 -12.4247 -12.3993 -12.3625
   -12.2564 -12.2343 -12.1692 -12.1516 -12.1486 -12.0979 -12.0097 -11.9968
    -2.4469  -2.2263  -2.1544  -2.0735  -0.2368  -0.2185  -0.0250  -0.0238
     0.1371   0.2040   0.2382   0.3359   0.3501   0.5579   0.5606   0.5688
     1.5607   1.7211   1.8008   2.0278   2.0852   2.1764   2.2387   2.2623
     2.3359   2.3727   2.4807   2.6784   2.8088   2.8999   2.9186   3.0096
     3.1397   3.1549   3.3459   3.3803   3.6809   3.7050   3.7426   3.7978
     3.8134   4.0409   4.0510   4.2638   4.2660   4.4180   4.6004   4.6587
     4.7976   4.8593   4.8864   4.9888   5.0012   5.0765   5.2088   5.2823
     5.6095   5.7172   5.8732   5.9885   6.0165   6.0474   6.0932   6.1325
     6.1587   6.2010   6.4627   6.4657  10.5460  11.8534  11.9426  12.5228
    12.8278  12.8349  13.0381  13.4477  13.4795  13.8889  13.9542  14.1160
    14.1179  14.4171

     occupation numbers 
     1.0000   1.0000   1.0000   1.0000   1.0000   1.0000   1.0000   1.0000
     1.0000   1.0000   1.0000   1.0000   1.0000   1.0000   1.0000   1.0000
     1.0000   1.0000   1.0000   1.0000   1.0000   1.0000   1.0000   1.0000
     1.0000   1.0000   1.0000   1.0000   1.0000   1.0000   1.0000   1.0000
     1.0000   1.0000   1.0000   1.0000   1.0000   1.0000   1.0000   1.0000
     1.0000   1.0000   1.0000   1.0000   1.0000   1.0000   1.0000   1.0000
     1.0000   1.0000   1.0000   1.0000   1.0000   1.0000   1.0000   1.0000
     1.0000   1.0000   1.0000   1.0000   1.0000   1.0000   1.0000   1.0000
     1.0000   1.0000   1.0000   1.0000   1.0000   1.0000   1.0000   1.0000
     1.0000   1.0000   1.0000   1.0000   1.0000   1.0000   1.0000   1.0000
     1.0000   1.0000   1.0000   1.0000   1.0000   1.0000   1.0000   1.0000
     1.0000   1.0000   1.0000   1.0000   1.0000   1.0000   1.0000   1.0000
     1.0000   1.0000   1.0000   1.0000   1.0000   1.0000   1.0000   1.0000
     1.0000   1.0000   1.0000   1.0000   1.0000   1.0000   1.0000   1.0000
     1.0000   1.0000   1.0000   1.0000   0.0000   0.0000   0.0000   0.0000
     0.0000   0.0000   0.0000   0.0000   0.0000   0.0000   0.0000   0.0000
     0.0000   0.0000

          k = 0.0000 0.0000 0.9402 ( 38384 PWs)   bands (ev):

   -81.7204 -81.7203 -81.7199 -81.7198 -48.6882 -48.6881 -48.6878 -48.6877
   -47.4905 -47.4904 -47.4900 -47.4899 -47.1314 -47.1313 -47.1309 -47.1308
   -43.6358 -43.6357 -43.6286 -43.6286 -15.7516 -15.7507 -15.7049 -15.7042
   -15.6349 -15.6347 -15.6239 -15.6225 -15.5718 -15.5718 -15.5457 -15.5456
   -14.5874 -14.5506 -14.5497 -14.5323 -12.4760 -12.4613 -12.4037 -12.3923
   -12.2225 -12.2119 -12.1911 -12.1843 -12.1400 -12.1218 -11.9971 -11.9931
    -2.3481  -2.2436  -2.1882  -2.1338  -0.0982  -0.0204   0.0033   0.0393
     0.1232   0.1306   0.2895   0.3604   0.3882   0.4676   0.6947   0.7006
     1.5423   1.6290   1.7518   1.8570   2.0829   2.1319   2.1542   2.2212
     2.2357   2.2531   2.4580   2.5450   2.8609   2.8971   2.9561   2.9672
     3.1627   3.1865   3.2509   3.2683   3.7339   3.7631   3.7744   3.8200
     3.9834   4.1222   4.1418   4.1877   4.2070   4.3352   4.6667   4.7327
     4.8313   4.8607   4.8967   4.8986   4.9317   4.9811   5.2350   5.2646
     5.7769   5.8695   5.9141   5.9441   5.9592   6.0230   6.0359   6.0577
     6.1868   6.2082   6.4584   6.4597  11.1232  11.6328  12.1333  12.4089
    12.8609  12.9025  13.0853  13.2335  13.3950  13.7039  13.9570  13.9865
    14.0293  14.1439

     occupation numbers 
     1.0000   1.0000   1.0000   1.0000   1.0000   1.0000   1.0000   1.0000
     1.0000   1.0000   1.0000   1.0000   1.0000   1.0000   1.0000   1.0000
     1.0000   1.0000   1.0000   1.0000   1.0000   1.0000   1.0000   1.0000
     1.0000   1.0000   1.0000   1.0000   1.0000   1.0000   1.0000   1.0000
     1.0000   1.0000   1.0000   1.0000   1.0000   1.0000   1.0000   1.0000
     1.0000   1.0000   1.0000   1.0000   1.0000   1.0000   1.0000   1.0000
     1.0000   1.0000   1.0000   1.0000   1.0000   1.0000   1.0000   1.0000
     1.0000   1.0000   1.0000   1.0000   1.0000   1.0000   1.0000   1.0000
     1.0000   1.0000   1.0000   1.0000   1.0000   1.0000   1.0000   1.0000
     1.0000   1.0000   1.0000   1.0000   1.0000   1.0000   1.0000   1.0000
     1.0000   1.0000   1.0000   1.0000   1.0000   1.0000   1.0000   1.0000
     1.0000   1.0000   1.0000   1.0000   1.0000   1.0000   1.0000   1.0000
     1.0000   1.0000   1.0000   1.0000   1.0000   1.0000   1.0000   1.0000
     1.0000   1.0000   1.0000   1.0000   1.0000   1.0000   1.0000   1.0000
     1.0000   1.0000   1.0000   1.0000   0.0000   0.0000   0.0000   0.0000
     0.0000   0.0000   0.0000   0.0000   0.0000   0.0000   0.0000   0.0000
     0.0000   0.0000

          k = 0.0000 0.2430 0.0000 ( 38377 PWs)   bands (ev):

   -81.7204 -81.7203 -81.7199 -81.7198 -48.6883 -48.6882 -48.6876 -48.6875
   -47.4905 -47.4904 -47.4900 -47.4899 -47.1315 -47.1314 -47.1309 -47.1308
   -43.6355 -43.6354 -43.6290 -43.6289 -15.7741 -15.7699 -15.6705 -15.6658
   -15.6370 -15.6354 -15.6044 -15.6032 -15.5843 -15.5836 -15.5480 -15.5479
   -14.8155 -14.6551 -14.5458 -14.4352 -12.3754 -12.3664 -12.3226 -12.3171
   -12.3001 -12.2847 -12.1921 -12.1157 -12.0646 -12.0576 -12.0290 -12.0213
    -2.5543  -2.2225  -2.0401  -2.0266  -0.6961  -0.4447  -0.2803  -0.1780
    -0.0348   0.1078   0.2637   0.3276   0.4290   0.4323   0.4665   0.6972
     1.6067   1.7521   2.0247   2.0490   2.1760   2.3518   2.3640   2.4579
     2.5279   2.6216   2.7229   2.8421   2.8784   2.8837   3.0249   3.2075
     3.2201   3.2277   3.3250   3.3378   3.4933   3.5146   3.6056   3.7305
     3.7625   3.8724   4.0154   4.1755   4.2754   4.3015   4.5564   4.6290
     4.7979   4.9105   4.9109   5.0232   5.1321   5.2338   5.2754   5.3919
     5.4012   5.4698   5.8528   5.8954   5.9374   5.9796   6.0224   6.1335
     6.1380   6.4506   6.5335   6.5339   9.6203  11.5243  11.8268  12.2976
    12.7724  13.2059  13.3105  13.7038  14.2239  14.3081  14.3382  14.3404
    14.5259  14.6428

     occupation numbers 
     1.0000   1.0000   1.0000   1.0000   1.0000   1.0000   1.0000   1.0000
     1.0000   1.0000   1.0000   1.0000   1.0000   1.0000   1.0000   1.0000
     1.0000   1.0000   1.0000   1.0000   1.0000   1.0000   1.0000   1.0000
     1.0000   1.0000   1.0000   1.0000   1.0000   1.0000   1.0000   1.0000
     1.0000   1.0000   1.0000   1.0000   1.0000   1.0000   1.0000   1.0000
     1.0000   1.0000   1.0000   1.0000   1.0000   1.0000   1.0000   1.0000
     1.0000   1.0000   1.0000   1.0000   1.0000   1.0000   1.0000   1.0000
     1.0000   1.0000   1.0000   1.0000   1.0000   1.0000   1.0000   1.0000
     1.0000   1.0000   1.0000   1.0000   1.0000   1.0000   1.0000   1.0000
     1.0000   1.0000   1.0000   1.0000   1.0000   1.0000   1.0000   1.0000
     1.0000   1.0000   1.0000   1.0000   1.0000   1.0000   1.0000   1.0000
     1.0000   1.0000   1.0000   1.0000   1.0000   1.0000   1.0000   1.0000
     1.0000   1.0000   1.0000   1.0000   1.0000   1.0000   1.0000   1.0000
     1.0000   1.0000   1.0000   1.0000   1.0000   1.0000   1.0000   1.0000
     1.0000   1.0000   1.0000   1.0000   0.0000   0.0000   0.0000   0.0000
     0.0000   0.0000   0.0000   0.0000   0.0000   0.0000   0.0000   0.0000
     0.0000   0.0000

          k = 0.0000 0.2430 0.2350 ( 38356 PWs)   bands (ev):

   -81.7204 -81.7203 -81.7199 -81.7198 -48.6883 -48.6882 -48.6876 -48.6875
   -47.4905 -47.4904 -47.4900 -47.4899 -47.1314 -47.1313 -47.1309 -47.1308
   -43.6355 -43.6354 -43.6290 -43.6289 -15.7696 -15.7658 -15.6728 -15.6686
   -15.6371 -15.6356 -15.6113 -15.6086 -15.5827 -15.5824 -15.5483 -15.5482
   -14.7913 -14.6400 -14.5472 -14.4431 -12.3872 -12.3763 -12.3478 -12.3117
   -12.2918 -12.2791 -12.1972 -12.1204 -12.0750 -12.0474 -12.0441 -12.0116
    -2.5385  -2.2233  -2.0537  -2.0232  -0.6351  -0.4166  -0.2286  -0.1274
    -0.0320   0.1207   0.2723   0.3453   0.4144   0.4356   0.4444   0.6788
     1.6035   1.7386   2.0013   2.0589   2.1282   2.3174   2.3368   2.4136
     2.4828   2.6710   2.7175   2.7953   2.8236   2.8873   3.0869   3.1142
     3.1988   3.2331   3.3455   3.3998   3.5071   3.5556   3.5821   3.7022
     3.7623   3.9107   4.0228   4.1871   4.2964   4.3074   4.5490   4.6202
     4.7882   4.8716   4.9106   5.0452   5.1381   5.2505   5.2676   5.3390
     5.3804   5.4819   5.8876   5.9346   5.9444   5.9944   6.0353   6.1006
     6.1259   6.4292   6.5293   6.5377   9.7661  11.5778  11.9091  12.3162
    12.7886  13.0394  13.5124  13.5398  14.0880  14.1806  14.2230  14.3869
    14.5041  14.6231

     occupation numbers 
     1.0000   1.0000   1.0000   1.0000   1.0000   1.0000   1.0000   1.0000
     1.0000   1.0000   1.0000   1.0000   1.0000   1.0000   1.0000   1.0000
     1.0000   1.0000   1.0000   1.0000   1.0000   1.0000   1.0000   1.0000
     1.0000   1.0000   1.0000   1.0000   1.0000   1.0000   1.0000   1.0000
     1.0000   1.0000   1.0000   1.0000   1.0000   1.0000   1.0000   1.0000
     1.0000   1.0000   1.0000   1.0000   1.0000   1.0000   1.0000   1.0000
     1.0000   1.0000   1.0000   1.0000   1.0000   1.0000   1.0000   1.0000
     1.0000   1.0000   1.0000   1.0000   1.0000   1.0000   1.0000   1.0000
     1.0000   1.0000   1.0000   1.0000   1.0000   1.0000   1.0000   1.0000
     1.0000   1.0000   1.0000   1.0000   1.0000   1.0000   1.0000   1.0000
     1.0000   1.0000   1.0000   1.0000   1.0000   1.0000   1.0000   1.0000
     1.0000   1.0000   1.0000   1.0000   1.0000   1.0000   1.0000   1.0000
     1.0000   1.0000   1.0000   1.0000   1.0000   1.0000   1.0000   1.0000
     1.0000   1.0000   1.0000   1.0000   1.0000   1.0000   1.0000   1.0000
     1.0000   1.0000   1.0000   1.0000   0.0000   0.0000   0.0000   0.0000
     0.0000   0.0000   0.0000   0.0000   0.0000   0.0000   0.0000   0.0000
     0.0000   0.0000

          k = 0.0000 0.2430 0.4701 ( 38383 PWs)   bands (ev):

   -81.7204 -81.7203 -81.7199 -81.7198 -48.6882 -48.6882 -48.6877 -48.6876
   -47.4905 -47.4904 -47.4900 -47.4899 -47.1314 -47.1313 -47.1309 -47.1308
   -43.6355 -43.6354 -43.6290 -43.6289 -15.7586 -15.7558 -15.6814 -15.6781
   -15.6374 -15.6363 -15.6210 -15.6169 -15.5813 -15.5812 -15.5491 -15.5490
   -14.7288 -14.6036 -14.5498 -14.4649 -12.4202 -12.3939 -12.3863 -12.3312
   -12.2724 -12.2637 -12.2037 -12.1349 -12.0923 -12.0681 -12.0306 -12.0022
    -2.4918  -2.2204  -2.0841  -2.0367  -0.4587  -0.3343  -0.1092  -0.0392
     0.0219   0.1504   0.2903   0.3615   0.3877   0.4332   0.4617   0.6269
     1.5847   1.7150   1.9162   2.0335   2.0789   2.2375   2.2560   2.3263
     2.4413   2.6056   2.7097   2.7171   2.8163   2.8571   2.9483   3.0727
     3.1862   3.1910   3.3741   3.4559   3.5742   3.6199   3.6548   3.6808
     3.7933   3.9786   3.9915   4.2093   4.3446   4.3460   4.5325   4.6047
     4.7704   4.8034   4.9104   5.0534   5.1534   5.2136   5.2450   5.2800
     5.4126   5.5226   5.9381   5.9640   6.0079   6.0226   6.0366   6.0694
     6.0843   6.3797   6.5191   6.5412  10.1550  11.7260  12.0884  12.3873
    12.8616  12.9271  13.1408  13.7804  13.8418  13.9002  14.0779  14.1881
    14.4288  14.5202

     occupation numbers 
     1.0000   1.0000   1.0000   1.0000   1.0000   1.0000   1.0000   1.0000
     1.0000   1.0000   1.0000   1.0000   1.0000   1.0000   1.0000   1.0000
     1.0000   1.0000   1.0000   1.0000   1.0000   1.0000   1.0000   1.0000
     1.0000   1.0000   1.0000   1.0000   1.0000   1.0000   1.0000   1.0000
     1.0000   1.0000   1.0000   1.0000   1.0000   1.0000   1.0000   1.0000
     1.0000   1.0000   1.0000   1.0000   1.0000   1.0000   1.0000   1.0000
     1.0000   1.0000   1.0000   1.0000   1.0000   1.0000   1.0000   1.0000
     1.0000   1.0000   1.0000   1.0000   1.0000   1.0000   1.0000   1.0000
     1.0000   1.0000   1.0000   1.0000   1.0000   1.0000   1.0000   1.0000
     1.0000   1.0000   1.0000   1.0000   1.0000   1.0000   1.0000   1.0000
     1.0000   1.0000   1.0000   1.0000   1.0000   1.0000   1.0000   1.0000
     1.0000   1.0000   1.0000   1.0000   1.0000   1.0000   1.0000   1.0000
     1.0000   1.0000   1.0000   1.0000   1.0000   1.0000   1.0000   1.0000
     1.0000   1.0000   1.0000   1.0000   1.0000   1.0000   1.0000   1.0000
     1.0000   1.0000   1.0000   1.0000   0.0000   0.0000   0.0000   0.0000
     0.0000   0.0000   0.0000   0.0000   0.0000   0.0000   0.0000   0.0000
     0.0000   0.0000

          k = 0.0000 0.2430 0.7051 ( 38394 PWs)   bands (ev):

   -81.7204 -81.7203 -81.7199 -81.7198 -48.6882 -48.6881 -48.6877 -48.6876
   -47.4905 -47.4904 -47.4900 -47.4899 -47.1314 -47.1313 -47.1309 -47.1308
[...]
     atom    5 type  1   force =    -0.06216610    0.00000678    0.05931614
     atom    6 type  1   force =     0.06214440   -0.00001073    0.05936535
     atom    7 type  1   force =     0.06216610   -0.00000678   -0.05931614
     atom    8 type  1   force =    -0.06214440    0.00001073   -0.05936535
     atom    9 type  4   force =     0.00311714   -0.00000925   -0.04597062
     atom   10 type  4   force =    -0.00309926    0.00000736   -0.04590233
     atom   11 type  4   force =    -0.00311714    0.00000925    0.04597062
     atom   12 type  4   force =     0.00309926   -0.00000736    0.04590233
     atom   13 type  3   force =     0.15904541    0.00001754   -1.50389342
     atom   14 type  3   force =    -0.15907903   -0.00001454   -1.50384953
     atom   15 type  3   force =    -0.15904541   -0.00001754    1.50389342
     atom   16 type  3   force =     0.15907903    0.00001454    1.50384953
     atom   17 type  3   force =     1.27849281    0.00001225   -0.62944882
     atom   18 type  3   force =    -1.27848066   -0.00005710   -0.62949008
     atom   19 type  3   force =    -1.27849281   -0.00001225    0.62944882
     atom   20 type  3   force =     1.27848066    0.00005710    0.62949008
     atom   21 type  3   force =    -0.73335571   -0.97096314    0.69532391
     atom   22 type  3   force =     0.73333766    0.97100944    0.69529930
     atom   23 type  3   force =     0.73331014   -0.97093457   -0.69528291
     atom   24 type  3   force =    -0.73330617    0.97098733   -0.69525841
     atom   25 type  3   force =     0.73335571    0.97096314   -0.69532391
     atom   26 type  3   force =    -0.73333766   -0.97100944   -0.69529930
     atom   27 type  3   force =    -0.73331014    0.97093457    0.69528291
     atom   28 type  3   force =     0.73330617   -0.97098733    0.69525841
     The ionic contribution  to forces
     atom    1 type  2   force =     0.00009880   -0.00005997   -0.00004171
     atom    2 type  2   force =     0.00004302   -0.00004338   -0.00004817
     atom    3 type  2   force =    -0.00012966   -0.00014185   -0.00013739
     atom    4 type  2   force =    -0.00003969   -0.00001099   -0.00000123
     atom    5 type  1   force =     2.65660363    0.00086549   -0.57070744
     atom    6 type  1   force =    -2.65736569   -0.00080768   -0.57076902
     atom    7 type  1   force =    -2.65658552   -0.00070231    0.57061313
     atom    8 type  1   force =     2.65732549    0.00084562    0.57083031
     atom    9 type  4   force =    -1.01780737    0.00024573    1.25436272
     atom   10 type  4   force =     1.01786886   -0.00015174    1.25476287
     atom   11 type  4   force =     1.01780779   -0.00021038   -1.25401587
     atom   12 type  4   force =    -1.01786322    0.00023962   -1.25472652
     atom   13 type  3   force =    -3.68395235    0.00030745    1.78771624
     atom   14 type  3   force =     3.68392766   -0.00025200    1.78729416
     atom   15 type  3   force =     3.68388473   -0.00017302   -1.78807116
     atom   16 type  3   force =    -3.68393324    0.00030397   -1.78729596
     atom   17 type  3   force =    -1.38337717    0.00018652    2.58114947
     atom   18 type  3   force =     1.38337623   -0.00010533    2.58126701
     atom   19 type  3   force =     1.38341010   -0.00018064   -2.58112825
     atom   20 type  3   force =    -1.38342559    0.00016912   -2.58116510
     atom   21 type  3   force =     0.53777725    1.39592158   -1.68010279
     atom   22 type  3   force =    -0.53801586   -1.39624945   -1.67999513
     atom   23 type  3   force =    -0.53740003    1.39560681    1.67977000
     atom   24 type  3   force =     0.53768969   -1.39612724    1.67954652
     atom   25 type  3   force =    -0.53772621   -1.39582598    1.68013788
     atom   26 type  3   force =     0.53792865    1.39610594    1.68000500
     atom   27 type  3   force =     0.53753681   -1.39579406   -1.67963758
     atom   28 type  3   force =    -0.53765712    1.39603818   -1.67961198
     The local contribution  to forces
     atom    1 type  2   force =    -0.00500634   -0.00216018   -0.00231569
     atom    2 type  2   force =    -0.00493902   -0.00016376   -0.00153711
     atom    3 type  2   force =    -0.00650087   -0.00162584   -0.00224131
     atom    4 type  2   force =    -0.00658427    0.00022787   -0.00154050
     atom    5 type  1   force =    -2.60939690   -0.00078541    0.51086713
     atom    6 type  1   force =     2.58338884    0.00083178    0.51076106
     atom    7 type  1   force =     2.58265817    0.00078542   -0.51805503
     atom    8 type  1   force =    -2.61022926   -0.00083177   -0.51832544
     atom    9 type  4   force =     0.99760119   -0.00022697   -1.21903997
     atom   10 type  4   force =    -0.99764306    0.00018709   -1.21947945
     atom   11 type  4   force =    -0.99760868    0.00022699    1.21899398
     atom   12 type  4   force =     0.99764802   -0.00018709    1.21959245
     atom   13 type  3   force =     3.52595293   -0.00051722   -0.29752225
     atom   14 type  3   force =    -3.53167460    0.00003219   -0.29694252
     atom   15 type  3   force =    -3.53160805   -0.00000250    0.29563233
     atom   16 type  3   force =     3.52583553   -0.00055190    0.29522848
     atom   17 type  3   force =     0.14236465   -0.00019542   -1.96711146
     atom   18 type  3   force =    -0.14745110    0.00018837   -1.96786018
     atom   19 type  3   force =    -0.14734768    0.00019544    1.96619650
     atom   20 type  3   force =     0.14230419   -0.00018835    1.96552641
     atom   21 type  3   force =     0.17941514   -0.43661329    0.99156940
     atom   22 type  3   force =    -0.18577247    0.43695602    0.99163199
     atom   23 type  3   force =    -0.18587266   -0.43710556   -0.99297826
     atom   24 type  3   force =     0.17949412    0.43667101   -0.99266023
     atom   25 type  3   force =    -0.18561737    0.43702724   -0.99333763
     atom   26 type  3   force =     0.17880913   -0.43715572   -0.99306640
     atom   27 type  3   force =     0.17964501    0.43625697    0.99117545
     atom   28 type  3   force =    -0.18562891   -0.43729729    0.99127043
     The core correction contribution to forces
     atom    1 type  2   force =     0.00000000    0.00000000    0.00000000
     atom    2 type  2   force =     0.00000000    0.00000000    0.00000000
     atom    3 type  2   force =     0.00000000    0.00000000    0.00000000
     atom    4 type  2   force =     0.00000000    0.00000000    0.00000000
     atom    5 type  1   force =     0.00354947   -0.00000643   -0.00235588
     atom    6 type  1   force =    -0.00260166    0.00000647   -0.00237067
     atom    7 type  1   force =    -0.00259794    0.00000642    0.00263243
     atom    8 type  1   force =     0.00354541   -0.00000649    0.00261842
     atom    9 type  4   force =     0.00012944    0.00000061    0.00242038
     atom   10 type  4   force =    -0.00011301   -0.00000053    0.00241700
     atom   11 type  4   force =    -0.00011129   -0.00000061   -0.00242051
     atom   12 type  4   force =     0.00013119    0.00000053   -0.00241117
     atom   13 type  3   force =    -0.00203505   -0.00000026    0.01301491
     atom   14 type  3   force =     0.00203078   -0.00000004    0.01301690
     atom   15 type  3   force =     0.00203015   -0.00000001   -0.01301952
     atom   16 type  3   force =    -0.00203514   -0.00000024   -0.01301865
     atom   17 type  3   force =    -0.01114734   -0.00000011    0.00620815
     atom   18 type  3   force =     0.01113707    0.00000059    0.00620674
     atom   19 type  3   force =     0.01113762    0.00000011   -0.00620752
     atom   20 type  3   force =    -0.01114761   -0.00000059   -0.00620973
     atom   21 type  3   force =     0.00657425    0.00831549   -0.00640625
     atom   22 type  3   force =    -0.00657874   -0.00831827   -0.00640776
     atom   23 type  3   force =    -0.00657769    0.00831701    0.00640615
     atom   24 type  3   force =     0.00657310   -0.00831564    0.00640400
     atom   25 type  3   force =    -0.00657827   -0.00831740    0.00640659
     atom   26 type  3   force =     0.00657295    0.00831489    0.00640424
     atom   27 type  3   force =     0.00657385   -0.00831576   -0.00640588
     atom   28 type  3   force =    -0.00657789    0.00831738   -0.00640711
     The Hubbard contrib.    to forces
     atom    1 type  2   force =     0.00000000    0.00000000    0.00000000
     atom    2 type  2   force =     0.00000000    0.00000000    0.00000000
     atom    3 type  2   force =     0.00000000    0.00000000    0.00000000
     atom    4 type  2   force =     0.00000000    0.00000000    0.00000000
     atom    5 type  1   force =     0.00000000    0.00000000    0.00000000
     atom    6 type  1   force =     0.00000000    0.00000000    0.00000000
     atom    7 type  1   force =     0.00000000    0.00000000    0.00000000
     atom    8 type  1   force =     0.00000000    0.00000000    0.00000000
     atom    9 type  4   force =     0.00000000    0.00000000    0.00000000
     atom   10 type  4   force =     0.00000000    0.00000000    0.00000000
     atom   11 type  4   force =     0.00000000    0.00000000    0.00000000
     atom   12 type  4   force =     0.00000000    0.00000000    0.00000000
     atom   13 type  3   force =     0.00000000    0.00000000    0.00000000
     atom   14 type  3   force =     0.00000000    0.00000000    0.00000000
     atom   15 type  3   force =     0.00000000    0.00000000    0.00000000
     atom   16 type  3   force =     0.00000000    0.00000000    0.00000000
     atom   17 type  3   force =     0.00000000    0.00000000    0.00000000
     atom   18 type  3   force =     0.00000000    0.00000000    0.00000000
     atom   19 type  3   force =     0.00000000    0.00000000    0.00000000
     atom   20 type  3   force =     0.00000000    0.00000000    0.00000000
     atom   21 type  3   force =     0.00000000    0.00000000    0.00000000
     atom   22 type  3   force =     0.00000000    0.00000000    0.00000000
     atom   23 type  3   force =     0.00000000    0.00000000    0.00000000
     atom   24 type  3   force =     0.00000000    0.00000000    0.00000000
     atom   25 type  3   force =     0.00000000    0.00000000    0.00000000
     atom   26 type  3   force =     0.00000000    0.00000000    0.00000000
     atom   27 type  3   force =     0.00000000    0.00000000    0.00000000
     atom   28 type  3   force =     0.00000000    0.00000000    0.00000000
     The SCF correction term to forces
     atom    1 type  2   force =    -0.00000001   -0.00000000   -0.00000000
     atom    2 type  2   force =    -0.00000001   -0.00000000   -0.00000000
     atom    3 type  2   force =    -0.00000001   -0.00000000   -0.00000000
     atom    4 type  2   force =    -0.00000001    0.00000000   -0.00000000
     atom    5 type  1   force =    -0.00000372    0.00000014    0.00000013
     atom    6 type  1   force =    -0.00000212   -0.00000013    0.00000094
     atom    7 type  1   force =     0.00000367   -0.00000014   -0.00000015
     atom    8 type  1   force =     0.00000206    0.00000013   -0.00000095
     atom    9 type  4   force =    -0.00000145   -0.00000011    0.00000037
     atom   10 type  4   force =    -0.00000161   -0.00000011    0.00000024
     atom   11 type  4   force =     0.00000145    0.00000011   -0.00000037
     atom   12 type  4   force =     0.00000161    0.00000011   -0.00000024
     atom   13 type  3   force =    -0.00000268    0.00000009   -0.00000033
     atom   14 type  3   force =    -0.00000284   -0.00000018    0.00000230
     atom   15 type  3   force =     0.00000267   -0.00000009    0.00000033
     atom   16 type  3   force =     0.00000284    0.00000018   -0.00000230
     atom   17 type  3   force =     0.00000160    0.00000005    0.00000174
     atom   18 type  3   force =     0.00000366   -0.00000004   -0.00000034
     atom   19 type  3   force =    -0.00000160   -0.00000005   -0.00000174
     atom   20 type  3   force =    -0.00000366    0.00000004    0.00000034
     atom   21 type  3   force =    -0.00000045    0.00000366    0.00000196
     atom   22 type  3   force =    -0.00000253    0.00000232   -0.00000186
     atom   23 type  3   force =     0.00000071    0.00000452   -0.00000221
     atom   24 type  3   force =     0.00000213    0.00000186    0.00000124
     atom   25 type  3   force =     0.00000045   -0.00000366   -0.00000196
     atom   26 type  3   force =     0.00000252   -0.00000232    0.00000186
     atom   27 type  3   force =    -0.00000072   -0.00000452    0.00000220
     atom   28 type  3   force =    -0.00000213   -0.00000186   -0.00000124

     Total force =     0.074409     Total SCF correction =     0.000016


     Computing stress (Cartesian axis) and pressure


     negative rho (up, down):  0.000E+00 5.799E-04
          total   stress  (Ry/bohr**3)                   (kbar)     P=      -22.94
  -0.00029819  -0.00000002   0.00000004          -43.87       -0.00        0.01
  -0.00000002  -0.00009414  -0.00000001           -0.00      -13.85       -0.00
   0.00000004  -0.00000001  -0.00007548            0.01       -0.00      -11.10

     kinetic stress (kbar)  30542.75     -0.02     -0.00
                               -0.02  30428.28     -0.00
                               -0.00     -0.00  30505.07

     local   stress (kbar)  -3585.01     -0.07     -0.17
                               -0.07  -7118.48     -0.01
                               -0.17     -0.01  -2219.98

     nonloc. stress (kbar)  -9120.79     -0.01      0.00
                               -0.01  -9241.48     -0.00
                                0.00     -0.00  -9079.86

     hartree stress (kbar)  13821.12      0.01      0.06
                                0.01  15281.36      0.00
                                0.06      0.00  13040.03

     exc-cor stress (kbar)  -3456.69      0.00      0.00
                                0.00  -3461.71     -0.00
                                0.00     -0.00  -3454.50

     corecor stress (kbar)  -2965.34      0.00     -0.00
                                0.00  -2947.13      0.00
                               -0.00      0.00  -2969.77

     ewald   stress (kbar) -25279.90      0.08      0.13
                                0.08 -22954.68      0.01
                                0.13      0.01 -25832.10

     hubbard stress (kbar)      0.00      0.00      0.00
                                0.00      0.00      0.00
                                0.00      0.00      0.00

     DFT-D   stress (kbar)      0.00      0.00      0.00
                                0.00      0.00      0.00
                                0.00      0.00      0.00

     XDM     stress (kbar)      0.00      0.00      0.00
                                0.00      0.00      0.00
                                0.00      0.00      0.00

     dft-nl  stress (kbar)      0.00      0.00      0.00
                                0.00      0.00      0.00
                                0.00      0.00      0.00

     TS-vdW  stress (kbar)      0.00      0.00      0.00
                                0.00      0.00      0.00
                                0.00      0.00      0.00



     init_run     :    100.27s CPU    104.98s WALL (       1 calls)
     electrons    :   9682.66s CPU  10071.67s WALL (       1 calls)
     forces       :     50.34s CPU     51.20s WALL (       1 calls)
     stress       :    624.07s CPU    626.66s WALL (       1 calls)

     Called by init_run:
     wfcinit      :     89.11s CPU     93.45s WALL (       1 calls)
     wfcinit:atom :      2.03s CPU      2.05s WALL (     316 calls)
     wfcinit:wfcr :     79.59s CPU     83.83s WALL (     316 calls)
     potinit      :      4.01s CPU      4.10s WALL (       1 calls)
     hinit0       :      5.05s CPU      5.12s WALL (       1 calls)

     Called by electrons:
     c_bands      :   8379.64s CPU   8692.72s WALL (      40 calls)
     sum_band     :   1196.79s CPU   1267.32s WALL (      40 calls)
     v_of_rho     :     22.19s CPU     23.02s WALL (      41 calls)
     v_h          :      1.02s CPU      1.08s WALL (      41 calls)
     v_xc         :     22.22s CPU     23.01s WALL (      43 calls)
     newd         :     58.97s CPU     63.30s WALL (      41 calls)
     PAW_pot      :     20.30s CPU     20.40s WALL (      41 calls)
     mix_rho      :      4.77s CPU      4.98s WALL (      40 calls)

     Called by c_bands:
     init_us_2    :    180.93s CPU    183.95s WALL (   26228 calls)
     cegterg      :   8009.41s CPU   8318.66s WALL (   12640 calls)

     Called by sum_band:
     sum_band:wei :      0.37s CPU      0.38s WALL (      40 calls)
     sum_band:loo :   1082.18s CPU   1143.00s WALL (      40 calls)
     sum_band:buf :     47.68s CPU     48.18s WALL (   12640 calls)
     sum_band:ini :     89.25s CPU     90.68s WALL (   12640 calls)
     sum_band:cal :    294.48s CPU    301.36s WALL (   12640 calls)
     sum_band:bec :      2.32s CPU      2.40s WALL (   12640 calls)
     addusdens    :    111.67s CPU    121.07s WALL (      40 calls)
     addusd:skk   :      0.86s CPU      0.88s WALL (     120 calls)
     addusd:dgemm :     21.85s CPU     30.40s WALL (     240 calls)
     addusd:qvan2 :     87.84s CPU     88.48s WALL (     240 calls)

     Called by *egterg:
     cdiaghg      :    481.37s CPU    490.59s WALL (   45825 calls)
     cegterg:over :    683.80s CPU    695.26s WALL (   33185 calls)
     cegterg:upda :    484.45s CPU    488.99s WALL (   33185 calls)
     cegterg:last :    866.49s CPU    874.54s WALL (   21265 calls)
     h_psi        :   4202.64s CPU   4469.34s WALL (   46141 calls)
     s_psi        :    809.88s CPU    816.23s WALL (   46141 calls)
     g_psi        :     42.46s CPU     43.11s WALL (   33185 calls)

     Called by h_psi:
     h_psi:calbec :    730.91s CPU    747.44s WALL (   46141 calls)
     vloc_psi     :   2548.02s CPU   2788.67s WALL (   46141 calls)
     add_vuspsi   :    820.48s CPU    828.70s WALL (   46141 calls)

     General routines
     calbec       :   1068.06s CPU   1092.34s WALL (   60361 calls)
     fft          :     16.58s CPU     17.82s WALL (    1063 calls)
     ffts         :      0.18s CPU      0.22s WALL (     162 calls)
     fftw         :   2685.95s CPU   2939.16s WALL ( 9145942 calls)
     interpolate  :      1.71s CPU      1.82s WALL (      82 calls)

     Parallel routines
     fft_scatt_xy :    383.44s CPU    419.45s WALL ( 9147167 calls)
     fft_scatt_yz :    705.67s CPU    787.27s WALL ( 9147167 calls)

     PAW routines
     PAW_pot      :     20.30s CPU     20.40s WALL (      41 calls)
     PAW_symme    :      0.04s CPU      0.04s WALL (      81 calls)

     PWSCF        :      2h54m CPU      3h 0m WALL


   This run was terminated on:  10:26:40   5Mar2023            

=------------------------------------------------------------------------------=
   JOB DONE.
=------------------------------------------------------------------------------=
Note: The following floating-point exceptions are signalling: IEEE_UNDERFLOW_FLAG IEEE_DENORMAL
Note: The following floating-point exceptions are signalling: IEEE_DENORMAL
Note: The following floating-point exceptions are signalling: IEEE_DENORMAL
Note: The following floating-point exceptions are signalling: IEEE_DENORMAL
Note: The following floating-point exceptions are signalling: IEEE_DENORMAL
Note: The following floating-point exceptions are signalling: IEEE_INVALID_FLAG IEEE_DENORMAL
Note: The following floating-point exceptions are signalling: IEEE_DENORMAL
Note: The following floating-point exceptions are signalling: IEEE_DENORMAL
Note: The following floating-point exceptions are signalling: IEEE_DENORMAL
Note: The following floating-point exceptions are signalling: IEEE_DENORMAL
Note: The following floating-point exceptions are signalling: IEEE_DENORMAL
Note: The following floating-point exceptions are signalling: IEEE_DENORMAL
