ITEM: TIMESTEP
4000
ITEM: NUMBER OF ATOMS
8
ITEM: BOX BOUNDS xy xz yz pp pp pp
6.7106376170494197e-02 6.0662575291717422e+00 7.4171699172475358e-01
8.9762818501410546e-02 4.1558329304382715e+00 3.9780893361747766e-01
-2.7326113429285925e-02 4.2090691112143155e+00 1.1411716664546534e+00
ITEM: ATOMS id type x y z
5 2 2.29524 1.41063 0.589551
7 2 1.18281 1.78731 2.93254
3 1 2.21775 1.16715 2.07498
1 1 1.37054 2.39804 4.16063
8 2 4.79008 1.94512 0.770961
6 2 3.9246 3.15015 2.71971
2 1 4.94719 2.28805 2.09066
4 1 3.8934 2.99113 4.23085
