ITEM: TIMESTEP
1500
ITEM: NUMBER OF ATOMS
8
ITEM: BOX BOUNDS xy xz yz pp pp pp
-5.7436770670282744e-02 6.1778548298357929e+00 7.3520663707680645e-01
1.0259933593446013e-01 4.1245352876464718e+00 3.9137344208870944e-01
6.9406956802819941e-03 4.1748023021047374e+00 1.1227105410959157e+00
ITEM: ATOMS id type x y z
5 2 2.28185 1.41188 0.607947
7 2 1.16005 1.95768 2.85117
3 1 2.15665 1.10432 2.10271
1 1 1.34285 2.44568 4.246
8 2 4.82978 1.75643 0.775667
4 1 3.46992 1.70329 -0.0119042
6 2 3.91796 3.19531 2.67046
2 1 5.00911 2.34149 2.15224
