ITEM: TIMESTEP
3500
ITEM: NUMBER OF ATOMS
8
ITEM: BOX BOUNDS xy xz yz pp pp pp
5.5678133295842702e-02 6.1590664645807056e+00 8.3630396624623249e-01
-9.6735062649594417e-02 4.3044467080676956e+00 3.8460265163030127e-01
4.2992857837911291e-02 4.1387501399471205e+00 1.1032875629330681e+00
ITEM: ATOMS id type x y z
5 2 2.32993 1.3176 0.704704
7 2 1.30698 1.85129 2.80802
3 1 2.25764 1.077 2.07364
1 1 1.43334 2.37221 4.16309
8 2 4.77995 1.81264 0.784454
6 2 3.97516 3.23888 2.72925
2 1 4.93284 2.39314 2.10451
4 1 3.89459 2.82892 4.11706
