
     Program PWSCF v.6.7MaX starts on  5Feb2023 at 16:39:58 

     This program is part of the open-source Quantum ESPRESSO suite
     for quantum simulation of materials; please cite
         "P. Giannozzi et al., J. Phys.:Condens. Matter 21 395502 (2009);
         "P. Giannozzi et al., J. Phys.:Condens. Matter 29 465901 (2017);
          URL http://www.quantum-espresso.org", 
     in publications or presentations arising from this work. More details at
     http://www.quantum-espresso.org/quote

     Parallel version (MPI), running on    32 processors

     MPI processes distributed on     2 nodes
     R & G space division:  proc/nbgrp/npool/nimage =      32
     Reading input from scale_3d-05.in

     Current dimensions of program PWSCF are:
     Max number of different atomic species (ntypx) = 10
     Max number of k-points (npk) =  40000
     Max angular momentum in pseudopotentials (lmaxx) =  3
     Message from routine read_pp_mesh:
     mesh size missing, using the one in header
     file Fe.pbe-spn-kjpaw_psl.0.2.1.UPF: wavefunction(s)  3D renormalized
     file O.pbe-n-kjpaw_psl.0.1.UPF: wavefunction(s)  2P renormalized

     Subspace diagonalization in iterative solution of the eigenvalue problem:
     a serial algorithm will be used


     Parallelization info
     --------------------
     sticks:   dense  smooth     PW     G-vecs:    dense   smooth      PW
     Min         684     253     68                46844    10558    1474
     Max         685     255     70                46846    10560    1475
     Sum       21895    8121   2193              1499053   337887   47169



     bravais-lattice index     =            0
     lattice parameter (alat)  =      20.6483  a.u.
     unit-cell volume          =    2500.8842 (a.u.)^3
     number of atoms/cell      =           25
     number of atomic types    =            4
     number of electrons       =       189.00
     number of Kohn-Sham states=          114
     kinetic-energy cutoff     =     100.0000  Ry
     charge density cutoff     =    1080.0000  Ry
     scf convergence threshold =      2.0E-10
     mixing beta               =       0.4000
     number of iterations used =            8  plain     mixing
     Exchange-correlation= PBE
                           (   1   4   3   4   0   0   0)

     celldm(1)=  20.648310  celldm(2)=   0.000000  celldm(3)=   0.000000
     celldm(4)=   0.000000  celldm(5)=   0.000000  celldm(6)=   0.000000

     crystal axes: (cart. coord. in units of alat)
               a(1) = (   1.000000   0.000000   0.000000 )  
               a(2) = (   0.000000   0.597590   0.000000 )  
               a(3) = (   0.000000   0.000000   0.475375 )  

     reciprocal axes: (cart. coord. in units 2 pi/alat)
               b(1) = (  1.000000  0.000000  0.000000 )  
               b(2) = (  0.000000  1.673388  0.000000 )  
               b(3) = (  0.000000  0.000000  2.103600 )  


     PseudoPot. # 1 for Fe read from file:
     /opt/QEpot/SSSP_precision_pseudos/Fe.pbe-spn-kjpaw_psl.0.2.1.UPF
     MD5 check sum: e86618425769142926afa95317d90200
     Pseudo is Projector augmented-wave + core cor, Zval = 16.0
     Generated using "atomic" code by A. Dal Corso  v.5.0.99 svn rev. 10869
     Shape of augmentation charge: PSQ
     Using radial grid of 1191 points,  6 beta functions with: 
                l(1) =   0
                l(2) =   0
                l(3) =   1
                l(4) =   1
                l(5) =   2
                l(6) =   2
     Q(r) pseudized with 0 coefficients 


     PseudoPot. # 2 for Na read from file:
     /opt/QEpot/SSSP_precision_pseudos/Na_ONCV_PBE-1.0.oncvpsp.upf
     MD5 check sum: 24a298df0a6742ae313db96548fdb2a4
     Pseudo is Norm-conserving, Zval =  9.0
     Generated using ONCVPSP code by D. R. Hamann
     Using radial grid of 1992 points,  4 beta functions with: 
                l(1) =   0
                l(2) =   0
                l(3) =   1
                l(4) =   1

     PseudoPot. # 3 for O  read from file:
     /opt/QEpot/SSSP_precision_pseudos/O.pbe-n-kjpaw_psl.0.1.UPF
     MD5 check sum: 0234752ac141de4415c5fc33072bef88
     Pseudo is Projector augmented-wave + core cor, Zval =  6.0
     Generated using "atomic" code by A. Dal Corso  v.5.0.99 svn rev. 10869
     Shape of augmentation charge: BESSEL
     Using radial grid of 1095 points,  4 beta functions with: 
                l(1) =   0
                l(2) =   0
                l(3) =   1
                l(4) =   1
     Q(r) pseudized with 0 coefficients 


     PseudoPot. # 4 for P  read from file:
     /opt/QEpot/SSSP_precision_pseudos/P.pbe-n-rrkjus_psl.1.0.0.UPF
     MD5 check sum: 8b930f418f0a4573dca56cd030ffe088
     Pseudo is Ultrasoft + core correction, Zval =  5.0
     Generated using "atomic" code by A. Dal Corso  v.5.1
     Using radial grid of 1147 points,  6 beta functions with: 
                l(1) =   0
                l(2) =   0
                l(3) =   1
                l(4) =   1
                l(5) =   2
                l(6) =   2
     Q(r) pseudized with 0 coefficients 


     atomic species   valence    mass     pseudopotential
        Fe            16.00    55.84500     Fe( 1.00)
        Na             9.00    22.98977     Na( 1.00)
        O              6.00    15.99940     O ( 1.00)
        P              5.00    30.97376     P ( 1.00)

     Starting magnetic structure 
     atomic species   magnetization
        Fe           0.312
        Na           0.000
        O            0.000
        P            0.000

     No symmetry found


                                    s                        frac. trans.

      isym =  1     identity                                     

 cryst.   s( 1) = (     1          0          0      )
                  (     0          1          0      )
                  (     0          0          1      )

 cart.    s( 1) = (  1.0000000  0.0000000  0.0000000 )
                  (  0.0000000  1.0000000  0.0000000 )
                  (  0.0000000  0.0000000  1.0000000 )


   Cartesian axes

     site n.     atom                  positions (alat units)
         1           Na  tau(   1) = (   0.0062130   0.5589946   0.3199752  )
         2           Fe  tau(   2) = (   0.3024540   0.4615785   0.4032815  )
         3           Fe  tau(   3) = (   0.2226710   0.2028125   0.2366838  )
         4           Fe  tau(   4) = (   0.7013320   0.1357252   0.0672885  )
         5           Fe  tau(   5) = (   0.7738600   0.3969605   0.2293763  )
         6           P   tau(   6) = (   0.0926260   0.3991805   0.1250451  )
         7           P   tau(   7) = (   0.3962170   0.1502998   0.4467465  )
         8           P   tau(   8) = (   0.9068620   0.2055130   0.3410543  )
         9           P   tau(   9) = (   0.6031040   0.4475943   0.0235049  )
        10           O   tau(  10) = (   0.1770480   0.4126729   0.2517784  )
        11           O   tau(  11) = (   0.3555840   0.1507863   0.1134531  )
        12           O   tau(  12) = (   0.8203270   0.1944755   0.2163144  )
        13           O   tau(  13) = (   0.6432920   0.4477502   0.3569062  )
        14           O   tau(  14) = (   0.4570760   0.4637854   0.0390093  )
        15           O   tau(  15) = (   0.0482830   0.1673598   0.3167541  )
        16           O   tau(  16) = (   0.5424170   0.1341864   0.4331660  )
        17           O   tau(  17) = (   0.9514120   0.4382384   0.1505538  )
        18           O   tau(  18) = (   0.1482380   0.4961150   0.0257630  )
        19           O   tau(  19) = (   0.3208110   0.0482100   0.3626226  )
        20           O   tau(  20) = (   0.8859830   0.3464032   0.3830367  )
        21           O   tau(  21) = (   0.6517160   0.3224966   0.0965763  )
        22           O   tau(  22) = (   0.8510480   0.1052200   0.4372442  )
        23           O   tau(  23) = (   0.6793830   0.5490411   0.1078765  )
        24           O   tau(  24) = (   0.1159970   0.2583363   0.0855153  )
        25           O   tau(  25) = (   0.3461160   0.2749679   0.3726996  )

   Crystallographic axes

     site n.     atom                  positions (cryst. coord.)
         1           Na  tau(   1) = (  0.0062130  0.9354150  0.6731000  )
         2           Fe  tau(   2) = (  0.3024540  0.7724000  0.8483430  )
         3           Fe  tau(   3) = (  0.2226710  0.3393840  0.4978880  )
         4           Fe  tau(   4) = (  0.7013320  0.2271210  0.1415480  )
         5           Fe  tau(   5) = (  0.7738600  0.6642690  0.4825160  )
         6           P   tau(   6) = (  0.0926260  0.6679840  0.2630450  )
         7           P   tau(   7) = (  0.3962170  0.2515100  0.9397760  )
         8           P   tau(   8) = (  0.9068620  0.3439030  0.7174420  )
         9           P   tau(   9) = (  0.6031040  0.7489990  0.0494450  )
        10           O   tau(  10) = (  0.1770480  0.6905620  0.5296410  )
        11           O   tau(  11) = (  0.3555840  0.2523240  0.2386600  )
        12           O   tau(  12) = (  0.8203270  0.3254330  0.4550390  )
        13           O   tau(  13) = (  0.6432920  0.7492600  0.7507880  )
        14           O   tau(  14) = (  0.4570760  0.7760930  0.0820600  )
        15           O   tau(  15) = (  0.0482830  0.2800580  0.6663240  )
        16           O   tau(  16) = (  0.5424170  0.2245460  0.9112080  )
        17           O   tau(  17) = (  0.9514120  0.7333430  0.3167050  )
        18           O   tau(  18) = (  0.1482380  0.8301930  0.0541950  )
        19           O   tau(  19) = (  0.3208110  0.0806740  0.7628130  )
        20           O   tau(  20) = (  0.8859830  0.5796670  0.8057560  )
        21           O   tau(  21) = (  0.6517160  0.5396620  0.2031580  )
        22           O   tau(  22) = (  0.8510480  0.1760740  0.9197870  )
        23           O   tau(  23) = (  0.6793830  0.9187590  0.2269290  )
        24           O   tau(  24) = (  0.1159970  0.4322970  0.1798900  )
        25           O   tau(  25) = (  0.3461160  0.4601280  0.7840110  )

     number of k points=   158  Marzari-Vanderbilt smearing, width (Ry)=  0.0073
                       cart. coord. in units 2pi/alat
        k(    1) = (   0.0000000   0.0000000   0.0000000), wk =   0.0031746
        k(    2) = (   0.0000000   0.0000000   0.2337334), wk =   0.0063492
        k(    3) = (   0.0000000   0.0000000   0.4674667), wk =   0.0063492
        k(    4) = (   0.0000000   0.0000000   0.7012001), wk =   0.0063492
        k(    5) = (   0.0000000   0.0000000   0.9349334), wk =   0.0063492
        k(    6) = (   0.0000000   0.2390555   0.0000000), wk =   0.0063492
        k(    7) = (   0.0000000   0.2390555   0.2337334), wk =   0.0063492
        k(    8) = (   0.0000000   0.2390555   0.4674667), wk =   0.0063492
        k(    9) = (   0.0000000   0.2390555   0.7012001), wk =   0.0063492
        k(   10) = (   0.0000000   0.2390555   0.9349334), wk =   0.0063492
        k(   11) = (   0.0000000   0.4781110   0.0000000), wk =   0.0063492
        k(   12) = (   0.0000000   0.4781110   0.2337334), wk =   0.0063492
        k(   13) = (   0.0000000   0.4781110   0.4674667), wk =   0.0063492
        k(   14) = (   0.0000000   0.4781110   0.7012001), wk =   0.0063492
        k(   15) = (   0.0000000   0.4781110   0.9349334), wk =   0.0063492
        k(   16) = (   0.0000000   0.7171664   0.0000000), wk =   0.0063492
        k(   17) = (   0.0000000   0.7171664   0.2337334), wk =   0.0063492
        k(   18) = (   0.0000000   0.7171664   0.4674667), wk =   0.0063492
        k(   19) = (   0.0000000   0.7171664   0.7012001), wk =   0.0063492
        k(   20) = (   0.0000000   0.7171664   0.9349334), wk =   0.0063492
        k(   21) = (   0.2000000   0.0000000   0.0000000), wk =   0.0063492
        k(   22) = (   0.2000000   0.0000000   0.2337334), wk =   0.0063492
        k(   23) = (   0.2000000   0.0000000   0.4674667), wk =   0.0063492
        k(   24) = (   0.2000000   0.0000000   0.7012001), wk =   0.0063492
        k(   25) = (   0.2000000   0.0000000   0.9349334), wk =   0.0063492
        k(   26) = (   0.2000000   0.2390555   0.0000000), wk =   0.0063492
        k(   27) = (   0.2000000   0.2390555   0.2337334), wk =   0.0063492
        k(   28) = (   0.2000000   0.2390555   0.4674667), wk =   0.0063492
        k(   29) = (   0.2000000   0.2390555   0.7012001), wk =   0.0063492
        k(   30) = (   0.2000000   0.2390555   0.9349334), wk =   0.0063492
        k(   31) = (   0.2000000   0.4781110   0.0000000), wk =   0.0063492
        k(   32) = (   0.2000000   0.4781110   0.2337334), wk =   0.0063492
        k(   33) = (   0.2000000   0.4781110   0.4674667), wk =   0.0063492
        k(   34) = (   0.2000000   0.4781110   0.7012001), wk =   0.0063492
        k(   35) = (   0.2000000   0.4781110   0.9349334), wk =   0.0063492
        k(   36) = (   0.2000000   0.7171664   0.0000000), wk =   0.0063492
        k(   37) = (   0.2000000   0.7171664   0.2337334), wk =   0.0063492
        k(   38) = (   0.2000000   0.7171664   0.4674667), wk =   0.0063492
        k(   39) = (   0.2000000   0.7171664   0.7012001), wk =   0.0063492
        k(   40) = (   0.2000000   0.7171664   0.9349334), wk =   0.0063492
        k(   41) = (   0.4000000   0.0000000   0.0000000), wk =   0.0063492
        k(   42) = (   0.4000000   0.0000000   0.2337334), wk =   0.0063492
        k(   43) = (   0.4000000   0.0000000   0.4674667), wk =   0.0063492
        k(   44) = (   0.4000000   0.0000000   0.7012001), wk =   0.0063492
        k(   45) = (   0.4000000   0.0000000   0.9349334), wk =   0.0063492
        k(   46) = (   0.4000000   0.2390555   0.0000000), wk =   0.0063492
        k(   47) = (   0.4000000   0.2390555   0.2337334), wk =   0.0063492
        k(   48) = (   0.4000000   0.2390555   0.4674667), wk =   0.0063492
        k(   49) = (   0.4000000   0.2390555   0.7012001), wk =   0.0063492
        k(   50) = (   0.4000000   0.2390555   0.9349334), wk =   0.0063492
        k(   51) = (   0.4000000   0.4781110   0.0000000), wk =   0.0063492
        k(   52) = (   0.4000000   0.4781110   0.2337334), wk =   0.0063492
        k(   53) = (   0.4000000   0.4781110   0.4674667), wk =   0.0063492
        k(   54) = (   0.4000000   0.4781110   0.7012001), wk =   0.0063492
        k(   55) = (   0.4000000   0.4781110   0.9349334), wk =   0.0063492
        k(   56) = (   0.4000000   0.7171664   0.0000000), wk =   0.0063492
        k(   57) = (   0.4000000   0.7171664   0.2337334), wk =   0.0063492
        k(   58) = (   0.4000000   0.7171664   0.4674667), wk =   0.0063492
        k(   59) = (   0.4000000   0.7171664   0.7012001), wk =   0.0063492
        k(   60) = (   0.4000000   0.7171664   0.9349334), wk =   0.0063492
        k(   61) = (   0.0000000  -0.2390555   0.2337334), wk =   0.0063492
        k(   62) = (   0.0000000  -0.2390555   0.4674667), wk =   0.0063492
        k(   63) = (   0.0000000  -0.2390555   0.7012001), wk =   0.0063492
        k(   64) = (   0.0000000  -0.2390555   0.9349334), wk =   0.0063492
        k(   65) = (   0.0000000  -0.4781110   0.2337334), wk =   0.0063492
        k(   66) = (   0.0000000  -0.4781110   0.4674667), wk =   0.0063492
        k(   67) = (   0.0000000  -0.4781110   0.7012001), wk =   0.0063492
        k(   68) = (   0.0000000  -0.4781110   0.9349334), wk =   0.0063492
        k(   69) = (   0.0000000  -0.7171664   0.2337334), wk =   0.0063492
        k(   70) = (   0.0000000  -0.7171664   0.4674667), wk =   0.0063492
        k(   71) = (   0.0000000  -0.7171664   0.7012001), wk =   0.0063492
        k(   72) = (   0.0000000  -0.7171664   0.9349334), wk =   0.0063492
        k(   73) = (  -0.2000000   0.0000000   0.2337334), wk =   0.0063492
        k(   74) = (  -0.2000000   0.0000000   0.4674667), wk =   0.0063492
        k(   75) = (  -0.2000000   0.0000000   0.7012001), wk =   0.0063492
        k(   76) = (  -0.2000000   0.0000000   0.9349334), wk =   0.0063492
        k(   77) = (  -0.2000000   0.2390555   0.0000000), wk =   0.0063492
        k(   78) = (  -0.2000000  -0.2390555   0.2337334), wk =   0.0063492
        k(   79) = (  -0.2000000   0.2390555  -0.2337334), wk =   0.0063492
        k(   80) = (   0.2000000  -0.2390555  -0.2337334), wk =   0.0063492
        k(   81) = (  -0.2000000  -0.2390555   0.4674667), wk =   0.0063492
        k(   82) = (  -0.2000000   0.2390555  -0.4674667), wk =   0.0063492
        k(   83) = (   0.2000000  -0.2390555  -0.4674667), wk =   0.0063492
        k(   84) = (  -0.2000000  -0.2390555   0.7012001), wk =   0.0063492
        k(   85) = (  -0.2000000   0.2390555  -0.7012001), wk =   0.0063492
        k(   86) = (   0.2000000  -0.2390555  -0.7012001), wk =   0.0063492
        k(   87) = (  -0.2000000  -0.2390555   0.9349334), wk =   0.0063492
        k(   88) = (  -0.2000000   0.2390555  -0.9349334), wk =   0.0063492
        k(   89) = (   0.2000000  -0.2390555  -0.9349334), wk =   0.0063492
        k(   90) = (  -0.2000000   0.4781110   0.0000000), wk =   0.0063492
        k(   91) = (  -0.2000000  -0.4781110   0.2337334), wk =   0.0063492
        k(   92) = (  -0.2000000   0.4781110  -0.2337334), wk =   0.0063492
        k(   93) = (   0.2000000  -0.4781110  -0.2337334), wk =   0.0063492
        k(   94) = (  -0.2000000  -0.4781110   0.4674667), wk =   0.0063492
        k(   95) = (  -0.2000000   0.4781110  -0.4674667), wk =   0.0063492
        k(   96) = (   0.2000000  -0.4781110  -0.4674667), wk =   0.0063492
        k(   97) = (  -0.2000000  -0.4781110   0.7012001), wk =   0.0063492
        k(   98) = (  -0.2000000   0.4781110  -0.7012001), wk =   0.0063492
        k(   99) = (   0.2000000  -0.4781110  -0.7012001), wk =   0.0063492
        k(  100) = (  -0.2000000  -0.4781110   0.9349334), wk =   0.0063492
        k(  101) = (  -0.2000000   0.4781110  -0.9349334), wk =   0.0063492
        k(  102) = (   0.2000000  -0.4781110  -0.9349334), wk =   0.0063492
        k(  103) = (  -0.2000000   0.7171664   0.0000000), wk =   0.0063492
        k(  104) = (  -0.2000000  -0.7171664   0.2337334), wk =   0.0063492
        k(  105) = (  -0.2000000   0.7171664  -0.2337334), wk =   0.0063492
        k(  106) = (   0.2000000  -0.7171664  -0.2337334), wk =   0.0063492
        k(  107) = (  -0.2000000  -0.7171664   0.4674667), wk =   0.0063492
        k(  108) = (  -0.2000000   0.7171664  -0.4674667), wk =   0.0063492
        k(  109) = (   0.2000000  -0.7171664  -0.4674667), wk =   0.0063492
        k(  110) = (  -0.2000000  -0.7171664   0.7012001), wk =   0.0063492
        k(  111) = (  -0.2000000   0.7171664  -0.7012001), wk =   0.0063492
        k(  112) = (   0.2000000  -0.7171664  -0.7012001), wk =   0.0063492
        k(  113) = (  -0.2000000  -0.7171664   0.9349334), wk =   0.0063492
        k(  114) = (  -0.2000000   0.7171664  -0.9349334), wk =   0.0063492
        k(  115) = (   0.2000000  -0.7171664  -0.9349334), wk =   0.0063492
        k(  116) = (  -0.4000000   0.0000000   0.2337334), wk =   0.0063492
        k(  117) = (  -0.4000000   0.0000000   0.4674667), wk =   0.0063492
        k(  118) = (  -0.4000000   0.0000000   0.7012001), wk =   0.0063492
        k(  119) = (  -0.4000000   0.0000000   0.9349334), wk =   0.0063492
        k(  120) = (  -0.4000000   0.2390555   0.0000000), wk =   0.0063492
        k(  121) = (  -0.4000000  -0.2390555   0.2337334), wk =   0.0063492
        k(  122) = (  -0.4000000   0.2390555  -0.2337334), wk =   0.0063492
        k(  123) = (   0.4000000  -0.2390555  -0.2337334), wk =   0.0063492
        k(  124) = (  -0.4000000  -0.2390555   0.4674667), wk =   0.0063492
        k(  125) = (  -0.4000000   0.2390555  -0.4674667), wk =   0.0063492
        k(  126) = (   0.4000000  -0.2390555  -0.4674667), wk =   0.0063492
        k(  127) = (  -0.4000000  -0.2390555   0.7012001), wk =   0.0063492
        k(  128) = (  -0.4000000   0.2390555  -0.7012001), wk =   0.0063492
        k(  129) = (   0.4000000  -0.2390555  -0.7012001), wk =   0.0063492
        k(  130) = (  -0.4000000  -0.2390555   0.9349334), wk =   0.0063492
        k(  131) = (  -0.4000000   0.2390555  -0.9349334), wk =   0.0063492
        k(  132) = (   0.4000000  -0.2390555  -0.9349334), wk =   0.0063492
        k(  133) = (  -0.4000000   0.4781110   0.0000000), wk =   0.0063492
        k(  134) = (  -0.4000000  -0.4781110   0.2337334), wk =   0.0063492
        k(  135) = (  -0.4000000   0.4781110  -0.2337334), wk =   0.0063492
        k(  136) = (   0.4000000  -0.4781110  -0.2337334), wk =   0.0063492
        k(  137) = (  -0.4000000  -0.4781110   0.4674667), wk =   0.0063492
        k(  138) = (  -0.4000000   0.4781110  -0.4674667), wk =   0.0063492
        k(  139) = (   0.4000000  -0.4781110  -0.4674667), wk =   0.0063492
        k(  140) = (  -0.4000000  -0.4781110   0.7012001), wk =   0.0063492
        k(  141) = (  -0.4000000   0.4781110  -0.7012001), wk =   0.0063492
        k(  142) = (   0.4000000  -0.4781110  -0.7012001), wk =   0.0063492
        k(  143) = (  -0.4000000  -0.4781110   0.9349334), wk =   0.0063492
        k(  144) = (  -0.4000000   0.4781110  -0.9349334), wk =   0.0063492
        k(  145) = (   0.4000000  -0.4781110  -0.9349334), wk =   0.0063492
        k(  146) = (  -0.4000000   0.7171664   0.0000000), wk =   0.0063492
        k(  147) = (  -0.4000000  -0.7171664   0.2337334), wk =   0.0063492
        k(  148) = (  -0.4000000   0.7171664  -0.2337334), wk =   0.0063492
        k(  149) = (   0.4000000  -0.7171664  -0.2337334), wk =   0.0063492
        k(  150) = (  -0.4000000  -0.7171664   0.4674667), wk =   0.0063492
        k(  151) = (  -0.4000000   0.7171664  -0.4674667), wk =   0.0063492
        k(  152) = (   0.4000000  -0.7171664  -0.4674667), wk =   0.0063492
        k(  153) = (  -0.4000000  -0.7171664   0.7012001), wk =   0.0063492
        k(  154) = (  -0.4000000   0.7171664  -0.7012001), wk =   0.0063492
        k(  155) = (   0.4000000  -0.7171664  -0.7012001), wk =   0.0063492
        k(  156) = (  -0.4000000  -0.7171664   0.9349334), wk =   0.0063492
        k(  157) = (  -0.4000000   0.7171664  -0.9349334), wk =   0.0063492
        k(  158) = (   0.4000000  -0.7171664  -0.9349334), wk =   0.0063492

                       cryst. coord.
        k(    1) = (   0.0000000   0.0000000   0.0000000), wk =   0.0031746
        k(    2) = (   0.0000000   0.0000000   0.1111111), wk =   0.0063492
        k(    3) = (   0.0000000   0.0000000   0.2222222), wk =   0.0063492
        k(    4) = (   0.0000000   0.0000000   0.3333333), wk =   0.0063492
        k(    5) = (   0.0000000   0.0000000   0.4444444), wk =   0.0063492
        k(    6) = (   0.0000000   0.1428571   0.0000000), wk =   0.0063492
        k(    7) = (   0.0000000   0.1428571   0.1111111), wk =   0.0063492
        k(    8) = (   0.0000000   0.1428571   0.2222222), wk =   0.0063492
        k(    9) = (   0.0000000   0.1428571   0.3333333), wk =   0.0063492
        k(   10) = (   0.0000000   0.1428571   0.4444444), wk =   0.0063492
        k(   11) = (   0.0000000   0.2857143   0.0000000), wk =   0.0063492
        k(   12) = (   0.0000000   0.2857143   0.1111111), wk =   0.0063492
        k(   13) = (   0.0000000   0.2857143   0.2222222), wk =   0.0063492
        k(   14) = (   0.0000000   0.2857143   0.3333333), wk =   0.0063492
        k(   15) = (   0.0000000   0.2857143   0.4444444), wk =   0.0063492
        k(   16) = (   0.0000000   0.4285714   0.0000000), wk =   0.0063492
        k(   17) = (   0.0000000   0.4285714   0.1111111), wk =   0.0063492
        k(   18) = (   0.0000000   0.4285714   0.2222222), wk =   0.0063492
        k(   19) = (   0.0000000   0.4285714   0.3333333), wk =   0.0063492
        k(   20) = (   0.0000000   0.4285714   0.4444444), wk =   0.0063492
        k(   21) = (   0.2000000   0.0000000   0.0000000), wk =   0.0063492
        k(   22) = (   0.2000000   0.0000000   0.1111111), wk =   0.0063492
        k(   23) = (   0.2000000   0.0000000   0.2222222), wk =   0.0063492
        k(   24) = (   0.2000000   0.0000000   0.3333333), wk =   0.0063492
        k(   25) = (   0.2000000   0.0000000   0.4444444), wk =   0.0063492
        k(   26) = (   0.2000000   0.1428571   0.0000000), wk =   0.0063492
        k(   27) = (   0.2000000   0.1428571   0.1111111), wk =   0.0063492
        k(   28) = (   0.2000000   0.1428571   0.2222222), wk =   0.0063492
        k(   29) = (   0.2000000   0.1428571   0.3333333), wk =   0.0063492
        k(   30) = (   0.2000000   0.1428571   0.4444444), wk =   0.0063492
        k(   31) = (   0.2000000   0.2857143   0.0000000), wk =   0.0063492
        k(   32) = (   0.2000000   0.2857143   0.1111111), wk =   0.0063492
        k(   33) = (   0.2000000   0.2857143   0.2222222), wk =   0.0063492
        k(   34) = (   0.2000000   0.2857143   0.3333333), wk =   0.0063492
        k(   35) = (   0.2000000   0.2857143   0.4444444), wk =   0.0063492
        k(   36) = (   0.2000000   0.4285714   0.0000000), wk =   0.0063492
        k(   37) = (   0.2000000   0.4285714   0.1111111), wk =   0.0063492
        k(   38) = (   0.2000000   0.4285714   0.2222222), wk =   0.0063492
        k(   39) = (   0.2000000   0.4285714   0.3333333), wk =   0.0063492
        k(   40) = (   0.2000000   0.4285714   0.4444444), wk =   0.0063492
        k(   41) = (   0.4000000   0.0000000   0.0000000), wk =   0.0063492
        k(   42) = (   0.4000000   0.0000000   0.1111111), wk =   0.0063492
        k(   43) = (   0.4000000   0.0000000   0.2222222), wk =   0.0063492
        k(   44) = (   0.4000000   0.0000000   0.3333333), wk =   0.0063492
        k(   45) = (   0.4000000   0.0000000   0.4444444), wk =   0.0063492
        k(   46) = (   0.4000000   0.1428571   0.0000000), wk =   0.0063492
        k(   47) = (   0.4000000   0.1428571   0.1111111), wk =   0.0063492
        k(   48) = (   0.4000000   0.1428571   0.2222222), wk =   0.0063492
        k(   49) = (   0.4000000   0.1428571   0.3333333), wk =   0.0063492
        k(   50) = (   0.4000000   0.1428571   0.4444444), wk =   0.0063492
        k(   51) = (   0.4000000   0.2857143   0.0000000), wk =   0.0063492
        k(   52) = (   0.4000000   0.2857143   0.1111111), wk =   0.0063492
        k(   53) = (   0.4000000   0.2857143   0.2222222), wk =   0.0063492
        k(   54) = (   0.4000000   0.2857143   0.3333333), wk =   0.0063492
        k(   55) = (   0.4000000   0.2857143   0.4444444), wk =   0.0063492
        k(   56) = (   0.4000000   0.4285714   0.0000000), wk =   0.0063492
        k(   57) = (   0.4000000   0.4285714   0.1111111), wk =   0.0063492
        k(   58) = (   0.4000000   0.4285714   0.2222222), wk =   0.0063492
        k(   59) = (   0.4000000   0.4285714   0.3333333), wk =   0.0063492
        k(   60) = (   0.4000000   0.4285714   0.4444444), wk =   0.0063492
        k(   61) = (   0.0000000  -0.1428571   0.1111111), wk =   0.0063492
        k(   62) = (   0.0000000  -0.1428571   0.2222222), wk =   0.0063492
        k(   63) = (   0.0000000  -0.1428571   0.3333333), wk =   0.0063492
        k(   64) = (   0.0000000  -0.1428571   0.4444444), wk =   0.0063492
        k(   65) = (   0.0000000  -0.2857143   0.1111111), wk =   0.0063492
        k(   66) = (   0.0000000  -0.2857143   0.2222222), wk =   0.0063492
        k(   67) = (   0.0000000  -0.2857143   0.3333333), wk =   0.0063492
        k(   68) = (   0.0000000  -0.2857143   0.4444444), wk =   0.0063492
        k(   69) = (   0.0000000  -0.4285714   0.1111111), wk =   0.0063492
        k(   70) = (   0.0000000  -0.4285714   0.2222222), wk =   0.0063492
        k(   71) = (   0.0000000  -0.4285714   0.3333333), wk =   0.0063492
        k(   72) = (   0.0000000  -0.4285714   0.4444444), wk =   0.0063492
        k(   73) = (  -0.2000000   0.0000000   0.1111111), wk =   0.0063492
        k(   74) = (  -0.2000000   0.0000000   0.2222222), wk =   0.0063492
        k(   75) = (  -0.2000000   0.0000000   0.3333333), wk =   0.0063492
        k(   76) = (  -0.2000000   0.0000000   0.4444444), wk =   0.0063492
        k(   77) = (  -0.2000000   0.1428571   0.0000000), wk =   0.0063492
        k(   78) = (  -0.2000000  -0.1428571   0.1111111), wk =   0.0063492
        k(   79) = (  -0.2000000   0.1428571  -0.1111111), wk =   0.0063492
        k(   80) = (   0.2000000  -0.1428571  -0.1111111), wk =   0.0063492
        k(   81) = (  -0.2000000  -0.1428571   0.2222222), wk =   0.0063492
        k(   82) = (  -0.2000000   0.1428571  -0.2222222), wk =   0.0063492
        k(   83) = (   0.2000000  -0.1428571  -0.2222222), wk =   0.0063492
        k(   84) = (  -0.2000000  -0.1428571   0.3333333), wk =   0.0063492
        k(   85) = (  -0.2000000   0.1428571  -0.3333333), wk =   0.0063492
        k(   86) = (   0.2000000  -0.1428571  -0.3333333), wk =   0.0063492
        k(   87) = (  -0.2000000  -0.1428571   0.4444444), wk =   0.0063492
        k(   88) = (  -0.2000000   0.1428571  -0.4444444), wk =   0.0063492
        k(   89) = (   0.2000000  -0.1428571  -0.4444444), wk =   0.0063492
        k(   90) = (  -0.2000000   0.2857143   0.0000000), wk =   0.0063492
        k(   91) = (  -0.2000000  -0.2857143   0.1111111), wk =   0.0063492
        k(   92) = (  -0.2000000   0.2857143  -0.1111111), wk =   0.0063492
        k(   93) = (   0.2000000  -0.2857143  -0.1111111), wk =   0.0063492
        k(   94) = (  -0.2000000  -0.2857143   0.2222222), wk =   0.0063492
        k(   95) = (  -0.2000000   0.2857143  -0.2222222), wk =   0.0063492
        k(   96) = (   0.2000000  -0.2857143  -0.2222222), wk =   0.0063492
        k(   97) = (  -0.2000000  -0.2857143   0.3333333), wk =   0.0063492
        k(   98) = (  -0.2000000   0.2857143  -0.3333333), wk =   0.0063492
        k(   99) = (   0.2000000  -0.2857143  -0.3333333), wk =   0.0063492
        k(  100) = (  -0.2000000  -0.2857143   0.4444444), wk =   0.0063492
        k(  101) = (  -0.2000000   0.2857143  -0.4444444), wk =   0.0063492
        k(  102) = (   0.2000000  -0.2857143  -0.4444444), wk =   0.0063492
        k(  103) = (  -0.2000000   0.4285714   0.0000000), wk =   0.0063492
        k(  104) = (  -0.2000000  -0.4285714   0.1111111), wk =   0.0063492
        k(  105) = (  -0.2000000   0.4285714  -0.1111111), wk =   0.0063492
        k(  106) = (   0.2000000  -0.4285714  -0.1111111), wk =   0.0063492
        k(  107) = (  -0.2000000  -0.4285714   0.2222222), wk =   0.0063492
        k(  108) = (  -0.2000000   0.4285714  -0.2222222), wk =   0.0063492
        k(  109) = (   0.2000000  -0.4285714  -0.2222222), wk =   0.0063492
        k(  110) = (  -0.2000000  -0.4285714   0.3333333), wk =   0.0063492
        k(  111) = (  -0.2000000   0.4285714  -0.3333333), wk =   0.0063492
        k(  112) = (   0.2000000  -0.4285714  -0.3333333), wk =   0.0063492
        k(  113) = (  -0.2000000  -0.4285714   0.4444444), wk =   0.0063492
        k(  114) = (  -0.2000000   0.4285714  -0.4444444), wk =   0.0063492
        k(  115) = (   0.2000000  -0.4285714  -0.4444444), wk =   0.0063492
        k(  116) = (  -0.4000000   0.0000000   0.1111111), wk =   0.0063492
        k(  117) = (  -0.4000000   0.0000000   0.2222222), wk =   0.0063492
        k(  118) = (  -0.4000000   0.0000000   0.3333333), wk =   0.0063492
        k(  119) = (  -0.4000000   0.0000000   0.4444444), wk =   0.0063492
        k(  120) = (  -0.4000000   0.1428571   0.0000000), wk =   0.0063492
        k(  121) = (  -0.4000000  -0.1428571   0.1111111), wk =   0.0063492
        k(  122) = (  -0.4000000   0.1428571  -0.1111111), wk =   0.0063492
        k(  123) = (   0.4000000  -0.1428571  -0.1111111), wk =   0.0063492
        k(  124) = (  -0.4000000  -0.1428571   0.2222222), wk =   0.0063492
        k(  125) = (  -0.4000000   0.1428571  -0.2222222), wk =   0.0063492
        k(  126) = (   0.4000000  -0.1428571  -0.2222222), wk =   0.0063492
        k(  127) = (  -0.4000000  -0.1428571   0.3333333), wk =   0.0063492
        k(  128) = (  -0.4000000   0.1428571  -0.3333333), wk =   0.0063492
        k(  129) = (   0.4000000  -0.1428571  -0.3333333), wk =   0.0063492
        k(  130) = (  -0.4000000  -0.1428571   0.4444444), wk =   0.0063492
        k(  131) = (  -0.4000000   0.1428571  -0.4444444), wk =   0.0063492
        k(  132) = (   0.4000000  -0.1428571  -0.4444444), wk =   0.0063492
        k(  133) = (  -0.4000000   0.2857143   0.0000000), wk =   0.0063492
        k(  134) = (  -0.4000000  -0.2857143   0.1111111), wk =   0.0063492
        k(  135) = (  -0.4000000   0.2857143  -0.1111111), wk =   0.0063492
        k(  136) = (   0.4000000  -0.2857143  -0.1111111), wk =   0.0063492
        k(  137) = (  -0.4000000  -0.2857143   0.2222222), wk =   0.0063492
        k(  138) = (  -0.4000000   0.2857143  -0.2222222), wk =   0.0063492
        k(  139) = (   0.4000000  -0.2857143  -0.2222222), wk =   0.0063492
        k(  140) = (  -0.4000000  -0.2857143   0.3333333), wk =   0.0063492
        k(  141) = (  -0.4000000   0.2857143  -0.3333333), wk =   0.0063492
        k(  142) = (   0.4000000  -0.2857143  -0.3333333), wk =   0.0063492
        k(  143) = (  -0.4000000  -0.2857143   0.4444444), wk =   0.0063492
        k(  144) = (  -0.4000000   0.2857143  -0.4444444), wk =   0.0063492
        k(  145) = (   0.4000000  -0.2857143  -0.4444444), wk =   0.0063492
        k(  146) = (  -0.4000000   0.4285714   0.0000000), wk =   0.0063492
        k(  147) = (  -0.4000000  -0.4285714   0.1111111), wk =   0.0063492
        k(  148) = (  -0.4000000   0.4285714  -0.1111111), wk =   0.0063492
        k(  149) = (   0.4000000  -0.4285714  -0.1111111), wk =   0.0063492
        k(  150) = (  -0.4000000  -0.4285714   0.2222222), wk =   0.0063492
        k(  151) = (  -0.4000000   0.4285714  -0.2222222), wk =   0.0063492
        k(  152) = (   0.4000000  -0.4285714  -0.2222222), wk =   0.0063492
        k(  153) = (  -0.4000000  -0.4285714   0.3333333), wk =   0.0063492
        k(  154) = (  -0.4000000   0.4285714  -0.3333333), wk =   0.0063492
        k(  155) = (   0.4000000  -0.4285714  -0.3333333), wk =   0.0063492
        k(  156) = (  -0.4000000  -0.4285714   0.4444444), wk =   0.0063492
        k(  157) = (  -0.4000000   0.4285714  -0.4444444), wk =   0.0063492
        k(  158) = (   0.4000000  -0.4285714  -0.4444444), wk =   0.0063492

     Dense  grid:  1499053 G-vectors     FFT dimensions: ( 216, 135, 108)

     Smooth grid:   337887 G-vectors     FFT dimensions: ( 135,  80,  64)

     Dynamical RAM for                 wfc:       2.29 MB

     Dynamical RAM for     wfc (w. buffer):     727.33 MB

     Dynamical RAM for           str. fact:       2.86 MB

     Dynamical RAM for           local pot:       0.00 MB

     Dynamical RAM for          nlocal pot:       5.64 MB

     Dynamical RAM for                qrad:      10.54 MB

     Dynamical RAM for          rho,v,vnew:       9.63 MB

     Dynamical RAM for               rhoin:       3.21 MB

     Dynamical RAM for            rho*nmix:      22.87 MB

     Dynamical RAM for           G-vectors:       2.76 MB

     Dynamical RAM for          h,s,v(r/c):       2.38 MB

     Dynamical RAM for          <psi|beta>:       0.49 MB

     Dynamical RAM for                 psi:       4.59 MB

     Dynamical RAM for                hpsi:       4.59 MB

     Dynamical RAM for                spsi:       4.59 MB

     Dynamical RAM for      wfcinit/wfcrot:       5.95 MB

     Dynamical RAM for           addusdens:     145.11 MB

     Dynamical RAM for          addusforce:     166.68 MB

     Dynamical RAM for         addusstress:     144.75 MB

     Estimated static dynamical RAM per process >     793.75 MB

     Estimated max dynamical RAM per process >     960.43 MB

     Estimated total dynamical RAM >      30.01 GB

     Check: negative core charge=   -0.000003
     Generating pointlists ...
     new r_m :   0.0766 (alat units)  1.5811 (a.u.) for type    1
     new r_m :   0.0867 (alat units)  1.7906 (a.u.) for type    2
     new r_m :   0.0609 (alat units)  1.2568 (a.u.) for type    3
     new r_m :   0.0609 (alat units)  1.2568 (a.u.) for type    4

     Initial potential from superposition of free atoms

     starting charge  188.99132, renormalised to  189.00000
     Starting wfcs are  137 randomized atomic wfcs
     Checking if some PAW data can be deallocated... 
       PAW data deallocated on   24 nodes for type:  1
       PAW data deallocated on   16 nodes for type:  3

     total cpu time spent up to now is     1352.6 secs

     Self-consistent Calculation

     iteration #  1     ecut=   100.00 Ry     beta= 0.40
     Davidson diagonalization with overlap
     ethr =  1.00E-02,  avg # of iterations =  2.7

     negative rho (up, down):  0.000E+00 7.397E-05

     total cpu time spent up to now is     4891.9 secs

     total energy              =   -2123.48473326 Ry
     estimated scf accuracy    <       7.21278563 Ry

     total magnetization       =    19.00 Bohr mag/cell
     absolute magnetization    =    19.00 Bohr mag/cell

     iteration #  2     ecut=   100.00 Ry     beta= 0.40
     Davidson diagonalization with overlap
     ethr =  3.82E-03,  avg # of iterations =  2.0

     negative rho (up, down):  0.000E+00 3.974E-05

     total cpu time spent up to now is     8354.5 secs

     total energy              =   -2120.70326954 Ry
     estimated scf accuracy    <      36.13956561 Ry

     total magnetization       =     6.82 Bohr mag/cell
     absolute magnetization    =     7.53 Bohr mag/cell

     iteration #  3     ecut=   100.00 Ry     beta= 0.40
     Davidson diagonalization with overlap
     ethr =  3.82E-03,  avg # of iterations =  2.0

     negative rho (up, down):  0.000E+00 3.021E-05

     total cpu time spent up to now is    11259.4 secs

     total energy              =   -2124.04225888 Ry
     estimated scf accuracy    <      28.81754178 Ry

     total magnetization       =    11.00 Bohr mag/cell
     absolute magnetization    =    12.27 Bohr mag/cell

     iteration #  4     ecut=   100.00 Ry     beta= 0.40
     Davidson diagonalization with overlap
     ethr =  3.82E-03,  avg # of iterations =  2.0

     negative rho (up, down):  0.000E+00 5.135E-05

     total cpu time spent up to now is    14093.5 secs

     total energy              =   -2125.04213469 Ry
     estimated scf accuracy    <      20.66702904 Ry

     total magnetization       =    12.84 Bohr mag/cell
     absolute magnetization    =    13.35 Bohr mag/cell

     iteration #  5     ecut=   100.00 Ry     beta= 0.40
     Davidson diagonalization with overlap
     ethr =  3.82E-03,  avg # of iterations =  1.0

     negative rho (up, down):  0.000E+00 6.718E-05

     total cpu time spent up to now is    16810.1 secs

     total energy              =   -2125.34461506 Ry
     estimated scf accuracy    <      12.07082378 Ry

     total magnetization       =    14.48 Bohr mag/cell
     absolute magnetization    =    14.76 Bohr mag/cell

     iteration #  6     ecut=   100.00 Ry     beta= 0.40
     Davidson diagonalization with overlap
     ethr =  3.82E-03,  avg # of iterations =  1.0

     negative rho (up, down):  0.000E+00 1.044E-04

     total cpu time spent up to now is    19532.5 secs

     total energy              =   -2125.74793691 Ry
     estimated scf accuracy    <       1.71965573 Ry

     total magnetization       =    19.00 Bohr mag/cell
     absolute magnetization    =    19.00 Bohr mag/cell

     iteration #  7     ecut=   100.00 Ry     beta= 0.40
     Davidson diagonalization with overlap
     ethr =  9.10E-04,  avg # of iterations =  1.5

     negative rho (up, down):  0.000E+00 2.145E-04

     total cpu time spent up to now is    22312.5 secs

     total energy              =   -2125.83797615 Ry
     estimated scf accuracy    <       1.35722765 Ry

     total magnetization       =    18.69 Bohr mag/cell
     absolute magnetization    =    18.70 Bohr mag/cell

     iteration #  8     ecut=   100.00 Ry     beta= 0.40
     Davidson diagonalization with overlap
     ethr =  7.18E-04,  avg # of iterations =  1.0

     negative rho (up, down):  0.000E+00 3.517E-04

     total cpu time spent up to now is    25031.7 secs

     total energy              =   -2125.82986788 Ry
     estimated scf accuracy    <       0.53712233 Ry

     total magnetization       =    19.00 Bohr mag/cell
     absolute magnetization    =    19.00 Bohr mag/cell

     iteration #  9     ecut=   100.00 Ry     beta= 0.40
     Davidson diagonalization with overlap
     ethr =  2.84E-04,  avg # of iterations =  1.5

     negative rho (up, down):  0.000E+00 7.916E-04

     total cpu time spent up to now is    27809.7 secs

     total energy              =   -2125.80212508 Ry
     estimated scf accuracy    <       0.39695636 Ry

     total magnetization       =    19.00 Bohr mag/cell
     absolute magnetization    =    19.01 Bohr mag/cell

     iteration # 10     ecut=   100.00 Ry     beta= 0.40
     Davidson diagonalization with overlap
     ethr =  2.10E-04,  avg # of iterations =  2.6

     negative rho (up, down):  0.000E+00 7.891E-04

     total cpu time spent up to now is    30699.1 secs

     total energy              =   -2125.83459274 Ry
     estimated scf accuracy    <       0.49116035 Ry

     total magnetization       =    19.00 Bohr mag/cell
     absolute magnetization    =    19.02 Bohr mag/cell

     iteration # 11     ecut=   100.00 Ry     beta= 0.40
     Davidson diagonalization with overlap
     ethr =  2.10E-04,  avg # of iterations =  1.0

     negative rho (up, down):  0.000E+00 9.778E-04

     total cpu time spent up to now is    33418.1 secs

     total energy              =   -2125.82854885 Ry
     estimated scf accuracy    <       0.23834918 Ry

     total magnetization       =    19.00 Bohr mag/cell
     absolute magnetization    =    19.02 Bohr mag/cell

     iteration # 12     ecut=   100.00 Ry     beta= 0.40
     Davidson diagonalization with overlap
     c_bands:  1 eigenvalues not converged
     ethr =  1.26E-04,  avg # of iterations =  2.6

     negative rho (up, down):  0.000E+00 9.527E-04

     total cpu time spent up to now is    36286.6 secs

     total energy              =   -2125.83446429 Ry
     estimated scf accuracy    <       0.19679256 Ry

     total magnetization       =    19.00 Bohr mag/cell
     absolute magnetization    =    19.03 Bohr mag/cell

     iteration # 13     ecut=   100.00 Ry     beta= 0.40
     Davidson diagonalization with overlap
     ethr =  1.04E-04,  avg # of iterations =  2.1

     negative rho (up, down):  0.000E+00 9.885E-04

     total cpu time spent up to now is    39110.3 secs

     total energy              =   -2125.83908634 Ry
     estimated scf accuracy    <       0.01148454 Ry

     total magnetization       =    19.00 Bohr mag/cell
     absolute magnetization    =    19.04 Bohr mag/cell

     iteration # 14     ecut=   100.00 Ry     beta= 0.40
     Davidson diagonalization with overlap
     c_bands:  1 eigenvalues not converged
     c_bands:  1 eigenvalues not converged
     c_bands:  1 eigenvalues not converged
     c_bands:  1 eigenvalues not converged
     c_bands:  1 eigenvalues not converged
     c_bands:  1 eigenvalues not converged
     c_bands:  1 eigenvalues not converged
     c_bands:  1 eigenvalues not converged
     c_bands:  1 eigenvalues not converged
     c_bands:  1 eigenvalues not converged
     c_bands:  1 eigenvalues not converged
     c_bands:  1 eigenvalues not converged
     c_bands:  1 eigenvalues not converged
     c_bands:  1 eigenvalues not converged
     c_bands:  1 eigenvalues not converged
     c_bands:  1 eigenvalues not converged
     c_bands:  1 eigenvalues not converged
     c_bands:  1 eigenvalues not converged
     c_bands:  1 eigenvalues not converged
     ethr =  6.08E-06,  avg # of iterations = 16.2

     negative rho (up, down):  0.000E+00 9.900E-04

     total cpu time spent up to now is    43864.6 secs

     total energy              =   -2125.84009488 Ry
     estimated scf accuracy    <       0.03816410 Ry

     total magnetization       =    19.00 Bohr mag/cell
     absolute magnetization    =    19.05 Bohr mag/cell

     iteration # 15     ecut=   100.00 Ry     beta= 0.40
     Davidson diagonalization with overlap
     ethr =  6.08E-06,  avg # of iterations =  1.0

     negative rho (up, down):  0.000E+00 9.876E-04

     total cpu time spent up to now is    46584.2 secs

     total energy              =   -2125.84029461 Ry
     estimated scf accuracy    <       0.05376610 Ry

     total magnetization       =    19.00 Bohr mag/cell
     absolute magnetization    =    19.05 Bohr mag/cell

     iteration # 16     ecut=   100.00 Ry     beta= 0.40
     Davidson diagonalization with overlap
     ethr =  6.08E-06,  avg # of iterations =  1.0

     negative rho (up, down):  0.000E+00 9.996E-04

     total cpu time spent up to now is    49304.9 secs

     total energy              =   -2125.83990699 Ry
     estimated scf accuracy    <       0.04138885 Ry

     total magnetization       =    19.00 Bohr mag/cell
     absolute magnetization    =    19.05 Bohr mag/cell

     iteration # 17     ecut=   100.00 Ry     beta= 0.40
     Davidson diagonalization with overlap
     ethr =  6.08E-06,  avg # of iterations =  1.0

     negative rho (up, down):  0.000E+00 1.003E-03

     total cpu time spent up to now is    52021.4 secs

     total energy              =   -2125.84051701 Ry
     estimated scf accuracy    <       0.00051709 Ry

     total magnetization       =    19.00 Bohr mag/cell
     absolute magnetization    =    19.06 Bohr mag/cell

     iteration # 18     ecut=   100.00 Ry     beta= 0.40
     Davidson diagonalization with overlap
     ethr =  2.74E-07,  avg # of iterations =  4.9

     negative rho (up, down):  0.000E+00 9.952E-04

     total cpu time spent up to now is    55883.3 secs

     total energy              =   -2125.84069352 Ry
     estimated scf accuracy    <       0.00077532 Ry

     total magnetization       =    19.00 Bohr mag/cell
     absolute magnetization    =    19.06 Bohr mag/cell

     iteration # 19     ecut=   100.00 Ry     beta= 0.40
     Davidson diagonalization with overlap
     ethr =  2.74E-07,  avg # of iterations =  1.0

     negative rho (up, down):  0.000E+00 9.888E-04

     total cpu time spent up to now is    58604.4 secs

     total energy              =   -2125.84070873 Ry
     estimated scf accuracy    <       0.00024368 Ry

     total magnetization       =    19.00 Bohr mag/cell
     absolute magnetization    =    19.06 Bohr mag/cell

     iteration # 20     ecut=   100.00 Ry     beta= 0.40
     Davidson diagonalization with overlap
     ethr =  1.29E-07,  avg # of iterations =  1.0

     negative rho (up, down):  0.000E+00 9.869E-04

     total cpu time spent up to now is    61328.3 secs

     total energy              =   -2125.84071576 Ry
     estimated scf accuracy    <       0.00008991 Ry

     total magnetization       =    19.00 Bohr mag/cell
     absolute magnetization    =    19.06 Bohr mag/cell

     iteration # 21     ecut=   100.00 Ry     beta= 0.40
     Davidson diagonalization with overlap
     ethr =  4.76E-08,  avg # of iterations =  1.3

     negative rho (up, down):  0.000E+00 9.859E-04

     total cpu time spent up to now is    64106.0 secs

     total energy              =   -2125.84071976 Ry
     estimated scf accuracy    <       0.00004787 Ry

     total magnetization       =    19.00 Bohr mag/cell
     absolute magnetization    =    19.06 Bohr mag/cell

     iteration # 22     ecut=   100.00 Ry     beta= 0.40
     Davidson diagonalization with overlap
     ethr =  2.53E-08,  avg # of iterations =  1.2

     negative rho (up, down):  0.000E+00 9.865E-04

     total cpu time spent up to now is    66847.9 secs

     total energy              =   -2125.84072183 Ry
     estimated scf accuracy    <       0.00001973 Ry

     total magnetization       =    19.00 Bohr mag/cell
     absolute magnetization    =    19.06 Bohr mag/cell

     iteration # 23     ecut=   100.00 Ry     beta= 0.40
     Davidson diagonalization with overlap
     ethr =  1.04E-08,  avg # of iterations =  1.9

     negative rho (up, down):  0.000E+00 9.866E-04

     total cpu time spent up to now is    69742.1 secs

     total energy              =   -2125.84072337 Ry
     estimated scf accuracy    <       0.00000548 Ry

     total magnetization       =    19.00 Bohr mag/cell
     absolute magnetization    =    19.06 Bohr mag/cell

     iteration # 24     ecut=   100.00 Ry     beta= 0.40
     Davidson diagonalization with overlap
     ethr =  2.90E-09,  avg # of iterations =  2.6

     negative rho (up, down):  0.000E+00 9.873E-04

     total cpu time spent up to now is    72825.6 secs

     total energy              =   -2125.84072493 Ry
     estimated scf accuracy    <       0.00000184 Ry

     total magnetization       =    19.00 Bohr mag/cell
     absolute magnetization    =    19.06 Bohr mag/cell

     iteration # 25     ecut=   100.00 Ry     beta= 0.40
     Davidson diagonalization with overlap
     ethr =  9.76E-10,  avg # of iterations =  1.7

     negative rho (up, down):  0.000E+00 9.878E-04

     total cpu time spent up to now is    75632.0 secs

     total energy              =   -2125.84072505 Ry
     estimated scf accuracy    <       0.00000189 Ry

     total magnetization       =    19.00 Bohr mag/cell
     absolute magnetization    =    19.06 Bohr mag/cell

     iteration # 26     ecut=   100.00 Ry     beta= 0.40
     Davidson diagonalization with overlap
     ethr =  9.76E-10,  avg # of iterations =  1.0

     negative rho (up, down):  0.000E+00 9.876E-04

     total cpu time spent up to now is    78353.6 secs

     total energy              =   -2125.84072494 Ry
     estimated scf accuracy    <       0.00000268 Ry

     total magnetization       =    19.00 Bohr mag/cell
     absolute magnetization    =    19.06 Bohr mag/cell

     iteration # 27     ecut=   100.00 Ry     beta= 0.40
     Davidson diagonalization with overlap
     ethr =  9.76E-10,  avg # of iterations =  2.0

     negative rho (up, down):  0.000E+00 9.876E-04

     total cpu time spent up to now is    81255.5 secs

     total energy              =   -2125.84072546 Ry
     estimated scf accuracy    <       0.00000072 Ry

     total magnetization       =    19.00 Bohr mag/cell
     absolute magnetization    =    19.06 Bohr mag/cell

     iteration # 28     ecut=   100.00 Ry     beta= 0.40
     Davidson diagonalization with overlap
     ethr =  3.81E-10,  avg # of iterations =  1.6

     negative rho (up, down):  0.000E+00 9.875E-04

     total cpu time spent up to now is    84046.7 secs

     total energy              =   -2125.84072556 Ry
     estimated scf accuracy    <       0.00000032 Ry

     total magnetization       =    19.00 Bohr mag/cell
     absolute magnetization    =    19.06 Bohr mag/cell

     iteration # 29     ecut=   100.00 Ry     beta= 0.40
     Davidson diagonalization with overlap
     ethr =  1.72E-10,  avg # of iterations =  1.7

     negative rho (up, down):  0.000E+00 9.874E-04

     total cpu time spent up to now is    86851.3 secs

     total energy              =   -2125.84072560 Ry
     estimated scf accuracy    <       0.00000020 Ry

     total magnetization       =    19.00 Bohr mag/cell
     absolute magnetization    =    19.06 Bohr mag/cell

     iteration # 30     ecut=   100.00 Ry     beta= 0.40
     Davidson diagonalization with overlap
     ethr =  1.05E-10,  avg # of iterations =  1.4

     negative rho (up, down):  0.000E+00 9.874E-04

     total cpu time spent up to now is    89612.9 secs

     total energy              =   -2125.84072562 Ry
     estimated scf accuracy    <       0.00000022 Ry

     total magnetization       =    19.00 Bohr mag/cell
     absolute magnetization    =    19.06 Bohr mag/cell

     iteration # 31     ecut=   100.00 Ry     beta= 0.40
     Davidson diagonalization with overlap
     ethr =  1.05E-10,  avg # of iterations =  1.0

     negative rho (up, down):  0.000E+00 9.873E-04

     total cpu time spent up to now is    92327.9 secs

     total energy              =   -2125.84072563 Ry
     estimated scf accuracy    <       0.00000003 Ry

     total magnetization       =    19.00 Bohr mag/cell
     absolute magnetization    =    19.06 Bohr mag/cell

     iteration # 32     ecut=   100.00 Ry     beta= 0.40
     Davidson diagonalization with overlap
     ethr =  1.45E-11,  avg # of iterations =  4.2

     negative rho (up, down):  0.000E+00 9.874E-04

     total cpu time spent up to now is    95923.0 secs

     total energy              =   -2125.84072564 Ry
     estimated scf accuracy    <       0.00000001 Ry

     total magnetization       =    19.00 Bohr mag/cell
     absolute magnetization    =    19.06 Bohr mag/cell

     iteration # 33     ecut=   100.00 Ry     beta= 0.40
     Davidson diagonalization with overlap
     ethr =  6.11E-12,  avg # of iterations =  1.6

     negative rho (up, down):  0.000E+00 9.873E-04

     total cpu time spent up to now is    98725.9 secs

     total energy              =   -2125.84072564 Ry
     estimated scf accuracy    <          2.4E-09 Ry

     total magnetization       =    19.00 Bohr mag/cell
     absolute magnetization    =    19.06 Bohr mag/cell

     iteration # 34     ecut=   100.00 Ry     beta= 0.40
     Davidson diagonalization with overlap
     ethr =  1.28E-12,  avg # of iterations =  3.4

     negative rho (up, down):  0.000E+00 9.874E-04

     total cpu time spent up to now is   102204.7 secs

     total energy              =   -2125.84072564 Ry
     estimated scf accuracy    <          2.8E-09 Ry

     total magnetization       =    19.00 Bohr mag/cell
     absolute magnetization    =    19.06 Bohr mag/cell

     iteration # 35     ecut=   100.00 Ry     beta= 0.40
     Davidson diagonalization with overlap
     ethr =  1.28E-12,  avg # of iterations =  1.1

     negative rho (up, down):  0.000E+00 9.874E-04

     total cpu time spent up to now is   104928.0 secs

     total energy              =   -2125.84072564 Ry
     estimated scf accuracy    <          1.3E-09 Ry

     total magnetization       =    19.00 Bohr mag/cell
     absolute magnetization    =    19.06 Bohr mag/cell

     iteration # 36     ecut=   100.00 Ry     beta= 0.40
     Davidson diagonalization with overlap
     ethr =  6.76E-13,  avg # of iterations =  2.0

     negative rho (up, down):  0.000E+00 9.874E-04

     total cpu time spent up to now is   107805.3 secs

     total energy              =   -2125.84072564 Ry
     estimated scf accuracy    <          6.7E-10 Ry

     total magnetization       =    19.00 Bohr mag/cell
     absolute magnetization    =    19.06 Bohr mag/cell

     iteration # 37     ecut=   100.00 Ry     beta= 0.40
     Davidson diagonalization with overlap
     ethr =  3.52E-13,  avg # of iterations =  1.9

     negative rho (up, down):  0.000E+00 9.874E-04

     total cpu time spent up to now is   110632.9 secs

     total energy              =   -2125.84072564 Ry
     estimated scf accuracy    <          4.3E-10 Ry

     total magnetization       =    19.00 Bohr mag/cell
     absolute magnetization    =    19.06 Bohr mag/cell

     iteration # 38     ecut=   100.00 Ry     beta= 0.40
     Davidson diagonalization with overlap
     ethr =  2.27E-13,  avg # of iterations =  2.0

     negative rho (up, down):  0.000E+00 9.874E-04

     total cpu time spent up to now is   113553.1 secs

     total energy              =   -2125.84072565 Ry
     estimated scf accuracy    <          2.5E-10 Ry

     total magnetization       =    19.00 Bohr mag/cell
     absolute magnetization    =    19.06 Bohr mag/cell

     iteration # 39     ecut=   100.00 Ry     beta= 0.40
     Davidson diagonalization with overlap
     ethr =  1.31E-13,  avg # of iterations =  2.0

     negative rho (up, down):  0.000E+00 9.874E-04

     total cpu time spent up to now is   116389.1 secs

     total energy              =   -2125.84072565 Ry
     estimated scf accuracy    <          5.3E-10 Ry

     total magnetization       =    19.00 Bohr mag/cell
     absolute magnetization    =    19.06 Bohr mag/cell

     iteration # 40     ecut=   100.00 Ry     beta= 0.40
     Davidson diagonalization with overlap
     ethr =  1.31E-13,  avg # of iterations =  2.0

     negative rho (up, down):  0.000E+00 9.874E-04

     Magnetic moment per site:
     atom:    1    charge:    7.9221    magn:    0.0008    constr:    0.0000
     atom:    2    charge:   13.1105    magn:    3.6765    constr:    0.0000
     atom:    3    charge:   13.0983    magn:    3.6964    constr:    0.0000
     atom:    4    charge:   13.1081    magn:    3.6772    constr:    0.0000
     atom:    5    charge:   13.1041    magn:    3.6865    constr:    0.0000
     atom:    6    charge:    0.9435    magn:    0.0083    constr:    0.0000
     atom:    7    charge:    0.9317    magn:    0.0093    constr:    0.0000
     atom:    8    charge:    0.9426    magn:    0.0084    constr:    0.0000
     atom:    9    charge:    0.9335    magn:    0.0096    constr:    0.0000
     atom:   10    charge:    4.4261    magn:    0.1462    constr:    0.0000
     atom:   11    charge:    4.4364    magn:    0.1248    constr:    0.0000
     atom:   12    charge:    4.4257    magn:    0.1687    constr:    0.0000
     atom:   13    charge:    4.4373    magn:    0.1198    constr:    0.0000
     atom:   14    charge:    4.4349    magn:    0.1284    constr:    0.0000
     atom:   15    charge:    4.4484    magn:    0.0955    constr:    0.0000
     atom:   16    charge:    4.4324    magn:    0.1241    constr:    0.0000
     atom:   17    charge:    4.4407    magn:    0.0938    constr:    0.0000
     atom:   18    charge:    4.4404    magn:    0.1353    constr:    0.0000
     atom:   19    charge:    4.4257    magn:    0.1438    constr:    0.0000
     atom:   20    charge:    4.4283    magn:    0.1226    constr:    0.0000
     atom:   21    charge:    4.4372    magn:    0.1614    constr:    0.0000
     atom:   22    charge:    4.4361    magn:    0.1359    constr:    0.0000
     atom:   23    charge:    4.4260    magn:    0.1447    constr:    0.0000
     atom:   24    charge:    4.4258    magn:    0.1404    constr:    0.0000
     atom:   25    charge:    4.4333    magn:    0.1578    constr:    0.0000

     total cpu time spent up to now is   119249.2 secs

     End of self-consistent calculation

 ------ SPIN UP ------------


          k = 0.0000 0.0000 0.0000 ( 42261 PWs)   bands (ev):

   -86.9492 -86.9184 -86.7968 -86.7768 -53.0264 -53.0219 -53.0038 -52.9866
   -52.9449 -52.9277 -52.8607 -52.8092 -52.7505 -52.7292 -52.5901 -52.5547
   -46.5028 -18.5045 -18.4488 -18.4398 -16.7651 -16.6057 -16.5594 -16.4206
   -14.7873 -14.6814 -14.6789 -14.6048 -14.5536 -14.5041 -14.4392 -14.4123
   -14.3879 -14.3297 -14.2781 -14.2316  -5.5212  -5.2506  -4.9177  -4.8278
    -3.1625  -3.0935  -2.7751  -2.7268  -2.4375  -2.3340  -2.2611  -2.2250
    -2.2045  -2.0870  -2.0111  -1.8871  -1.3205  -1.2711  -1.0378  -0.8864
    -0.8574  -0.8007  -0.7527  -0.6675  -0.5506  -0.5139  -0.3465  -0.3277
    -0.2723  -0.1973  -0.0310  -0.0100   0.1500   0.2490   0.3592   0.3780
     0.4768   0.5205   0.6241   0.7577   0.8021   0.9247   1.0387   1.0690
     1.1068   1.2267   1.3161   1.3370   1.5102   1.5639   1.6392   1.6844
     1.7182   1.9458   1.9650   1.9954   2.1833   2.2200   2.3188   2.3660
     2.4544   2.4713   2.5820   2.6090   2.6447   2.7226   2.9457   3.0149
     6.4977   8.2068   8.8288   9.0711   9.5723  10.3002  10.3896  10.7278
    10.8241  10.8940

     occupation numbers 
     1.0000   1.0000   1.0000   1.0000   1.0000   1.0000   1.0000   1.0000
     1.0000   1.0000   1.0000   1.0000   1.0000   1.0000   1.0000   1.0000
     1.0000   1.0000   1.0000   1.0000   1.0000   1.0000   1.0000   1.0000
     1.0000   1.0000   1.0000   1.0000   1.0000   1.0000   1.0000   1.0000
     1.0000   1.0000   1.0000   1.0000   1.0000   1.0000   1.0000   1.0000
     1.0000   1.0000   1.0000   1.0000   1.0000   1.0000   1.0000   1.0000
     1.0000   1.0000   1.0000   1.0000   1.0000   1.0000   1.0000   1.0000
     1.0000   1.0000   1.0000   1.0000   1.0000   1.0000   1.0000   1.0000
     1.0000   1.0000   1.0000   1.0000   1.0000   1.0000   1.0000   1.0000
     1.0000   1.0000   1.0000   1.0000   1.0000   1.0000   1.0000   1.0000
     1.0000   1.0000   1.0000   1.0000   1.0000   1.0000   1.0000   1.0000
     1.0000   1.0000   1.0000   1.0000   1.0000   1.0000   1.0000   1.0000
     1.0000   1.0000   1.0000   1.0000   1.0000   1.0000   1.0000   1.0000
     0.0000   0.0000   0.0000   0.0000   0.0000   0.0000   0.0000   0.0000
     0.0000   0.0000

          k = 0.0000 0.0000 0.2337 ( 42279 PWs)   bands (ev):

   -86.9492 -86.9184 -86.7968 -86.7768 -53.0264 -53.0219 -53.0038 -52.9866
   -52.9449 -52.9277 -52.8607 -52.8092 -52.7505 -52.7292 -52.5901 -52.5547
   -46.5028 -18.5043 -18.4487 -18.4404 -16.7539 -16.6016 -16.5516 -16.4214
   -14.7952 -14.7057 -14.6632 -14.6062 -14.5543 -14.5035 -14.4512 -14.4139
   -14.3899 -14.3302 -14.2842 -14.2306  -5.4969  -5.2392  -4.9225  -4.8118
    -3.1485  -3.0835  -2.7933  -2.6964  -2.4380  -2.3348  -2.2610  -2.2213
    -2.1702  -2.0936  -2.0307  -1.8779  -1.3100  -1.2600  -1.0305  -0.8927
    -0.8676  -0.8101  -0.7284  -0.6906  -0.5573  -0.4959  -0.3794  -0.3249
    -0.2771  -0.1983  -0.0463  -0.0021   0.1423   0.2924   0.3112   0.4290
     0.4775   0.5351   0.5982   0.7145   0.7734   0.9080   1.0434   1.0669
     1.1191   1.2183   1.3145   1.3321   1.4914   1.5185   1.6355   1.6814
     1.7306   1.9124   1.9796   2.0090   2.1868   2.2032   2.3216   2.3446
     2.4472   2.4870   2.5562   2.6259   2.6431   2.7291   2.9461   3.0170
     6.6347   8.2725   8.8591   9.0993   9.5959  10.2955  10.3264  10.7039
    10.7879  10.8905

     occupation numbers 
     1.0000   1.0000   1.0000   1.0000   1.0000   1.0000   1.0000   1.0000
     1.0000   1.0000   1.0000   1.0000   1.0000   1.0000   1.0000   1.0000
     1.0000   1.0000   1.0000   1.0000   1.0000   1.0000   1.0000   1.0000
     1.0000   1.0000   1.0000   1.0000   1.0000   1.0000   1.0000   1.0000
     1.0000   1.0000   1.0000   1.0000   1.0000   1.0000   1.0000   1.0000
     1.0000   1.0000   1.0000   1.0000   1.0000   1.0000   1.0000   1.0000
     1.0000   1.0000   1.0000   1.0000   1.0000   1.0000   1.0000   1.0000
     1.0000   1.0000   1.0000   1.0000   1.0000   1.0000   1.0000   1.0000
     1.0000   1.0000   1.0000   1.0000   1.0000   1.0000   1.0000   1.0000
     1.0000   1.0000   1.0000   1.0000   1.0000   1.0000   1.0000   1.0000
     1.0000   1.0000   1.0000   1.0000   1.0000   1.0000   1.0000   1.0000
     1.0000   1.0000   1.0000   1.0000   1.0000   1.0000   1.0000   1.0000
     1.0000   1.0000   1.0000   1.0000   1.0000   1.0000   1.0000   1.0000
     0.0000   0.0000   0.0000   0.0000   0.0000   0.0000   0.0000   0.0000
     0.0000   0.0000

          k = 0.0000 0.0000 0.4675 ( 42247 PWs)   bands (ev):

   -86.9492 -86.9184 -86.7968 -86.7768 -53.0264 -53.0219 -53.0038 -52.9866
   -52.9449 -52.9277 -52.8607 -52.8092 -52.7505 -52.7292 -52.5901 -52.5547
   -46.5028 -18.5039 -18.4486 -18.4419 -16.7238 -16.5908 -16.5313 -16.4254
   -14.8166 -14.7387 -14.6528 -14.6104 -14.5605 -14.4997 -14.4706 -14.4210
   -14.3961 -14.3332 -14.2977 -14.2308  -5.4328  -5.2093  -4.9258  -4.7859
    -3.1272  -3.0461  -2.7855  -2.6694  -2.4396  -2.3291  -2.2795  -2.1816
    -2.1254  -2.0964  -2.0509  -1.8808  -1.2951  -1.2219  -0.9977  -0.9043
    -0.8659  -0.8303  -0.7271  -0.6774  -0.5589  -0.4807  -0.4256  -0.3423
    -0.2707  -0.2016  -0.0725   0.0036   0.1402   0.2593   0.3486   0.3932
     0.4764   0.5343   0.5839   0.6337   0.6973   0.9270   1.0283   1.0612
     1.1066   1.2004   1.2877   1.3390   1.3905   1.4449   1.6221   1.7085
     1.7647   1.8821   1.9607   2.0232   2.1588   2.2259   2.3100   2.3666
     2.4470   2.4673   2.5395   2.6166   2.6600   2.7437   2.9454   3.0179
     7.0000   8.4430   8.9121   9.1716   9.6664  10.0972  10.3165  10.5960
    10.7476  10.8575

     occupation numbers 
     1.0000   1.0000   1.0000   1.0000   1.0000   1.0000   1.0000   1.0000
     1.0000   1.0000   1.0000   1.0000   1.0000   1.0000   1.0000   1.0000
     1.0000   1.0000   1.0000   1.0000   1.0000   1.0000   1.0000   1.0000
     1.0000   1.0000   1.0000   1.0000   1.0000   1.0000   1.0000   1.0000
     1.0000   1.0000   1.0000   1.0000   1.0000   1.0000   1.0000   1.0000
     1.0000   1.0000   1.0000   1.0000   1.0000   1.0000   1.0000   1.0000
     1.0000   1.0000   1.0000   1.0000   1.0000   1.0000   1.0000   1.0000
     1.0000   1.0000   1.0000   1.0000   1.0000   1.0000   1.0000   1.0000
     1.0000   1.0000   1.0000   1.0000   1.0000   1.0000   1.0000   1.0000
     1.0000   1.0000   1.0000   1.0000   1.0000   1.0000   1.0000   1.0000
     1.0000   1.0000   1.0000   1.0000   1.0000   1.0000   1.0000   1.0000
     1.0000   1.0000   1.0000   1.0000   1.0000   1.0000   1.0000   1.0000
     1.0000   1.0000   1.0000   1.0000   1.0000   1.0000   1.0000   1.0000
     0.0000   0.0000   0.0000   0.0000   0.0000   0.0000   0.0000   0.0000
     0.0000   0.0000

          k = 0.0000 0.0000 0.7012 ( 42239 PWs)   bands (ev):

   -86.9492 -86.9184 -86.7968 -86.7768 -53.0264 -53.0219 -53.0038 -52.9866
   -52.9449 -52.9277 -52.8607 -52.8092 -52.7505 -52.7292 -52.5901 -52.5547
   -46.5028 -18.5034 -18.4484 -18.4436 -16.6855 -16.5775 -16.5061 -16.4360
   -14.8421 -14.7727 -14.6460 -14.6165 -14.5730 -14.5051 -14.4708 -14.4271
   -14.4049 -14.3381 -14.3111 -14.2351  -5.3538  -5.1731  -4.9233  -4.7743
    -3.1110  -2.9983  -2.7417  -2.6607  -2.4464  -2.3211  -2.2932  -2.1896
    -2.1015  -2.0606  -2.0262  -1.9138  -1.2849  -1.1753  -0.9429  -0.8769
    -0.8484  -0.8405  -0.7037  -0.6562  -0.5417  -0.4719  -0.4309  -0.3737
    -0.2642  -0.2075  -0.1115  -0.0054   0.0837   0.2045   0.2779   0.3279
     0.4132   0.5101   0.5504   0.6410   0.7262   0.9026   0.9553   1.0049
     1.1234   1.1843   1.2223   1.3010   1.3730   1.4547   1.5844   1.6905
     1.8188   1.8609   1.9483   2.0290   2.1491   2.2654   2.3375   2.3896
     2.4297   2.4674   2.5128   2.5862   2.6887   2.7578   2.9453   3.0118
     7.4970   8.6063   8.9438   9.2622   9.6108   9.9555  10.3276  10.4671
    10.6552  10.8462

     occupation numbers 
     1.0000   1.0000   1.0000   1.0000   1.0000   1.0000   1.0000   1.0000
     1.0000   1.0000   1.0000   1.0000   1.0000   1.0000   1.0000   1.0000
     1.0000   1.0000   1.0000   1.0000   1.0000   1.0000   1.0000   1.0000
     1.0000   1.0000   1.0000   1.0000   1.0000   1.0000   1.0000   1.0000
     1.0000   1.0000   1.0000   1.0000   1.0000   1.0000   1.0000   1.0000
     1.0000   1.0000   1.0000   1.0000   1.0000   1.0000   1.0000   1.0000
     1.0000   1.0000   1.0000   1.0000   1.0000   1.0000   1.0000   1.0000
     1.0000   1.0000   1.0000   1.0000   1.0000   1.0000   1.0000   1.0000
     1.0000   1.0000   1.0000   1.0000   1.0000   1.0000   1.0000   1.0000
     1.0000   1.0000   1.0000   1.0000   1.0000   1.0000   1.0000   1.0000
     1.0000   1.0000   1.0000   1.0000   1.0000   1.0000   1.0000   1.0000
     1.0000   1.0000   1.0000   1.0000   1.0000   1.0000   1.0000   1.0000
     1.0000   1.0000   1.0000   1.0000   1.0000   1.0000   1.0000   1.0000
     0.0000   0.0000   0.0000   0.0000   0.0000   0.0000   0.0000   0.0000
     0.0000   0.0000

          k = 0.0000 0.0000 0.9349 ( 42234 PWs)   bands (ev):

   -86.9492 -86.9184 -86.7968 -86.7768 -53.0264 -53.0219 -53.0038 -52.9866
   -52.9449 -52.9277 -52.8607 -52.8092 -52.7505 -52.7292 -52.5901 -52.5547
   -46.5028 -18.5031 -18.4482 -18.4448 -16.6573 -16.5678 -16.4842 -16.4518
   -14.8588 -14.7953 -14.6420 -14.6219 -14.5833 -14.5133 -14.4636 -14.4245
   -14.4140 -14.3402 -14.3206 -14.2402  -5.2973  -5.1479  -4.9200  -4.7771
    -3.0964  -2.9722  -2.7038  -2.6529  -2.4573  -2.3259  -2.2941  -2.2068
    -2.0842  -2.0345  -2.0032  -1.9433  -1.2799  -1.1395  -0.9340  -0.8566
    -0.8214  -0.8006  -0.6326  -0.5973  -0.5313  -0.4604  -0.4086  -0.3788
    -0.2856  -0.2403  -0.1663  -0.0920   0.0136   0.0905   0.2397   0.3298
     0.4063   0.4675   0.5302   0.6664   0.7657   0.8239   0.8803   0.9811
     1.1356   1.1707   1.2047   1.3134   1.3626   1.4897   1.5424   1.6567
     1.8307   1.8683   1.9491   2.0302   2.2014   2.2969   2.3279   2.3621
     2.4493   2.4782   2.4913   2.5655   2.7065   2.7656   2.9478   3.0024
     8.0251   8.4631   9.0789   9.3162   9.3761   9.9695  10.3647  10.4211
    10.5990  10.8074

     occupation numbers 
     1.0000   1.0000   1.0000   1.0000   1.0000   1.0000   1.0000   1.0000
     1.0000   1.0000   1.0000   1.0000   1.0000   1.0000   1.0000   1.0000
     1.0000   1.0000   1.0000   1.0000   1.0000   1.0000   1.0000   1.0000
     1.0000   1.0000   1.0000   1.0000   1.0000   1.0000   1.0000   1.0000
     1.0000   1.0000   1.0000   1.0000   1.0000   1.0000   1.0000   1.0000
     1.0000   1.0000   1.0000   1.0000   1.0000   1.0000   1.0000   1.0000
     1.0000   1.0000   1.0000   1.0000   1.0000   1.0000   1.0000   1.0000
     1.0000   1.0000   1.0000   1.0000   1.0000   1.0000   1.0000   1.0000
     1.0000   1.0000   1.0000   1.0000   1.0000   1.0000   1.0000   1.0000
     1.0000   1.0000   1.0000   1.0000   1.0000   1.0000   1.0000   1.0000
     1.0000   1.0000   1.0000   1.0000   1.0000   1.0000   1.0000   1.0000
     1.0000   1.0000   1.0000   1.0000   1.0000   1.0000   1.0000   1.0000
     1.0000   1.0000   1.0000   1.0000   1.0000   1.0000   1.0000   1.0000
     0.0000   0.0000   0.0000   0.0000   0.0000   0.0000   0.0000   0.0000
     0.0000   0.0000

          k = 0.0000 0.2391 0.0000 ( 42299 PWs)   bands (ev):

   -86.9492 -86.9184 -86.7968 -86.7768 -53.0264 -53.0219 -53.0038 -52.9866
   -52.9449 -52.9277 -52.8607 -52.8092 -52.7505 -52.7292 -52.5901 -52.5547
   -46.5028 -18.5045 -18.4495 -18.4400 -16.7528 -16.6033 -16.5568 -16.4296
   -14.7991 -14.6872 -14.6687 -14.6039 -14.5784 -14.4903 -14.4468 -14.4089
   -14.3858 -14.3266 -14.2773 -14.2304  -5.4929  -5.2242  -4.9265  -4.8299
    -3.1407  -3.0611  -2.7728  -2.7144  -2.4492  -2.3557  -2.2488  -2.2176
    -2.1872  -2.0936  -2.0113  -1.8734  -1.3298  -1.2825  -1.0581  -0.9723
    -0.8450  -0.7868  -0.7351  -0.7073  -0.5664  -0.5127  -0.3433  -0.2799
    -0.2617  -0.1930  -0.0603  -0.0232   0.1511   0.2557   0.3161   0.3792
     0.4406   0.5484   0.5854   0.7288   0.7989   0.9148   0.9413   1.0874
     1.1225   1.2140   1.3113   1.3743   1.5162   1.5759   1.6434   1.7168
     1.7352   1.8489   1.9764   2.0022   2.1509   2.2081   2.2876   2.3727
     2.4500   2.4938   2.5693   2.6335   2.7117   2.7622   2.9699   3.0225
     6.6459   8.2837   8.8975   8.9922   9.5604  10.2287  10.4348  10.7035
    10.7478  10.8737

     occupation numbers 
     1.0000   1.0000   1.0000   1.0000   1.0000   1.0000   1.0000   1.0000
     1.0000   1.0000   1.0000   1.0000   1.0000   1.0000   1.0000   1.0000
     1.0000   1.0000   1.0000   1.0000   1.0000   1.0000   1.0000   1.0000
     1.0000   1.0000   1.0000   1.0000   1.0000   1.0000   1.0000   1.0000
     1.0000   1.0000   1.0000   1.0000   1.0000   1.0000   1.0000   1.0000
     1.0000   1.0000   1.0000   1.0000   1.0000   1.0000   1.0000   1.0000
     1.0000   1.0000   1.0000   1.0000   1.0000   1.0000   1.0000   1.0000
     1.0000   1.0000   1.0000   1.0000   1.0000   1.0000   1.0000   1.0000
     1.0000   1.0000   1.0000   1.0000   1.0000   1.0000   1.0000   1.0000
     1.0000   1.0000   1.0000   1.0000   1.0000   1.0000   1.0000   1.0000
     1.0000   1.0000   1.0000   1.0000   1.0000   1.0000   1.0000   1.0000
     1.0000   1.0000   1.0000   1.0000   1.0000   1.0000   1.0000   1.0000
     1.0000   1.0000   1.0000   1.0000   1.0000   1.0000   1.0000   1.0000
     0.0000   0.0000   0.0000   0.0000   0.0000   0.0000   0.0000   0.0000
     0.0000   0.0000

          k = 0.0000 0.2391 0.2337 ( 42264 PWs)   bands (ev):

   -86.9492 -86.9184 -86.7968 -86.7768 -53.0264 -53.0219 -53.0038 -52.9866
   -52.9449 -52.9277 -52.8607 -52.8092 -52.7505 -52.7292 -52.5901 -52.5547
   -46.5028 -18.5044 -18.4494 -18.4406 -16.7431 -16.5954 -16.5523 -16.4288
   -14.8058 -14.7091 -14.6588 -14.6045 -14.5782 -14.5017 -14.4431 -14.4152
   -14.3875 -14.3274 -14.2819 -14.2300  -5.4744  -5.2182  -4.9251  -4.8038
    -3.1278  -3.0510  -2.8031  -2.6739  -2.4446  -2.3460  -2.2527  -2.2129
    -2.1843  -2.0941  -2.0358  -1.8488  -1.3143  -1.2728  -1.0346  -0.9598
    -0.8397  -0.7992  -0.7217  -0.6957  -0.5712  -0.5270  -0.3962  -0.3067
    -0.2812  -0.1870  -0.0975  -0.0520   0.1758   0.2617   0.3029   0.3499
     0.4835   0.5220   0.5960   0.7336   0.8469   0.8788   0.9992   1.0778
     1.1232   1.2114   1.2819   1.3450   1.4634   1.5493   1.6453   1.6983
     1.7503   1.8095   1.9647   2.0456   2.1752   2.1977   2.2704   2.3699
     2.4502   2.4998   2.5596   2.6350   2.7260   2.7526   2.9572   3.0389
     6.7651   8.3505   8.9147   9.0459   9.6202  10.1798  10.3786  10.7043
    10.7818  10.8403

     occupation numbers 
     1.0000   1.0000   1.0000   1.0000   1.0000   1.0000   1.0000   1.0000
     1.0000   1.0000   1.0000   1.0000   1.0000   1.0000   1.0000   1.0000
     1.0000   1.0000   1.0000   1.0000   1.0000   1.0000   1.0000   1.0000
     1.0000   1.0000   1.0000   1.0000   1.0000   1.0000   1.0000   1.0000
     1.0000   1.0000   1.0000   1.0000   1.0000   1.0000   1.0000   1.0000
     1.0000   1.0000   1.0000   1.0000   1.0000   1.0000   1.0000   1.0000
     1.0000   1.0000   1.0000   1.0000   1.0000   1.0000   1.0000   1.0000
     1.0000   1.0000   1.0000   1.0000   1.0000   1.0000   1.0000   1.0000
     1.0000   1.0000   1.0000   1.0000   1.0000   1.0000   1.0000   1.0000
     1.0000   1.0000   1.0000   1.0000   1.0000   1.0000   1.0000   1.0000
     1.0000   1.0000   1.0000   1.0000   1.0000   1.0000   1.0000   1.0000
     1.0000   1.0000   1.0000   1.0000   1.0000   1.0000   1.0000   1.0000
     1.0000   1.0000   1.0000   1.0000   1.0000   1.0000   1.0000   1.0000
     0.0000   0.0000   0.0000   0.0000   0.0000   0.0000   0.0000   0.0000
     0.0000   0.0000

          k = 0.0000 0.2391 0.4675 ( 42241 PWs)   bands (ev):

   -86.9492 -86.9184 -86.7968 -86.7768 -53.0264 -53.0219 -53.0038 -52.9866
   -52.9449 -52.9277 -52.8607 -52.8092 -52.7505 -52.7292 -52.5901 -52.5547
   -46.5028 -18.5039 -18.4492 -18.4421 -16.7147 -16.5817 -16.5347 -16.4305
   -14.8251 -14.7376 -14.6578 -14.6152 -14.5727 -14.5112 -14.4556 -14.4205
   -14.3930 -14.3307 -14.2937 -14.2308  -5.4153  -5.1930  -4.9218  -4.7664
    -3.1067  -3.0271  -2.7879  -2.6512  -2.4437  -2.3380  -2.2657  -2.1895
    -2.1380  -2.0940  -2.0539  -1.8496  -1.3107  -1.2334  -0.9896  -0.9354
    -0.8404  -0.8208  -0.7138  -0.6860  -0.5815  -0.5166  -0.4513  -0.3356
    -0.2920  -0.1962  -0.1451  -0.0417   0.1568   0.2306   0.2768   0.3711
     0.4686   0.5588   0.5862   0.6904   0.7503   0.9399   1.0101   1.0633
     1.1150   1.1894   1.2434   1.3209   1.3615   1.4706   1.6426   1.7065
     1.7445   1.7921   1.9691   2.0741   2.1395   2.2267   2.2652   2.3943
     2.4361   2.5033   2.5605   2.6327   2.7125   2.7637   2.9505   3.0500
     7.1045   8.5265   8.9617   9.1442   9.7052  10.1632  10.2002  10.5847
    10.7421  10.8341

     occupation numbers 
     1.0000   1.0000   1.0000   1.0000   1.0000   1.0000   1.0000   1.0000
     1.0000   1.0000   1.0000   1.0000   1.0000   1.0000   1.0000   1.0000
     1.0000   1.0000   1.0000   1.0000   1.0000   1.0000   1.0000   1.0000
     1.0000   1.0000   1.0000   1.0000   1.0000   1.0000   1.0000   1.0000
     1.0000   1.0000   1.0000   1.0000   1.0000   1.0000   1.0000   1.0000
     1.0000   1.0000   1.0000   1.0000   1.0000   1.0000   1.0000   1.0000
     1.0000   1.0000   1.0000   1.0000   1.0000   1.0000   1.0000   1.0000
     1.0000   1.0000   1.0000   1.0000   1.0000   1.0000   1.0000   1.0000
     1.0000   1.0000   1.0000   1.0000   1.0000   1.0000   1.0000   1.0000
     1.0000   1.0000   1.0000   1.0000   1.0000   1.0000   1.0000   1.0000
     1.0000   1.0000   1.0000   1.0000   1.0000   1.0000   1.0000   1.0000
     1.0000   1.0000   1.0000   1.0000   1.0000   1.0000   1.0000   1.0000
     1.0000   1.0000   1.0000   1.0000   1.0000   1.0000   1.0000   1.0000
     0.0000   0.0000   0.0000   0.0000   0.0000   0.0000   0.0000   0.0000
     0.0000   0.0000

          k = 0.0000 0.2391 0.7012 ( 42219 PWs)   bands (ev):

   -86.9492 -86.9184 -86.7968 -86.7768 -53.0264 -53.0219 -53.0038 -52.9866
   -52.9449 -52.9277 -52.8607 -52.8092 -52.7505 -52.7292 -52.5901 -52.5547
   -46.5028 -18.5035 -18.4489 -18.4439 -16.6779 -16.5676 -16.5108 -16.4386
   -14.8487 -14.7685 -14.6594 -14.6262 -14.5758 -14.5148 -14.4640 -14.4236
   -14.4010 -14.3360 -14.3059 -14.2352  -5.3380  -5.1589  -4.9172  -4.7459
    -3.0955  -2.9886  -2.7383  -2.6449  -2.4487  -2.3395  -2.2775  -2.1877
    -2.0994  -2.0609  -2.0357  -1.8888  -1.3065  -1.1959  -0.9430  -0.8925
    -0.8231  -0.8130  -0.7217  -0.6797  -0.5499  -0.4963  -0.4678  -0.3717
    -0.2595  -0.2268  -0.1767  -0.0310   0.0881   0.1721   0.2357   0.3680
     0.3932   0.5221   0.5823   0.6489   0.7462   0.8785   0.9389   0.9999
     1.1352   1.1977   1.2311   1.2696   1.3871   1.4127   1.6263   1.6552
     1.7502   1.8458   1.9447   2.0744   2.1074   2.2705   2.2881   2.4220
     2.4557   2.4932   2.5363   2.6340   2.7010   2.7768   2.9523   3.0487
     7.5744   8.7246   8.9737   9.2526   9.6569   9.9813  10.2856  10.4550
    10.6193  10.8330

     occupation numbers 
     1.0000   1.0000   1.0000   1.0000   1.0000   1.0000   1.0000   1.0000
     1.0000   1.0000   1.0000   1.0000   1.0000   1.0000   1.0000   1.0000
     1.0000   1.0000   1.0000   1.0000   1.0000   1.0000   1.0000   1.0000
     1.0000   1.0000   1.0000   1.0000   1.0000   1.0000   1.0000   1.0000
     1.0000   1.0000   1.0000   1.0000   1.0000   1.0000   1.0000   1.0000
     1.0000   1.0000   1.0000   1.0000   1.0000   1.0000   1.0000   1.0000
     1.0000   1.0000   1.0000   1.0000   1.0000   1.0000   1.0000   1.0000
     1.0000   1.0000   1.0000   1.0000   1.0000   1.0000   1.0000   1.0000
     1.0000   1.0000   1.0000   1.0000   1.0000   1.0000   1.0000   1.0000
     1.0000   1.0000   1.0000   1.0000   1.0000   1.0000   1.0000   1.0000
     1.0000   1.0000   1.0000   1.0000   1.0000   1.0000   1.0000   1.0000
     1.0000   1.0000   1.0000   1.0000   1.0000   1.0000   1.0000   1.0000
     1.0000   1.0000   1.0000   1.0000   1.0000   1.0000   1.0000   1.0000
     0.0000   0.0000   0.0000   0.0000   0.0000   0.0000   0.0000   0.0000
     0.0000   0.0000

          k = 0.0000 0.2391 0.9349 ( 42236 PWs)   bands (ev):

   -86.9492 -86.9184 -86.7968 -86.7768 -53.0264 -53.0219 -53.0038 -52.9866
   -52.9449 -52.9277 -52.8607 -52.8092 -52.7505 -52.7292 -52.5901 -52.5547
   -46.5028 -18.5031 -18.4487 -18.4451 -16.6492 -16.5604 -16.4891 -16.4523
   -14.8645 -14.7909 -14.6562 -14.6312 -14.5836 -14.5212 -14.4637 -14.4202
   -14.4093 -14.3388 -14.3151 -14.2398  -5.2764  -5.1296  -4.9165  -4.7545
    -3.0812  -2.9643  -2.6982  -2.6404  -2.4585  -2.3402  -2.2897  -2.2021
    -2.0767  -2.0328  -2.0002  -1.9298  -1.3082  -1.1682  -0.9411  -0.8634
    -0.8251  -0.7913  -0.7082  -0.5748  -0.5189  -0.4818  -0.4393  -0.3912
    -0.2790  -0.2291  -0.1713  -0.1141   0.0209   0.0898   0.2285   0.3315
     0.3983   0.4526   0.5364   0.6735   0.7383   0.8278   0.8461   0.9850
     1.1154   1.1860   1.2272   1.3089   1.3472   1.4646   1.5771   1.6656
     1.7361   1.8643   1.9341   2.0487   2.1434   2.2993   2.3128   2.4231
     2.4438   2.4909   2.5363   2.6103   2.7085   2.7936   2.9568   3.0411
     8.0754   8.6042   9.0855   9.3398   9.4349   9.9355  10.3208  10.4754
    10.5597  10.7976

     occupation numbers 
     1.0000   1.0000   1.0000   1.0000   1.0000   1.0000   1.0000   1.0000
     1.0000   1.0000   1.0000   1.0000   1.0000   1.0000   1.0000   1.0000
     1.0000   1.0000   1.0000   1.0000   1.0000   1.0000   1.0000   1.0000
     1.0000   1.0000   1.0000   1.0000   1.0000   1.0000   1.0000   1.0000
     1.0000   1.0000   1.0000   1.0000   1.0000   1.0000   1.0000   1.0000
     1.0000   1.0000   1.0000   1.0000   1.0000   1.0000   1.0000   1.0000
[...]
     atom    2 type  1   force =     0.04694177   -0.10435394   -0.18553597
     atom    3 type  1   force =    -0.01341784   -0.16138443    0.14193215
     atom    4 type  1   force =    -0.07153776    0.09559431    0.16853154
     atom    5 type  1   force =     0.06125288    0.19007914   -0.08172538
     atom    6 type  4   force =    -0.00523593    0.06516285    0.03581654
     atom    7 type  4   force =    -0.02928490    0.01891903   -0.05973266
     atom    8 type  4   force =     0.00765190   -0.04543572   -0.03252726
     atom    9 type  4   force =     0.02411277   -0.01091018    0.05839428
     atom   10 type  3   force =    -0.58668956   -0.20314707   -1.03775860
     atom   11 type  3   force =    -0.07597079    0.23674819   -1.48563711
     atom   12 type  3   force =     0.54332112    0.26583557    1.05800295
     atom   13 type  3   force =     0.05787281   -0.23253854    1.48662756
     atom   14 type  3   force =     1.40258248   -0.23530807   -0.69393425
     atom   15 type  3   force =    -1.30165054    0.41015499   -0.04526903
     atom   16 type  3   force =    -1.42669469    0.23381376    0.64039553
     atom   17 type  3   force =     1.32850101   -0.52326975    0.12915892
     atom   18 type  3   force =    -0.11731837   -1.38061345    0.77424964
     atom   19 type  3   force =     0.63919781    0.66747992    0.95982107
     atom   20 type  3   force =     0.01725126   -1.55285847   -0.99306242
     atom   21 type  3   force =    -0.06599982    1.05417767   -0.59708005
     atom   22 type  3   force =     0.09533054    1.34804709   -0.85305857
     atom   23 type  3   force =    -0.62724172   -0.69351244   -0.93399076
     atom   24 type  3   force =     0.02908628    1.64433098    0.97347544
     atom   25 type  3   force =     0.10270714   -0.98501772    0.60271335
     The ionic contribution  to forces
     atom    1 type  2   force =    -1.26258550    2.81607771    1.74082011
     atom    2 type  1   force =    10.14875333    3.99798041   -1.62686988
     atom    3 type  1   force =     3.86836870   -9.50667754   -2.90163134
     atom    4 type  1   force =    -7.73951476   -4.90529555    1.97730433
     atom    5 type  1   force =    -4.99912767    8.46492550    1.80299515
     atom    6 type  4   force =    -1.44067623    2.13698007   -1.69888846
     atom    7 type  4   force =     3.14296831   -0.74925742    1.02406130
     atom    8 type  4   force =     1.35578795   -2.30907056    1.30076657
     atom    9 type  4   force =    -3.15038958    0.86125655   -1.12780447
     atom   10 type  3   force =     0.86081080    5.28262169   -0.82471764
     atom   11 type  3   force =     6.79199421   -3.60193701    2.08179942
     atom   12 type  3   force =     0.94092312   -6.84788708   -0.23501347
     atom   13 type  3   force =    -6.83387001    3.49430158   -2.02106118
     atom   14 type  3   force =     0.57240260    1.29170229    7.05915497
     atom   15 type  3   force =    -0.33802551   -3.40942197    2.47789907
     atom   16 type  3   force =    -0.29447431   -1.21212474   -6.64375948
     atom   17 type  3   force =    -0.34336689    4.85867827   -4.71414494
     atom   18 type  3   force =    -4.33742346    7.77048908    2.33539943
     atom   19 type  3   force =     2.57475995   -0.47609165   -3.52482832
     atom   20 type  3   force =     2.99551396    4.23641238    8.11396381
     atom   21 type  3   force =    -8.40981354   -0.98335417   -0.26175538
     atom   22 type  3   force =     4.28322677   -6.78313663    0.12189034
     atom   23 type  3   force =    -2.38438166    1.48754470    3.26175986
     atom   24 type  3   force =    -4.15673037   -6.10421291   -7.71908061
     atom   25 type  3   force =     8.15486980    0.18949699    0.00174082
     The local contribution  to forces
     atom    1 type  2   force =     1.32120441   -2.82923025   -1.69278764
     atom    2 type  1   force =   -10.19719356   -3.88885301    1.82746082
     atom    3 type  1   force =    -3.85672949    9.68990681    2.74430474
     atom    4 type  1   force =     7.81580540    4.80595992   -2.16092824
     atom    5 type  1   force =     4.93454223   -8.67927191   -1.71443486
     atom    6 type  4   force =     1.45227136   -2.20225266    1.66602263
     atom    7 type  4   force =    -3.11348009    0.72994400   -0.96103755
     atom    8 type  4   force =    -1.36951518    2.35759260   -1.27460855
     atom    9 type  4   force =     3.12673054   -0.85124690    1.06378085
     atom   10 type  3   force =    -0.31299682   -5.09916311    1.79524782
     atom   11 type  3   force =    -6.71312729    3.37585485   -0.68706679
     atom   12 type  3   force =    -1.45074946    6.61159369   -0.75787746
     atom   13 type  3   force =     6.77080001   -3.27122529    0.62545007
     atom   14 type  3   force =    -1.87960363   -1.07014235   -6.40257640
     atom   15 type  3   force =     1.54842136    3.01739071   -2.42808199
     atom   16 type  3   force =     1.62252723    0.99229740    6.03627626
     atom   17 type  3   force =    -0.89185442   -4.35708751    4.58295508
     atom   18 type  3   force =     4.44395183   -6.47055219   -3.06355761
     atom   19 type  3   force =    -3.17419296   -0.14594731    2.61997704
     atom   20 type  3   force =    -3.01260176   -2.78493286   -7.18455782
     atom   21 type  3   force =     8.47607265   -0.00279354    0.83249163
     atom   22 type  3   force =    -4.36661425    5.51667090    0.67714734
     atom   23 type  3   force =     2.97292763   -0.84158285   -2.38246521
     atom   24 type  3   force =     4.12875597    4.56604526    6.80627030
     atom   25 type  3   force =    -8.25667172    0.73266059   -0.57933886
     The core correction contribution to forces
     atom    1 type  2   force =     0.00000000    0.00000000    0.00000000
     atom    2 type  1   force =    -0.00174461    0.00064153    0.00065401
     atom    3 type  1   force =     0.00066048   -0.00087756    0.00069736
     atom    4 type  1   force =     0.00189562   -0.00040329   -0.00053081
     atom    5 type  1   force =    -0.00114194    0.00071308   -0.00094019
     atom    6 type  4   force =     0.00101326   -0.00402352   -0.00211976
     atom    7 type  4   force =     0.00208566   -0.00130597    0.00396686
     atom    8 type  4   force =    -0.00107354    0.00265418    0.00182980
     atom    9 type  4   force =    -0.00169494    0.00054962   -0.00378806
     atom   10 type  3   force =     0.00541878    0.00196900    0.01006051
     atom   11 type  3   force =     0.00145942   -0.00260098    0.01446060
     atom   12 type  3   force =    -0.00503766   -0.00258162   -0.01018682
     atom   13 type  3   force =    -0.00127048    0.00255249   -0.01442172
     atom   14 type  3   force =    -0.01344609    0.00237052    0.00738896
     atom   15 type  3   force =     0.01233561   -0.00423401    0.00090021
     atom   16 type  3   force =     0.01368947   -0.00237405   -0.00686310
     atom   17 type  3   force =    -0.01262204    0.00536270   -0.00162965
     atom   18 type  3   force =     0.00066365    0.01387886   -0.00735195
     atom   19 type  3   force =    -0.00625821   -0.00620141   -0.00960773
     atom   20 type  3   force =    -0.00003965    0.01503787    0.01015496
     atom   21 type  3   force =     0.00048434   -0.01019622    0.00599338
     atom   22 type  3   force =    -0.00042230   -0.01353958    0.00817419
     atom   23 type  3   force =     0.00611742    0.00646836    0.00933221
     atom   24 type  3   force =    -0.00045849   -0.01595637   -0.00994182
     atom   25 type  3   force =    -0.00087492    0.00954104   -0.00604668
     The Hubbard contrib.    to forces
     atom    1 type  2   force =     0.00000000    0.00000000    0.00000000
     atom    2 type  1   force =     0.00000000    0.00000000    0.00000000
     atom    3 type  1   force =     0.00000000    0.00000000    0.00000000
     atom    4 type  1   force =     0.00000000    0.00000000    0.00000000
     atom    5 type  1   force =     0.00000000    0.00000000    0.00000000
     atom    6 type  4   force =     0.00000000    0.00000000    0.00000000
     atom    7 type  4   force =     0.00000000    0.00000000    0.00000000
     atom    8 type  4   force =     0.00000000    0.00000000    0.00000000
     atom    9 type  4   force =     0.00000000    0.00000000    0.00000000
     atom   10 type  3   force =     0.00000000    0.00000000    0.00000000
     atom   11 type  3   force =     0.00000000    0.00000000    0.00000000
     atom   12 type  3   force =     0.00000000    0.00000000    0.00000000
     atom   13 type  3   force =     0.00000000    0.00000000    0.00000000
     atom   14 type  3   force =     0.00000000    0.00000000    0.00000000
     atom   15 type  3   force =     0.00000000    0.00000000    0.00000000
     atom   16 type  3   force =     0.00000000    0.00000000    0.00000000
     atom   17 type  3   force =     0.00000000    0.00000000    0.00000000
     atom   18 type  3   force =     0.00000000    0.00000000    0.00000000
     atom   19 type  3   force =     0.00000000    0.00000000    0.00000000
     atom   20 type  3   force =     0.00000000    0.00000000    0.00000000
     atom   21 type  3   force =     0.00000000    0.00000000    0.00000000
     atom   22 type  3   force =     0.00000000    0.00000000    0.00000000
     atom   23 type  3   force =     0.00000000    0.00000000    0.00000000
     atom   24 type  3   force =     0.00000000    0.00000000    0.00000000
     atom   25 type  3   force =     0.00000000    0.00000000    0.00000000
     The SCF correction term to forces
     atom    1 type  2   force =     0.00000563    0.00000017    0.00000107
     atom    2 type  1   force =     0.00000104    0.00000065    0.00000044
     atom    3 type  1   force =     0.00000324    0.00000150    0.00000175
     atom    4 type  1   force =    -0.00000391   -0.00000152   -0.00000125
     atom    5 type  1   force =    -0.00000013    0.00000103   -0.00000019
     atom    6 type  4   force =     0.00000298    0.00000126   -0.00000079
     atom    7 type  4   force =    -0.00000058   -0.00000071    0.00000017
     atom    8 type  4   force =     0.00000179   -0.00000114    0.00000061
     atom    9 type  4   force =    -0.00000453    0.00000055   -0.00000082
     atom   10 type  3   force =     0.00000449    0.00000362    0.00000276
     atom   11 type  3   force =     0.00000136   -0.00000125   -0.00000261
     atom   12 type  3   force =     0.00000213   -0.00000363    0.00000047
     atom   13 type  3   force =    -0.00000654    0.00000143    0.00000381
     atom   14 type  3   force =    -0.00000643    0.00000008   -0.00000287
     atom   15 type  3   force =    -0.00000007   -0.00000056    0.00000140
     atom   16 type  3   force =    -0.00000367   -0.00000076   -0.00000016
     atom   17 type  3   force =     0.00000656    0.00000085   -0.00000203
     atom   18 type  3   force =     0.00000646   -0.00000147   -0.00000242
     atom   19 type  3   force =     0.00000065   -0.00000712    0.00000220
     atom   20 type  3   force =     0.00000417   -0.00000153    0.00000307
     atom   21 type  3   force =    -0.00000559   -0.00000046   -0.00000310
     atom   22 type  3   force =     0.00000181    0.00000023   -0.00000046
     atom   23 type  3   force =    -0.00000409    0.00000167   -0.00000207
     atom   24 type  3   force =     0.00000113    0.00000203   -0.00000227
     atom   25 type  3   force =    -0.00000001    0.00000592    0.00000279

     Total force =     0.322358     Total SCF correction =     0.000025


     Computing stress (Cartesian axis) and pressure


     negative rho (up, down):  0.000E+00 9.874E-04
          total   stress  (Ry/bohr**3)                   (kbar)     P=     -157.27
  -0.00139399   0.00015280  -0.00004694         -205.06       22.48       -6.91
   0.00015280  -0.00087471  -0.00003541           22.48     -128.67       -5.21
  -0.00004694  -0.00003541  -0.00093853           -6.91       -5.21     -138.06

     kinetic stress (kbar)  22470.68     85.69    -46.54
                               85.69  22602.63     -4.79
                              -46.54     -4.79  22623.27

     local   stress (kbar)  -8744.17   3342.80  -6869.14
                             3342.80 -13160.01   -500.71
                            -6869.14   -500.71  -6010.44

     nonloc. stress (kbar)  -5685.52      4.31     -5.15
                                4.31  -5666.99     -6.55
                               -5.15     -6.55  -5672.20

     hartree stress (kbar)  13107.62  -1276.94   2943.10
                            -1276.94  15406.42    258.47
                             2943.10    258.47  12312.64

     exc-cor stress (kbar)  -2387.45     -2.87      2.53
                               -2.87  -2390.35     -0.62
                                2.53     -0.62  -2390.55

     corecor stress (kbar)  -2686.81      0.11     -0.15
                                0.11  -2687.81      1.02
                               -0.15      1.02  -2687.81

     ewald   stress (kbar) -16279.40  -2130.63   3968.45
                            -2130.63 -14232.57    247.96
                             3968.45    247.96 -18312.98

     hubbard stress (kbar)      0.00      0.00      0.00
                                0.00      0.00      0.00
                                0.00      0.00      0.00

     DFT-D   stress (kbar)      0.00      0.00      0.00
                                0.00      0.00      0.00
                                0.00      0.00      0.00

     XDM     stress (kbar)      0.00      0.00      0.00
                                0.00      0.00      0.00
                                0.00      0.00      0.00

     dft-nl  stress (kbar)      0.00      0.00      0.00
                                0.00      0.00      0.00
                                0.00      0.00      0.00

     TS-vdW  stress (kbar)      0.00      0.00      0.00
                                0.00      0.00      0.00
                                0.00      0.00      0.00



     init_run     :   1170.26s CPU   1327.26s WALL (       1 calls)
     electrons    : 102901.17s CPU 117896.80s WALL (       1 calls)
     forces       :    156.23s CPU    177.72s WALL (       1 calls)
     stress       :    790.28s CPU    901.12s WALL (       1 calls)

     Called by init_run:
     wfcinit      :   1153.43s CPU   1307.91s WALL (       1 calls)
     wfcinit:atom :      0.83s CPU      0.90s WALL (     316 calls)
     wfcinit:wfcr :   1147.24s CPU   1300.77s WALL (     316 calls)
     potinit      :      5.80s CPU      6.94s WALL (       1 calls)
     hinit0       :      6.87s CPU      7.51s WALL (       1 calls)

     Called by electrons:
     c_bands      :  84699.94s CPU  97033.69s WALL (      40 calls)
     sum_band     :  17876.49s CPU  20488.75s WALL (      40 calls)
     v_of_rho     :    106.67s CPU    121.27s WALL (      41 calls)
     v_h          :      9.94s CPU     10.91s WALL (      41 calls)
     v_xc         :    101.68s CPU    116.18s WALL (      43 calls)
     newd         :     93.63s CPU    110.57s WALL (      41 calls)
     PAW_pot      :     23.53s CPU     27.54s WALL (      41 calls)
     mix_rho      :     84.49s CPU     95.84s WALL (      40 calls)

     Called by c_bands:
     init_us_2    :     86.54s CPU     94.37s WALL (   26228 calls)
     cegterg      :  83680.37s CPU  95806.86s WALL (   12640 calls)

     Called by sum_band:
     sum_band:wei :      0.76s CPU      0.93s WALL (      40 calls)
     sum_band:loo :  17698.25s CPU  20283.79s WALL (      40 calls)
     sum_band:buf :     21.22s CPU     22.16s WALL (   12640 calls)
     sum_band:ini :     34.00s CPU     35.81s WALL (   12640 calls)
     sum_band:cal :   1271.93s CPU   1472.46s WALL (   12640 calls)
     sum_band:bec :      3.15s CPU      3.16s WALL (   12640 calls)
     addusdens    :    109.10s CPU    127.39s WALL (      40 calls)
     addusd:skk   :      0.71s CPU      0.83s WALL (     120 calls)
     addusd:dgemm :      4.99s CPU      9.54s WALL (     240 calls)
     addusd:qvan2 :    102.53s CPU    115.03s WALL (     240 calls)

     Called by *egterg:
     cdiaghg      :   1310.53s CPU   1527.32s WALL (   40079 calls)
     cegterg:over :   4346.38s CPU   4969.33s WALL (   27439 calls)
     cegterg:upda :    219.03s CPU    248.39s WALL (   27439 calls)
     cegterg:last :    422.46s CPU    478.48s WALL (   19723 calls)
     h_psi        :  74066.09s CPU  84799.51s WALL (   40395 calls)
     s_psi        :    475.74s CPU    553.02s WALL (   40395 calls)
     g_psi        :     25.46s CPU     32.55s WALL (   27439 calls)

     Called by h_psi:
     h_psi:calbec :   3543.00s CPU   4087.03s WALL (   40395 calls)
     vloc_psi     :  69971.20s CPU  80074.29s WALL (   40395 calls)
     add_vuspsi   :    495.83s CPU    578.53s WALL (   40395 calls)

     General routines
     calbec       :   5099.83s CPU   5883.24s WALL (   54615 calls)
     fft          :    207.47s CPU    236.59s WALL (    1063 calls)
     ffts         :      3.10s CPU      3.46s WALL (     162 calls)
     fftw         :  85377.22s CPU  97849.96s WALL ( 7617486 calls)
     interpolate  :     13.19s CPU     15.13s WALL (      82 calls)

     Parallel routines
     fft_scatt_xy :    390.76s CPU    396.26s WALL ( 7618711 calls)
     fft_scatt_yz :  83686.19s CPU  96163.88s WALL ( 7618711 calls)

     PAW routines
     PAW_pot      :     23.53s CPU     27.54s WALL (      41 calls)

     PWSCF        :   1d 5h10m CPU   1d 9h25m WALL


   This run was terminated on:   2: 5:27   7Feb2023            

=------------------------------------------------------------------------------=
   JOB DONE.
=------------------------------------------------------------------------------=
Note: The following floating-point exceptions are signalling: IEEE_DENORMAL
Note: The following floating-point exceptions are signalling: IEEE_DENORMAL
Note: The following floating-point exceptions are signalling: IEEE_DENORMAL
Note: The following floating-point exceptions are signalling: IEEE_DENORMAL
Note: The following floating-point exceptions are signalling: IEEE_DENORMAL
Note: The following floating-point exceptions are signalling: IEEE_DENORMAL
Note: The following floating-point exceptions are signalling: IEEE_DENORMAL
Note: The following floating-point exceptions are signalling: IEEE_DENORMAL
Note: The following floating-point exceptions are signalling: IEEE_DENORMAL
Note: The following floating-point exceptions are signalling: IEEE_DENORMAL
Note: The following floating-point exceptions are signalling: IEEE_DENORMAL
Note: The following floating-point exceptions are signalling: IEEE_DENORMAL
Note: The following floating-point exceptions are signalling: IEEE_DENORMAL
Note: The following floating-point exceptions are signalling: IEEE_DENORMAL
Note: The following floating-point exceptions are signalling: IEEE_DENORMAL
Note: The following floating-point exceptions are signalling: IEEE_DENORMAL
Note: The following floating-point exceptions are signalling: IEEE_UNDERFLOW_FLAG IEEE_DENORMAL
Note: The following floating-point exceptions are signalling: IEEE_DENORMAL
Note: The following floating-point exceptions are signalling: IEEE_DENORMAL
Note: The following floating-point exceptions are signalling: IEEE_DENORMAL
Note: The following floating-point exceptions are signalling: IEEE_DENORMAL
Note: The following floating-point exceptions are signalling: IEEE_DENORMAL
Note: The following floating-point exceptions are signalling: IEEE_DENORMAL
Note: The following floating-point exceptions are signalling: IEEE_DENORMAL
Note: The following floating-point exceptions are signalling: IEEE_DENORMAL
Note: The following floating-point exceptions are signalling: IEEE_DENORMAL
Note: The following floating-point exceptions are signalling: IEEE_DENORMAL
Note: The following floating-point exceptions are signalling: IEEE_DENORMAL
