
     Program PWSCF v.6.7MaX starts on 16Jan2023 at 19:25:10 

     This program is part of the open-source Quantum ESPRESSO suite
     for quantum simulation of materials; please cite
         "P. Giannozzi et al., J. Phys.:Condens. Matter 21 395502 (2009);
         "P. Giannozzi et al., J. Phys.:Condens. Matter 29 465901 (2017);
          URL http://www.quantum-espresso.org", 
     in publications or presentations arising from this work. More details at
     http://www.quantum-espresso.org/quote

     Parallel version (MPI), running on    16 processors

     MPI processes distributed on     1 nodes
     R & G space division:  proc/nbgrp/npool/nimage =      16
     Reading input from scale_3d-01.in

     Current dimensions of program PWSCF are:
     Max number of different atomic species (ntypx) = 10
     Max number of k-points (npk) =  40000
     Max angular momentum in pseudopotentials (lmaxx) =  3
     Message from routine read_pp_mesh:
     mesh size missing, using the one in header
     file Fe.pbe-spn-kjpaw_psl.0.2.1.UPF: wavefunction(s)  3D renormalized
     file O.pbe-n-kjpaw_psl.0.1.UPF: wavefunction(s)  2P renormalized

     Subspace diagonalization in iterative solution of the eigenvalue problem:
     a serial algorithm will be used


     Parallelization info
     --------------------
     sticks:   dense  smooth     PW     G-vecs:    dense   smooth      PW
     Min        1160     430    116                73102    16474    2320
     Max        1162     431    117                73103    16477    2322
     Sum       18565    6893   1863              1169635   263601   37143



     bravais-lattice index     =            0
     lattice parameter (alat)  =      19.0096  a.u.
     unit-cell volume          =    1951.4432 (a.u.)^3
     number of atoms/cell      =           25
     number of atomic types    =            4
     number of electrons       =       189.00
     number of Kohn-Sham states=          114
     kinetic-energy cutoff     =     100.0000  Ry
     charge density cutoff     =    1080.0000  Ry
     scf convergence threshold =      2.0E-10
     mixing beta               =       0.4000
     number of iterations used =            8  plain     mixing
     Exchange-correlation= PBE
                           (   1   4   3   4   0   0   0)

     celldm(1)=  19.009555  celldm(2)=   0.000000  celldm(3)=   0.000000
     celldm(4)=   0.000000  celldm(5)=   0.000000  celldm(6)=   0.000000

     crystal axes: (cart. coord. in units of alat)
               a(1) = (   1.000000   0.000000   0.000000 )  
               a(2) = (   0.000000   0.597590   0.000000 )  
               a(3) = (   0.000000   0.000000   0.475375 )  

     reciprocal axes: (cart. coord. in units 2 pi/alat)
               b(1) = (  1.000000  0.000000  0.000000 )  
               b(2) = (  0.000000  1.673388  0.000000 )  
               b(3) = (  0.000000  0.000000  2.103600 )  


     PseudoPot. # 1 for Fe read from file:
     /opt/QEpot/SSSP_precision_pseudos/Fe.pbe-spn-kjpaw_psl.0.2.1.UPF
     MD5 check sum: e86618425769142926afa95317d90200
     Pseudo is Projector augmented-wave + core cor, Zval = 16.0
     Generated using "atomic" code by A. Dal Corso  v.5.0.99 svn rev. 10869
     Shape of augmentation charge: PSQ
     Using radial grid of 1191 points,  6 beta functions with: 
                l(1) =   0
                l(2) =   0
                l(3) =   1
                l(4) =   1
                l(5) =   2
                l(6) =   2
     Q(r) pseudized with 0 coefficients 


     PseudoPot. # 2 for Na read from file:
     /opt/QEpot/SSSP_precision_pseudos/Na_ONCV_PBE-1.0.oncvpsp.upf
     MD5 check sum: 24a298df0a6742ae313db96548fdb2a4
     Pseudo is Norm-conserving, Zval =  9.0
     Generated using ONCVPSP code by D. R. Hamann
     Using radial grid of 1992 points,  4 beta functions with: 
                l(1) =   0
                l(2) =   0
                l(3) =   1
                l(4) =   1

     PseudoPot. # 3 for O  read from file:
     /opt/QEpot/SSSP_precision_pseudos/O.pbe-n-kjpaw_psl.0.1.UPF
     MD5 check sum: 0234752ac141de4415c5fc33072bef88
     Pseudo is Projector augmented-wave + core cor, Zval =  6.0
     Generated using "atomic" code by A. Dal Corso  v.5.0.99 svn rev. 10869
     Shape of augmentation charge: BESSEL
     Using radial grid of 1095 points,  4 beta functions with: 
                l(1) =   0
                l(2) =   0
                l(3) =   1
                l(4) =   1
     Q(r) pseudized with 0 coefficients 


     PseudoPot. # 4 for P  read from file:
     /opt/QEpot/SSSP_precision_pseudos/P.pbe-n-rrkjus_psl.1.0.0.UPF
     MD5 check sum: 8b930f418f0a4573dca56cd030ffe088
     Pseudo is Ultrasoft + core correction, Zval =  5.0
     Generated using "atomic" code by A. Dal Corso  v.5.1
     Using radial grid of 1147 points,  6 beta functions with: 
                l(1) =   0
                l(2) =   0
                l(3) =   1
                l(4) =   1
                l(5) =   2
                l(6) =   2
     Q(r) pseudized with 0 coefficients 


     atomic species   valence    mass     pseudopotential
        Fe            16.00    55.84500     Fe( 1.00)
        Na             9.00    22.98977     Na( 1.00)
        O              6.00    15.99940     O ( 1.00)
        P              5.00    30.97376     P ( 1.00)

     Starting magnetic structure 
     atomic species   magnetization
        Fe           0.312
        Na           0.000
        O            0.000
        P            0.000

     No symmetry found


                                    s                        frac. trans.

      isym =  1     identity                                     

 cryst.   s( 1) = (     1          0          0      )
                  (     0          1          0      )
                  (     0          0          1      )

 cart.    s( 1) = (  1.0000000  0.0000000  0.0000000 )
                  (  0.0000000  1.0000000  0.0000000 )
                  (  0.0000000  0.0000000  1.0000000 )


   Cartesian axes

     site n.     atom                  positions (alat units)
         1           Na  tau(   1) = (   0.0062130   0.5589946   0.3199752  )
         2           Fe  tau(   2) = (   0.3024540   0.4615785   0.4032815  )
         3           Fe  tau(   3) = (   0.2226710   0.2028125   0.2366838  )
         4           Fe  tau(   4) = (   0.7013320   0.1357252   0.0672885  )
         5           Fe  tau(   5) = (   0.7738600   0.3969605   0.2293763  )
         6           P   tau(   6) = (   0.0926260   0.3991805   0.1250451  )
         7           P   tau(   7) = (   0.3962170   0.1502998   0.4467465  )
         8           P   tau(   8) = (   0.9068620   0.2055130   0.3410543  )
         9           P   tau(   9) = (   0.6031040   0.4475943   0.0235049  )
        10           O   tau(  10) = (   0.1770480   0.4126729   0.2517784  )
        11           O   tau(  11) = (   0.3555840   0.1507863   0.1134531  )
        12           O   tau(  12) = (   0.8203270   0.1944755   0.2163144  )
        13           O   tau(  13) = (   0.6432920   0.4477502   0.3569062  )
        14           O   tau(  14) = (   0.4570760   0.4637854   0.0390093  )
        15           O   tau(  15) = (   0.0482830   0.1673598   0.3167541  )
        16           O   tau(  16) = (   0.5424170   0.1341864   0.4331660  )
        17           O   tau(  17) = (   0.9514120   0.4382384   0.1505538  )
        18           O   tau(  18) = (   0.1482380   0.4961150   0.0257630  )
        19           O   tau(  19) = (   0.3208110   0.0482100   0.3626226  )
        20           O   tau(  20) = (   0.8859830   0.3464032   0.3830367  )
        21           O   tau(  21) = (   0.6517160   0.3224966   0.0965763  )
        22           O   tau(  22) = (   0.8510480   0.1052200   0.4372442  )
        23           O   tau(  23) = (   0.6793830   0.5490411   0.1078765  )
        24           O   tau(  24) = (   0.1159970   0.2583363   0.0855153  )
        25           O   tau(  25) = (   0.3461160   0.2749679   0.3726996  )

   Crystallographic axes

     site n.     atom                  positions (cryst. coord.)
         1           Na  tau(   1) = (  0.0062130  0.9354150  0.6731000  )
         2           Fe  tau(   2) = (  0.3024540  0.7724000  0.8483430  )
         3           Fe  tau(   3) = (  0.2226710  0.3393840  0.4978880  )
         4           Fe  tau(   4) = (  0.7013320  0.2271210  0.1415480  )
         5           Fe  tau(   5) = (  0.7738600  0.6642690  0.4825160  )
         6           P   tau(   6) = (  0.0926260  0.6679840  0.2630450  )
         7           P   tau(   7) = (  0.3962170  0.2515100  0.9397760  )
         8           P   tau(   8) = (  0.9068620  0.3439030  0.7174420  )
         9           P   tau(   9) = (  0.6031040  0.7489990  0.0494450  )
        10           O   tau(  10) = (  0.1770480  0.6905620  0.5296410  )
        11           O   tau(  11) = (  0.3555840  0.2523240  0.2386600  )
        12           O   tau(  12) = (  0.8203270  0.3254330  0.4550390  )
        13           O   tau(  13) = (  0.6432920  0.7492600  0.7507880  )
        14           O   tau(  14) = (  0.4570760  0.7760930  0.0820600  )
        15           O   tau(  15) = (  0.0482830  0.2800580  0.6663240  )
        16           O   tau(  16) = (  0.5424170  0.2245460  0.9112080  )
        17           O   tau(  17) = (  0.9514120  0.7333430  0.3167050  )
        18           O   tau(  18) = (  0.1482380  0.8301930  0.0541950  )
        19           O   tau(  19) = (  0.3208110  0.0806740  0.7628130  )
        20           O   tau(  20) = (  0.8859830  0.5796670  0.8057560  )
        21           O   tau(  21) = (  0.6517160  0.5396620  0.2031580  )
        22           O   tau(  22) = (  0.8510480  0.1760740  0.9197870  )
        23           O   tau(  23) = (  0.6793830  0.9187590  0.2269290  )
        24           O   tau(  24) = (  0.1159970  0.4322970  0.1798900  )
        25           O   tau(  25) = (  0.3461160  0.4601280  0.7840110  )

     number of k points=   158  Marzari-Vanderbilt smearing, width (Ry)=  0.0073
                       cart. coord. in units 2pi/alat
        k(    1) = (   0.0000000   0.0000000   0.0000000), wk =   0.0031746
        k(    2) = (   0.0000000   0.0000000   0.2337334), wk =   0.0063492
        k(    3) = (   0.0000000   0.0000000   0.4674667), wk =   0.0063492
        k(    4) = (   0.0000000   0.0000000   0.7012001), wk =   0.0063492
        k(    5) = (   0.0000000   0.0000000   0.9349334), wk =   0.0063492
        k(    6) = (   0.0000000   0.2390555   0.0000000), wk =   0.0063492
        k(    7) = (   0.0000000   0.2390555   0.2337334), wk =   0.0063492
        k(    8) = (   0.0000000   0.2390555   0.4674667), wk =   0.0063492
        k(    9) = (   0.0000000   0.2390555   0.7012001), wk =   0.0063492
        k(   10) = (   0.0000000   0.2390555   0.9349334), wk =   0.0063492
        k(   11) = (   0.0000000   0.4781110   0.0000000), wk =   0.0063492
        k(   12) = (   0.0000000   0.4781110   0.2337334), wk =   0.0063492
        k(   13) = (   0.0000000   0.4781110   0.4674667), wk =   0.0063492
        k(   14) = (   0.0000000   0.4781110   0.7012001), wk =   0.0063492
        k(   15) = (   0.0000000   0.4781110   0.9349334), wk =   0.0063492
        k(   16) = (   0.0000000   0.7171664   0.0000000), wk =   0.0063492
        k(   17) = (   0.0000000   0.7171664   0.2337334), wk =   0.0063492
        k(   18) = (   0.0000000   0.7171664   0.4674667), wk =   0.0063492
        k(   19) = (   0.0000000   0.7171664   0.7012001), wk =   0.0063492
        k(   20) = (   0.0000000   0.7171664   0.9349334), wk =   0.0063492
        k(   21) = (   0.2000000   0.0000000   0.0000000), wk =   0.0063492
        k(   22) = (   0.2000000   0.0000000   0.2337334), wk =   0.0063492
        k(   23) = (   0.2000000   0.0000000   0.4674667), wk =   0.0063492
        k(   24) = (   0.2000000   0.0000000   0.7012001), wk =   0.0063492
        k(   25) = (   0.2000000   0.0000000   0.9349334), wk =   0.0063492
        k(   26) = (   0.2000000   0.2390555   0.0000000), wk =   0.0063492
        k(   27) = (   0.2000000   0.2390555   0.2337334), wk =   0.0063492
        k(   28) = (   0.2000000   0.2390555   0.4674667), wk =   0.0063492
        k(   29) = (   0.2000000   0.2390555   0.7012001), wk =   0.0063492
        k(   30) = (   0.2000000   0.2390555   0.9349334), wk =   0.0063492
        k(   31) = (   0.2000000   0.4781110   0.0000000), wk =   0.0063492
        k(   32) = (   0.2000000   0.4781110   0.2337334), wk =   0.0063492
        k(   33) = (   0.2000000   0.4781110   0.4674667), wk =   0.0063492
        k(   34) = (   0.2000000   0.4781110   0.7012001), wk =   0.0063492
        k(   35) = (   0.2000000   0.4781110   0.9349334), wk =   0.0063492
        k(   36) = (   0.2000000   0.7171664   0.0000000), wk =   0.0063492
        k(   37) = (   0.2000000   0.7171664   0.2337334), wk =   0.0063492
        k(   38) = (   0.2000000   0.7171664   0.4674667), wk =   0.0063492
        k(   39) = (   0.2000000   0.7171664   0.7012001), wk =   0.0063492
        k(   40) = (   0.2000000   0.7171664   0.9349334), wk =   0.0063492
        k(   41) = (   0.4000000   0.0000000   0.0000000), wk =   0.0063492
        k(   42) = (   0.4000000   0.0000000   0.2337334), wk =   0.0063492
        k(   43) = (   0.4000000   0.0000000   0.4674667), wk =   0.0063492
        k(   44) = (   0.4000000   0.0000000   0.7012001), wk =   0.0063492
        k(   45) = (   0.4000000   0.0000000   0.9349334), wk =   0.0063492
        k(   46) = (   0.4000000   0.2390555   0.0000000), wk =   0.0063492
        k(   47) = (   0.4000000   0.2390555   0.2337334), wk =   0.0063492
        k(   48) = (   0.4000000   0.2390555   0.4674667), wk =   0.0063492
        k(   49) = (   0.4000000   0.2390555   0.7012001), wk =   0.0063492
        k(   50) = (   0.4000000   0.2390555   0.9349334), wk =   0.0063492
        k(   51) = (   0.4000000   0.4781110   0.0000000), wk =   0.0063492
        k(   52) = (   0.4000000   0.4781110   0.2337334), wk =   0.0063492
        k(   53) = (   0.4000000   0.4781110   0.4674667), wk =   0.0063492
        k(   54) = (   0.4000000   0.4781110   0.7012001), wk =   0.0063492
        k(   55) = (   0.4000000   0.4781110   0.9349334), wk =   0.0063492
        k(   56) = (   0.4000000   0.7171664   0.0000000), wk =   0.0063492
        k(   57) = (   0.4000000   0.7171664   0.2337334), wk =   0.0063492
        k(   58) = (   0.4000000   0.7171664   0.4674667), wk =   0.0063492
        k(   59) = (   0.4000000   0.7171664   0.7012001), wk =   0.0063492
        k(   60) = (   0.4000000   0.7171664   0.9349334), wk =   0.0063492
        k(   61) = (   0.0000000  -0.2390555   0.2337334), wk =   0.0063492
        k(   62) = (   0.0000000  -0.2390555   0.4674667), wk =   0.0063492
        k(   63) = (   0.0000000  -0.2390555   0.7012001), wk =   0.0063492
        k(   64) = (   0.0000000  -0.2390555   0.9349334), wk =   0.0063492
        k(   65) = (   0.0000000  -0.4781110   0.2337334), wk =   0.0063492
        k(   66) = (   0.0000000  -0.4781110   0.4674667), wk =   0.0063492
        k(   67) = (   0.0000000  -0.4781110   0.7012001), wk =   0.0063492
        k(   68) = (   0.0000000  -0.4781110   0.9349334), wk =   0.0063492
        k(   69) = (   0.0000000  -0.7171664   0.2337334), wk =   0.0063492
        k(   70) = (   0.0000000  -0.7171664   0.4674667), wk =   0.0063492
        k(   71) = (   0.0000000  -0.7171664   0.7012001), wk =   0.0063492
        k(   72) = (   0.0000000  -0.7171664   0.9349334), wk =   0.0063492
        k(   73) = (  -0.2000000   0.0000000   0.2337334), wk =   0.0063492
        k(   74) = (  -0.2000000   0.0000000   0.4674667), wk =   0.0063492
        k(   75) = (  -0.2000000   0.0000000   0.7012001), wk =   0.0063492
        k(   76) = (  -0.2000000   0.0000000   0.9349334), wk =   0.0063492
        k(   77) = (  -0.2000000   0.2390555   0.0000000), wk =   0.0063492
        k(   78) = (  -0.2000000  -0.2390555   0.2337334), wk =   0.0063492
        k(   79) = (  -0.2000000   0.2390555  -0.2337334), wk =   0.0063492
        k(   80) = (   0.2000000  -0.2390555  -0.2337334), wk =   0.0063492
        k(   81) = (  -0.2000000  -0.2390555   0.4674667), wk =   0.0063492
        k(   82) = (  -0.2000000   0.2390555  -0.4674667), wk =   0.0063492
        k(   83) = (   0.2000000  -0.2390555  -0.4674667), wk =   0.0063492
        k(   84) = (  -0.2000000  -0.2390555   0.7012001), wk =   0.0063492
        k(   85) = (  -0.2000000   0.2390555  -0.7012001), wk =   0.0063492
        k(   86) = (   0.2000000  -0.2390555  -0.7012001), wk =   0.0063492
        k(   87) = (  -0.2000000  -0.2390555   0.9349334), wk =   0.0063492
        k(   88) = (  -0.2000000   0.2390555  -0.9349334), wk =   0.0063492
        k(   89) = (   0.2000000  -0.2390555  -0.9349334), wk =   0.0063492
        k(   90) = (  -0.2000000   0.4781110   0.0000000), wk =   0.0063492
        k(   91) = (  -0.2000000  -0.4781110   0.2337334), wk =   0.0063492
        k(   92) = (  -0.2000000   0.4781110  -0.2337334), wk =   0.0063492
        k(   93) = (   0.2000000  -0.4781110  -0.2337334), wk =   0.0063492
        k(   94) = (  -0.2000000  -0.4781110   0.4674667), wk =   0.0063492
        k(   95) = (  -0.2000000   0.4781110  -0.4674667), wk =   0.0063492
        k(   96) = (   0.2000000  -0.4781110  -0.4674667), wk =   0.0063492
        k(   97) = (  -0.2000000  -0.4781110   0.7012001), wk =   0.0063492
        k(   98) = (  -0.2000000   0.4781110  -0.7012001), wk =   0.0063492
        k(   99) = (   0.2000000  -0.4781110  -0.7012001), wk =   0.0063492
        k(  100) = (  -0.2000000  -0.4781110   0.9349334), wk =   0.0063492
        k(  101) = (  -0.2000000   0.4781110  -0.9349334), wk =   0.0063492
        k(  102) = (   0.2000000  -0.4781110  -0.9349334), wk =   0.0063492
        k(  103) = (  -0.2000000   0.7171664   0.0000000), wk =   0.0063492
        k(  104) = (  -0.2000000  -0.7171664   0.2337334), wk =   0.0063492
        k(  105) = (  -0.2000000   0.7171664  -0.2337334), wk =   0.0063492
        k(  106) = (   0.2000000  -0.7171664  -0.2337334), wk =   0.0063492
        k(  107) = (  -0.2000000  -0.7171664   0.4674667), wk =   0.0063492
        k(  108) = (  -0.2000000   0.7171664  -0.4674667), wk =   0.0063492
        k(  109) = (   0.2000000  -0.7171664  -0.4674667), wk =   0.0063492
        k(  110) = (  -0.2000000  -0.7171664   0.7012001), wk =   0.0063492
        k(  111) = (  -0.2000000   0.7171664  -0.7012001), wk =   0.0063492
        k(  112) = (   0.2000000  -0.7171664  -0.7012001), wk =   0.0063492
        k(  113) = (  -0.2000000  -0.7171664   0.9349334), wk =   0.0063492
        k(  114) = (  -0.2000000   0.7171664  -0.9349334), wk =   0.0063492
        k(  115) = (   0.2000000  -0.7171664  -0.9349334), wk =   0.0063492
        k(  116) = (  -0.4000000   0.0000000   0.2337334), wk =   0.0063492
        k(  117) = (  -0.4000000   0.0000000   0.4674667), wk =   0.0063492
        k(  118) = (  -0.4000000   0.0000000   0.7012001), wk =   0.0063492
        k(  119) = (  -0.4000000   0.0000000   0.9349334), wk =   0.0063492
        k(  120) = (  -0.4000000   0.2390555   0.0000000), wk =   0.0063492
        k(  121) = (  -0.4000000  -0.2390555   0.2337334), wk =   0.0063492
        k(  122) = (  -0.4000000   0.2390555  -0.2337334), wk =   0.0063492
        k(  123) = (   0.4000000  -0.2390555  -0.2337334), wk =   0.0063492
        k(  124) = (  -0.4000000  -0.2390555   0.4674667), wk =   0.0063492
        k(  125) = (  -0.4000000   0.2390555  -0.4674667), wk =   0.0063492
        k(  126) = (   0.4000000  -0.2390555  -0.4674667), wk =   0.0063492
        k(  127) = (  -0.4000000  -0.2390555   0.7012001), wk =   0.0063492
        k(  128) = (  -0.4000000   0.2390555  -0.7012001), wk =   0.0063492
        k(  129) = (   0.4000000  -0.2390555  -0.7012001), wk =   0.0063492
        k(  130) = (  -0.4000000  -0.2390555   0.9349334), wk =   0.0063492
        k(  131) = (  -0.4000000   0.2390555  -0.9349334), wk =   0.0063492
        k(  132) = (   0.4000000  -0.2390555  -0.9349334), wk =   0.0063492
        k(  133) = (  -0.4000000   0.4781110   0.0000000), wk =   0.0063492
        k(  134) = (  -0.4000000  -0.4781110   0.2337334), wk =   0.0063492
        k(  135) = (  -0.4000000   0.4781110  -0.2337334), wk =   0.0063492
        k(  136) = (   0.4000000  -0.4781110  -0.2337334), wk =   0.0063492
        k(  137) = (  -0.4000000  -0.4781110   0.4674667), wk =   0.0063492
        k(  138) = (  -0.4000000   0.4781110  -0.4674667), wk =   0.0063492
        k(  139) = (   0.4000000  -0.4781110  -0.4674667), wk =   0.0063492
        k(  140) = (  -0.4000000  -0.4781110   0.7012001), wk =   0.0063492
        k(  141) = (  -0.4000000   0.4781110  -0.7012001), wk =   0.0063492
        k(  142) = (   0.4000000  -0.4781110  -0.7012001), wk =   0.0063492
        k(  143) = (  -0.4000000  -0.4781110   0.9349334), wk =   0.0063492
        k(  144) = (  -0.4000000   0.4781110  -0.9349334), wk =   0.0063492
        k(  145) = (   0.4000000  -0.4781110  -0.9349334), wk =   0.0063492
        k(  146) = (  -0.4000000   0.7171664   0.0000000), wk =   0.0063492
        k(  147) = (  -0.4000000  -0.7171664   0.2337334), wk =   0.0063492
        k(  148) = (  -0.4000000   0.7171664  -0.2337334), wk =   0.0063492
        k(  149) = (   0.4000000  -0.7171664  -0.2337334), wk =   0.0063492
        k(  150) = (  -0.4000000  -0.7171664   0.4674667), wk =   0.0063492
        k(  151) = (  -0.4000000   0.7171664  -0.4674667), wk =   0.0063492
        k(  152) = (   0.4000000  -0.7171664  -0.4674667), wk =   0.0063492
        k(  153) = (  -0.4000000  -0.7171664   0.7012001), wk =   0.0063492
        k(  154) = (  -0.4000000   0.7171664  -0.7012001), wk =   0.0063492
        k(  155) = (   0.4000000  -0.7171664  -0.7012001), wk =   0.0063492
        k(  156) = (  -0.4000000  -0.7171664   0.9349334), wk =   0.0063492
        k(  157) = (  -0.4000000   0.7171664  -0.9349334), wk =   0.0063492
        k(  158) = (   0.4000000  -0.7171664  -0.9349334), wk =   0.0063492

                       cryst. coord.
        k(    1) = (   0.0000000   0.0000000   0.0000000), wk =   0.0031746
        k(    2) = (   0.0000000   0.0000000   0.1111111), wk =   0.0063492
        k(    3) = (   0.0000000   0.0000000   0.2222222), wk =   0.0063492
        k(    4) = (   0.0000000   0.0000000   0.3333333), wk =   0.0063492
        k(    5) = (   0.0000000   0.0000000   0.4444444), wk =   0.0063492
        k(    6) = (   0.0000000   0.1428571   0.0000000), wk =   0.0063492
        k(    7) = (   0.0000000   0.1428571   0.1111111), wk =   0.0063492
        k(    8) = (   0.0000000   0.1428571   0.2222222), wk =   0.0063492
        k(    9) = (   0.0000000   0.1428571   0.3333333), wk =   0.0063492
        k(   10) = (   0.0000000   0.1428571   0.4444444), wk =   0.0063492
        k(   11) = (   0.0000000   0.2857143   0.0000000), wk =   0.0063492
        k(   12) = (   0.0000000   0.2857143   0.1111111), wk =   0.0063492
        k(   13) = (   0.0000000   0.2857143   0.2222222), wk =   0.0063492
        k(   14) = (   0.0000000   0.2857143   0.3333333), wk =   0.0063492
        k(   15) = (   0.0000000   0.2857143   0.4444444), wk =   0.0063492
        k(   16) = (   0.0000000   0.4285714   0.0000000), wk =   0.0063492
        k(   17) = (   0.0000000   0.4285714   0.1111111), wk =   0.0063492
        k(   18) = (   0.0000000   0.4285714   0.2222222), wk =   0.0063492
        k(   19) = (   0.0000000   0.4285714   0.3333333), wk =   0.0063492
        k(   20) = (   0.0000000   0.4285714   0.4444444), wk =   0.0063492
        k(   21) = (   0.2000000   0.0000000   0.0000000), wk =   0.0063492
        k(   22) = (   0.2000000   0.0000000   0.1111111), wk =   0.0063492
        k(   23) = (   0.2000000   0.0000000   0.2222222), wk =   0.0063492
        k(   24) = (   0.2000000   0.0000000   0.3333333), wk =   0.0063492
        k(   25) = (   0.2000000   0.0000000   0.4444444), wk =   0.0063492
        k(   26) = (   0.2000000   0.1428571   0.0000000), wk =   0.0063492
        k(   27) = (   0.2000000   0.1428571   0.1111111), wk =   0.0063492
        k(   28) = (   0.2000000   0.1428571   0.2222222), wk =   0.0063492
        k(   29) = (   0.2000000   0.1428571   0.3333333), wk =   0.0063492
        k(   30) = (   0.2000000   0.1428571   0.4444444), wk =   0.0063492
        k(   31) = (   0.2000000   0.2857143   0.0000000), wk =   0.0063492
        k(   32) = (   0.2000000   0.2857143   0.1111111), wk =   0.0063492
        k(   33) = (   0.2000000   0.2857143   0.2222222), wk =   0.0063492
        k(   34) = (   0.2000000   0.2857143   0.3333333), wk =   0.0063492
        k(   35) = (   0.2000000   0.2857143   0.4444444), wk =   0.0063492
        k(   36) = (   0.2000000   0.4285714   0.0000000), wk =   0.0063492
        k(   37) = (   0.2000000   0.4285714   0.1111111), wk =   0.0063492
        k(   38) = (   0.2000000   0.4285714   0.2222222), wk =   0.0063492
        k(   39) = (   0.2000000   0.4285714   0.3333333), wk =   0.0063492
        k(   40) = (   0.2000000   0.4285714   0.4444444), wk =   0.0063492
        k(   41) = (   0.4000000   0.0000000   0.0000000), wk =   0.0063492
        k(   42) = (   0.4000000   0.0000000   0.1111111), wk =   0.0063492
        k(   43) = (   0.4000000   0.0000000   0.2222222), wk =   0.0063492
        k(   44) = (   0.4000000   0.0000000   0.3333333), wk =   0.0063492
        k(   45) = (   0.4000000   0.0000000   0.4444444), wk =   0.0063492
        k(   46) = (   0.4000000   0.1428571   0.0000000), wk =   0.0063492
        k(   47) = (   0.4000000   0.1428571   0.1111111), wk =   0.0063492
        k(   48) = (   0.4000000   0.1428571   0.2222222), wk =   0.0063492
        k(   49) = (   0.4000000   0.1428571   0.3333333), wk =   0.0063492
        k(   50) = (   0.4000000   0.1428571   0.4444444), wk =   0.0063492
        k(   51) = (   0.4000000   0.2857143   0.0000000), wk =   0.0063492
        k(   52) = (   0.4000000   0.2857143   0.1111111), wk =   0.0063492
        k(   53) = (   0.4000000   0.2857143   0.2222222), wk =   0.0063492
        k(   54) = (   0.4000000   0.2857143   0.3333333), wk =   0.0063492
        k(   55) = (   0.4000000   0.2857143   0.4444444), wk =   0.0063492
        k(   56) = (   0.4000000   0.4285714   0.0000000), wk =   0.0063492
        k(   57) = (   0.4000000   0.4285714   0.1111111), wk =   0.0063492
        k(   58) = (   0.4000000   0.4285714   0.2222222), wk =   0.0063492
        k(   59) = (   0.4000000   0.4285714   0.3333333), wk =   0.0063492
        k(   60) = (   0.4000000   0.4285714   0.4444444), wk =   0.0063492
        k(   61) = (   0.0000000  -0.1428571   0.1111111), wk =   0.0063492
        k(   62) = (   0.0000000  -0.1428571   0.2222222), wk =   0.0063492
        k(   63) = (   0.0000000  -0.1428571   0.3333333), wk =   0.0063492
        k(   64) = (   0.0000000  -0.1428571   0.4444444), wk =   0.0063492
        k(   65) = (   0.0000000  -0.2857143   0.1111111), wk =   0.0063492
        k(   66) = (   0.0000000  -0.2857143   0.2222222), wk =   0.0063492
        k(   67) = (   0.0000000  -0.2857143   0.3333333), wk =   0.0063492
        k(   68) = (   0.0000000  -0.2857143   0.4444444), wk =   0.0063492
        k(   69) = (   0.0000000  -0.4285714   0.1111111), wk =   0.0063492
        k(   70) = (   0.0000000  -0.4285714   0.2222222), wk =   0.0063492
        k(   71) = (   0.0000000  -0.4285714   0.3333333), wk =   0.0063492
        k(   72) = (   0.0000000  -0.4285714   0.4444444), wk =   0.0063492
        k(   73) = (  -0.2000000   0.0000000   0.1111111), wk =   0.0063492
        k(   74) = (  -0.2000000   0.0000000   0.2222222), wk =   0.0063492
        k(   75) = (  -0.2000000   0.0000000   0.3333333), wk =   0.0063492
        k(   76) = (  -0.2000000   0.0000000   0.4444444), wk =   0.0063492
        k(   77) = (  -0.2000000   0.1428571   0.0000000), wk =   0.0063492
        k(   78) = (  -0.2000000  -0.1428571   0.1111111), wk =   0.0063492
        k(   79) = (  -0.2000000   0.1428571  -0.1111111), wk =   0.0063492
        k(   80) = (   0.2000000  -0.1428571  -0.1111111), wk =   0.0063492
        k(   81) = (  -0.2000000  -0.1428571   0.2222222), wk =   0.0063492
        k(   82) = (  -0.2000000   0.1428571  -0.2222222), wk =   0.0063492
        k(   83) = (   0.2000000  -0.1428571  -0.2222222), wk =   0.0063492
        k(   84) = (  -0.2000000  -0.1428571   0.3333333), wk =   0.0063492
        k(   85) = (  -0.2000000   0.1428571  -0.3333333), wk =   0.0063492
        k(   86) = (   0.2000000  -0.1428571  -0.3333333), wk =   0.0063492
        k(   87) = (  -0.2000000  -0.1428571   0.4444444), wk =   0.0063492
        k(   88) = (  -0.2000000   0.1428571  -0.4444444), wk =   0.0063492
        k(   89) = (   0.2000000  -0.1428571  -0.4444444), wk =   0.0063492
        k(   90) = (  -0.2000000   0.2857143   0.0000000), wk =   0.0063492
        k(   91) = (  -0.2000000  -0.2857143   0.1111111), wk =   0.0063492
        k(   92) = (  -0.2000000   0.2857143  -0.1111111), wk =   0.0063492
        k(   93) = (   0.2000000  -0.2857143  -0.1111111), wk =   0.0063492
        k(   94) = (  -0.2000000  -0.2857143   0.2222222), wk =   0.0063492
        k(   95) = (  -0.2000000   0.2857143  -0.2222222), wk =   0.0063492
        k(   96) = (   0.2000000  -0.2857143  -0.2222222), wk =   0.0063492
        k(   97) = (  -0.2000000  -0.2857143   0.3333333), wk =   0.0063492
        k(   98) = (  -0.2000000   0.2857143  -0.3333333), wk =   0.0063492
        k(   99) = (   0.2000000  -0.2857143  -0.3333333), wk =   0.0063492
        k(  100) = (  -0.2000000  -0.2857143   0.4444444), wk =   0.0063492
        k(  101) = (  -0.2000000   0.2857143  -0.4444444), wk =   0.0063492
        k(  102) = (   0.2000000  -0.2857143  -0.4444444), wk =   0.0063492
        k(  103) = (  -0.2000000   0.4285714   0.0000000), wk =   0.0063492
        k(  104) = (  -0.2000000  -0.4285714   0.1111111), wk =   0.0063492
        k(  105) = (  -0.2000000   0.4285714  -0.1111111), wk =   0.0063492
        k(  106) = (   0.2000000  -0.4285714  -0.1111111), wk =   0.0063492
        k(  107) = (  -0.2000000  -0.4285714   0.2222222), wk =   0.0063492
        k(  108) = (  -0.2000000   0.4285714  -0.2222222), wk =   0.0063492
        k(  109) = (   0.2000000  -0.4285714  -0.2222222), wk =   0.0063492
        k(  110) = (  -0.2000000  -0.4285714   0.3333333), wk =   0.0063492
        k(  111) = (  -0.2000000   0.4285714  -0.3333333), wk =   0.0063492
        k(  112) = (   0.2000000  -0.4285714  -0.3333333), wk =   0.0063492
        k(  113) = (  -0.2000000  -0.4285714   0.4444444), wk =   0.0063492
        k(  114) = (  -0.2000000   0.4285714  -0.4444444), wk =   0.0063492
        k(  115) = (   0.2000000  -0.4285714  -0.4444444), wk =   0.0063492
        k(  116) = (  -0.4000000   0.0000000   0.1111111), wk =   0.0063492
        k(  117) = (  -0.4000000   0.0000000   0.2222222), wk =   0.0063492
        k(  118) = (  -0.4000000   0.0000000   0.3333333), wk =   0.0063492
        k(  119) = (  -0.4000000   0.0000000   0.4444444), wk =   0.0063492
        k(  120) = (  -0.4000000   0.1428571   0.0000000), wk =   0.0063492
        k(  121) = (  -0.4000000  -0.1428571   0.1111111), wk =   0.0063492
        k(  122) = (  -0.4000000   0.1428571  -0.1111111), wk =   0.0063492
        k(  123) = (   0.4000000  -0.1428571  -0.1111111), wk =   0.0063492
        k(  124) = (  -0.4000000  -0.1428571   0.2222222), wk =   0.0063492
        k(  125) = (  -0.4000000   0.1428571  -0.2222222), wk =   0.0063492
        k(  126) = (   0.4000000  -0.1428571  -0.2222222), wk =   0.0063492
        k(  127) = (  -0.4000000  -0.1428571   0.3333333), wk =   0.0063492
        k(  128) = (  -0.4000000   0.1428571  -0.3333333), wk =   0.0063492
        k(  129) = (   0.4000000  -0.1428571  -0.3333333), wk =   0.0063492
        k(  130) = (  -0.4000000  -0.1428571   0.4444444), wk =   0.0063492
        k(  131) = (  -0.4000000   0.1428571  -0.4444444), wk =   0.0063492
        k(  132) = (   0.4000000  -0.1428571  -0.4444444), wk =   0.0063492
        k(  133) = (  -0.4000000   0.2857143   0.0000000), wk =   0.0063492
        k(  134) = (  -0.4000000  -0.2857143   0.1111111), wk =   0.0063492
        k(  135) = (  -0.4000000   0.2857143  -0.1111111), wk =   0.0063492
        k(  136) = (   0.4000000  -0.2857143  -0.1111111), wk =   0.0063492
        k(  137) = (  -0.4000000  -0.2857143   0.2222222), wk =   0.0063492
        k(  138) = (  -0.4000000   0.2857143  -0.2222222), wk =   0.0063492
        k(  139) = (   0.4000000  -0.2857143  -0.2222222), wk =   0.0063492
        k(  140) = (  -0.4000000  -0.2857143   0.3333333), wk =   0.0063492
        k(  141) = (  -0.4000000   0.2857143  -0.3333333), wk =   0.0063492
        k(  142) = (   0.4000000  -0.2857143  -0.3333333), wk =   0.0063492
        k(  143) = (  -0.4000000  -0.2857143   0.4444444), wk =   0.0063492
        k(  144) = (  -0.4000000   0.2857143  -0.4444444), wk =   0.0063492
        k(  145) = (   0.4000000  -0.2857143  -0.4444444), wk =   0.0063492
        k(  146) = (  -0.4000000   0.4285714   0.0000000), wk =   0.0063492
        k(  147) = (  -0.4000000  -0.4285714   0.1111111), wk =   0.0063492
        k(  148) = (  -0.4000000   0.4285714  -0.1111111), wk =   0.0063492
        k(  149) = (   0.4000000  -0.4285714  -0.1111111), wk =   0.0063492
        k(  150) = (  -0.4000000  -0.4285714   0.2222222), wk =   0.0063492
        k(  151) = (  -0.4000000   0.4285714  -0.2222222), wk =   0.0063492
        k(  152) = (   0.4000000  -0.4285714  -0.2222222), wk =   0.0063492
        k(  153) = (  -0.4000000  -0.4285714   0.3333333), wk =   0.0063492
        k(  154) = (  -0.4000000   0.4285714  -0.3333333), wk =   0.0063492
        k(  155) = (   0.4000000  -0.4285714  -0.3333333), wk =   0.0063492
        k(  156) = (  -0.4000000  -0.4285714   0.4444444), wk =   0.0063492
        k(  157) = (  -0.4000000   0.4285714  -0.4444444), wk =   0.0063492
        k(  158) = (   0.4000000  -0.4285714  -0.4444444), wk =   0.0063492

     Dense  grid:  1169635 G-vectors     FFT dimensions: ( 200, 120,  96)

     Smooth grid:   263601 G-vectors     FFT dimensions: ( 125,  75,  60)

     Dynamical RAM for                 wfc:       3.58 MB

     Dynamical RAM for     wfc (w. buffer):    1135.38 MB

     Dynamical RAM for           str. fact:       4.46 MB

     Dynamical RAM for           local pot:       0.00 MB

     Dynamical RAM for          nlocal pot:       8.80 MB

     Dynamical RAM for                qrad:      10.54 MB

     Dynamical RAM for          rho,v,vnew:      13.28 MB

     Dynamical RAM for               rhoin:       4.43 MB

     Dynamical RAM for            rho*nmix:      35.69 MB

     Dynamical RAM for           G-vectors:       4.31 MB

     Dynamical RAM for          h,s,v(r/c):       2.38 MB

     Dynamical RAM for          <psi|beta>:       0.49 MB

     Dynamical RAM for                 psi:       7.16 MB

     Dynamical RAM for                hpsi:       7.16 MB

     Dynamical RAM for                spsi:       7.16 MB

     Dynamical RAM for      wfcinit/wfcrot:       9.04 MB

     Dynamical RAM for           addusdens:     226.44 MB

     Dynamical RAM for          addusforce:     260.03 MB

     Dynamical RAM for         addusstress:     225.88 MB

     Estimated static dynamical RAM per process >       1.20 GB

     Estimated max dynamical RAM per process >       1.45 GB

     Estimated total dynamical RAM >      23.27 GB

     Check: negative core charge=   -0.000003
     Generating pointlists ...
     new r_m :   0.0766 (alat units)  1.4556 (a.u.) for type    1
     new r_m :   0.0867 (alat units)  1.6485 (a.u.) for type    2
     new r_m :   0.0609 (alat units)  1.1570 (a.u.) for type    3
     new r_m :   0.0609 (alat units)  1.1570 (a.u.) for type    4

     Initial potential from superposition of free atoms

     starting charge  188.99132, renormalised to  189.00000
     Starting wfcs are  137 randomized atomic wfcs
     Checking if some PAW data can be deallocated... 
       PAW data deallocated on   13 nodes for type:  1
       PAW data deallocated on    4 nodes for type:  3

     total cpu time spent up to now is     1445.0 secs

     Self-consistent Calculation

     iteration #  1     ecut=   100.00 Ry     beta= 0.40
     Davidson diagonalization with overlap
     ethr =  1.00E-02,  avg # of iterations =  3.1

     negative rho (up, down):  0.000E+00 3.170E-05

     total cpu time spent up to now is     5626.5 secs

     total energy              =   -2123.85132681 Ry
     estimated scf accuracy    <       6.77507914 Ry

     total magnetization       =    19.00 Bohr mag/cell
     absolute magnetization    =    19.00 Bohr mag/cell

     iteration #  2     ecut=   100.00 Ry     beta= 0.40
     Davidson diagonalization with overlap
     ethr =  3.58E-03,  avg # of iterations =  2.0

     negative rho (up, down):  0.000E+00 2.329E-05

     total cpu time spent up to now is     9449.5 secs

     total energy              =   -2122.73589539 Ry
     estimated scf accuracy    <      15.71631199 Ry

     total magnetization       =    11.07 Bohr mag/cell
     absolute magnetization    =    11.88 Bohr mag/cell

     iteration #  3     ecut=   100.00 Ry     beta= 0.40
     Davidson diagonalization with overlap
     ethr =  3.58E-03,  avg # of iterations =  2.0

     negative rho (up, down):  0.000E+00 1.234E-05

     total cpu time spent up to now is    12672.8 secs

     total energy              =   -2124.49588078 Ry
     estimated scf accuracy    <      31.22610710 Ry

     total magnetization       =    10.99 Bohr mag/cell
     absolute magnetization    =    11.70 Bohr mag/cell

     iteration #  4     ecut=   100.00 Ry     beta= 0.40
     Davidson diagonalization with overlap
     ethr =  3.58E-03,  avg # of iterations =  2.0

     negative rho (up, down):  0.000E+00 7.439E-05

     total cpu time spent up to now is    15832.8 secs

     total energy              =   -2125.43083073 Ry
     estimated scf accuracy    <       5.63607322 Ry

     total magnetization       =    16.35 Bohr mag/cell
     absolute magnetization    =    16.43 Bohr mag/cell

     iteration #  5     ecut=   100.00 Ry     beta= 0.40
     Davidson diagonalization with overlap
     ethr =  2.98E-03,  avg # of iterations =  1.5

     negative rho (up, down):  0.000E+00 1.012E-04

     total cpu time spent up to now is    18878.9 secs

     total energy              =   -2125.51063732 Ry
     estimated scf accuracy    <       9.66250711 Ry

     total magnetization       =    14.87 Bohr mag/cell
     absolute magnetization    =    15.03 Bohr mag/cell

     iteration #  6     ecut=   100.00 Ry     beta= 0.40
     Davidson diagonalization with overlap
     ethr =  2.98E-03,  avg # of iterations =  1.0

     negative rho (up, down):  0.000E+00 1.097E-04

     total cpu time spent up to now is    21837.6 secs

     total energy              =   -2125.66224168 Ry
     estimated scf accuracy    <       3.54789196 Ry

     total magnetization       =    16.84 Bohr mag/cell
     absolute magnetization    =    16.87 Bohr mag/cell

     iteration #  7     ecut=   100.00 Ry     beta= 0.40
     Davidson diagonalization with overlap
     ethr =  1.88E-03,  avg # of iterations =  1.0

     negative rho (up, down):  0.000E+00 2.175E-04

     total cpu time spent up to now is    24802.5 secs

     total energy              =   -2125.86018633 Ry
     estimated scf accuracy    <       0.64398573 Ry

     total magnetization       =    19.00 Bohr mag/cell
     absolute magnetization    =    19.00 Bohr mag/cell

     iteration #  8     ecut=   100.00 Ry     beta= 0.40
     Davidson diagonalization with overlap
     ethr =  3.41E-04,  avg # of iterations =  2.2

     negative rho (up, down):  0.000E+00 3.759E-04

     total cpu time spent up to now is    27901.3 secs

     total energy              =   -2125.86924139 Ry
     estimated scf accuracy    <       0.15783859 Ry

     total magnetization       =    19.00 Bohr mag/cell
     absolute magnetization    =    19.00 Bohr mag/cell

     iteration #  9     ecut=   100.00 Ry     beta= 0.40
     Davidson diagonalization with overlap
     c_bands:  1 eigenvalues not converged
     c_bands:  1 eigenvalues not converged
     c_bands:  1 eigenvalues not converged
     ethr =  8.35E-05,  avg # of iterations = 12.0

     negative rho (up, down):  0.000E+00 8.141E-04

     total cpu time spent up to now is    32123.5 secs

     total energy              =   -2125.86997626 Ry
     estimated scf accuracy    <       0.16352800 Ry

     total magnetization       =    19.00 Bohr mag/cell
     absolute magnetization    =    19.01 Bohr mag/cell

     iteration # 10     ecut=   100.00 Ry     beta= 0.40
     Davidson diagonalization with overlap
     ethr =  8.35E-05,  avg # of iterations =  1.8

     negative rho (up, down):  0.000E+00 8.582E-04

     total cpu time spent up to now is    35219.5 secs

     total energy              =   -2125.88474799 Ry
     estimated scf accuracy    <       0.32379540 Ry

     total magnetization       =    19.00 Bohr mag/cell
     absolute magnetization    =    19.02 Bohr mag/cell

     iteration # 11     ecut=   100.00 Ry     beta= 0.40
     Davidson diagonalization with overlap
     ethr =  8.35E-05,  avg # of iterations =  1.0

     negative rho (up, down):  0.000E+00 9.098E-04

     total cpu time spent up to now is    38180.2 secs

     total energy              =   -2125.88152383 Ry
     estimated scf accuracy    <       0.15738358 Ry

     total magnetization       =    19.00 Bohr mag/cell
     absolute magnetization    =    19.02 Bohr mag/cell

     iteration # 12     ecut=   100.00 Ry     beta= 0.40
     Davidson diagonalization with overlap
     ethr =  8.33E-05,  avg # of iterations =  1.0

     negative rho (up, down):  0.000E+00 9.459E-04

     total cpu time spent up to now is    41131.2 secs

     total energy              =   -2125.88537234 Ry
     estimated scf accuracy    <       0.03313611 Ry

     total magnetization       =    19.00 Bohr mag/cell
     absolute magnetization    =    19.02 Bohr mag/cell

     iteration # 13     ecut=   100.00 Ry     beta= 0.40
     Davidson diagonalization with overlap
     c_bands:  1 eigenvalues not converged
     c_bands:  1 eigenvalues not converged
     c_bands:  1 eigenvalues not converged
     c_bands:  1 eigenvalues not converged
     c_bands:  1 eigenvalues not converged
     ethr =  1.75E-05,  avg # of iterations =  3.9

     negative rho (up, down):  0.000E+00 9.517E-04

     total cpu time spent up to now is    44388.7 secs

     total energy              =   -2125.88603779 Ry
     estimated scf accuracy    <       0.01423769 Ry

     total magnetization       =    19.00 Bohr mag/cell
     absolute magnetization    =    19.03 Bohr mag/cell

     iteration # 14     ecut=   100.00 Ry     beta= 0.40
     Davidson diagonalization with overlap
     c_bands:  1 eigenvalues not converged
     c_bands:  1 eigenvalues not converged
     c_bands:  2 eigenvalues not converged
     c_bands:  1 eigenvalues not converged
     c_bands:  1 eigenvalues not converged
     c_bands:  1 eigenvalues not converged
     c_bands:  1 eigenvalues not converged
     c_bands:  1 eigenvalues not converged
     ethr =  7.53E-06,  avg # of iterations =  6.1

     negative rho (up, down):  0.000E+00 9.306E-04

     total cpu time spent up to now is    47873.9 secs

     total energy              =   -2125.88627940 Ry
     estimated scf accuracy    <       0.01044613 Ry

     total magnetization       =    19.00 Bohr mag/cell
     absolute magnetization    =    19.03 Bohr mag/cell

     iteration # 15     ecut=   100.00 Ry     beta= 0.40
     Davidson diagonalization with overlap
     c_bands:  1 eigenvalues not converged
     c_bands:  1 eigenvalues not converged
     c_bands:  1 eigenvalues not converged
     c_bands:  2 eigenvalues not converged
     c_bands:  1 eigenvalues not converged
     c_bands:  1 eigenvalues not converged
     ethr =  5.53E-06,  avg # of iterations =  2.6

     negative rho (up, down):  0.000E+00 9.381E-04

     total cpu time spent up to now is    51005.7 secs

     total energy              =   -2125.88650898 Ry
     estimated scf accuracy    <       0.00244074 Ry

     total magnetization       =    19.00 Bohr mag/cell
     absolute magnetization    =    19.03 Bohr mag/cell

     iteration # 16     ecut=   100.00 Ry     beta= 0.40
     Davidson diagonalization with overlap
     c_bands:  1 eigenvalues not converged
     c_bands:  1 eigenvalues not converged
     c_bands:  1 eigenvalues not converged
     c_bands:  1 eigenvalues not converged
     c_bands:  1 eigenvalues not converged
     c_bands:  1 eigenvalues not converged
     c_bands:  1 eigenvalues not converged
     c_bands:  1 eigenvalues not converged
     c_bands:  1 eigenvalues not converged
     c_bands:  1 eigenvalues not converged
     c_bands:  1 eigenvalues not converged
     c_bands:  1 eigenvalues not converged
     ethr =  1.29E-06,  avg # of iterations = 10.1

     negative rho (up, down):  0.000E+00 9.335E-04

     total cpu time spent up to now is    55182.5 secs

     total energy              =   -2125.88686795 Ry
     estimated scf accuracy    <       0.00038117 Ry

     total magnetization       =    19.00 Bohr mag/cell
     absolute magnetization    =    19.03 Bohr mag/cell

     iteration # 17     ecut=   100.00 Ry     beta= 0.40
     Davidson diagonalization with overlap
     ethr =  2.02E-07,  avg # of iterations =  3.6

     negative rho (up, down):  0.000E+00 9.194E-04

     total cpu time spent up to now is    59400.3 secs

     total energy              =   -2125.88698376 Ry
     estimated scf accuracy    <       0.00004781 Ry

     total magnetization       =    19.00 Bohr mag/cell
     absolute magnetization    =    19.03 Bohr mag/cell

     iteration # 18     ecut=   100.00 Ry     beta= 0.40
     Davidson diagonalization with overlap
     ethr =  2.53E-08,  avg # of iterations =  2.3

     negative rho (up, down):  0.000E+00 9.194E-04

     total cpu time spent up to now is    62694.5 secs

     total energy              =   -2125.88698956 Ry
     estimated scf accuracy    <       0.00004865 Ry

     total magnetization       =    19.00 Bohr mag/cell
     absolute magnetization    =    19.03 Bohr mag/cell

     iteration # 19     ecut=   100.00 Ry     beta= 0.40
     Davidson diagonalization with overlap
     ethr =  2.53E-08,  avg # of iterations =  1.0

     negative rho (up, down):  0.000E+00 9.166E-04

     total cpu time spent up to now is    65638.0 secs

     total energy              =   -2125.88699272 Ry
     estimated scf accuracy    <       0.00002125 Ry

     total magnetization       =    19.00 Bohr mag/cell
     absolute magnetization    =    19.04 Bohr mag/cell

     iteration # 20     ecut=   100.00 Ry     beta= 0.40
     Davidson diagonalization with overlap
     ethr =  1.12E-08,  avg # of iterations =  1.0

     negative rho (up, down):  0.000E+00 9.152E-04

     total cpu time spent up to now is    68586.5 secs

     total energy              =   -2125.88699426 Ry
     estimated scf accuracy    <       0.00000528 Ry

     total magnetization       =    19.00 Bohr mag/cell
     absolute magnetization    =    19.04 Bohr mag/cell

     iteration # 21     ecut=   100.00 Ry     beta= 0.40
     Davidson diagonalization with overlap
     ethr =  2.79E-09,  avg # of iterations =  3.2

     negative rho (up, down):  0.000E+00 9.143E-04

     total cpu time spent up to now is    72069.5 secs

     total energy              =   -2125.88699518 Ry
     estimated scf accuracy    <       0.00000098 Ry

     total magnetization       =    19.00 Bohr mag/cell
     absolute magnetization    =    19.04 Bohr mag/cell

     iteration # 22     ecut=   100.00 Ry     beta= 0.40
     Davidson diagonalization with overlap
     ethr =  5.21E-10,  avg # of iterations =  3.0

     negative rho (up, down):  0.000E+00 9.153E-04

     total cpu time spent up to now is    75929.9 secs

     total energy              =   -2125.88699565 Ry
     estimated scf accuracy    <       0.00000093 Ry

     total magnetization       =    19.00 Bohr mag/cell
     absolute magnetization    =    19.04 Bohr mag/cell

     iteration # 23     ecut=   100.00 Ry     beta= 0.40
     Davidson diagonalization with overlap
     ethr =  4.92E-10,  avg # of iterations =  1.3

     negative rho (up, down):  0.000E+00 9.161E-04

     total cpu time spent up to now is    78922.5 secs

     total energy              =   -2125.88699573 Ry
     estimated scf accuracy    <       0.00000025 Ry

     total magnetization       =    19.00 Bohr mag/cell
     absolute magnetization    =    19.04 Bohr mag/cell

     iteration # 24     ecut=   100.00 Ry     beta= 0.40
     Davidson diagonalization with overlap
     ethr =  1.32E-10,  avg # of iterations =  2.1

     negative rho (up, down):  0.000E+00 9.161E-04

     total cpu time spent up to now is    82110.4 secs

     total energy              =   -2125.88699577 Ry
     estimated scf accuracy    <       0.00000012 Ry

     total magnetization       =    19.00 Bohr mag/cell
     absolute magnetization    =    19.04 Bohr mag/cell

     iteration # 25     ecut=   100.00 Ry     beta= 0.40
     Davidson diagonalization with overlap
     ethr =  6.20E-11,  avg # of iterations =  2.1

     negative rho (up, down):  0.000E+00 9.161E-04

     total cpu time spent up to now is    85336.4 secs

     total energy              =   -2125.88699580 Ry
     estimated scf accuracy    <       0.00000012 Ry

     total magnetization       =    19.00 Bohr mag/cell
     absolute magnetization    =    19.04 Bohr mag/cell

     iteration # 26     ecut=   100.00 Ry     beta= 0.40
     Davidson diagonalization with overlap
     ethr =  6.20E-11,  avg # of iterations =  1.0

     negative rho (up, down):  0.000E+00 9.162E-04

     total cpu time spent up to now is    88284.3 secs

     total energy              =   -2125.88699581 Ry
     estimated scf accuracy    <       0.00000002 Ry

     total magnetization       =    19.00 Bohr mag/cell
     absolute magnetization    =    19.04 Bohr mag/cell

     iteration # 27     ecut=   100.00 Ry     beta= 0.40
     Davidson diagonalization with overlap
     ethr =  1.01E-11,  avg # of iterations =  3.2

     negative rho (up, down):  0.000E+00 9.161E-04

     total cpu time spent up to now is    91805.2 secs

     total energy              =   -2125.88699582 Ry
     estimated scf accuracy    <       0.00000002 Ry

     total magnetization       =    19.00 Bohr mag/cell
     absolute magnetization    =    19.04 Bohr mag/cell

     iteration # 28     ecut=   100.00 Ry     beta= 0.40
     Davidson diagonalization with overlap
     ethr =  1.01E-11,  avg # of iterations =  1.0

     negative rho (up, down):  0.000E+00 9.160E-04

     total cpu time spent up to now is    94750.8 secs

     total energy              =   -2125.88699582 Ry
     estimated scf accuracy    <          2.0E-09 Ry

     total magnetization       =    19.00 Bohr mag/cell
     absolute magnetization    =    19.04 Bohr mag/cell

     iteration # 29     ecut=   100.00 Ry     beta= 0.40
     Davidson diagonalization with overlap
     ethr =  1.05E-12,  avg # of iterations =  3.9

     negative rho (up, down):  0.000E+00 9.160E-04

     total cpu time spent up to now is    99067.1 secs

     total energy              =   -2125.88699582 Ry
     estimated scf accuracy    <          3.2E-09 Ry

     total magnetization       =    19.00 Bohr mag/cell
     absolute magnetization    =    19.04 Bohr mag/cell

     iteration # 30     ecut=   100.00 Ry     beta= 0.40
     Davidson diagonalization with overlap
     ethr =  1.05E-12,  avg # of iterations =  1.0

     negative rho (up, down):  0.000E+00 9.160E-04

     total cpu time spent up to now is   102016.7 secs

     total energy              =   -2125.88699582 Ry
     estimated scf accuracy    <          6.7E-10 Ry

     total magnetization       =    19.00 Bohr mag/cell
     absolute magnetization    =    19.04 Bohr mag/cell

     iteration # 31     ecut=   100.00 Ry     beta= 0.40
     Davidson diagonalization with overlap
     ethr =  3.56E-13,  avg # of iterations =  1.3

     negative rho (up, down):  0.000E+00 9.160E-04

     Magnetic moment per site:
     atom:    1    charge:    7.8508    magn:    0.0015    constr:    0.0000
     atom:    2    charge:   12.7696    magn:    3.5525    constr:    0.0000
     atom:    3    charge:   12.7614    magn:    3.5725    constr:    0.0000
     atom:    4    charge:   12.7662    magn:    3.5565    constr:    0.0000
     atom:    5    charge:   12.7697    magn:    3.5566    constr:    0.0000
     atom:    6    charge:    0.7989    magn:    0.0109    constr:    0.0000
     atom:    7    charge:    0.7874    magn:    0.0121    constr:    0.0000
     atom:    8    charge:    0.7985    magn:    0.0109    constr:    0.0000
     atom:    9    charge:    0.7894    magn:    0.0124    constr:    0.0000
     atom:   10    charge:    4.1095    magn:    0.1398    constr:    0.0000
     atom:   11    charge:    4.1230    magn:    0.1098    constr:    0.0000
     atom:   12    charge:    4.1113    magn:    0.1586    constr:    0.0000
     atom:   13    charge:    4.1234    magn:    0.1064    constr:    0.0000
     atom:   14    charge:    4.1222    magn:    0.1182    constr:    0.0000
     atom:   15    charge:    4.1341    magn:    0.0914    constr:    0.0000
     atom:   16    charge:    4.1188    magn:    0.1134    constr:    0.0000
     atom:   17    charge:    4.1252    magn:    0.0891    constr:    0.0000
     atom:   18    charge:    4.1271    magn:    0.1282    constr:    0.0000
     atom:   19    charge:    4.1121    magn:    0.1448    constr:    0.0000
     atom:   20    charge:    4.1174    magn:    0.1092    constr:    0.0000
     atom:   21    charge:    4.1275    magn:    0.1602    constr:    0.0000
     atom:   22    charge:    4.1224    magn:    0.1288    constr:    0.0000
     atom:   23    charge:    4.1126    magn:    0.1468    constr:    0.0000
     atom:   24    charge:    4.1170    magn:    0.1232    constr:    0.0000
     atom:   25    charge:    4.1226    magn:    0.1566    constr:    0.0000

     total cpu time spent up to now is   105010.3 secs

     End of self-consistent calculation

 ------ SPIN UP ------------


          k = 0.0000 0.0000 0.0000 ( 32965 PWs)   bands (ev):

   -83.7115 -83.6535 -83.5634 -83.5391 -49.8246 -49.8110 -49.8089 -49.7775
   -49.7218 -49.6715 -49.6333 -49.5538 -49.4990 -49.4714 -49.4117 -49.3744
   -43.5950 -15.9515 -15.9016 -15.6822 -15.6407 -15.5587 -15.5311 -15.1775
   -13.2043 -13.0726 -13.0538 -12.9466 -12.8556 -12.7982 -12.7296 -12.6678
   -12.6390 -12.5882 -12.5260 -12.4560  -3.4857  -3.0388  -2.5767  -2.3831
    -1.5468  -1.4294  -1.1268  -1.0166  -0.7528  -0.5867  -0.5394  -0.4308
    -0.3096  -0.1520  -0.1131   0.0185   0.5481   0.6669   0.9267   1.1306
     1.1826   1.2880   1.3132   1.5300   1.6449   1.7338   1.8451   1.9688
     2.0625   2.2240   2.4128   2.5312   2.6100   2.6222   2.8122   2.8644
     3.0080   3.1198   3.1696   3.3211   3.4141   3.4831   3.6161   3.6761
     3.7891   3.9320   4.1411   4.2082   4.2538   4.2678   4.3330   4.5099
     4.5742   4.7286   4.8484   4.9022   5.0903   5.1638   5.2078   5.2602
     5.3691   5.4788   5.5439   5.6689   5.8479   5.9568   6.3905   6.4682
    10.9047  12.8113  12.9494  13.7374  13.9687  14.7851  14.8911  15.0760
    15.2553  15.3547

     occupation numbers 
     1.0000   1.0000   1.0000   1.0000   1.0000   1.0000   1.0000   1.0000
     1.0000   1.0000   1.0000   1.0000   1.0000   1.0000   1.0000   1.0000
     1.0000   1.0000   1.0000   1.0000   1.0000   1.0000   1.0000   1.0000
     1.0000   1.0000   1.0000   1.0000   1.0000   1.0000   1.0000   1.0000
     1.0000   1.0000   1.0000   1.0000   1.0000   1.0000   1.0000   1.0000
     1.0000   1.0000   1.0000   1.0000   1.0000   1.0000   1.0000   1.0000
     1.0000   1.0000   1.0000   1.0000   1.0000   1.0000   1.0000   1.0000
     1.0000   1.0000   1.0000   1.0000   1.0000   1.0000   1.0000   1.0000
     1.0000   1.0000   1.0000   1.0000   1.0000   1.0000   1.0000   1.0000
     1.0000   1.0000   1.0000   1.0000   1.0000   1.0000   1.0000   1.0000
     1.0000   1.0000   1.0000   1.0000   1.0000   1.0000   1.0000   1.0000
     1.0000   1.0000   1.0000   1.0000   1.0000   1.0000   1.0000   1.0000
     1.0000   1.0000   1.0000   1.0000   1.0000   1.0000   1.0000   1.0000
     0.0000   0.0000   0.0000   0.0000   0.0000   0.0000   0.0000   0.0000
     0.0000   0.0000

          k = 0.0000 0.0000 0.2337 ( 32923 PWs)   bands (ev):

   -83.7115 -83.6535 -83.5634 -83.5391 -49.8246 -49.8110 -49.8089 -49.7775
   -49.7218 -49.6715 -49.6333 -49.5538 -49.4990 -49.4714 -49.4117 -49.3744
   -43.5950 -15.9516 -15.8865 -15.6855 -15.6412 -15.5473 -15.5201 -15.1785
   -13.2165 -13.1085 -13.0316 -12.9477 -12.8566 -12.7972 -12.7400 -12.6804
   -12.6494 -12.5876 -12.5346 -12.4522  -3.4501  -3.0262  -2.5857  -2.3617
    -1.5192  -1.4156  -1.1278  -1.0054  -0.7430  -0.5899  -0.5023  -0.4329
    -0.2755  -0.1821  -0.1498   0.0445   0.5679   0.6738   0.9305   1.0906
     1.1710   1.2825   1.3319   1.4927   1.7038   1.7513   1.8416   1.9213
     2.0258   2.2581   2.4074   2.5006   2.5949   2.7095   2.8308   2.8755
     2.9745   3.1240   3.1855   3.2731   3.4475   3.4696   3.5444   3.6334
     3.8174   3.9287   4.1092   4.1751   4.2475   4.2786   4.3509   4.4599
     4.5796   4.7398   4.8353   4.8874   5.0698   5.1681   5.2160   5.2485
     5.3590   5.4950   5.5424   5.6774   5.8498   5.9723   6.3613   6.4863
    11.0480  12.8600  13.0204  13.7397  14.0503  14.6777  14.9166  15.0635
    15.1964  15.3586

     occupation numbers 
     1.0000   1.0000   1.0000   1.0000   1.0000   1.0000   1.0000   1.0000
     1.0000   1.0000   1.0000   1.0000   1.0000   1.0000   1.0000   1.0000
     1.0000   1.0000   1.0000   1.0000   1.0000   1.0000   1.0000   1.0000
     1.0000   1.0000   1.0000   1.0000   1.0000   1.0000   1.0000   1.0000
     1.0000   1.0000   1.0000   1.0000   1.0000   1.0000   1.0000   1.0000
     1.0000   1.0000   1.0000   1.0000   1.0000   1.0000   1.0000   1.0000
     1.0000   1.0000   1.0000   1.0000   1.0000   1.0000   1.0000   1.0000
     1.0000   1.0000   1.0000   1.0000   1.0000   1.0000   1.0000   1.0000
     1.0000   1.0000   1.0000   1.0000   1.0000   1.0000   1.0000   1.0000
     1.0000   1.0000   1.0000   1.0000   1.0000   1.0000   1.0000   1.0000
     1.0000   1.0000   1.0000   1.0000   1.0000   1.0000   1.0000   1.0000
     1.0000   1.0000   1.0000   1.0000   1.0000   1.0000   1.0000   1.0000
     1.0000   1.0000   1.0000   1.0000   1.0000   1.0000   1.0000   1.0000
     0.0000   0.0000   0.0000   0.0000   0.0000   0.0000   0.0000   0.0000
     0.0000   0.0000

          k = 0.0000 0.0000 0.4675 ( 32947 PWs)   bands (ev):

   -83.7115 -83.6535 -83.5634 -83.5391 -49.8246 -49.8110 -49.8089 -49.7776
   -49.7218 -49.6715 -49.6333 -49.5538 -49.4990 -49.4714 -49.4117 -49.3744
   -43.5950 -15.9502 -15.8488 -15.6925 -15.6411 -15.5196 -15.4916 -15.1833
   -13.2505 -13.1625 -13.0147 -12.9536 -12.8616 -12.7915 -12.7592 -12.7102
   -12.6653 -12.5956 -12.5518 -12.4505  -3.3580  -2.9909  -2.5932  -2.3356
    -1.4962  -1.3363  -1.0933  -0.9949  -0.7256  -0.5777  -0.5039  -0.3588
    -0.2399  -0.2205  -0.1860   0.0526   0.5849   0.7146   0.9547   1.0287
     1.1510   1.2735   1.3427   1.5631   1.7266   1.7392   1.8226   1.9005
     2.0223   2.2942   2.3464   2.4972   2.6195   2.7034   2.8088   2.8650
     2.9930   3.0906   3.1949   3.2454   3.2921   3.4719   3.5319   3.5918
     3.8051   3.8831   4.0133   4.0931   4.2189   4.3243   4.4036   4.4359
     4.6180   4.7296   4.8046   4.8575   5.0830   5.1493   5.2030   5.2264
     5.3366   5.4982   5.5551   5.7094   5.8517   6.0019   6.3287   6.5010
    11.4325  12.9894  13.1833  13.7872  14.2033  14.4504  14.8819  15.0176
    15.1058  15.2759

     occupation numbers 
     1.0000   1.0000   1.0000   1.0000   1.0000   1.0000   1.0000   1.0000
     1.0000   1.0000   1.0000   1.0000   1.0000   1.0000   1.0000   1.0000
     1.0000   1.0000   1.0000   1.0000   1.0000   1.0000   1.0000   1.0000
     1.0000   1.0000   1.0000   1.0000   1.0000   1.0000   1.0000   1.0000
     1.0000   1.0000   1.0000   1.0000   1.0000   1.0000   1.0000   1.0000
     1.0000   1.0000   1.0000   1.0000   1.0000   1.0000   1.0000   1.0000
     1.0000   1.0000   1.0000   1.0000   1.0000   1.0000   1.0000   1.0000
     1.0000   1.0000   1.0000   1.0000   1.0000   1.0000   1.0000   1.0000
     1.0000   1.0000   1.0000   1.0000   1.0000   1.0000   1.0000   1.0000
     1.0000   1.0000   1.0000   1.0000   1.0000   1.0000   1.0000   1.0000
     1.0000   1.0000   1.0000   1.0000   1.0000   1.0000   1.0000   1.0000
     1.0000   1.0000   1.0000   1.0000   1.0000   1.0000   1.0000   1.0000
     1.0000   1.0000   1.0000   1.0000   1.0000   1.0000   1.0000   1.0000
     0.0000   0.0000   0.0000   0.0000   0.0000   0.0000   0.0000   0.0000
     0.0000   0.0000

          k = 0.0000 0.0000 0.7012 ( 32929 PWs)   bands (ev):

   -83.7115 -83.6535 -83.5634 -83.5391 -49.8246 -49.8110 -49.8089 -49.7776
   -49.7218 -49.6715 -49.6333 -49.5538 -49.4990 -49.4714 -49.4117 -49.3744
   -43.5950 -15.9477 -15.8051 -15.6983 -15.6398 -15.4862 -15.4589 -15.1939
   -13.2912 -13.2179 -13.0084 -12.9644 -12.8738 -12.7984 -12.7550 -12.7293
   -12.6806 -12.6097 -12.5672 -12.4597  -3.2499  -2.9424  -2.5878  -2.3431
    -1.4803  -1.2541  -1.0141  -0.9665  -0.7246  -0.5633  -0.5461  -0.3178
    -0.2454  -0.2008  -0.1417   0.0118   0.5657   0.7763   0.9915   1.0615
     1.1421   1.3147   1.3935   1.6252   1.7064   1.7646   1.8333   1.9043
     2.0582   2.2593   2.3175   2.4471   2.5970   2.6167   2.6925   2.8220
     2.9170   3.0209   3.1619   3.2134   3.3203   3.3668   3.5376   3.6052
     3.7609   3.8363   3.9103   3.9637   4.2303   4.3952   4.4563   4.5309
     4.6400   4.6962   4.8055   4.8806   5.0673   5.1387   5.1709   5.2086
     5.2964   5.4479   5.5951   5.7469   5.8522   6.0198   6.3379   6.4917
    11.9522  13.1463  13.3268  13.8690  13.9733  14.5403  14.8091  14.8991
    15.0047  15.2229

     occupation numbers 
     1.0000   1.0000   1.0000   1.0000   1.0000   1.0000   1.0000   1.0000
     1.0000   1.0000   1.0000   1.0000   1.0000   1.0000   1.0000   1.0000
     1.0000   1.0000   1.0000   1.0000   1.0000   1.0000   1.0000   1.0000
     1.0000   1.0000   1.0000   1.0000   1.0000   1.0000   1.0000   1.0000
     1.0000   1.0000   1.0000   1.0000   1.0000   1.0000   1.0000   1.0000
     1.0000   1.0000   1.0000   1.0000   1.0000   1.0000   1.0000   1.0000
     1.0000   1.0000   1.0000   1.0000   1.0000   1.0000   1.0000   1.0000
     1.0000   1.0000   1.0000   1.0000   1.0000   1.0000   1.0000   1.0000
     1.0000   1.0000   1.0000   1.0000   1.0000   1.0000   1.0000   1.0000
     1.0000   1.0000   1.0000   1.0000   1.0000   1.0000   1.0000   1.0000
     1.0000   1.0000   1.0000   1.0000   1.0000   1.0000   1.0000   1.0000
     1.0000   1.0000   1.0000   1.0000   1.0000   1.0000   1.0000   1.0000
     1.0000   1.0000   1.0000   1.0000   1.0000   1.0000   1.0000   1.0000
     0.0000   0.0000   0.0000   0.0000   0.0000   0.0000   0.0000   0.0000
     0.0000   0.0000

          k = 0.0000 0.0000 0.9349 ( 32952 PWs)   bands (ev):

   -83.7115 -83.6535 -83.5634 -83.5391 -49.8246 -49.8110 -49.8089 -49.7776
   -49.7218 -49.6715 -49.6333 -49.5538 -49.4990 -49.4714 -49.4117 -49.3744
   -43.5950 -15.9459 -15.7762 -15.7004 -15.6386 -15.4612 -15.4374 -15.2054
   -13.3167 -13.2555 -13.0097 -12.9737 -12.8843 -12.8063 -12.7603 -12.7110
   -12.6931 -12.6180 -12.5784 -12.4722  -3.1779  -2.9037  -2.5743  -2.3729
    -1.4573  -1.2250  -0.9736  -0.8915  -0.7497  -0.5963  -0.5482  -0.3406
    -0.2163  -0.1475  -0.1274  -0.0260   0.5468   0.8299   1.0037   1.0304
     1.2928   1.4016   1.5012   1.6011   1.6961   1.7901   1.8019   1.9591
     2.0991   2.2229   2.2671   2.3425   2.4443   2.5208   2.6494   2.7660
     2.8965   2.9923   3.0497   3.2133   3.3080   3.3854   3.5262   3.6457
     3.7201   3.7788   3.8469   3.9539   4.2338   4.4226   4.5065   4.5766
     4.6401   4.7540   4.7983   4.9598   5.0155   5.1070   5.1654   5.1959
     5.2723   5.3702   5.6351   5.7699   5.8481   6.0234   6.3792   6.4617
    12.4455  13.2449  13.3461  13.6111  13.9486  14.7102  14.7787  14.8337
    14.9772  15.1577

     occupation numbers 
     1.0000   1.0000   1.0000   1.0000   1.0000   1.0000   1.0000   1.0000
     1.0000   1.0000   1.0000   1.0000   1.0000   1.0000   1.0000   1.0000
     1.0000   1.0000   1.0000   1.0000   1.0000   1.0000   1.0000   1.0000
     1.0000   1.0000   1.0000   1.0000   1.0000   1.0000   1.0000   1.0000
     1.0000   1.0000   1.0000   1.0000   1.0000   1.0000   1.0000   1.0000
     1.0000   1.0000   1.0000   1.0000   1.0000   1.0000   1.0000   1.0000
     1.0000   1.0000   1.0000   1.0000   1.0000   1.0000   1.0000   1.0000
     1.0000   1.0000   1.0000   1.0000   1.0000   1.0000   1.0000   1.0000
     1.0000   1.0000   1.0000   1.0000   1.0000   1.0000   1.0000   1.0000
     1.0000   1.0000   1.0000   1.0000   1.0000   1.0000   1.0000   1.0000
     1.0000   1.0000   1.0000   1.0000   1.0000   1.0000   1.0000   1.0000
     1.0000   1.0000   1.0000   1.0000   1.0000   1.0000   1.0000   1.0000
     1.0000   1.0000   1.0000   1.0000   1.0000   1.0000   1.0000   1.0000
     0.0000   0.0000   0.0000   0.0000   0.0000   0.0000   0.0000   0.0000
     0.0000   0.0000

          k = 0.0000 0.2391 0.0000 ( 32916 PWs)   bands (ev):

   -83.7115 -83.6535 -83.5634 -83.5391 -49.8246 -49.8110 -49.8089 -49.7775
   -49.7218 -49.6715 -49.6333 -49.5538 -49.4990 -49.4714 -49.4117 -49.3744
   -43.5950 -16.0125 -15.8349 -15.6840 -15.6313 -15.5560 -15.5151 -15.1935
   -13.2291 -13.0874 -13.0367 -12.9476 -12.8949 -12.7777 -12.7354 -12.6650
   -12.6365 -12.5832 -12.5243 -12.4517  -3.4381  -2.9942  -2.5935  -2.3721
    -1.5371  -1.3942  -1.1087  -1.0038  -0.7604  -0.6073  -0.5261  -0.3919
    -0.3166  -0.1576  -0.1187   0.0505   0.5441   0.6372   0.9223   1.0845
     1.1516   1.2370   1.3394   1.4753   1.6450   1.7343   1.8753   1.9652
     2.0927   2.2090   2.4104   2.5255   2.6012   2.6421   2.8034   2.8787
     2.9388   3.0742   3.1724   3.2913   3.3376   3.5008   3.6303   3.7064
     3.8045   3.9133   4.1065   4.1462   4.2123   4.3056   4.4085   4.5196
     4.5681   4.6692   4.8109   4.9028   5.1024   5.1357   5.2104   5.2425
     5.3534   5.4047   5.5304   5.6436   5.9820   6.0752   6.4406   6.4928
    11.0642  12.8778  13.0389  13.6735  14.0342  14.6553  14.8830  14.9590
    15.3130  15.4309

     occupation numbers 
     1.0000   1.0000   1.0000   1.0000   1.0000   1.0000   1.0000   1.0000
     1.0000   1.0000   1.0000   1.0000   1.0000   1.0000   1.0000   1.0000
     1.0000   1.0000   1.0000   1.0000   1.0000   1.0000   1.0000   1.0000
     1.0000   1.0000   1.0000   1.0000   1.0000   1.0000   1.0000   1.0000
     1.0000   1.0000   1.0000   1.0000   1.0000   1.0000   1.0000   1.0000
     1.0000   1.0000   1.0000   1.0000   1.0000   1.0000   1.0000   1.0000
     1.0000   1.0000   1.0000   1.0000   1.0000   1.0000   1.0000   1.0000
     1.0000   1.0000   1.0000   1.0000   1.0000   1.0000   1.0000   1.0000
     1.0000   1.0000   1.0000   1.0000   1.0000   1.0000   1.0000   1.0000
     1.0000   1.0000   1.0000   1.0000   1.0000   1.0000   1.0000   1.0000
     1.0000   1.0000   1.0000   1.0000   1.0000   1.0000   1.0000   1.0000
     1.0000   1.0000   1.0000   1.0000   1.0000   1.0000   1.0000   1.0000
     1.0000   1.0000   1.0000   1.0000   1.0000   1.0000   1.0000   1.0000
     0.0000   0.0000   0.0000   0.0000   0.0000   0.0000   0.0000   0.0000
     0.0000   0.0000

          k = 0.0000 0.2391 0.2337 ( 32949 PWs)   bands (ev):

   -83.7115 -83.6535 -83.5634 -83.5391 -49.8246 -49.8110 -49.8089 -49.7775
   -49.7218 -49.6715 -49.6333 -49.5538 -49.4990 -49.4714 -49.4117 -49.3744
   -43.5950 -16.0151 -15.8214 -15.6824 -15.6317 -15.5376 -15.5079 -15.1974
   -13.2381 -13.1213 -13.0204 -12.9479 -12.8963 -12.7957 -12.7340 -12.6717
   -12.6500 -12.5826 -12.5292 -12.4487  -3.4103  -2.9888  -2.5892  -2.3335
    -1.5160  -1.3806  -1.1303  -0.9744  -0.7375  -0.5831  -0.5125  -0.4063
    -0.3186  -0.1880  -0.1511   0.0987   0.5746   0.6421   0.9353   1.0840
     1.1409   1.2553   1.3600   1.5099   1.5724   1.7195   1.8557   1.9224
     2.0123   2.2127   2.3923   2.4875   2.5704   2.7190   2.8716   2.9153
     2.9493   3.0754   3.1928   3.2235   3.3942   3.5193   3.5490   3.6926
     3.8425   3.9616   4.0417   4.1277   4.2313   4.2745   4.3757   4.4601
     4.5546   4.6758   4.7770   4.8873   5.0841   5.1536   5.2147   5.2587
     5.3435   5.4016   5.5426   5.6718   5.9835   6.0967   6.3877   6.5223
    11.2044  12.9349  13.1017  13.6529  14.1347  14.6326  14.8156  15.0237
    15.2280  15.3824

     occupation numbers 
     1.0000   1.0000   1.0000   1.0000   1.0000   1.0000   1.0000   1.0000
     1.0000   1.0000   1.0000   1.0000   1.0000   1.0000   1.0000   1.0000
     1.0000   1.0000   1.0000   1.0000   1.0000   1.0000   1.0000   1.0000
     1.0000   1.0000   1.0000   1.0000   1.0000   1.0000   1.0000   1.0000
     1.0000   1.0000   1.0000   1.0000   1.0000   1.0000   1.0000   1.0000
     1.0000   1.0000   1.0000   1.0000   1.0000   1.0000   1.0000   1.0000
     1.0000   1.0000   1.0000   1.0000   1.0000   1.0000   1.0000   1.0000
     1.0000   1.0000   1.0000   1.0000   1.0000   1.0000   1.0000   1.0000
     1.0000   1.0000   1.0000   1.0000   1.0000   1.0000   1.0000   1.0000
     1.0000   1.0000   1.0000   1.0000   1.0000   1.0000   1.0000   1.0000
     1.0000   1.0000   1.0000   1.0000   1.0000   1.0000   1.0000   1.0000
     1.0000   1.0000   1.0000   1.0000   1.0000   1.0000   1.0000   1.0000
     1.0000   1.0000   1.0000   1.0000   1.0000   1.0000   1.0000   1.0000
     0.0000   0.0000   0.0000   0.0000   0.0000   0.0000   0.0000   0.0000
     0.0000   0.0000

          k = 0.0000 0.2391 0.4675 ( 32955 PWs)   bands (ev):

   -83.7115 -83.6535 -83.5634 -83.5391 -49.8246 -49.8110 -49.8089 -49.7776
   -49.7218 -49.6715 -49.6333 -49.5538 -49.4990 -49.4714 -49.4117 -49.3744
   -43.5950 -16.0051 -15.7956 -15.6850 -15.6364 -15.5051 -15.4794 -15.2020
   -13.2683 -13.1639 -13.0199 -12.9641 -12.8867 -12.8115 -12.7444 -12.7003
   -12.6628 -12.5886 -12.5426 -12.4491  -3.3236  -2.9600  -2.5820  -2.2856
    -1.4922  -1.3376  -1.0837  -0.9573  -0.7258  -0.5648  -0.4722  -0.4048
    -0.2636  -0.2145  -0.1888   0.1019   0.5631   0.6991   0.9628   1.0575
     1.1475   1.2797   1.3502   1.5124   1.6249   1.6853   1.8159   1.8923
     1.9879   2.2182   2.3292   2.4947   2.5468   2.7503   2.8166   2.9185
     3.0004   3.0819   3.1613   3.2287   3.3162   3.5189   3.5763   3.6393
     3.8141   3.9313   3.9581   4.0628   4.1674   4.3131   4.3671   4.4182
     4.5752   4.6884   4.7263   4.8592   5.0916   5.1329   5.1857   5.2667
     5.3478   5.4076   5.5761   5.7049   5.9958   6.1130   6.3379   6.5440
    11.5743  13.0657  13.2483  13.6897  14.2997  14.4640  14.7768  15.0724
    15.1011  15.2618

     occupation numbers 
     1.0000   1.0000   1.0000   1.0000   1.0000   1.0000   1.0000   1.0000
     1.0000   1.0000   1.0000   1.0000   1.0000   1.0000   1.0000   1.0000
     1.0000   1.0000   1.0000   1.0000   1.0000   1.0000   1.0000   1.0000
     1.0000   1.0000   1.0000   1.0000   1.0000   1.0000   1.0000   1.0000
     1.0000   1.0000   1.0000   1.0000   1.0000   1.0000   1.0000   1.0000
     1.0000   1.0000   1.0000   1.0000   1.0000   1.0000   1.0000   1.0000
     1.0000   1.0000   1.0000   1.0000   1.0000   1.0000   1.0000   1.0000
     1.0000   1.0000   1.0000   1.0000   1.0000   1.0000   1.0000   1.0000
     1.0000   1.0000   1.0000   1.0000   1.0000   1.0000   1.0000   1.0000
     1.0000   1.0000   1.0000   1.0000   1.0000   1.0000   1.0000   1.0000
     1.0000   1.0000   1.0000   1.0000   1.0000   1.0000   1.0000   1.0000
     1.0000   1.0000   1.0000   1.0000   1.0000   1.0000   1.0000   1.0000
     1.0000   1.0000   1.0000   1.0000   1.0000   1.0000   1.0000   1.0000
     0.0000   0.0000   0.0000   0.0000   0.0000   0.0000   0.0000   0.0000
     0.0000   0.0000

          k = 0.0000 0.2391 0.7012 ( 32947 PWs)   bands (ev):

   -83.7115 -83.6535 -83.5634 -83.5391 -49.8246 -49.8110 -49.8089 -49.7776
   -49.7218 -49.6715 -49.6333 -49.5538 -49.4990 -49.4715 -49.4117 -49.3744
   -43.5950 -15.9886 -15.7695 -15.6880 -15.6385 -15.4719 -15.4450 -15.2086
   -13.3058 -13.2119 -13.0245 -12.9833 -12.8890 -12.8150 -12.7465 -12.7233
   -12.6766 -12.6005 -12.5562 -12.4593  -3.2142  -2.9157  -2.5722  -2.2753
    -1.4877  -1.2689  -0.9946  -0.9302  -0.7256  -0.5875  -0.4862  -0.3622
    -0.2318  -0.1818  -0.1657   0.0347   0.5377   0.7460   0.9828   1.1134
     1.1815   1.2918   1.3814   1.5309   1.6598   1.7127   1.8068   1.9410
     2.0027   2.1874   2.2763   2.4094   2.5730   2.6669   2.7310   2.8230
     2.9326   3.0072   3.1437   3.2180   3.3708   3.3939   3.6102   3.6646
     3.7487   3.8230   3.8722   3.9940   4.1597   4.3484   4.3949   4.4920
     4.6112   4.6682   4.7247   4.9128   5.0464   5.1087   5.1563   5.2553
     5.3174   5.4079   5.6071   5.7376   6.0134   6.0928   6.3541   6.5395
    12.0719  13.1977  13.3975  13.7549  14.0781  14.5797  14.7512  14.9170
    15.0431  15.2817

     occupation numbers 
     1.0000   1.0000   1.0000   1.0000   1.0000   1.0000   1.0000   1.0000
     1.0000   1.0000   1.0000   1.0000   1.0000   1.0000   1.0000   1.0000
     1.0000   1.0000   1.0000   1.0000   1.0000   1.0000   1.0000   1.0000
     1.0000   1.0000   1.0000   1.0000   1.0000   1.0000   1.0000   1.0000
     1.0000   1.0000   1.0000   1.0000   1.0000   1.0000   1.0000   1.0000
     1.0000   1.0000   1.0000   1.0000   1.0000   1.0000   1.0000   1.0000
     1.0000   1.0000   1.0000   1.0000   1.0000   1.0000   1.0000   1.0000
     1.0000   1.0000   1.0000   1.0000   1.0000   1.0000   1.0000   1.0000
     1.0000   1.0000   1.0000   1.0000   1.0000   1.0000   1.0000   1.0000
     1.0000   1.0000   1.0000   1.0000   1.0000   1.0000   1.0000   1.0000
     1.0000   1.0000   1.0000   1.0000   1.0000   1.0000   1.0000   1.0000
     1.0000   1.0000   1.0000   1.0000   1.0000   1.0000   1.0000   1.0000
     1.0000   1.0000   1.0000   1.0000   1.0000   1.0000   1.0000   1.0000
     0.0000   0.0000   0.0000   0.0000   0.0000   0.0000   0.0000   0.0000
     0.0000   0.0000

          k = 0.0000 0.2391 0.9349 ( 32946 PWs)   bands (ev):

   -83.7115 -83.6535 -83.5634 -83.5391 -49.8246 -49.8110 -49.8089 -49.7776
   -49.7218 -49.6715 -49.6333 -49.5538 -49.4990 -49.4715 -49.4117 -49.3744
   -43.5950 -15.9722 -15.7609 -15.6857 -15.6391 -15.4503 -15.4250 -15.2121
   -13.3296 -13.2489 -13.0249 -12.9917 -12.8956 -12.8243 -12.7541 -12.7087
   -12.6901 -12.6096 -12.5673 -12.4713  -3.1298  -2.8717  -2.5666  -2.3193
    -1.4585  -1.2320  -0.9503  -0.8756  -0.7410  -0.6113  -0.5220  -0.3622
    -0.2037  -0.1363  -0.1126  -0.0273   0.5088   0.7785   0.9948   1.0912
     1.2939   1.3487   1.4706   1.5017   1.6816   1.7618   1.8702   1.9378
     2.0770   2.1673   2.2426   2.3228   2.4333   2.5655   2.6818   2.7542
     2.9075   2.9948   3.0403   3.1654   3.3435   3.4252   3.5377   3.6851
     3.7119   3.7742   3.8343   3.9697   4.1824   4.3830   4.4518   4.5344
     4.6247   4.6834   4.7707   4.9616   5.0042   5.0744   5.1407   5.2427
     5.2785   5.3924   5.6207   5.7568   6.0055   6.0869   6.4014   6.5167
    12.5277  13.2555  13.4646  13.6588  13.9291  14.6443  14.7896  14.8690
    15.0217  15.2324

     occupation numbers 
     1.0000   1.0000   1.0000   1.0000   1.0000   1.0000   1.0000   1.0000
     1.0000   1.0000   1.0000   1.0000   1.0000   1.0000   1.0000   1.0000
     1.0000   1.0000   1.0000   1.0000   1.0000   1.0000   1.0000   1.0000
     1.0000   1.0000   1.0000   1.0000   1.0000   1.0000   1.0000   1.0000
     1.0000   1.0000   1.0000   1.0000   1.0000   1.0000   1.0000   1.0000
     1.0000   1.0000   1.0000   1.0000   1.0000   1.0000   1.0000   1.0000
     1.0000   1.0000   1.0000   1.0000   1.0000   1.0000   1.0000   1.0000
     1.0000   1.0000   1.0000   1.0000   1.0000   1.0000   1.0000   1.0000
     1.0000   1.0000   1.0000   1.0000   1.0000   1.0000   1.0000   1.0000
     1.0000   1.0000   1.0000   1.0000   1.0000   1.0000   1.0000   1.0000
     1.0000   1.0000   1.0000   1.0000   1.0000   1.0000   1.0000   1.0000
     1.0000   1.0000   1.0000   1.0000   1.0000   1.0000   1.0000   1.0000
     1.0000   1.0000   1.0000   1.0000   1.0000   1.0000   1.0000   1.0000
     0.0000   0.0000   0.0000   0.0000   0.0000   0.0000   0.0000   0.0000
     0.0000   0.0000

          k = 0.0000 0.4781 0.0000 ( 33016 PWs)   bands (ev):

   -83.7115 -83.6535 -83.5634 -83.5391 -49.8246 -49.8110 -49.8089 -49.7775
   -49.7218 -49.6715 -49.6333 -49.5538 -49.4990 -49.4715 -49.4117 -49.3744
   -43.5950 -16.0758 -15.7513 -15.6796 -15.6224 -15.5595 -15.4670 -15.2354
   -13.2738 -13.1135 -13.0133 -12.9873 -12.9143 -12.7650 -12.7478 -12.6557
   -12.6377 -12.5723 -12.5185 -12.4427  -3.3287  -2.8866  -2.6327  -2.3606
    -1.4940  -1.2979  -1.0752  -0.9624  -0.7804  -0.6385  -0.4926  -0.3595
    -0.2945  -0.1722  -0.1016   0.0891   0.4880   0.5985   0.8833   0.9502
     1.1328   1.1973   1.2564   1.4576   1.5830   1.6395   1.9402   2.0015
     2.1751   2.2520   2.3748   2.5027   2.5742   2.6685   2.7394   2.8716
     2.9164   3.0788   3.1435   3.2245   3.2539   3.4848   3.6103   3.7469
     3.8263   3.9019   4.0035   4.1308   4.1805   4.2914   4.4180   4.4912
     4.5585   4.6569   4.7974   4.8721   5.0173   5.1198   5.1900   5.2250
     5.2657   5.4204   5.5340   5.6373   6.1478   6.2554   6.5005   6.6204
    11.4982  13.0298  13.2221  13.4708  14.0959  14.4876  14.8169  14.8641
    15.1088  15.3226

     occupation numbers 
     1.0000   1.0000   1.0000   1.0000   1.0000   1.0000   1.0000   1.0000
     1.0000   1.0000   1.0000   1.0000   1.0000   1.0000   1.0000   1.0000
     1.0000   1.0000   1.0000   1.0000   1.0000   1.0000   1.0000   1.0000
     1.0000   1.0000   1.0000   1.0000   1.0000   1.0000   1.0000   1.0000
     1.0000   1.0000   1.0000   1.0000   1.0000   1.0000   1.0000   1.0000
     1.0000   1.0000   1.0000   1.0000   1.0000   1.0000   1.0000   1.0000
     1.0000   1.0000   1.0000   1.0000   1.0000   1.0000   1.0000   1.0000
     1.0000   1.0000   1.0000   1.0000   1.0000   1.0000   1.0000   1.0000
     1.0000   1.0000   1.0000   1.0000   1.0000   1.0000   1.0000   1.0000
     1.0000   1.0000   1.0000   1.0000   1.0000   1.0000   1.0000   1.0000
     1.0000   1.0000   1.0000   1.0000   1.0000   1.0000   1.0000   1.0000
     1.0000   1.0000   1.0000   1.0000   1.0000   1.0000   1.0000   1.0000
     1.0000   1.0000   1.0000   1.0000   1.0000   1.0000   1.0000   1.0000
     0.0000   0.0000   0.0000   0.0000   0.0000   0.0000   0.0000   0.0000
     0.0000   0.0000

          k = 0.0000 0.4781 0.2337 ( 32976 PWs)   bands (ev):

   -83.7115 -83.6535 -83.5634 -83.5391 -49.8246 -49.8110 -49.8089 -49.7775
   -49.7218 -49.6715 -49.6333 -49.5538 -49.4990 -49.4715 -49.4117 -49.3744
   -43.5950 -16.0742 -15.7443 -15.6766 -15.6261 -15.5468 -15.4474 -15.2410
   -13.2786 -13.1392 -13.0152 -12.9677 -12.9366 -12.7829 -12.7429 -12.6669
   -12.6443 -12.5725 -12.5205 -12.4419  -3.3049  -2.8853  -2.6102  -2.3194
    -1.4726  -1.2774  -1.1170  -0.9240  -0.7668  -0.6325  -0.4643  -0.3588
    -0.3044  -0.1805  -0.1551   0.1361   0.5022   0.5951   0.8944   0.9733
     1.1435   1.2120   1.3211   1.4742   1.5263   1.6010   1.8958   1.9444
     2.0469   2.2113   2.3873   2.4448   2.5390   2.7159   2.8395   2.9102
     2.9758   3.0756   3.1800   3.2443   3.2844   3.5137   3.5443   3.7080
[...]
     atom   12 type  3   force =    -0.03282439   -0.01522059   -0.05551180
     atom   13 type  3   force =     0.00839402    0.00749212   -0.08042076
     atom   14 type  3   force =    -0.07895505    0.01194097    0.02899790
     atom   15 type  3   force =     0.07879689   -0.02335005   -0.01595798
     atom   16 type  3   force =     0.08018521   -0.01143419   -0.02689456
     atom   17 type  3   force =    -0.08000855    0.03386699    0.00502955
     atom   18 type  3   force =     0.00798195    0.07085733   -0.04620434
     atom   19 type  3   force =    -0.03421388   -0.03687067   -0.04870278
     atom   20 type  3   force =     0.00728213    0.08709893    0.05038223
     atom   21 type  3   force =    -0.00054565   -0.05650853    0.02016356
     atom   22 type  3   force =    -0.00789410   -0.06889366    0.04017954
     atom   23 type  3   force =     0.03300233    0.03886080    0.04399620
     atom   24 type  3   force =    -0.00675792   -0.08460021   -0.05537818
     atom   25 type  3   force =    -0.00261136    0.05225847   -0.02522193
     The non-local contrib.  to forces
     atom    1 type  2   force =    -0.05877871   -0.00187299   -0.03588460
     atom    2 type  1   force =     0.03603974   -0.11501386   -0.16011786
     atom    3 type  1   force =    -0.01404396   -0.07975866    0.14864467
     atom    4 type  1   force =    -0.06461763    0.10956079    0.14429707
     atom    5 type  1   force =     0.06752544    0.10911560   -0.08596956
     atom    6 type  4   force =    -0.00524379    0.06799166    0.04478500
     atom    7 type  4   force =    -0.04213282    0.02304002   -0.07065894
     atom    8 type  4   force =     0.00590029   -0.04527443   -0.03618603
     atom    9 type  4   force =     0.03611623   -0.01093267    0.06793116
     atom   10 type  3   force =    -0.59347052   -0.21513171   -1.02067090
     atom   11 type  3   force =    -0.02919437    0.21683428   -1.42806367
     atom   12 type  3   force =     0.55179785    0.27326087    1.03600245
     atom   13 type  3   force =     0.01195755   -0.21402428    1.42504118
     atom   14 type  3   force =     1.33803873   -0.21735205   -0.61207975
     atom   15 type  3   force =    -1.23480243    0.40303891   -0.05949844
     atom   16 type  3   force =    -1.36039420    0.21558592    0.55908008
     atom   17 type  3   force =     1.26211427   -0.49470847    0.12655401
     atom   18 type  3   force =    -0.12135894   -1.31208218    0.76667108
     atom   19 type  3   force =     0.61857954    0.66328264    0.91554701
     atom   20 type  3   force =     0.03169858   -1.53590673   -0.94619721
     atom   21 type  3   force =    -0.09480542    1.02336651   -0.58202201
     atom   22 type  3   force =     0.10904592    1.28384262   -0.84247117
     atom   23 type  3   force =    -0.61066754   -0.68721863   -0.89499758
     atom   24 type  3   force =     0.00733924    1.63425128    0.92775330
     atom   25 type  3   force =     0.12940809   -0.95566167    0.58542838
     The ionic contribution  to forces
     atom    1 type  2   force =    -1.48965573    3.32253639    2.05389864
     atom    2 type  1   force =    11.97396016    4.71699888   -1.91945498
     atom    3 type  1   force =     4.56407710  -11.21640998   -3.42347645
     atom    4 type  1   force =    -9.13143106   -5.78749049    2.33291346
     atom    5 type  1   force =    -5.89819790    9.98730360    2.12725558
     atom    6 type  4   force =    -1.69977525    2.52130615   -2.00442577
     atom    7 type  4   force =     3.70821678   -0.88400793    1.20823403
     atom    8 type  4   force =     1.59962021   -2.72434632    1.53470348
     atom    9 type  4   force =    -3.71697273    1.01614960   -1.33063495
     atom   10 type  3   force =     1.01562369    6.23267701   -0.97303933
     atom   11 type  3   force =     8.01350328   -4.24972889    2.45620152
     atom   12 type  3   force =     1.11014384   -8.07944823   -0.27727956
     atom   13 type  3   force =    -8.06291025    4.12273573   -2.38453979
     atom   14 type  3   force =     0.67534659    1.52400903    8.32871167
     atom   15 type  3   force =    -0.39881785   -4.02259090    2.92353788
     atom   16 type  3   force =    -0.34743416   -1.43011982   -7.83860921
     atom   17 type  3   force =    -0.40511985    5.73248932   -5.56196232
     atom   18 type  3   force =    -5.11748921    9.16797597    2.75541033
     atom   19 type  3   force =     3.03781874   -0.56171456   -4.15875256
     atom   20 type  3   force =     3.53424344    4.99831176    9.57322305
     atom   21 type  3   force =    -9.92228001   -1.16020592   -0.30883089
     atom   22 type  3   force =     5.05354549   -8.00305271    0.14381176
     atom   23 type  3   force =    -2.81320178    1.75507281    3.84837244
     atom   24 type  3   force =    -4.90429930   -7.20202765   -9.10732192
     atom   25 type  3   force =     9.62148580    0.22357715    0.00205390
     The local contribution  to forces
     atom    1 type  2   force =     1.55013095   -3.34508488   -1.96587644
     atom    2 type  1   force =   -12.00077365   -4.60957001    2.06152656
     atom    3 type  1   force =    -4.55329234   11.27857410    3.28498564
     atom    4 type  1   force =     9.18757982    5.68315473   -2.46295962
     atom    5 type  1   force =     5.83681252  -10.07632025   -2.05262584
     atom    6 type  4   force =     1.69651968   -2.57262658    1.95774025
     atom    7 type  4   force =    -3.67114597    0.86307239   -1.15364515
     atom    8 type  4   force =    -1.59920166    2.76030793   -1.50090821
     atom    9 type  4   force =     3.68516812   -1.00312464    1.27463709
     atom   10 type  3   force =    -0.39206856   -6.00257788    2.03591989
     atom   11 type  3   force =    -7.99418306    4.02817885   -0.96223437
     atom   12 type  3   force =    -1.69073252    7.79318481   -0.80619451
     atom   13 type  3   force =     8.06027781   -3.90326076    0.89013531
     atom   14 type  3   force =    -2.08225844   -1.29649466   -7.69309533
     atom   15 type  3   force =     1.70333123    3.59961247   -2.88121445
     atom   16 type  3   force =     1.77773611    1.20488131    7.25765945
     atom   17 type  3   force =    -0.92765019   -5.20803837    5.44205639
     atom   18 type  3   force =     5.24655784   -7.79588864   -3.56249098
     atom   19 type  3   force =    -3.68579289   -0.13361887    3.20196223
     atom   20 type  3   force =    -3.55855751   -3.38738952   -8.58479068
     atom   21 type  3   force =    10.01596682    0.08828644    0.90622888
     atom   22 type  3   force =    -5.17030928    6.66088633    0.73230636
     atom   23 type  3   force =     3.45212693   -1.03402720   -2.91666109
     atom   24 type  3   force =     4.89047743    5.49617009    8.13214525
     atom   25 type  3   force =    -9.75262389    0.77692084   -0.60790568
     The core correction contribution to forces
     atom    1 type  2   force =     0.00000000    0.00000000    0.00000000
     atom    2 type  1   force =    -0.00295587    0.00127750    0.00124950
     atom    3 type  1   force =     0.00075254   -0.00050738    0.00028469
     atom    4 type  1   force =     0.00317969   -0.00087895   -0.00107276
     atom    5 type  1   force =    -0.00134432    0.00012857   -0.00074862
     atom    6 type  4   force =     0.00180976   -0.00406906   -0.00213612
     atom    7 type  4   force =     0.00246925   -0.00143499    0.00393767
     atom    8 type  4   force =    -0.00175807    0.00245735    0.00160829
     atom    9 type  4   force =    -0.00201242    0.00033511   -0.00359765
     atom   10 type  3   force =     0.00433165    0.00173888    0.00801040
     atom   11 type  3   force =     0.00108571   -0.00207223    0.01116800
     atom   12 type  3   force =    -0.00402845   -0.00221686   -0.00803731
     atom   13 type  3   force =    -0.00093612    0.00204159   -0.01105729
     atom   14 type  3   force =    -0.01008948    0.00177842    0.00545947
     atom   15 type  3   force =     0.00909268   -0.00341048    0.00121648
     atom   16 type  3   force =     0.01026778   -0.00178187   -0.00502717
     atom   17 type  3   force =    -0.00934698    0.00412486   -0.00161899
     atom   18 type  3   force =     0.00027719    0.01085195   -0.00579638
     atom   19 type  3   force =    -0.00482256   -0.00482141   -0.00745941
     atom   20 type  3   force =    -0.00009765    0.01208391    0.00814811
     atom   21 type  3   force =     0.00056692   -0.00795099    0.00478745
     atom   22 type  3   force =    -0.00016873   -0.01057151    0.00653011
     atom   23 type  3   force =     0.00474104    0.00502877    0.00728273
     atom   24 type  3   force =    -0.00026985   -0.01299379   -0.00795359
     atom   25 type  3   force =    -0.00088594    0.00742410   -0.00479972
     The Hubbard contrib.    to forces
     atom    1 type  2   force =     0.00000000    0.00000000    0.00000000
     atom    2 type  1   force =     0.00000000    0.00000000    0.00000000
     atom    3 type  1   force =     0.00000000    0.00000000    0.00000000
     atom    4 type  1   force =     0.00000000    0.00000000    0.00000000
     atom    5 type  1   force =     0.00000000    0.00000000    0.00000000
     atom    6 type  4   force =     0.00000000    0.00000000    0.00000000
     atom    7 type  4   force =     0.00000000    0.00000000    0.00000000
     atom    8 type  4   force =     0.00000000    0.00000000    0.00000000
     atom    9 type  4   force =     0.00000000    0.00000000    0.00000000
     atom   10 type  3   force =     0.00000000    0.00000000    0.00000000
     atom   11 type  3   force =     0.00000000    0.00000000    0.00000000
     atom   12 type  3   force =     0.00000000    0.00000000    0.00000000
     atom   13 type  3   force =     0.00000000    0.00000000    0.00000000
     atom   14 type  3   force =     0.00000000    0.00000000    0.00000000
     atom   15 type  3   force =     0.00000000    0.00000000    0.00000000
     atom   16 type  3   force =     0.00000000    0.00000000    0.00000000
     atom   17 type  3   force =     0.00000000    0.00000000    0.00000000
     atom   18 type  3   force =     0.00000000    0.00000000    0.00000000
     atom   19 type  3   force =     0.00000000    0.00000000    0.00000000
     atom   20 type  3   force =     0.00000000    0.00000000    0.00000000
     atom   21 type  3   force =     0.00000000    0.00000000    0.00000000
     atom   22 type  3   force =     0.00000000    0.00000000    0.00000000
     atom   23 type  3   force =     0.00000000    0.00000000    0.00000000
     atom   24 type  3   force =     0.00000000    0.00000000    0.00000000
     atom   25 type  3   force =     0.00000000    0.00000000    0.00000000
     The SCF correction term to forces
     atom    1 type  2   force =    -0.00000902   -0.00000040   -0.00000048
     atom    2 type  1   force =     0.00000420    0.00000090   -0.00000064
     atom    3 type  1   force =    -0.00000350   -0.00000224   -0.00000022
     atom    4 type  1   force =     0.00000500    0.00000136    0.00000282
     atom    5 type  1   force =    -0.00000163   -0.00000240   -0.00000032
     atom    6 type  4   force =    -0.00000440    0.00000047   -0.00000019
     atom    7 type  4   force =     0.00000372   -0.00000011    0.00000043
     atom    8 type  4   force =    -0.00000488   -0.00000007   -0.00000018
     atom    9 type  4   force =     0.00000496    0.00000018    0.00000041
     atom   10 type  3   force =    -0.00000444    0.00000128   -0.00000147
     atom   11 type  3   force =     0.00000461   -0.00000084   -0.00000134
     atom   12 type  3   force =    -0.00000525   -0.00000114   -0.00000284
     atom   13 type  3   force =     0.00000488   -0.00000011   -0.00000016
     atom   14 type  3   force =     0.00000741    0.00000028    0.00000186
     atom   15 type  3   force =    -0.00000688   -0.00000000    0.00000058
     atom   16 type  3   force =     0.00000954    0.00000030    0.00000231
     atom   17 type  3   force =    -0.00000594   -0.00000031    0.00000049
     atom   18 type  3   force =    -0.00000506    0.00000028    0.00000164
     atom   19 type  3   force =     0.00000317    0.00000157   -0.00000002
     atom   20 type  3   force =    -0.00000487   -0.00000045   -0.00000101
     atom   21 type  3   force =     0.00000591   -0.00000453    0.00000015
     atom   22 type  3   force =    -0.00000764    0.00000164    0.00000250
     atom   23 type  3   force =     0.00000354    0.00000510   -0.00000028
     atom   24 type  3   force =    -0.00000558   -0.00000009   -0.00000118
     atom   25 type  3   force =     0.00000444   -0.00000190    0.00000122

     Total force =     0.325670     Total SCF correction =     0.000030


     Computing stress (Cartesian axis) and pressure


     negative rho (up, down):  0.000E+00 9.160E-04
          total   stress  (Ry/bohr**3)                   (kbar)     P=      215.14
   0.00122966   0.00000010   0.00002226          180.89        0.01        3.27
   0.00000010   0.00160426  -0.00004822            0.01      235.99       -7.09
   0.00002226  -0.00004822   0.00155350            3.27       -7.09      228.53

     kinetic stress (kbar)  29744.45     93.02    -42.49
                               93.02  29879.56      4.39
                              -42.49      4.39  29916.96

     local   stress (kbar)  -8358.96   4516.27  -9408.41
                             4516.27 -14561.84   -704.32
                            -9408.41   -704.32  -4740.34

     nonloc. stress (kbar)  -7663.17      8.80     -6.04
                                8.80  -7627.83    -15.17
                               -6.04    -15.17  -7632.80

     hartree stress (kbar)  15714.21  -1648.53   3932.52
                            -1648.53  18956.74    362.24
                             3932.52    362.24  14776.25

     exc-cor stress (kbar)  -3140.19     -4.33      4.18
                               -4.33  -3144.73     -0.76
                                4.18     -0.76  -3145.36

     corecor stress (kbar)  -3453.96      0.70     -0.70
                                0.70  -3453.66      1.37
                               -0.70      1.37  -3453.87

     ewald   stress (kbar) -22661.49  -2965.91   5524.23
                            -2965.91 -19812.24    345.17
                             5524.23    345.17 -25492.31

     hubbard stress (kbar)      0.00      0.00      0.00
                                0.00      0.00      0.00
                                0.00      0.00      0.00

     DFT-D   stress (kbar)      0.00      0.00      0.00
                                0.00      0.00      0.00
                                0.00      0.00      0.00

     XDM     stress (kbar)      0.00      0.00      0.00
                                0.00      0.00      0.00
                                0.00      0.00      0.00

     dft-nl  stress (kbar)      0.00      0.00      0.00
                                0.00      0.00      0.00
                                0.00      0.00      0.00

     TS-vdW  stress (kbar)      0.00      0.00      0.00
                                0.00      0.00      0.00
                                0.00      0.00      0.00



     init_run     :   1256.54s CPU   1421.07s WALL (       1 calls)
     electrons    :  91063.91s CPU 103565.36s WALL (       1 calls)
     forces       :    229.83s CPU    257.66s WALL (       1 calls)
     stress       :    707.58s CPU    805.08s WALL (       1 calls)

     Called by init_run:
     wfcinit      :   1239.93s CPU   1398.61s WALL (       1 calls)
     wfcinit:atom :      1.60s CPU      1.71s WALL (     316 calls)
     wfcinit:wfcr :   1231.55s CPU   1389.10s WALL (     316 calls)
     potinit      :      6.61s CPU     10.45s WALL (       1 calls)
     hinit0       :      6.28s CPU      7.02s WALL (       1 calls)

     Called by electrons:
     c_bands      :  76435.74s CPU  86983.99s WALL (      31 calls)
     sum_band     :  14423.84s CPU  16327.64s WALL (      31 calls)
     v_of_rho     :     60.29s CPU     67.50s WALL (      32 calls)
     v_h          :      4.77s CPU      5.10s WALL (      32 calls)
     v_xc         :     59.04s CPU     66.49s WALL (      34 calls)
     newd         :     65.06s CPU     89.14s WALL (      32 calls)
     PAW_pot      :     28.26s CPU     32.59s WALL (      32 calls)
     mix_rho      :     43.82s CPU     49.02s WALL (      31 calls)

     Called by c_bands:
     init_us_2    :    149.86s CPU    167.66s WALL (   20540 calls)
     cegterg      :  75494.34s CPU  85555.21s WALL (    9796 calls)

     Called by sum_band:
     sum_band:wei :      0.46s CPU      0.50s WALL (      31 calls)
     sum_band:loo :  14292.75s CPU  16162.23s WALL (      31 calls)
     sum_band:buf :     40.78s CPU     44.23s WALL (    9796 calls)
     sum_band:ini :     65.10s CPU     75.16s WALL (    9796 calls)
     sum_band:cal :   1553.79s CPU   1762.84s WALL (    9796 calls)
     sum_band:bec :      5.58s CPU      5.83s WALL (    9796 calls)
     addusdens    :    113.61s CPU    146.12s WALL (      31 calls)
     addusd:skk   :      0.87s CPU      0.94s WALL (      93 calls)
     addusd:dgemm :     40.30s CPU     60.13s WALL (     186 calls)
     addusd:qvan2 :     70.29s CPU     80.12s WALL (     186 calls)

     Called by *egterg:
     cdiaghg      :   1556.94s CPU   1800.26s WALL (   36459 calls)
     cegterg:over :   5175.05s CPU   5818.50s WALL (   26663 calls)
     cegterg:upda :    716.26s CPU    829.63s WALL (   26663 calls)
     cegterg:last :   1412.99s CPU   1612.01s WALL (   15857 calls)
     h_psi        :  61745.08s CPU  70019.85s WALL (   36775 calls)
     s_psi        :   1546.98s CPU   1768.25s WALL (   36775 calls)
     g_psi        :     17.24s CPU     18.67s WALL (   26663 calls)

     Called by h_psi:
     h_psi:calbec :   4208.41s CPU   4766.43s WALL (   36775 calls)
     vloc_psi     :  55844.39s CPU  63287.85s WALL (   36775 calls)
     add_vuspsi   :   1622.34s CPU   1890.04s WALL (   36775 calls)

     General routines
     calbec       :   6065.13s CPU   6870.22s WALL (   48151 calls)
     fft          :     85.97s CPU     96.78s WALL (     838 calls)
     ffts         :      3.28s CPU      3.77s WALL (     126 calls)
     fftw         :  67730.80s CPU  76776.71s WALL ( 6074742 calls)
     interpolate  :      7.56s CPU      8.69s WALL (      64 calls)

     Parallel routines
     fft_scatt_xy :    767.30s CPU    775.13s WALL ( 6075706 calls)
     fft_scatt_yz :  64225.97s CPU  73221.10s WALL ( 6075706 calls)

     PAW routines
     PAW_pot      :     28.26s CPU     32.59s WALL (      32 calls)

     PWSCF        :   1d 1h54m CPU   1d 5h27m WALL


   This run was terminated on:   0:53: 3  18Jan2023            

=------------------------------------------------------------------------------=
   JOB DONE.
=------------------------------------------------------------------------------=
Note: The following floating-point exceptions are signalling: IEEE_UNDERFLOW_FLAG IEEE_DENORMAL
Note: The following floating-point exceptions are signalling: IEEE_INVALID_FLAG IEEE_DENORMAL
Note: The following floating-point exceptions are signalling: IEEE_DENORMAL
Note: The following floating-point exceptions are signalling: IEEE_DENORMAL
Note: The following floating-point exceptions are signalling: IEEE_DENORMAL
Note: The following floating-point exceptions are signalling: IEEE_DENORMAL
Note: The following floating-point exceptions are signalling: IEEE_INVALID_FLAG IEEE_DENORMAL
Note: The following floating-point exceptions are signalling: IEEE_DENORMAL
Note: The following floating-point exceptions are signalling: IEEE_DENORMAL
Note: The following floating-point exceptions are signalling: IEEE_DENORMAL
Note: The following floating-point exceptions are signalling: IEEE_DENORMAL
Note: The following floating-point exceptions are signalling: IEEE_DENORMAL
