
     Program PWSCF v.6.7MaX starts on  1Feb2023 at  2:55:34 

     This program is part of the open-source Quantum ESPRESSO suite
     for quantum simulation of materials; please cite
         "P. Giannozzi et al., J. Phys.:Condens. Matter 21 395502 (2009);
         "P. Giannozzi et al., J. Phys.:Condens. Matter 29 465901 (2017);
          URL http://www.quantum-espresso.org", 
     in publications or presentations arising from this work. More details at
     http://www.quantum-espresso.org/quote

     Parallel version (MPI), running on    32 processors

     MPI processes distributed on     2 nodes
     R & G space division:  proc/nbgrp/npool/nimage =      32
     Reading input from scale_1da-04.in

     Current dimensions of program PWSCF are:
     Max number of different atomic species (ntypx) = 10
     Max number of k-points (npk) =  40000
     Max angular momentum in pseudopotentials (lmaxx) =  3
     Message from routine read_pp_mesh:
     mesh size missing, using the one in header
     file Fe.pbe-spn-kjpaw_psl.0.2.1.UPF: wavefunction(s)  3D renormalized
     file O.pbe-n-kjpaw_psl.0.1.UPF: wavefunction(s)  2P renormalized

     Subspace diagonalization in iterative solution of the eigenvalue problem:
     a serial algorithm will be used


     Parallelization info
     --------------------
     sticks:   dense  smooth     PW     G-vecs:    dense   smooth      PW
     Min         641     237     64                41813     9427    1324
     Max         642     238     66                41816     9430    1325
     Sum       20531    7599   2057              1338043   301725   42371



     bravais-lattice index     =            0
     lattice parameter (alat)  =      20.3206  a.u.
     unit-cell volume          =    2232.3697 (a.u.)^3
     number of atoms/cell      =           25
     number of atomic types    =            4
     number of electrons       =       189.00
     number of Kohn-Sham states=          114
     kinetic-energy cutoff     =     100.0000  Ry
     charge density cutoff     =    1080.0000  Ry
     scf convergence threshold =      2.0E-10
     mixing beta               =       0.4000
     number of iterations used =            8  plain     mixing
     Exchange-correlation= PBE
                           (   1   4   3   4   0   0   0)

     celldm(1)=  20.320559  celldm(2)=   0.000000  celldm(3)=   0.000000
     celldm(4)=   0.000000  celldm(5)=   0.000000  celldm(6)=   0.000000

     crystal axes: (cart. coord. in units of alat)
               a(1) = (   1.000000   0.000000   0.000000 )  
               a(2) = (   0.000000   0.578313   0.000000 )  
               a(3) = (   0.000000   0.000000   0.460041 )  

     reciprocal axes: (cart. coord. in units 2 pi/alat)
               b(1) = (  1.000000  0.000000  0.000000 )  
               b(2) = (  0.000000  1.729168  0.000000 )  
               b(3) = (  0.000000  0.000000  2.173720 )  


     PseudoPot. # 1 for Fe read from file:
     /opt/QEpot/SSSP_precision_pseudos/Fe.pbe-spn-kjpaw_psl.0.2.1.UPF
     MD5 check sum: e86618425769142926afa95317d90200
     Pseudo is Projector augmented-wave + core cor, Zval = 16.0
     Generated using "atomic" code by A. Dal Corso  v.5.0.99 svn rev. 10869
     Shape of augmentation charge: PSQ
     Using radial grid of 1191 points,  6 beta functions with: 
                l(1) =   0
                l(2) =   0
                l(3) =   1
                l(4) =   1
                l(5) =   2
                l(6) =   2
     Q(r) pseudized with 0 coefficients 


     PseudoPot. # 2 for Na read from file:
     /opt/QEpot/SSSP_precision_pseudos/Na_ONCV_PBE-1.0.oncvpsp.upf
     MD5 check sum: 24a298df0a6742ae313db96548fdb2a4
     Pseudo is Norm-conserving, Zval =  9.0
     Generated using ONCVPSP code by D. R. Hamann
     Using radial grid of 1992 points,  4 beta functions with: 
                l(1) =   0
                l(2) =   0
                l(3) =   1
                l(4) =   1

     PseudoPot. # 3 for O  read from file:
     /opt/QEpot/SSSP_precision_pseudos/O.pbe-n-kjpaw_psl.0.1.UPF
     MD5 check sum: 0234752ac141de4415c5fc33072bef88
     Pseudo is Projector augmented-wave + core cor, Zval =  6.0
     Generated using "atomic" code by A. Dal Corso  v.5.0.99 svn rev. 10869
     Shape of augmentation charge: BESSEL
     Using radial grid of 1095 points,  4 beta functions with: 
                l(1) =   0
                l(2) =   0
                l(3) =   1
                l(4) =   1
     Q(r) pseudized with 0 coefficients 


     PseudoPot. # 4 for P  read from file:
     /opt/QEpot/SSSP_precision_pseudos/P.pbe-n-rrkjus_psl.1.0.0.UPF
     MD5 check sum: 8b930f418f0a4573dca56cd030ffe088
     Pseudo is Ultrasoft + core correction, Zval =  5.0
     Generated using "atomic" code by A. Dal Corso  v.5.1
     Using radial grid of 1147 points,  6 beta functions with: 
                l(1) =   0
                l(2) =   0
                l(3) =   1
                l(4) =   1
                l(5) =   2
                l(6) =   2
     Q(r) pseudized with 0 coefficients 


     atomic species   valence    mass     pseudopotential
        Fe            16.00    55.84500     Fe( 1.00)
        Na             9.00    22.98977     Na( 1.00)
        O              6.00    15.99940     O ( 1.00)
        P              5.00    30.97376     P ( 1.00)

     Starting magnetic structure 
     atomic species   magnetization
        Fe           0.312
        Na           0.000
        O            0.000
        P            0.000

     No symmetry found


                                    s                        frac. trans.

      isym =  1     identity                                     

 cryst.   s( 1) = (     1          0          0      )
                  (     0          1          0      )
                  (     0          0          1      )

 cart.    s( 1) = (  1.0000000  0.0000000  0.0000000 )
                  (  0.0000000  1.0000000  0.0000000 )
                  (  0.0000000  0.0000000  1.0000000 )


   Cartesian axes

     site n.     atom                  positions (alat units)
         1           Na  tau(   1) = (   0.0062130   0.5409625   0.3096535  )
         2           Fe  tau(   2) = (   0.3024540   0.4466888   0.3902724  )
         3           Fe  tau(   3) = (   0.2226710   0.1962701   0.2290488  )
         4           Fe  tau(   4) = (   0.7013320   0.1313470   0.0651179  )
         5           Fe  tau(   5) = (   0.7738600   0.3841553   0.2219770  )
         6           P   tau(   6) = (   0.0926260   0.3863037   0.1210114  )
         7           P   tau(   7) = (   0.3962170   0.1454515   0.4323353  )
         8           P   tau(   8) = (   0.9068620   0.1988835   0.3300526  )
         9           P   tau(   9) = (   0.6031040   0.4331557   0.0227467  )
        10           O   tau(  10) = (   0.1770480   0.3993609   0.2436565  )
        11           O   tau(  11) = (   0.3555840   0.1459222   0.1097933  )
        12           O   tau(  12) = (   0.8203270   0.1882021   0.2093365  )
        13           O   tau(  13) = (   0.6432920   0.4333067   0.3453931  )
        14           O   tau(  14) = (   0.4570760   0.4488245   0.0377509  )
        15           O   tau(  15) = (   0.0482830   0.1619611   0.3065362  )
        16           O   tau(  16) = (   0.5424170   0.1298578   0.4191929  )
        17           O   tau(  17) = (   0.9514120   0.4241017   0.1456972  )
        18           O   tau(  18) = (   0.1482380   0.4801113   0.0249319  )
        19           O   tau(  19) = (   0.3208110   0.0466548   0.3509251  )
        20           O   tau(  20) = (   0.8859830   0.3352289   0.3706806  )
        21           O   tau(  21) = (   0.6517160   0.3120935   0.0934610  )
        22           O   tau(  22) = (   0.8510480   0.1018259   0.4231395  )
        23           O   tau(  23) = (   0.6793830   0.5313301   0.1043966  )
        24           O   tau(  24) = (   0.1159970   0.2500029   0.0827567  )
        25           O   tau(  25) = (   0.3461160   0.2660979   0.3606770  )

   Crystallographic axes

     site n.     atom                  positions (cryst. coord.)
         1           Na  tau(   1) = (  0.0062130  0.9354150  0.6731000  )
         2           Fe  tau(   2) = (  0.3024540  0.7724000  0.8483430  )
         3           Fe  tau(   3) = (  0.2226710  0.3393840  0.4978880  )
         4           Fe  tau(   4) = (  0.7013320  0.2271210  0.1415480  )
         5           Fe  tau(   5) = (  0.7738600  0.6642690  0.4825160  )
         6           P   tau(   6) = (  0.0926260  0.6679840  0.2630450  )
         7           P   tau(   7) = (  0.3962170  0.2515100  0.9397760  )
         8           P   tau(   8) = (  0.9068620  0.3439030  0.7174420  )
         9           P   tau(   9) = (  0.6031040  0.7489990  0.0494450  )
        10           O   tau(  10) = (  0.1770480  0.6905620  0.5296410  )
        11           O   tau(  11) = (  0.3555840  0.2523240  0.2386600  )
        12           O   tau(  12) = (  0.8203270  0.3254330  0.4550390  )
        13           O   tau(  13) = (  0.6432920  0.7492600  0.7507880  )
        14           O   tau(  14) = (  0.4570760  0.7760930  0.0820600  )
        15           O   tau(  15) = (  0.0482830  0.2800580  0.6663240  )
        16           O   tau(  16) = (  0.5424170  0.2245460  0.9112080  )
        17           O   tau(  17) = (  0.9514120  0.7333430  0.3167050  )
        18           O   tau(  18) = (  0.1482380  0.8301930  0.0541950  )
        19           O   tau(  19) = (  0.3208110  0.0806740  0.7628130  )
        20           O   tau(  20) = (  0.8859830  0.5796670  0.8057560  )
        21           O   tau(  21) = (  0.6517160  0.5396620  0.2031580  )
        22           O   tau(  22) = (  0.8510480  0.1760740  0.9197870  )
        23           O   tau(  23) = (  0.6793830  0.9187590  0.2269290  )
        24           O   tau(  24) = (  0.1159970  0.4322970  0.1798900  )
        25           O   tau(  25) = (  0.3461160  0.4601280  0.7840110  )

     number of k points=   158  Marzari-Vanderbilt smearing, width (Ry)=  0.0073
                       cart. coord. in units 2pi/alat
        k(    1) = (   0.0000000   0.0000000   0.0000000), wk =   0.0031746
        k(    2) = (   0.0000000   0.0000000   0.2415245), wk =   0.0063492
        k(    3) = (   0.0000000   0.0000000   0.4830489), wk =   0.0063492
        k(    4) = (   0.0000000   0.0000000   0.7245734), wk =   0.0063492
        k(    5) = (   0.0000000   0.0000000   0.9660979), wk =   0.0063492
        k(    6) = (   0.0000000   0.2470240   0.0000000), wk =   0.0063492
        k(    7) = (   0.0000000   0.2470240   0.2415245), wk =   0.0063492
        k(    8) = (   0.0000000   0.2470240   0.4830489), wk =   0.0063492
        k(    9) = (   0.0000000   0.2470240   0.7245734), wk =   0.0063492
        k(   10) = (   0.0000000   0.2470240   0.9660979), wk =   0.0063492
        k(   11) = (   0.0000000   0.4940480   0.0000000), wk =   0.0063492
        k(   12) = (   0.0000000   0.4940480   0.2415245), wk =   0.0063492
        k(   13) = (   0.0000000   0.4940480   0.4830489), wk =   0.0063492
        k(   14) = (   0.0000000   0.4940480   0.7245734), wk =   0.0063492
        k(   15) = (   0.0000000   0.4940480   0.9660979), wk =   0.0063492
        k(   16) = (   0.0000000   0.7410720   0.0000000), wk =   0.0063492
        k(   17) = (   0.0000000   0.7410720   0.2415245), wk =   0.0063492
        k(   18) = (   0.0000000   0.7410720   0.4830489), wk =   0.0063492
        k(   19) = (   0.0000000   0.7410720   0.7245734), wk =   0.0063492
        k(   20) = (   0.0000000   0.7410720   0.9660979), wk =   0.0063492
        k(   21) = (   0.2000000   0.0000000   0.0000000), wk =   0.0063492
        k(   22) = (   0.2000000   0.0000000   0.2415245), wk =   0.0063492
        k(   23) = (   0.2000000   0.0000000   0.4830489), wk =   0.0063492
        k(   24) = (   0.2000000   0.0000000   0.7245734), wk =   0.0063492
        k(   25) = (   0.2000000   0.0000000   0.9660979), wk =   0.0063492
        k(   26) = (   0.2000000   0.2470240   0.0000000), wk =   0.0063492
        k(   27) = (   0.2000000   0.2470240   0.2415245), wk =   0.0063492
        k(   28) = (   0.2000000   0.2470240   0.4830489), wk =   0.0063492
        k(   29) = (   0.2000000   0.2470240   0.7245734), wk =   0.0063492
        k(   30) = (   0.2000000   0.2470240   0.9660979), wk =   0.0063492
        k(   31) = (   0.2000000   0.4940480   0.0000000), wk =   0.0063492
        k(   32) = (   0.2000000   0.4940480   0.2415245), wk =   0.0063492
        k(   33) = (   0.2000000   0.4940480   0.4830489), wk =   0.0063492
        k(   34) = (   0.2000000   0.4940480   0.7245734), wk =   0.0063492
        k(   35) = (   0.2000000   0.4940480   0.9660979), wk =   0.0063492
        k(   36) = (   0.2000000   0.7410720   0.0000000), wk =   0.0063492
        k(   37) = (   0.2000000   0.7410720   0.2415245), wk =   0.0063492
        k(   38) = (   0.2000000   0.7410720   0.4830489), wk =   0.0063492
        k(   39) = (   0.2000000   0.7410720   0.7245734), wk =   0.0063492
        k(   40) = (   0.2000000   0.7410720   0.9660979), wk =   0.0063492
        k(   41) = (   0.4000000   0.0000000   0.0000000), wk =   0.0063492
        k(   42) = (   0.4000000   0.0000000   0.2415245), wk =   0.0063492
        k(   43) = (   0.4000000   0.0000000   0.4830489), wk =   0.0063492
        k(   44) = (   0.4000000   0.0000000   0.7245734), wk =   0.0063492
        k(   45) = (   0.4000000   0.0000000   0.9660979), wk =   0.0063492
        k(   46) = (   0.4000000   0.2470240   0.0000000), wk =   0.0063492
        k(   47) = (   0.4000000   0.2470240   0.2415245), wk =   0.0063492
        k(   48) = (   0.4000000   0.2470240   0.4830489), wk =   0.0063492
        k(   49) = (   0.4000000   0.2470240   0.7245734), wk =   0.0063492
        k(   50) = (   0.4000000   0.2470240   0.9660979), wk =   0.0063492
        k(   51) = (   0.4000000   0.4940480   0.0000000), wk =   0.0063492
        k(   52) = (   0.4000000   0.4940480   0.2415245), wk =   0.0063492
        k(   53) = (   0.4000000   0.4940480   0.4830489), wk =   0.0063492
        k(   54) = (   0.4000000   0.4940480   0.7245734), wk =   0.0063492
        k(   55) = (   0.4000000   0.4940480   0.9660979), wk =   0.0063492
        k(   56) = (   0.4000000   0.7410720   0.0000000), wk =   0.0063492
        k(   57) = (   0.4000000   0.7410720   0.2415245), wk =   0.0063492
        k(   58) = (   0.4000000   0.7410720   0.4830489), wk =   0.0063492
        k(   59) = (   0.4000000   0.7410720   0.7245734), wk =   0.0063492
        k(   60) = (   0.4000000   0.7410720   0.9660979), wk =   0.0063492
        k(   61) = (   0.0000000  -0.2470240   0.2415245), wk =   0.0063492
        k(   62) = (   0.0000000  -0.2470240   0.4830489), wk =   0.0063492
        k(   63) = (   0.0000000  -0.2470240   0.7245734), wk =   0.0063492
        k(   64) = (   0.0000000  -0.2470240   0.9660979), wk =   0.0063492
        k(   65) = (   0.0000000  -0.4940480   0.2415245), wk =   0.0063492
        k(   66) = (   0.0000000  -0.4940480   0.4830489), wk =   0.0063492
        k(   67) = (   0.0000000  -0.4940480   0.7245734), wk =   0.0063492
        k(   68) = (   0.0000000  -0.4940480   0.9660979), wk =   0.0063492
        k(   69) = (   0.0000000  -0.7410720   0.2415245), wk =   0.0063492
        k(   70) = (   0.0000000  -0.7410720   0.4830489), wk =   0.0063492
        k(   71) = (   0.0000000  -0.7410720   0.7245734), wk =   0.0063492
        k(   72) = (   0.0000000  -0.7410720   0.9660979), wk =   0.0063492
        k(   73) = (  -0.2000000   0.0000000   0.2415245), wk =   0.0063492
        k(   74) = (  -0.2000000   0.0000000   0.4830489), wk =   0.0063492
        k(   75) = (  -0.2000000   0.0000000   0.7245734), wk =   0.0063492
        k(   76) = (  -0.2000000   0.0000000   0.9660979), wk =   0.0063492
        k(   77) = (  -0.2000000   0.2470240   0.0000000), wk =   0.0063492
        k(   78) = (  -0.2000000  -0.2470240   0.2415245), wk =   0.0063492
        k(   79) = (  -0.2000000   0.2470240  -0.2415245), wk =   0.0063492
        k(   80) = (   0.2000000  -0.2470240  -0.2415245), wk =   0.0063492
        k(   81) = (  -0.2000000  -0.2470240   0.4830489), wk =   0.0063492
        k(   82) = (  -0.2000000   0.2470240  -0.4830489), wk =   0.0063492
        k(   83) = (   0.2000000  -0.2470240  -0.4830489), wk =   0.0063492
        k(   84) = (  -0.2000000  -0.2470240   0.7245734), wk =   0.0063492
        k(   85) = (  -0.2000000   0.2470240  -0.7245734), wk =   0.0063492
        k(   86) = (   0.2000000  -0.2470240  -0.7245734), wk =   0.0063492
        k(   87) = (  -0.2000000  -0.2470240   0.9660979), wk =   0.0063492
        k(   88) = (  -0.2000000   0.2470240  -0.9660979), wk =   0.0063492
        k(   89) = (   0.2000000  -0.2470240  -0.9660979), wk =   0.0063492
        k(   90) = (  -0.2000000   0.4940480   0.0000000), wk =   0.0063492
        k(   91) = (  -0.2000000  -0.4940480   0.2415245), wk =   0.0063492
        k(   92) = (  -0.2000000   0.4940480  -0.2415245), wk =   0.0063492
        k(   93) = (   0.2000000  -0.4940480  -0.2415245), wk =   0.0063492
        k(   94) = (  -0.2000000  -0.4940480   0.4830489), wk =   0.0063492
        k(   95) = (  -0.2000000   0.4940480  -0.4830489), wk =   0.0063492
        k(   96) = (   0.2000000  -0.4940480  -0.4830489), wk =   0.0063492
        k(   97) = (  -0.2000000  -0.4940480   0.7245734), wk =   0.0063492
        k(   98) = (  -0.2000000   0.4940480  -0.7245734), wk =   0.0063492
        k(   99) = (   0.2000000  -0.4940480  -0.7245734), wk =   0.0063492
        k(  100) = (  -0.2000000  -0.4940480   0.9660979), wk =   0.0063492
        k(  101) = (  -0.2000000   0.4940480  -0.9660979), wk =   0.0063492
        k(  102) = (   0.2000000  -0.4940480  -0.9660979), wk =   0.0063492
        k(  103) = (  -0.2000000   0.7410720   0.0000000), wk =   0.0063492
        k(  104) = (  -0.2000000  -0.7410720   0.2415245), wk =   0.0063492
        k(  105) = (  -0.2000000   0.7410720  -0.2415245), wk =   0.0063492
        k(  106) = (   0.2000000  -0.7410720  -0.2415245), wk =   0.0063492
        k(  107) = (  -0.2000000  -0.7410720   0.4830489), wk =   0.0063492
        k(  108) = (  -0.2000000   0.7410720  -0.4830489), wk =   0.0063492
        k(  109) = (   0.2000000  -0.7410720  -0.4830489), wk =   0.0063492
        k(  110) = (  -0.2000000  -0.7410720   0.7245734), wk =   0.0063492
        k(  111) = (  -0.2000000   0.7410720  -0.7245734), wk =   0.0063492
        k(  112) = (   0.2000000  -0.7410720  -0.7245734), wk =   0.0063492
        k(  113) = (  -0.2000000  -0.7410720   0.9660979), wk =   0.0063492
        k(  114) = (  -0.2000000   0.7410720  -0.9660979), wk =   0.0063492
        k(  115) = (   0.2000000  -0.7410720  -0.9660979), wk =   0.0063492
        k(  116) = (  -0.4000000   0.0000000   0.2415245), wk =   0.0063492
        k(  117) = (  -0.4000000   0.0000000   0.4830489), wk =   0.0063492
        k(  118) = (  -0.4000000   0.0000000   0.7245734), wk =   0.0063492
        k(  119) = (  -0.4000000   0.0000000   0.9660979), wk =   0.0063492
        k(  120) = (  -0.4000000   0.2470240   0.0000000), wk =   0.0063492
        k(  121) = (  -0.4000000  -0.2470240   0.2415245), wk =   0.0063492
        k(  122) = (  -0.4000000   0.2470240  -0.2415245), wk =   0.0063492
        k(  123) = (   0.4000000  -0.2470240  -0.2415245), wk =   0.0063492
        k(  124) = (  -0.4000000  -0.2470240   0.4830489), wk =   0.0063492
        k(  125) = (  -0.4000000   0.2470240  -0.4830489), wk =   0.0063492
        k(  126) = (   0.4000000  -0.2470240  -0.4830489), wk =   0.0063492
        k(  127) = (  -0.4000000  -0.2470240   0.7245734), wk =   0.0063492
        k(  128) = (  -0.4000000   0.2470240  -0.7245734), wk =   0.0063492
        k(  129) = (   0.4000000  -0.2470240  -0.7245734), wk =   0.0063492
        k(  130) = (  -0.4000000  -0.2470240   0.9660979), wk =   0.0063492
        k(  131) = (  -0.4000000   0.2470240  -0.9660979), wk =   0.0063492
        k(  132) = (   0.4000000  -0.2470240  -0.9660979), wk =   0.0063492
        k(  133) = (  -0.4000000   0.4940480   0.0000000), wk =   0.0063492
        k(  134) = (  -0.4000000  -0.4940480   0.2415245), wk =   0.0063492
        k(  135) = (  -0.4000000   0.4940480  -0.2415245), wk =   0.0063492
        k(  136) = (   0.4000000  -0.4940480  -0.2415245), wk =   0.0063492
        k(  137) = (  -0.4000000  -0.4940480   0.4830489), wk =   0.0063492
        k(  138) = (  -0.4000000   0.4940480  -0.4830489), wk =   0.0063492
        k(  139) = (   0.4000000  -0.4940480  -0.4830489), wk =   0.0063492
        k(  140) = (  -0.4000000  -0.4940480   0.7245734), wk =   0.0063492
        k(  141) = (  -0.4000000   0.4940480  -0.7245734), wk =   0.0063492
        k(  142) = (   0.4000000  -0.4940480  -0.7245734), wk =   0.0063492
        k(  143) = (  -0.4000000  -0.4940480   0.9660979), wk =   0.0063492
        k(  144) = (  -0.4000000   0.4940480  -0.9660979), wk =   0.0063492
        k(  145) = (   0.4000000  -0.4940480  -0.9660979), wk =   0.0063492
        k(  146) = (  -0.4000000   0.7410720   0.0000000), wk =   0.0063492
        k(  147) = (  -0.4000000  -0.7410720   0.2415245), wk =   0.0063492
        k(  148) = (  -0.4000000   0.7410720  -0.2415245), wk =   0.0063492
        k(  149) = (   0.4000000  -0.7410720  -0.2415245), wk =   0.0063492
        k(  150) = (  -0.4000000  -0.7410720   0.4830489), wk =   0.0063492
        k(  151) = (  -0.4000000   0.7410720  -0.4830489), wk =   0.0063492
        k(  152) = (   0.4000000  -0.7410720  -0.4830489), wk =   0.0063492
        k(  153) = (  -0.4000000  -0.7410720   0.7245734), wk =   0.0063492
        k(  154) = (  -0.4000000   0.7410720  -0.7245734), wk =   0.0063492
        k(  155) = (   0.4000000  -0.7410720  -0.7245734), wk =   0.0063492
        k(  156) = (  -0.4000000  -0.7410720   0.9660979), wk =   0.0063492
        k(  157) = (  -0.4000000   0.7410720  -0.9660979), wk =   0.0063492
        k(  158) = (   0.4000000  -0.7410720  -0.9660979), wk =   0.0063492

                       cryst. coord.
        k(    1) = (   0.0000000   0.0000000   0.0000000), wk =   0.0031746
        k(    2) = (   0.0000000   0.0000000   0.1111111), wk =   0.0063492
        k(    3) = (   0.0000000   0.0000000   0.2222222), wk =   0.0063492
        k(    4) = (   0.0000000   0.0000000   0.3333333), wk =   0.0063492
        k(    5) = (   0.0000000   0.0000000   0.4444444), wk =   0.0063492
        k(    6) = (   0.0000000   0.1428571   0.0000000), wk =   0.0063492
        k(    7) = (   0.0000000   0.1428571   0.1111111), wk =   0.0063492
        k(    8) = (   0.0000000   0.1428571   0.2222222), wk =   0.0063492
        k(    9) = (   0.0000000   0.1428571   0.3333333), wk =   0.0063492
        k(   10) = (   0.0000000   0.1428571   0.4444444), wk =   0.0063492
        k(   11) = (   0.0000000   0.2857143   0.0000000), wk =   0.0063492
        k(   12) = (   0.0000000   0.2857143   0.1111111), wk =   0.0063492
        k(   13) = (   0.0000000   0.2857143   0.2222222), wk =   0.0063492
        k(   14) = (   0.0000000   0.2857143   0.3333333), wk =   0.0063492
        k(   15) = (   0.0000000   0.2857143   0.4444444), wk =   0.0063492
        k(   16) = (   0.0000000   0.4285714   0.0000000), wk =   0.0063492
        k(   17) = (   0.0000000   0.4285714   0.1111111), wk =   0.0063492
        k(   18) = (   0.0000000   0.4285714   0.2222222), wk =   0.0063492
        k(   19) = (   0.0000000   0.4285714   0.3333333), wk =   0.0063492
        k(   20) = (   0.0000000   0.4285714   0.4444444), wk =   0.0063492
        k(   21) = (   0.2000000   0.0000000   0.0000000), wk =   0.0063492
        k(   22) = (   0.2000000   0.0000000   0.1111111), wk =   0.0063492
        k(   23) = (   0.2000000   0.0000000   0.2222222), wk =   0.0063492
        k(   24) = (   0.2000000   0.0000000   0.3333333), wk =   0.0063492
        k(   25) = (   0.2000000   0.0000000   0.4444444), wk =   0.0063492
        k(   26) = (   0.2000000   0.1428571   0.0000000), wk =   0.0063492
        k(   27) = (   0.2000000   0.1428571   0.1111111), wk =   0.0063492
        k(   28) = (   0.2000000   0.1428571   0.2222222), wk =   0.0063492
        k(   29) = (   0.2000000   0.1428571   0.3333333), wk =   0.0063492
        k(   30) = (   0.2000000   0.1428571   0.4444444), wk =   0.0063492
        k(   31) = (   0.2000000   0.2857143   0.0000000), wk =   0.0063492
        k(   32) = (   0.2000000   0.2857143   0.1111111), wk =   0.0063492
        k(   33) = (   0.2000000   0.2857143   0.2222222), wk =   0.0063492
        k(   34) = (   0.2000000   0.2857143   0.3333333), wk =   0.0063492
        k(   35) = (   0.2000000   0.2857143   0.4444444), wk =   0.0063492
        k(   36) = (   0.2000000   0.4285714   0.0000000), wk =   0.0063492
        k(   37) = (   0.2000000   0.4285714   0.1111111), wk =   0.0063492
        k(   38) = (   0.2000000   0.4285714   0.2222222), wk =   0.0063492
        k(   39) = (   0.2000000   0.4285714   0.3333333), wk =   0.0063492
        k(   40) = (   0.2000000   0.4285714   0.4444444), wk =   0.0063492
        k(   41) = (   0.4000000   0.0000000   0.0000000), wk =   0.0063492
        k(   42) = (   0.4000000   0.0000000   0.1111111), wk =   0.0063492
        k(   43) = (   0.4000000   0.0000000   0.2222222), wk =   0.0063492
        k(   44) = (   0.4000000   0.0000000   0.3333333), wk =   0.0063492
        k(   45) = (   0.4000000   0.0000000   0.4444444), wk =   0.0063492
        k(   46) = (   0.4000000   0.1428571   0.0000000), wk =   0.0063492
        k(   47) = (   0.4000000   0.1428571   0.1111111), wk =   0.0063492
        k(   48) = (   0.4000000   0.1428571   0.2222222), wk =   0.0063492
        k(   49) = (   0.4000000   0.1428571   0.3333333), wk =   0.0063492
        k(   50) = (   0.4000000   0.1428571   0.4444444), wk =   0.0063492
        k(   51) = (   0.4000000   0.2857143   0.0000000), wk =   0.0063492
        k(   52) = (   0.4000000   0.2857143   0.1111111), wk =   0.0063492
        k(   53) = (   0.4000000   0.2857143   0.2222222), wk =   0.0063492
        k(   54) = (   0.4000000   0.2857143   0.3333333), wk =   0.0063492
        k(   55) = (   0.4000000   0.2857143   0.4444444), wk =   0.0063492
        k(   56) = (   0.4000000   0.4285714   0.0000000), wk =   0.0063492
        k(   57) = (   0.4000000   0.4285714   0.1111111), wk =   0.0063492
        k(   58) = (   0.4000000   0.4285714   0.2222222), wk =   0.0063492
        k(   59) = (   0.4000000   0.4285714   0.3333333), wk =   0.0063492
        k(   60) = (   0.4000000   0.4285714   0.4444444), wk =   0.0063492
        k(   61) = (   0.0000000  -0.1428571   0.1111111), wk =   0.0063492
        k(   62) = (   0.0000000  -0.1428571   0.2222222), wk =   0.0063492
        k(   63) = (   0.0000000  -0.1428571   0.3333333), wk =   0.0063492
        k(   64) = (   0.0000000  -0.1428571   0.4444444), wk =   0.0063492
        k(   65) = (   0.0000000  -0.2857143   0.1111111), wk =   0.0063492
        k(   66) = (   0.0000000  -0.2857143   0.2222222), wk =   0.0063492
        k(   67) = (   0.0000000  -0.2857143   0.3333333), wk =   0.0063492
        k(   68) = (   0.0000000  -0.2857143   0.4444444), wk =   0.0063492
        k(   69) = (   0.0000000  -0.4285714   0.1111111), wk =   0.0063492
        k(   70) = (   0.0000000  -0.4285714   0.2222222), wk =   0.0063492
        k(   71) = (   0.0000000  -0.4285714   0.3333333), wk =   0.0063492
        k(   72) = (   0.0000000  -0.4285714   0.4444444), wk =   0.0063492
        k(   73) = (  -0.2000000   0.0000000   0.1111111), wk =   0.0063492
        k(   74) = (  -0.2000000   0.0000000   0.2222222), wk =   0.0063492
        k(   75) = (  -0.2000000   0.0000000   0.3333333), wk =   0.0063492
        k(   76) = (  -0.2000000   0.0000000   0.4444444), wk =   0.0063492
        k(   77) = (  -0.2000000   0.1428571   0.0000000), wk =   0.0063492
        k(   78) = (  -0.2000000  -0.1428571   0.1111111), wk =   0.0063492
        k(   79) = (  -0.2000000   0.1428571  -0.1111111), wk =   0.0063492
        k(   80) = (   0.2000000  -0.1428571  -0.1111111), wk =   0.0063492
        k(   81) = (  -0.2000000  -0.1428571   0.2222222), wk =   0.0063492
        k(   82) = (  -0.2000000   0.1428571  -0.2222222), wk =   0.0063492
        k(   83) = (   0.2000000  -0.1428571  -0.2222222), wk =   0.0063492
        k(   84) = (  -0.2000000  -0.1428571   0.3333333), wk =   0.0063492
        k(   85) = (  -0.2000000   0.1428571  -0.3333333), wk =   0.0063492
        k(   86) = (   0.2000000  -0.1428571  -0.3333333), wk =   0.0063492
        k(   87) = (  -0.2000000  -0.1428571   0.4444444), wk =   0.0063492
        k(   88) = (  -0.2000000   0.1428571  -0.4444444), wk =   0.0063492
        k(   89) = (   0.2000000  -0.1428571  -0.4444444), wk =   0.0063492
        k(   90) = (  -0.2000000   0.2857143   0.0000000), wk =   0.0063492
        k(   91) = (  -0.2000000  -0.2857143   0.1111111), wk =   0.0063492
        k(   92) = (  -0.2000000   0.2857143  -0.1111111), wk =   0.0063492
        k(   93) = (   0.2000000  -0.2857143  -0.1111111), wk =   0.0063492
        k(   94) = (  -0.2000000  -0.2857143   0.2222222), wk =   0.0063492
        k(   95) = (  -0.2000000   0.2857143  -0.2222222), wk =   0.0063492
        k(   96) = (   0.2000000  -0.2857143  -0.2222222), wk =   0.0063492
        k(   97) = (  -0.2000000  -0.2857143   0.3333333), wk =   0.0063492
        k(   98) = (  -0.2000000   0.2857143  -0.3333333), wk =   0.0063492
        k(   99) = (   0.2000000  -0.2857143  -0.3333333), wk =   0.0063492
        k(  100) = (  -0.2000000  -0.2857143   0.4444444), wk =   0.0063492
        k(  101) = (  -0.2000000   0.2857143  -0.4444444), wk =   0.0063492
        k(  102) = (   0.2000000  -0.2857143  -0.4444444), wk =   0.0063492
        k(  103) = (  -0.2000000   0.4285714   0.0000000), wk =   0.0063492
        k(  104) = (  -0.2000000  -0.4285714   0.1111111), wk =   0.0063492
        k(  105) = (  -0.2000000   0.4285714  -0.1111111), wk =   0.0063492
        k(  106) = (   0.2000000  -0.4285714  -0.1111111), wk =   0.0063492
        k(  107) = (  -0.2000000  -0.4285714   0.2222222), wk =   0.0063492
        k(  108) = (  -0.2000000   0.4285714  -0.2222222), wk =   0.0063492
        k(  109) = (   0.2000000  -0.4285714  -0.2222222), wk =   0.0063492
        k(  110) = (  -0.2000000  -0.4285714   0.3333333), wk =   0.0063492
        k(  111) = (  -0.2000000   0.4285714  -0.3333333), wk =   0.0063492
        k(  112) = (   0.2000000  -0.4285714  -0.3333333), wk =   0.0063492
        k(  113) = (  -0.2000000  -0.4285714   0.4444444), wk =   0.0063492
        k(  114) = (  -0.2000000   0.4285714  -0.4444444), wk =   0.0063492
        k(  115) = (   0.2000000  -0.4285714  -0.4444444), wk =   0.0063492
        k(  116) = (  -0.4000000   0.0000000   0.1111111), wk =   0.0063492
        k(  117) = (  -0.4000000   0.0000000   0.2222222), wk =   0.0063492
        k(  118) = (  -0.4000000   0.0000000   0.3333333), wk =   0.0063492
        k(  119) = (  -0.4000000   0.0000000   0.4444444), wk =   0.0063492
        k(  120) = (  -0.4000000   0.1428571   0.0000000), wk =   0.0063492
        k(  121) = (  -0.4000000  -0.1428571   0.1111111), wk =   0.0063492
        k(  122) = (  -0.4000000   0.1428571  -0.1111111), wk =   0.0063492
        k(  123) = (   0.4000000  -0.1428571  -0.1111111), wk =   0.0063492
        k(  124) = (  -0.4000000  -0.1428571   0.2222222), wk =   0.0063492
        k(  125) = (  -0.4000000   0.1428571  -0.2222222), wk =   0.0063492
        k(  126) = (   0.4000000  -0.1428571  -0.2222222), wk =   0.0063492
        k(  127) = (  -0.4000000  -0.1428571   0.3333333), wk =   0.0063492
        k(  128) = (  -0.4000000   0.1428571  -0.3333333), wk =   0.0063492
        k(  129) = (   0.4000000  -0.1428571  -0.3333333), wk =   0.0063492
        k(  130) = (  -0.4000000  -0.1428571   0.4444444), wk =   0.0063492
        k(  131) = (  -0.4000000   0.1428571  -0.4444444), wk =   0.0063492
        k(  132) = (   0.4000000  -0.1428571  -0.4444444), wk =   0.0063492
        k(  133) = (  -0.4000000   0.2857143   0.0000000), wk =   0.0063492
        k(  134) = (  -0.4000000  -0.2857143   0.1111111), wk =   0.0063492
        k(  135) = (  -0.4000000   0.2857143  -0.1111111), wk =   0.0063492
        k(  136) = (   0.4000000  -0.2857143  -0.1111111), wk =   0.0063492
        k(  137) = (  -0.4000000  -0.2857143   0.2222222), wk =   0.0063492
        k(  138) = (  -0.4000000   0.2857143  -0.2222222), wk =   0.0063492
        k(  139) = (   0.4000000  -0.2857143  -0.2222222), wk =   0.0063492
        k(  140) = (  -0.4000000  -0.2857143   0.3333333), wk =   0.0063492
        k(  141) = (  -0.4000000   0.2857143  -0.3333333), wk =   0.0063492
        k(  142) = (   0.4000000  -0.2857143  -0.3333333), wk =   0.0063492
        k(  143) = (  -0.4000000  -0.2857143   0.4444444), wk =   0.0063492
        k(  144) = (  -0.4000000   0.2857143  -0.4444444), wk =   0.0063492
        k(  145) = (   0.4000000  -0.2857143  -0.4444444), wk =   0.0063492
        k(  146) = (  -0.4000000   0.4285714   0.0000000), wk =   0.0063492
        k(  147) = (  -0.4000000  -0.4285714   0.1111111), wk =   0.0063492
        k(  148) = (  -0.4000000   0.4285714  -0.1111111), wk =   0.0063492
        k(  149) = (   0.4000000  -0.4285714  -0.1111111), wk =   0.0063492
        k(  150) = (  -0.4000000  -0.4285714   0.2222222), wk =   0.0063492
        k(  151) = (  -0.4000000   0.4285714  -0.2222222), wk =   0.0063492
        k(  152) = (   0.4000000  -0.4285714  -0.2222222), wk =   0.0063492
        k(  153) = (  -0.4000000  -0.4285714   0.3333333), wk =   0.0063492
        k(  154) = (  -0.4000000   0.4285714  -0.3333333), wk =   0.0063492
        k(  155) = (   0.4000000  -0.4285714  -0.3333333), wk =   0.0063492
        k(  156) = (  -0.4000000  -0.4285714   0.4444444), wk =   0.0063492
        k(  157) = (  -0.4000000   0.4285714  -0.4444444), wk =   0.0063492
        k(  158) = (   0.4000000  -0.4285714  -0.4444444), wk =   0.0063492

     Dense  grid:  1338043 G-vectors     FFT dimensions: ( 216, 125, 100)

     Smooth grid:   301725 G-vectors     FFT dimensions: ( 135,  75,  60)

     Dynamical RAM for                 wfc:       2.05 MB

     Dynamical RAM for     wfc (w. buffer):     649.58 MB

     Dynamical RAM for           str. fact:       2.55 MB

     Dynamical RAM for           local pot:       0.00 MB

     Dynamical RAM for          nlocal pot:       5.03 MB

     Dynamical RAM for                qrad:      10.54 MB

     Dynamical RAM for          rho,v,vnew:       8.77 MB

     Dynamical RAM for               rhoin:       2.92 MB

     Dynamical RAM for            rho*nmix:      20.42 MB

     Dynamical RAM for           G-vectors:       2.46 MB

     Dynamical RAM for          h,s,v(r/c):       2.38 MB

     Dynamical RAM for          <psi|beta>:       0.49 MB

     Dynamical RAM for                 psi:       4.10 MB

     Dynamical RAM for                hpsi:       4.10 MB

     Dynamical RAM for                spsi:       4.10 MB

     Dynamical RAM for      wfcinit/wfcrot:       5.36 MB

     Dynamical RAM for           addusdens:     129.53 MB

     Dynamical RAM for          addusforce:     148.79 MB

     Dynamical RAM for         addusstress:     129.21 MB

     Estimated static dynamical RAM per process >     710.42 MB

     Estimated max dynamical RAM per process >     859.21 MB

     Estimated total dynamical RAM >      26.85 GB

     Check: negative core charge=   -0.000003
     Generating pointlists ...
     new r_m :   0.0757 (alat units)  1.5381 (a.u.) for type    1
     new r_m :   0.0840 (alat units)  1.7077 (a.u.) for type    2
     new r_m :   0.0590 (alat units)  1.1999 (a.u.) for type    3
     new r_m :   0.0590 (alat units)  1.1999 (a.u.) for type    4

     Initial potential from superposition of free atoms

     starting charge  188.99132, renormalised to  189.00000
     Starting wfcs are  137 randomized atomic wfcs
     Checking if some PAW data can be deallocated... 
       PAW data deallocated on   24 nodes for type:  1
       PAW data deallocated on   16 nodes for type:  3

     total cpu time spent up to now is     1399.2 secs

     Self-consistent Calculation

     iteration #  1     ecut=   100.00 Ry     beta= 0.40
     Davidson diagonalization with overlap
     ethr =  1.00E-02,  avg # of iterations =  3.0

     negative rho (up, down):  0.000E+00 6.871E-05

     total cpu time spent up to now is     5023.2 secs

     total energy              =   -2123.79867707 Ry
     estimated scf accuracy    <       6.96205792 Ry

     total magnetization       =    19.00 Bohr mag/cell
     absolute magnetization    =    19.00 Bohr mag/cell

     iteration #  2     ecut=   100.00 Ry     beta= 0.40
     Davidson diagonalization with overlap
     ethr =  3.68E-03,  avg # of iterations =  2.0

     negative rho (up, down):  0.000E+00 3.756E-05

     total cpu time spent up to now is     8454.2 secs

     total energy              =   -2121.62012869 Ry
     estimated scf accuracy    <      26.76697543 Ry

     total magnetization       =     8.97 Bohr mag/cell
     absolute magnetization    =     9.66 Bohr mag/cell

     iteration #  3     ecut=   100.00 Ry     beta= 0.40
     Davidson diagonalization with overlap
     ethr =  3.68E-03,  avg # of iterations =  2.0

     negative rho (up, down):  0.000E+00 2.803E-05

     total cpu time spent up to now is    11349.4 secs

     total energy              =   -2124.33630034 Ry
     estimated scf accuracy    <      30.65069591 Ry

     total magnetization       =    11.00 Bohr mag/cell
     absolute magnetization    =    12.00 Bohr mag/cell

     iteration #  4     ecut=   100.00 Ry     beta= 0.40
     Davidson diagonalization with overlap
     ethr =  3.68E-03,  avg # of iterations =  2.0

     negative rho (up, down):  0.000E+00 7.223E-05

     total cpu time spent up to now is    14170.7 secs

     total energy              =   -2125.43500858 Ry
     estimated scf accuracy    <      11.67372607 Ry

     total magnetization       =    14.65 Bohr mag/cell
     absolute magnetization    =    14.95 Bohr mag/cell

     iteration #  5     ecut=   100.00 Ry     beta= 0.40
     Davidson diagonalization with overlap
     ethr =  3.68E-03,  avg # of iterations =  1.5

     negative rho (up, down):  0.000E+00 9.448E-05

     total cpu time spent up to now is    16914.7 secs

     total energy              =   -2125.64298449 Ry
     estimated scf accuracy    <       6.78238557 Ry

     total magnetization       =    15.15 Bohr mag/cell
     absolute magnetization    =    15.29 Bohr mag/cell

     iteration #  6     ecut=   100.00 Ry     beta= 0.40
     Davidson diagonalization with overlap
     ethr =  3.59E-03,  avg # of iterations =  1.0

     negative rho (up, down):  0.000E+00 2.506E-04

     total cpu time spent up to now is    19602.8 secs

     total energy              =   -2125.98058036 Ry
     estimated scf accuracy    <       0.80094359 Ry

     total magnetization       =    19.00 Bohr mag/cell
     absolute magnetization    =    19.00 Bohr mag/cell

     iteration #  7     ecut=   100.00 Ry     beta= 0.40
     Davidson diagonalization with overlap
     ethr =  4.24E-04,  avg # of iterations =  1.6

     negative rho (up, down):  0.000E+00 3.188E-04

     total cpu time spent up to now is    22351.7 secs

     total energy              =   -2125.97517504 Ry
     estimated scf accuracy    <       0.40419058 Ry

     total magnetization       =    19.00 Bohr mag/cell
     absolute magnetization    =    19.00 Bohr mag/cell

     iteration #  8     ecut=   100.00 Ry     beta= 0.40
     Davidson diagonalization with overlap
     ethr =  2.14E-04,  avg # of iterations =  2.9

     negative rho (up, down):  0.000E+00 4.982E-04

     total cpu time spent up to now is    25218.7 secs

     total energy              =   -2125.96850478 Ry
     estimated scf accuracy    <       0.68200375 Ry

     total magnetization       =    19.00 Bohr mag/cell
     absolute magnetization    =    19.00 Bohr mag/cell

     iteration #  9     ecut=   100.00 Ry     beta= 0.40
     Davidson diagonalization with overlap
     ethr =  2.14E-04,  avg # of iterations =  1.7

     negative rho (up, down):  0.000E+00 7.789E-04

     total cpu time spent up to now is    27974.6 secs

     total energy              =   -2125.97186072 Ry
     estimated scf accuracy    <       0.34109219 Ry

     total magnetization       =    19.00 Bohr mag/cell
     absolute magnetization    =    19.01 Bohr mag/cell

     iteration # 10     ecut=   100.00 Ry     beta= 0.40
     Davidson diagonalization with overlap
     ethr =  1.80E-04,  avg # of iterations =  2.8

     negative rho (up, down):  0.000E+00 8.855E-04

     total cpu time spent up to now is    30834.5 secs

     total energy              =   -2125.98804027 Ry
     estimated scf accuracy    <       0.13737397 Ry

     total magnetization       =    19.00 Bohr mag/cell
     absolute magnetization    =    19.02 Bohr mag/cell

     iteration # 11     ecut=   100.00 Ry     beta= 0.40
     Davidson diagonalization with overlap
     c_bands:  1 eigenvalues not converged
     c_bands:  1 eigenvalues not converged
     c_bands:  1 eigenvalues not converged
     c_bands:  2 eigenvalues not converged
     c_bands:  3 eigenvalues not converged
     c_bands:  1 eigenvalues not converged
     c_bands:  1 eigenvalues not converged
     c_bands:  1 eigenvalues not converged
     c_bands:  1 eigenvalues not converged
     c_bands:  1 eigenvalues not converged
     c_bands:  2 eigenvalues not converged
     c_bands:  1 eigenvalues not converged
     c_bands:  2 eigenvalues not converged
     c_bands:  2 eigenvalues not converged
     c_bands:  2 eigenvalues not converged
     c_bands:  1 eigenvalues not converged
     c_bands:  1 eigenvalues not converged
     c_bands:  2 eigenvalues not converged
     c_bands:  1 eigenvalues not converged
     c_bands:  1 eigenvalues not converged
     c_bands:  1 eigenvalues not converged
     ethr =  7.27E-05,  avg # of iterations = 12.5

     negative rho (up, down):  0.000E+00 8.919E-04

     total cpu time spent up to now is    34726.2 secs

     total energy              =   -2125.99146601 Ry
     estimated scf accuracy    <       0.05193986 Ry

     total magnetization       =    19.00 Bohr mag/cell
     absolute magnetization    =    19.02 Bohr mag/cell

     iteration # 12     ecut=   100.00 Ry     beta= 0.40
     Davidson diagonalization with overlap
     c_bands:  1 eigenvalues not converged
     c_bands:  1 eigenvalues not converged
     c_bands:  1 eigenvalues not converged
     c_bands:  1 eigenvalues not converged
     c_bands:  1 eigenvalues not converged
     c_bands:  1 eigenvalues not converged
     c_bands:  1 eigenvalues not converged
     c_bands:  1 eigenvalues not converged
     c_bands:  1 eigenvalues not converged
     c_bands:  1 eigenvalues not converged
     ethr =  2.75E-05,  avg # of iterations =  6.2

     negative rho (up, down):  0.000E+00 9.194E-04

     total cpu time spent up to now is    37969.7 secs

     total energy              =   -2125.99166015 Ry
     estimated scf accuracy    <       0.10680765 Ry

     total magnetization       =    19.00 Bohr mag/cell
     absolute magnetization    =    19.03 Bohr mag/cell

     iteration # 13     ecut=   100.00 Ry     beta= 0.40
     Davidson diagonalization with overlap
     ethr =  2.75E-05,  avg # of iterations =  1.0

     negative rho (up, down):  0.000E+00 9.416E-04

     total cpu time spent up to now is    40661.4 secs

     total energy              =   -2125.99401643 Ry
     estimated scf accuracy    <       0.02714107 Ry

     total magnetization       =    19.00 Bohr mag/cell
     absolute magnetization    =    19.04 Bohr mag/cell

     iteration # 14     ecut=   100.00 Ry     beta= 0.40
     Davidson diagonalization with overlap
     ethr =  1.44E-05,  avg # of iterations =  1.2

     negative rho (up, down):  0.000E+00 9.451E-04

     total cpu time spent up to now is    43368.1 secs

     total energy              =   -2125.99461168 Ry
     estimated scf accuracy    <       0.00459801 Ry

     total magnetization       =    19.00 Bohr mag/cell
     absolute magnetization    =    19.04 Bohr mag/cell

     iteration # 15     ecut=   100.00 Ry     beta= 0.40
     Davidson diagonalization with overlap
     c_bands:  1 eigenvalues not converged
     c_bands:  1 eigenvalues not converged
     c_bands:  1 eigenvalues not converged
     c_bands:  1 eigenvalues not converged
     c_bands:  1 eigenvalues not converged
     c_bands:  1 eigenvalues not converged
     c_bands:  1 eigenvalues not converged
     c_bands:  1 eigenvalues not converged
     c_bands:  1 eigenvalues not converged
     c_bands:  1 eigenvalues not converged
     c_bands:  1 eigenvalues not converged
     c_bands:  1 eigenvalues not converged
     c_bands:  1 eigenvalues not converged
     c_bands:  1 eigenvalues not converged
     c_bands:  1 eigenvalues not converged
     c_bands:  1 eigenvalues not converged
     c_bands:  1 eigenvalues not converged
     c_bands:  1 eigenvalues not converged
     ethr =  2.43E-06,  avg # of iterations = 11.6

     negative rho (up, down):  0.000E+00 9.384E-04

     total cpu time spent up to now is    46752.0 secs

     total energy              =   -2125.99509656 Ry
     estimated scf accuracy    <       0.00215974 Ry

     total magnetization       =    19.00 Bohr mag/cell
     absolute magnetization    =    19.05 Bohr mag/cell

     iteration # 16     ecut=   100.00 Ry     beta= 0.40
     Davidson diagonalization with overlap
     c_bands:  1 eigenvalues not converged
     ethr =  1.14E-06,  avg # of iterations =  2.0

     negative rho (up, down):  0.000E+00 9.331E-04

     total cpu time spent up to now is    47122.3 secs

     total energy              =   -2125.99521537 Ry
     estimated scf accuracy    <       0.00116285 Ry

     total magnetization       =    19.00 Bohr mag/cell
     absolute magnetization    =    19.05 Bohr mag/cell

     iteration # 17     ecut=   100.00 Ry     beta= 0.40
     Davidson diagonalization with overlap
     ethr =  6.15E-07,  avg # of iterations =  1.2

     negative rho (up, down):  0.000E+00 9.291E-04

     total cpu time spent up to now is    48995.2 secs

     total energy              =   -2125.99527810 Ry
     estimated scf accuracy    <       0.00015641 Ry

     total magnetization       =    19.00 Bohr mag/cell
     absolute magnetization    =    19.05 Bohr mag/cell

     iteration # 18     ecut=   100.00 Ry     beta= 0.40
     Davidson diagonalization with overlap
     ethr =  8.28E-08,  avg # of iterations =  5.0

     negative rho (up, down):  0.000E+00 9.278E-04

     total cpu time spent up to now is    53542.7 secs

     total energy              =   -2125.99534984 Ry
     estimated scf accuracy    <       0.00013327 Ry

     total magnetization       =    19.00 Bohr mag/cell
     absolute magnetization    =    19.05 Bohr mag/cell

     iteration # 19     ecut=   100.00 Ry     beta= 0.40
     Davidson diagonalization with overlap
     ethr =  7.05E-08,  avg # of iterations =  1.0

     negative rho (up, down):  0.000E+00 9.233E-04

     total cpu time spent up to now is    56238.3 secs

     total energy              =   -2125.99535496 Ry
     estimated scf accuracy    <       0.00008345 Ry

     total magnetization       =    19.00 Bohr mag/cell
     absolute magnetization    =    19.05 Bohr mag/cell

     iteration # 20     ecut=   100.00 Ry     beta= 0.40
     Davidson diagonalization with overlap
     ethr =  4.42E-08,  avg # of iterations =  1.4

     negative rho (up, down):  0.000E+00 9.236E-04

     total cpu time spent up to now is    58973.0 secs

     total energy              =   -2125.99536163 Ry
     estimated scf accuracy    <       0.00001537 Ry

     total magnetization       =    19.00 Bohr mag/cell
     absolute magnetization    =    19.05 Bohr mag/cell

     iteration # 21     ecut=   100.00 Ry     beta= 0.40
     Davidson diagonalization with overlap
     ethr =  8.13E-09,  avg # of iterations =  1.1

     negative rho (up, down):  0.000E+00 9.238E-04

     total cpu time spent up to now is    61673.3 secs

     total energy              =   -2125.99536257 Ry
     estimated scf accuracy    <       0.00003219 Ry

     total magnetization       =    19.00 Bohr mag/cell
     absolute magnetization    =    19.05 Bohr mag/cell

     iteration # 22     ecut=   100.00 Ry     beta= 0.40
     Davidson diagonalization with overlap
     ethr =  8.13E-09,  avg # of iterations =  1.0

     negative rho (up, down):  0.000E+00 9.241E-04

     total cpu time spent up to now is    64368.4 secs

     total energy              =   -2125.99536383 Ry
     estimated scf accuracy    <       0.00000416 Ry

     total magnetization       =    19.00 Bohr mag/cell
     absolute magnetization    =    19.05 Bohr mag/cell

     iteration # 23     ecut=   100.00 Ry     beta= 0.40
     Davidson diagonalization with overlap
     ethr =  2.20E-09,  avg # of iterations =  2.0

     negative rho (up, down):  0.000E+00 9.248E-04

     total cpu time spent up to now is    67204.1 secs

     total energy              =   -2125.99536443 Ry
     estimated scf accuracy    <       0.00000382 Ry

     total magnetization       =    19.00 Bohr mag/cell
     absolute magnetization    =    19.05 Bohr mag/cell

     iteration # 24     ecut=   100.00 Ry     beta= 0.40
     Davidson diagonalization with overlap
     ethr =  2.02E-09,  avg # of iterations =  1.5

     negative rho (up, down):  0.000E+00 9.259E-04

     total cpu time spent up to now is    69940.8 secs

     total energy              =   -2125.99536473 Ry
     estimated scf accuracy    <       0.00000294 Ry

     total magnetization       =    19.00 Bohr mag/cell
     absolute magnetization    =    19.05 Bohr mag/cell

     iteration # 25     ecut=   100.00 Ry     beta= 0.40
     Davidson diagonalization with overlap
     ethr =  1.56E-09,  avg # of iterations =  1.0

     negative rho (up, down):  0.000E+00 9.256E-04

     total cpu time spent up to now is    72631.1 secs

     total energy              =   -2125.99536489 Ry
     estimated scf accuracy    <       0.00000111 Ry

     total magnetization       =    19.00 Bohr mag/cell
     absolute magnetization    =    19.05 Bohr mag/cell

     iteration # 26     ecut=   100.00 Ry     beta= 0.40
     Davidson diagonalization with overlap
     ethr =  5.85E-10,  avg # of iterations =  1.9

     negative rho (up, down):  0.000E+00 9.258E-04

     total cpu time spent up to now is    75428.1 secs

     total energy              =   -2125.99536500 Ry
     estimated scf accuracy    <       0.00000038 Ry

     total magnetization       =    19.00 Bohr mag/cell
     absolute magnetization    =    19.05 Bohr mag/cell

     iteration # 27     ecut=   100.00 Ry     beta= 0.40
     Davidson diagonalization with overlap
     ethr =  2.04E-10,  avg # of iterations =  3.4

     negative rho (up, down):  0.000E+00 9.256E-04

     total cpu time spent up to now is    78658.2 secs

     total energy              =   -2125.99536508 Ry
     estimated scf accuracy    <       0.00000002 Ry

     total magnetization       =    19.00 Bohr mag/cell
     absolute magnetization    =    19.05 Bohr mag/cell

     iteration # 28     ecut=   100.00 Ry     beta= 0.40
     Davidson diagonalization with overlap
     ethr =  9.44E-12,  avg # of iterations =  4.3

     negative rho (up, down):  0.000E+00 9.255E-04

     total cpu time spent up to now is    82924.1 secs

     total energy              =   -2125.99536510 Ry
     estimated scf accuracy    <       0.00000004 Ry

     total magnetization       =    19.00 Bohr mag/cell
     absolute magnetization    =    19.05 Bohr mag/cell

     iteration # 29     ecut=   100.00 Ry     beta= 0.40
     Davidson diagonalization with overlap
     ethr =  9.44E-12,  avg # of iterations =  1.7

     negative rho (up, down):  0.000E+00 9.255E-04

     total cpu time spent up to now is    85698.0 secs

     total energy              =   -2125.99536510 Ry
     estimated scf accuracy    <       0.00000003 Ry

     total magnetization       =    19.00 Bohr mag/cell
     absolute magnetization    =    19.05 Bohr mag/cell

     iteration # 30     ecut=   100.00 Ry     beta= 0.40
     Davidson diagonalization with overlap
     ethr =  9.44E-12,  avg # of iterations =  2.0

     negative rho (up, down):  0.000E+00 9.255E-04

     total cpu time spent up to now is    88492.4 secs

     total energy              =   -2125.99536510 Ry
     estimated scf accuracy    <       0.00000001 Ry

     total magnetization       =    19.00 Bohr mag/cell
     absolute magnetization    =    19.05 Bohr mag/cell

     iteration # 31     ecut=   100.00 Ry     beta= 0.40
     Davidson diagonalization with overlap
     ethr =  5.75E-12,  avg # of iterations =  1.1

     negative rho (up, down):  0.000E+00 9.255E-04

     total cpu time spent up to now is    91190.6 secs

     total energy              =   -2125.99536511 Ry
     estimated scf accuracy    <          3.7E-09 Ry

     total magnetization       =    19.00 Bohr mag/cell
     absolute magnetization    =    19.05 Bohr mag/cell

     iteration # 32     ecut=   100.00 Ry     beta= 0.40
     Davidson diagonalization with overlap
     ethr =  1.94E-12,  avg # of iterations =  1.3

     negative rho (up, down):  0.000E+00 9.255E-04

     total cpu time spent up to now is    93921.9 secs

     total energy              =   -2125.99536511 Ry
     estimated scf accuracy    <          4.1E-10 Ry

     total magnetization       =    19.00 Bohr mag/cell
     absolute magnetization    =    19.05 Bohr mag/cell

     iteration # 33     ecut=   100.00 Ry     beta= 0.40
     Davidson diagonalization with overlap
     ethr =  2.16E-13,  avg # of iterations =  4.3

     negative rho (up, down):  0.000E+00 9.255E-04

     total cpu time spent up to now is    97461.7 secs

     total energy              =   -2125.99536511 Ry
     estimated scf accuracy    <          6.0E-10 Ry

     total magnetization       =    19.00 Bohr mag/cell
     absolute magnetization    =    19.05 Bohr mag/cell

     iteration # 34     ecut=   100.00 Ry     beta= 0.40
     Davidson diagonalization with overlap
     ethr =  2.16E-13,  avg # of iterations =  1.0

     negative rho (up, down):  0.000E+00 9.255E-04

     Magnetic moment per site:
     atom:    1    charge:    7.8833    magn:    0.0011    constr:    0.0000
     atom:    2    charge:   13.0057    magn:    3.6484    constr:    0.0000
     atom:    3    charge:   12.9970    magn:    3.6605    constr:    0.0000
     atom:    4    charge:   13.0038    magn:    3.6486    constr:    0.0000
     atom:    5    charge:   13.0042    magn:    3.6493    constr:    0.0000
     atom:    6    charge:    0.8430    magn:    0.0093    constr:    0.0000
     atom:    7    charge:    0.8298    magn:    0.0106    constr:    0.0000
     atom:    8    charge:    0.8417    magn:    0.0093    constr:    0.0000
     atom:    9    charge:    0.8316    magn:    0.0109    constr:    0.0000
     atom:   10    charge:    4.2383    magn:    0.1454    constr:    0.0000
     atom:   11    charge:    4.2564    magn:    0.1119    constr:    0.0000
     atom:   12    charge:    4.2393    magn:    0.1663    constr:    0.0000
     atom:   13    charge:    4.2573    magn:    0.1081    constr:    0.0000
     atom:   14    charge:    4.2237    magn:    0.1258    constr:    0.0000
     atom:   15    charge:    4.2393    magn:    0.0931    constr:    0.0000
     atom:   16    charge:    4.2207    magn:    0.1208    constr:    0.0000
     atom:   17    charge:    4.2319    magn:    0.0909    constr:    0.0000
     atom:   18    charge:    4.2562    magn:    0.1259    constr:    0.0000
     atom:   19    charge:    4.2443    magn:    0.1436    constr:    0.0000
     atom:   20    charge:    4.2543    magn:    0.1125    constr:    0.0000
     atom:   21    charge:    4.2604    magn:    0.1573    constr:    0.0000
     atom:   22    charge:    4.2517    magn:    0.1271    constr:    0.0000
     atom:   23    charge:    4.2446    magn:    0.1447    constr:    0.0000
     atom:   24    charge:    4.2518    magn:    0.1287    constr:    0.0000
     atom:   25    charge:    4.2561    magn:    0.1539    constr:    0.0000

     total cpu time spent up to now is   100149.6 secs

     End of self-consistent calculation

 ------ SPIN UP ------------


          k = 0.0000 0.0000 0.0000 ( 37701 PWs)   bands (ev):

   -85.5916 -85.5525 -85.4718 -85.4425 -51.6991 -51.6909 -51.6900 -51.6756
   -51.5709 -51.5422 -51.4954 -51.4309 -51.4142 -51.3772 -51.2956 -51.2521
   -45.1172 -17.2012 -17.1088 -17.0855 -16.4460 -16.2453 -16.2180 -15.9787
   -14.0950 -14.0227 -13.9816 -13.9257 -13.8745 -13.8111 -13.6857 -13.5769
   -13.5608 -13.5007 -13.4451 -13.4057  -4.6551  -4.3452  -3.8294  -3.7398
    -2.5256  -2.4791  -2.0852  -1.9598  -1.7231  -1.6288  -1.5290  -1.4240
    -1.3364  -1.2541  -1.1523  -1.0658  -0.5337  -0.4801  -0.1622   0.0020
     0.0125   0.1111   0.1726   0.2814   0.4572   0.4630   0.6022   0.7142
     0.8750   0.9624   1.0488   1.0963   1.2467   1.2600   1.4409   1.4983
     1.6834   1.7198   1.7795   1.8400   1.9027   1.9706   2.0566   2.0791
     2.1609   2.4047   2.4739   2.5192   2.6381   2.6601   2.7579   2.8837
     2.9249   3.1389   3.1821   3.2358   3.4171   3.4328   3.5133   3.6047
     3.6819   3.6908   3.7791   3.8395   3.9574   4.0358   4.3427   4.3975
     8.3785  10.2433  10.6870  11.0642  11.5024  12.3965  12.5127  12.5549
    12.6592  12.7946

     occupation numbers 
     1.0000   1.0000   1.0000   1.0000   1.0000   1.0000   1.0000   1.0000
     1.0000   1.0000   1.0000   1.0000   1.0000   1.0000   1.0000   1.0000
     1.0000   1.0000   1.0000   1.0000   1.0000   1.0000   1.0000   1.0000
     1.0000   1.0000   1.0000   1.0000   1.0000   1.0000   1.0000   1.0000
     1.0000   1.0000   1.0000   1.0000   1.0000   1.0000   1.0000   1.0000
     1.0000   1.0000   1.0000   1.0000   1.0000   1.0000   1.0000   1.0000
     1.0000   1.0000   1.0000   1.0000   1.0000   1.0000   1.0000   1.0000
     1.0000   1.0000   1.0000   1.0000   1.0000   1.0000   1.0000   1.0000
     1.0000   1.0000   1.0000   1.0000   1.0000   1.0000   1.0000   1.0000
     1.0000   1.0000   1.0000   1.0000   1.0000   1.0000   1.0000   1.0000
     1.0000   1.0000   1.0000   1.0000   1.0000   1.0000   1.0000   1.0000
     1.0000   1.0000   1.0000   1.0000   1.0000   1.0000   1.0000   1.0000
     1.0000   1.0000   1.0000   1.0000   1.0000   1.0000   1.0000   1.0000
     0.0000   0.0000   0.0000   0.0000   0.0000   0.0000   0.0000   0.0000
     0.0000   0.0000

          k = 0.0000 0.0000 0.2415 ( 37675 PWs)   bands (ev):

   -85.5916 -85.5525 -85.4718 -85.4425 -51.6991 -51.6909 -51.6900 -51.6756
   -51.5709 -51.5422 -51.4954 -51.4309 -51.4142 -51.3772 -51.2956 -51.2521
   -45.1172 -17.2006 -17.1088 -17.0875 -16.4323 -16.2372 -16.2086 -15.9790
   -14.1069 -14.0375 -13.9821 -13.9306 -13.8764 -13.8136 -13.6959 -13.5871
   -13.5566 -13.4996 -13.4448 -13.4095  -4.6271  -4.3320  -3.8422  -3.7089
    -2.5118  -2.4495  -2.0849  -1.9610  -1.7145  -1.6240  -1.5020  -1.4384
    -1.3123  -1.2653  -1.1871  -1.0389  -0.5330  -0.4662  -0.1582  -0.0346
     0.0207   0.1015   0.2062   0.2491   0.4468   0.5102   0.6019   0.6797
     0.8394   0.9652   1.0453   1.1293   1.1961   1.3292   1.4213   1.5149
     1.6596   1.7062   1.7836   1.8402   1.8741   1.9414   2.0377   2.1176
     2.1753   2.3988   2.4757   2.4917   2.6168   2.6311   2.7720   2.8510
     2.9184   3.1502   3.1891   3.2351   3.3824   3.4330   3.5248   3.5838
     3.6563   3.6894   3.7824   3.8562   3.9511   4.0462   4.3321   4.4081
     8.5195  10.3080  10.7343  11.0901  11.5403  12.3490  12.4224  12.5878
    12.6329  12.7640

     occupation numbers 
     1.0000   1.0000   1.0000   1.0000   1.0000   1.0000   1.0000   1.0000
     1.0000   1.0000   1.0000   1.0000   1.0000   1.0000   1.0000   1.0000
     1.0000   1.0000   1.0000   1.0000   1.0000   1.0000   1.0000   1.0000
     1.0000   1.0000   1.0000   1.0000   1.0000   1.0000   1.0000   1.0000
     1.0000   1.0000   1.0000   1.0000   1.0000   1.0000   1.0000   1.0000
     1.0000   1.0000   1.0000   1.0000   1.0000   1.0000   1.0000   1.0000
     1.0000   1.0000   1.0000   1.0000   1.0000   1.0000   1.0000   1.0000
     1.0000   1.0000   1.0000   1.0000   1.0000   1.0000   1.0000   1.0000
     1.0000   1.0000   1.0000   1.0000   1.0000   1.0000   1.0000   1.0000
     1.0000   1.0000   1.0000   1.0000   1.0000   1.0000   1.0000   1.0000
     1.0000   1.0000   1.0000   1.0000   1.0000   1.0000   1.0000   1.0000
     1.0000   1.0000   1.0000   1.0000   1.0000   1.0000   1.0000   1.0000
     1.0000   1.0000   1.0000   1.0000   1.0000   1.0000   1.0000   1.0000
     0.0000   0.0000   0.0000   0.0000   0.0000   0.0000   0.0000   0.0000
     0.0000   0.0000

          k = 0.0000 0.0000 0.4830 ( 37730 PWs)   bands (ev):

   -85.5916 -85.5525 -85.4718 -85.4425 -51.6991 -51.6909 -51.6900 -51.6756
   -51.5709 -51.5422 -51.4954 -51.4309 -51.4142 -51.3772 -51.2956 -51.2521
   -45.1172 -17.1990 -17.1087 -17.0926 -16.3963 -16.2150 -16.1844 -15.9824
   -14.1402 -14.0762 -13.9817 -13.9379 -13.8882 -13.8288 -13.7033 -13.6063
   -13.5507 -13.5020 -13.4447 -13.4207  -4.5544  -4.2975  -3.8481  -3.6647
    -2.4866  -2.3642  -2.0634  -1.9699  -1.7065  -1.6090  -1.4959  -1.3950
    -1.3099  -1.2769  -1.1966  -1.0285  -0.5444  -0.4226  -0.1331  -0.0663
     0.0276   0.0846   0.1987   0.2732   0.4676   0.5264   0.5952   0.6545
     0.8166   0.9516   1.0393   1.1098   1.2155   1.3063   1.4350   1.5080
     1.5461   1.6686   1.7576   1.8069   1.8727   1.9624   2.0365   2.1024
     2.2233   2.3521   2.3938   2.4851   2.5102   2.6128   2.8072   2.8520
     2.9092   3.1589   3.1853   3.2255   3.3377   3.4494   3.5066   3.5889
     3.6228   3.6834   3.7628   3.8982   3.9308   4.0648   4.3203   4.4185
     8.8967  10.4733  10.8316  11.1646  11.6341  12.0656  12.4100  12.4863
    12.6042  12.7049

     occupation numbers 
     1.0000   1.0000   1.0000   1.0000   1.0000   1.0000   1.0000   1.0000
     1.0000   1.0000   1.0000   1.0000   1.0000   1.0000   1.0000   1.0000
     1.0000   1.0000   1.0000   1.0000   1.0000   1.0000   1.0000   1.0000
     1.0000   1.0000   1.0000   1.0000   1.0000   1.0000   1.0000   1.0000
     1.0000   1.0000   1.0000   1.0000   1.0000   1.0000   1.0000   1.0000
     1.0000   1.0000   1.0000   1.0000   1.0000   1.0000   1.0000   1.0000
     1.0000   1.0000   1.0000   1.0000   1.0000   1.0000   1.0000   1.0000
     1.0000   1.0000   1.0000   1.0000   1.0000   1.0000   1.0000   1.0000
     1.0000   1.0000   1.0000   1.0000   1.0000   1.0000   1.0000   1.0000
     1.0000   1.0000   1.0000   1.0000   1.0000   1.0000   1.0000   1.0000
     1.0000   1.0000   1.0000   1.0000   1.0000   1.0000   1.0000   1.0000
     1.0000   1.0000   1.0000   1.0000   1.0000   1.0000   1.0000   1.0000
     1.0000   1.0000   1.0000   1.0000   1.0000   1.0000   1.0000   1.0000
     0.0000   0.0000   0.0000   0.0000   0.0000   0.0000   0.0000   0.0000
     0.0000   0.0000

          k = 0.0000 0.0000 0.7246 ( 37724 PWs)   bands (ev):

   -85.5916 -85.5525 -85.4718 -85.4425 -51.6991 -51.6909 -51.6900 -51.6756
   -51.5709 -51.5422 -51.4954 -51.4309 -51.4142 -51.3772 -51.2956 -51.2521
   -45.1172 -17.1972 -17.1089 -17.0979 -16.3526 -16.1851 -16.1558 -15.9927
   -14.1804 -14.1231 -13.9768 -13.9427 -13.9117 -13.8572 -13.6949 -13.6109
   -13.5486 -13.5103 -13.4549 -13.4303  -4.4687  -4.2556  -3.8366  -3.6464
    -2.4545  -2.2751  -2.0210  -1.9624  -1.7169  -1.6141  -1.5050  -1.3558
    -1.3090  -1.2588  -1.1624  -1.0577  -0.5633  -0.3734  -0.0760  -0.0210
     0.0043   0.1012   0.2120   0.3137   0.4681   0.5504   0.6098   0.6416
     0.8375   0.9208   1.0066   1.0482   1.1937   1.2243   1.3294   1.4463
     1.5133   1.5786   1.7421   1.7894   1.9057   1.9780   2.0109   2.0781
     2.2218   2.2840   2.3006   2.3842   2.5304   2.6520   2.8153   2.8711
     2.9627   3.1046   3.1659   3.2447   3.3262   3.4784   3.5153   3.5818
     3.6238   3.6762   3.7244   3.8971   3.9316   4.0853   4.3214   4.4137
     9.4114  10.6343  10.8985  11.2720  11.5050  12.0301  12.2971  12.3365
    12.5031  12.6623

     occupation numbers 
     1.0000   1.0000   1.0000   1.0000   1.0000   1.0000   1.0000   1.0000
     1.0000   1.0000   1.0000   1.0000   1.0000   1.0000   1.0000   1.0000
     1.0000   1.0000   1.0000   1.0000   1.0000   1.0000   1.0000   1.0000
     1.0000   1.0000   1.0000   1.0000   1.0000   1.0000   1.0000   1.0000
     1.0000   1.0000   1.0000   1.0000   1.0000   1.0000   1.0000   1.0000
     1.0000   1.0000   1.0000   1.0000   1.0000   1.0000   1.0000   1.0000
     1.0000   1.0000   1.0000   1.0000   1.0000   1.0000   1.0000   1.0000
     1.0000   1.0000   1.0000   1.0000   1.0000   1.0000   1.0000   1.0000
     1.0000   1.0000   1.0000   1.0000   1.0000   1.0000   1.0000   1.0000
     1.0000   1.0000   1.0000   1.0000   1.0000   1.0000   1.0000   1.0000
     1.0000   1.0000   1.0000   1.0000   1.0000   1.0000   1.0000   1.0000
     1.0000   1.0000   1.0000   1.0000   1.0000   1.0000   1.0000   1.0000
     1.0000   1.0000   1.0000   1.0000   1.0000   1.0000   1.0000   1.0000
     0.0000   0.0000   0.0000   0.0000   0.0000   0.0000   0.0000   0.0000
     0.0000   0.0000

          k = 0.0000 0.0000 0.9661 ( 37764 PWs)   bands (ev):

   -85.5916 -85.5525 -85.4718 -85.4425 -51.6991 -51.6909 -51.6900 -51.6756
   -51.5709 -51.5422 -51.4954 -51.4309 -51.4142 -51.3772 -51.2956 -51.2521
   -45.1172 -17.1959 -17.1092 -17.1011 -16.3226 -16.1600 -16.1359 -16.0065
   -14.2068 -14.1550 -13.9661 -13.9489 -13.9347 -13.8770 -13.6907 -13.5920
   -13.5533 -13.5170 -13.4753 -13.4310  -4.4109  -4.2260  -3.8201  -3.6521
    -2.4264  -2.2304  -2.0065  -1.9136  -1.7473  -1.6286  -1.5043  -1.3612
    -1.2924  -1.2188  -1.1483  -1.0821  -0.5754  -0.3345  -0.0526  -0.0356
     0.0926   0.1393   0.3229   0.3479   0.4384   0.5467   0.5844   0.6970
     0.8328   0.8477   0.9485   0.9830   1.1034   1.1388   1.2717   1.4465
     1.4889   1.5776   1.6763   1.7584   1.9062   1.9218   1.9971   2.1225
     2.2029   2.2351   2.2649   2.3957   2.5129   2.6941   2.8066   2.9091
     2.9685   3.0618   3.1492   3.3029   3.3648   3.4711   3.5187   3.5574
     3.6256   3.6734   3.7133   3.8707   3.9440   4.0996   4.3330   4.3990
     9.9464  10.5120  10.9703  11.2669  11.3768  12.1184  12.2317  12.3087
    12.4516  12.5593

     occupation numbers 
     1.0000   1.0000   1.0000   1.0000   1.0000   1.0000   1.0000   1.0000
     1.0000   1.0000   1.0000   1.0000   1.0000   1.0000   1.0000   1.0000
     1.0000   1.0000   1.0000   1.0000   1.0000   1.0000   1.0000   1.0000
     1.0000   1.0000   1.0000   1.0000   1.0000   1.0000   1.0000   1.0000
     1.0000   1.0000   1.0000   1.0000   1.0000   1.0000   1.0000   1.0000
     1.0000   1.0000   1.0000   1.0000   1.0000   1.0000   1.0000   1.0000
     1.0000   1.0000   1.0000   1.0000   1.0000   1.0000   1.0000   1.0000
     1.0000   1.0000   1.0000   1.0000   1.0000   1.0000   1.0000   1.0000
     1.0000   1.0000   1.0000   1.0000   1.0000   1.0000   1.0000   1.0000
     1.0000   1.0000   1.0000   1.0000   1.0000   1.0000   1.0000   1.0000
     1.0000   1.0000   1.0000   1.0000   1.0000   1.0000   1.0000   1.0000
     1.0000   1.0000   1.0000   1.0000   1.0000   1.0000   1.0000   1.0000
     1.0000   1.0000   1.0000   1.0000   1.0000   1.0000   1.0000   1.0000
     0.0000   0.0000   0.0000   0.0000   0.0000   0.0000   0.0000   0.0000
     0.0000   0.0000

          k = 0.0000 0.2470 0.0000 ( 37673 PWs)   bands (ev):

   -85.5916 -85.5525 -85.4718 -85.4425 -51.6991 -51.6909 -51.6900 -51.6756
   -51.5709 -51.5422 -51.4954 -51.4309 -51.4142 -51.3772 -51.2956 -51.2521
   -45.1172 -17.2043 -17.1112 -17.0853 -16.4284 -16.2457 -16.2055 -15.9905
   -14.1162 -14.0195 -13.9846 -13.9210 -13.8978 -13.8142 -13.6829 -13.5789
   -13.5523 -13.5020 -13.4402 -13.4002  -4.6148  -4.3071  -3.8418  -3.7388
    -2.5045  -2.4438  -2.0711  -1.9507  -1.7307  -1.6441  -1.5302  -1.4019
    -1.3452  -1.2496  -1.1573  -1.0450  -0.5441  -0.4989  -0.1837  -0.0998
     0.0562   0.1038   0.1951   0.2163   0.4373   0.4965   0.6405   0.7089
     0.8829   0.9604   0.9968   1.0961   1.2591   1.2903   1.4162   1.4751
     1.6230   1.6971   1.7724   1.8088   1.8779   1.9551   2.0418   2.1158
     2.2048   2.3903   2.4477   2.5069   2.5892   2.6905   2.7854   2.8990
     2.9534   3.0654   3.1561   3.2906   3.3528   3.4176   3.5015   3.5723
     3.6481   3.7110   3.7524   3.8587   4.0456   4.1119   4.3745   4.4251
     8.5351  10.3120  10.7791  10.9926  11.5221  12.3055  12.4213  12.5433
    12.6173  12.7647

     occupation numbers 
     1.0000   1.0000   1.0000   1.0000   1.0000   1.0000   1.0000   1.0000
     1.0000   1.0000   1.0000   1.0000   1.0000   1.0000   1.0000   1.0000
     1.0000   1.0000   1.0000   1.0000   1.0000   1.0000   1.0000   1.0000
     1.0000   1.0000   1.0000   1.0000   1.0000   1.0000   1.0000   1.0000
     1.0000   1.0000   1.0000   1.0000   1.0000   1.0000   1.0000   1.0000
     1.0000   1.0000   1.0000   1.0000   1.0000   1.0000   1.0000   1.0000
     1.0000   1.0000   1.0000   1.0000   1.0000   1.0000   1.0000   1.0000
     1.0000   1.0000   1.0000   1.0000   1.0000   1.0000   1.0000   1.0000
     1.0000   1.0000   1.0000   1.0000   1.0000   1.0000   1.0000   1.0000
     1.0000   1.0000   1.0000   1.0000   1.0000   1.0000   1.0000   1.0000
     1.0000   1.0000   1.0000   1.0000   1.0000   1.0000   1.0000   1.0000
     1.0000   1.0000   1.0000   1.0000   1.0000   1.0000   1.0000   1.0000
     1.0000   1.0000   1.0000   1.0000   1.0000   1.0000   1.0000   1.0000
     0.0000   0.0000   0.0000   0.0000   0.0000   0.0000   0.0000   0.0000
     0.0000   0.0000

          k = 0.0000 0.2470 0.2415 ( 37679 PWs)   bands (ev):

   -85.5916 -85.5525 -85.4718 -85.4425 -51.6991 -51.6909 -51.6900 -51.6756
   -51.5709 -51.5422 -51.4954 -51.4309 -51.4142 -51.3772 -51.2956 -51.2521
   -45.1172 -17.2040 -17.1112 -17.0873 -16.4162 -16.2320 -16.1991 -15.9906
   -14.1291 -14.0410 -13.9773 -13.9294 -13.8936 -13.8219 -13.6907 -13.5875
   -13.5517 -13.5050 -13.4386 -13.4001  -4.5923  -4.3002  -3.8448  -3.6955
    -2.4905  -2.4197  -2.0859  -1.9445  -1.7151  -1.6301  -1.5192  -1.4069
    -1.3351  -1.2628  -1.2006  -0.9985  -0.5419  -0.4797  -0.1618  -0.0812
     0.0365   0.1066   0.1939   0.2636   0.3916   0.4821   0.6109   0.6653
     0.8040   0.9751   0.9949   1.0679   1.2229   1.3560   1.4198   1.4782
     1.6282   1.7364   1.7816   1.8188   1.8596   1.9593   2.0739   2.1177
     2.2013   2.3839   2.4305   2.4935   2.5528   2.6664   2.7878   2.8538
     2.9162   3.0628   3.1562   3.3014   3.3486   3.4141   3.4838   3.5741
     3.6351   3.7040   3.7825   3.8658   4.0636   4.1036   4.3449   4.4501
     8.6632  10.3785  10.8237  11.0142  11.5937  12.2573  12.3959  12.5277
    12.6286  12.7393

     occupation numbers 
     1.0000   1.0000   1.0000   1.0000   1.0000   1.0000   1.0000   1.0000
     1.0000   1.0000   1.0000   1.0000   1.0000   1.0000   1.0000   1.0000
     1.0000   1.0000   1.0000   1.0000   1.0000   1.0000   1.0000   1.0000
     1.0000   1.0000   1.0000   1.0000   1.0000   1.0000   1.0000   1.0000
     1.0000   1.0000   1.0000   1.0000   1.0000   1.0000   1.0000   1.0000
     1.0000   1.0000   1.0000   1.0000   1.0000   1.0000   1.0000   1.0000
     1.0000   1.0000   1.0000   1.0000   1.0000   1.0000   1.0000   1.0000
     1.0000   1.0000   1.0000   1.0000   1.0000   1.0000   1.0000   1.0000
     1.0000   1.0000   1.0000   1.0000   1.0000   1.0000   1.0000   1.0000
     1.0000   1.0000   1.0000   1.0000   1.0000   1.0000   1.0000   1.0000
     1.0000   1.0000   1.0000   1.0000   1.0000   1.0000   1.0000   1.0000
     1.0000   1.0000   1.0000   1.0000   1.0000   1.0000   1.0000   1.0000
     1.0000   1.0000   1.0000   1.0000   1.0000   1.0000   1.0000   1.0000
     0.0000   0.0000   0.0000   0.0000   0.0000   0.0000   0.0000   0.0000
     0.0000   0.0000

          k = 0.0000 0.2470 0.4830 ( 37698 PWs)   bands (ev):

   -85.5916 -85.5525 -85.4718 -85.4425 -51.6991 -51.6909 -51.6900 -51.6756
   -51.5709 -51.5422 -51.4954 -51.4309 -51.4142 -51.3772 -51.2956 -51.2521
   -45.1172 -17.2024 -17.1111 -17.0922 -16.3826 -16.2042 -16.1788 -15.9924
   -14.1585 -14.0753 -13.9880 -13.9446 -13.8968 -13.8340 -13.7006 -13.6066
   -13.5469 -13.5075 -13.4370 -13.4117  -4.5236  -4.2704  -3.8410  -3.6360
    -2.4679  -2.3548  -2.0615  -1.9511  -1.7122  -1.6208  -1.4691  -1.4122
    -1.2973  -1.2832  -1.2171  -0.9881  -0.5631  -0.4360  -0.1233  -0.0531
     0.0120   0.1053   0.2010   0.2524   0.4129   0.4784   0.5664   0.6725
     0.7380   0.9400   0.9869   1.0683   1.1931   1.3258   1.4305   1.4783
     1.6155   1.6847   1.7502   1.8011   1.9168   1.9674   2.0873   2.1346
     2.1879   2.3111   2.3889   2.4527   2.5330   2.5720   2.7950   2.8301
     2.9138   3.0427   3.1589   3.2571   3.3652   3.4270   3.4696   3.5871
     3.6049   3.6958   3.8015   3.8938   4.0647   4.0958   4.3278   4.4667
     9.0177  10.5437  10.9126  11.0942  11.7060  12.1211  12.3010  12.4589
    12.5733  12.6761

     occupation numbers 
     1.0000   1.0000   1.0000   1.0000   1.0000   1.0000   1.0000   1.0000
     1.0000   1.0000   1.0000   1.0000   1.0000   1.0000   1.0000   1.0000
     1.0000   1.0000   1.0000   1.0000   1.0000   1.0000   1.0000   1.0000
     1.0000   1.0000   1.0000   1.0000   1.0000   1.0000   1.0000   1.0000
     1.0000   1.0000   1.0000   1.0000   1.0000   1.0000   1.0000   1.0000
     1.0000   1.0000   1.0000   1.0000   1.0000   1.0000   1.0000   1.0000
     1.0000   1.0000   1.0000   1.0000   1.0000   1.0000   1.0000   1.0000
     1.0000   1.0000   1.0000   1.0000   1.0000   1.0000   1.0000   1.0000
     1.0000   1.0000   1.0000   1.0000   1.0000   1.0000   1.0000   1.0000
     1.0000   1.0000   1.0000   1.0000   1.0000   1.0000   1.0000   1.0000
     1.0000   1.0000   1.0000   1.0000   1.0000   1.0000   1.0000   1.0000
     1.0000   1.0000   1.0000   1.0000   1.0000   1.0000   1.0000   1.0000
     1.0000   1.0000   1.0000   1.0000   1.0000   1.0000   1.0000   1.0000
     0.0000   0.0000   0.0000   0.0000   0.0000   0.0000   0.0000   0.0000
     0.0000   0.0000

          k = 0.0000 0.2470 0.7246 ( 37707 PWs)   bands (ev):

   -85.5916 -85.5525 -85.4718 -85.4425 -51.6991 -51.6909 -51.6900 -51.6756
   -51.5709 -51.5422 -51.4954 -51.4309 -51.4142 -51.3772 -51.2956 -51.2521
   -45.1172 -17.2000 -17.1110 -17.0976 -16.3413 -16.1713 -16.1532 -16.0002
   -14.1933 -14.1188 -13.9982 -13.9581 -13.9115 -13.8530 -13.6948 -13.6137
   -13.5450 -13.5125 -13.4458 -13.4248  -4.4374  -4.2298  -3.8274  -3.6052
    -2.4464  -2.2792  -2.0074  -1.9472  -1.7184  -1.6381  -1.4677  -1.3863
    -1.2841  -1.2518  -1.1804  -1.0328  -0.5850  -0.3999  -0.0717  -0.0053
     0.0412   0.0984   0.1900   0.2428   0.4745   0.4981   0.5632   0.6867
     0.7557   0.8941   0.9523   1.0271   1.1684   1.2571   1.3210   1.4569
     1.5209   1.6061   1.7499   1.8125   1.9007   1.9915   2.0317   2.0873
     2.2152   2.2744   2.3170   2.4007   2.4845   2.6081   2.7907   2.8662
     2.9341   3.0339   3.1448   3.2274   3.3723   3.4253   3.4647   3.6041
     3.6134   3.6864   3.7874   3.9290   4.0252   4.1144   4.3331   4.4651
     9.5063  10.7274  10.9367  11.2200  11.5886  12.0931  12.2422  12.3668
    12.4497  12.6796

     occupation numbers 
     1.0000   1.0000   1.0000   1.0000   1.0000   1.0000   1.0000   1.0000
     1.0000   1.0000   1.0000   1.0000   1.0000   1.0000   1.0000   1.0000
     1.0000   1.0000   1.0000   1.0000   1.0000   1.0000   1.0000   1.0000
     1.0000   1.0000   1.0000   1.0000   1.0000   1.0000   1.0000   1.0000
     1.0000   1.0000   1.0000   1.0000   1.0000   1.0000   1.0000   1.0000
     1.0000   1.0000   1.0000   1.0000   1.0000   1.0000   1.0000   1.0000
     1.0000   1.0000   1.0000   1.0000   1.0000   1.0000   1.0000   1.0000
     1.0000   1.0000   1.0000   1.0000   1.0000   1.0000   1.0000   1.0000
     1.0000   1.0000   1.0000   1.0000   1.0000   1.0000   1.0000   1.0000
     1.0000   1.0000   1.0000   1.0000   1.0000   1.0000   1.0000   1.0000
     1.0000   1.0000   1.0000   1.0000   1.0000   1.0000   1.0000   1.0000
     1.0000   1.0000   1.0000   1.0000   1.0000   1.0000   1.0000   1.0000
     1.0000   1.0000   1.0000   1.0000   1.0000   1.0000   1.0000   1.0000
     0.0000   0.0000   0.0000   0.0000   0.0000   0.0000   0.0000   0.0000
     0.0000   0.0000

          k = 0.0000 0.2470 0.9661 ( 37706 PWs)   bands (ev):

   -85.5916 -85.5525 -85.4718 -85.4425 -51.6991 -51.6909 -51.6900 -51.6756
   -51.5709 -51.5422 -51.4954 -51.4309 -51.4142 -51.3772 -51.2956 -51.2521
   -45.1172 -17.1981 -17.1110 -17.1010 -16.3116 -16.1485 -16.1349 -16.0106
   -14.2167 -14.1511 -13.9968 -13.9629 -13.9280 -13.8738 -13.6901 -13.5941
   -13.5503 -13.5157 -13.4703 -13.4260  -4.3723  -4.1949  -3.8153  -3.6194
    -2.4175  -2.2355  -1.9858  -1.9090  -1.7395  -1.6467  -1.5003  -1.3747
    -1.2666  -1.2042  -1.1399  -1.0837  -0.6050  -0.3709  -0.0553  -0.0009
     0.0675   0.1228   0.2109   0.3350   0.5051   0.5427   0.5733   0.6767
     0.8234   0.8440   0.9010   0.9749   1.0779   1.1426   1.2867   1.4297
     1.5032   1.5837   1.6634   1.7423   1.9208   1.9433   2.0123   2.1057
     2.1960   2.2257   2.3134   2.3836   2.4757   2.6739   2.8076   2.8710
     2.9418   3.0116   3.1490   3.2621   3.3399   3.4434   3.4842   3.5859
     3.6267   3.6737   3.7789   3.9320   3.9885   4.1454   4.3461   4.4537
    10.0107  10.6381  10.9584  11.3327  11.3964  12.0797  12.2084  12.3771
    12.4567  12.5955

     occupation numbers 
     1.0000   1.0000   1.0000   1.0000   1.0000   1.0000   1.0000   1.0000
     1.0000   1.0000   1.0000   1.0000   1.0000   1.0000   1.0000   1.0000
     1.0000   1.0000   1.0000   1.0000   1.0000   1.0000   1.0000   1.0000
     1.0000   1.0000   1.0000   1.0000   1.0000   1.0000   1.0000   1.0000
     1.0000   1.0000   1.0000   1.0000   1.0000   1.0000   1.0000   1.0000
     1.0000   1.0000   1.0000   1.0000   1.0000   1.0000   1.0000   1.0000
     1.0000   1.0000   1.0000   1.0000   1.0000   1.0000   1.0000   1.0000
     1.0000   1.0000   1.0000   1.0000   1.0000   1.0000   1.0000   1.0000
     1.0000   1.0000   1.0000   1.0000   1.0000   1.0000   1.0000   1.0000
     1.0000   1.0000   1.0000   1.0000   1.0000   1.0000   1.0000   1.0000
     1.0000   1.0000   1.0000   1.0000   1.0000   1.0000   1.0000   1.0000
     1.0000   1.0000   1.0000   1.0000   1.0000   1.0000   1.0000   1.0000
     1.0000   1.0000   1.0000   1.0000   1.0000   1.0000   1.0000   1.0000
     0.0000   0.0000   0.0000   0.0000   0.0000   0.0000   0.0000   0.0000
     0.0000   0.0000

          k = 0.0000 0.4940 0.0000 ( 37685 PWs)   bands (ev):

   -85.5916 -85.5525 -85.4718 -85.4425 -51.6991 -51.6909 -51.6900 -51.6756
   -51.5709 -51.5422 -51.4954 -51.4309 -51.4142 -51.3772 -51.2956 -51.2521
   -45.1172 -17.2117 -17.1155 -17.0850 -16.3846 -16.2444 -16.1790 -16.0220
   -14.1520 -14.0345 -13.9842 -13.9418 -13.9030 -13.8305 -13.6757 -13.5831
   -13.5357 -13.5065 -13.4287 -13.3890  -4.5204  -4.2157  -3.8713  -3.7458
    -2.4400  -2.3410  -2.0417  -1.9252  -1.7497  -1.6847  -1.5220  -1.3841
    -1.3649  -1.2327  -1.1490  -1.0185  -0.6130  -0.5219  -0.2767  -0.1885
     0.0282   0.0964   0.1220   0.2464   0.3809   0.4578   0.7151   0.7518
     0.8710   0.9436   0.9821   1.0885   1.2811   1.3335   1.3717   1.4603
     1.5787   1.6506   1.6817   1.7814   1.8416   1.9617   2.0366   2.1654
     2.2427   2.3462   2.3964   2.4795   2.5890   2.6273   2.7864   2.8883
     2.9344   3.0150   3.1623   3.2694   3.3430   3.3916   3.4784   3.5463
[...]
     atom    6 type  4   force =    -0.04539594    0.08434013    0.05924823
     atom    7 type  4   force =     0.01477471    0.00978343   -0.08072402
     atom    8 type  4   force =     0.04596038   -0.06430262   -0.05547927
     atom    9 type  4   force =    -0.02044246    0.00092005    0.07961258
     atom   10 type  3   force =    -0.61646545   -0.23180417   -1.01382869
     atom   11 type  3   force =    -0.02811330    0.22439853   -1.49517755
     atom   12 type  3   force =     0.57049665    0.29047047    1.02343760
     atom   13 type  3   force =     0.01130299   -0.22160630    1.49338545
     atom   14 type  3   force =     1.38646271   -0.21670987   -0.63417382
     atom   15 type  3   force =    -1.30164341    0.37804939   -0.05243465
     atom   16 type  3   force =    -1.41179187    0.21459629    0.58051778
     atom   17 type  3   force =     1.32990382   -0.47978632    0.12960484
     atom   18 type  3   force =    -0.16537412   -1.34278241    0.80719219
     atom   19 type  3   force =     0.66745525    0.63722541    0.93257056
     atom   20 type  3   force =     0.01946337   -1.56508865   -0.97506339
     atom   21 type  3   force =    -0.09897499    1.02486097   -0.59791246
     atom   22 type  3   force =     0.14571259    1.31719972   -0.88063968
     atom   23 type  3   force =    -0.65182207   -0.66261285   -0.90816109
     atom   24 type  3   force =     0.02246477    1.65658234    0.95667638
     atom   25 type  3   force =     0.13570064   -0.95396229    0.60350605
     The ionic contribution  to forces
     atom    1 type  2   force =    -1.25354377    2.83734406    1.97284629
     atom    2 type  1   force =    11.33264235    4.29844100   -1.09225625
     atom    3 type  1   force =     3.69054081  -10.48120881   -2.98175132
     atom    4 type  1   force =    -8.92525332   -5.20343093    1.38109631
     atom    5 type  1   force =    -4.80620354    9.45919389    1.93624108
     atom    6 type  4   force =    -2.17902983    2.45064318   -1.66560539
     atom    7 type  4   force =     4.25123511   -0.85971651    1.02529415
     atom    8 type  4   force =     2.08885690   -2.64541760    1.21213653
     atom    9 type  4   force =    -4.25318669    0.98511674   -1.13779936
     atom   10 type  3   force =     0.64221294    5.87798418   -0.71307802
     atom   11 type  3   force =     7.58092692   -3.69499180    2.52546358
     atom   12 type  3   force =     1.29844629   -7.49971471   -0.35413296
     atom   13 type  3   force =    -7.60431072    3.60147093   -2.45187884
     atom   14 type  3   force =     0.99017751    1.25469656    7.27884096
     atom   15 type  3   force =    -0.40391554   -3.31845865    2.52338622
     atom   16 type  3   force =    -0.67531169   -1.17700904   -6.84992038
     atom   17 type  3   force =    -0.35729520    4.90095340   -4.99350448
     atom   18 type  3   force =    -4.46202785    8.33590248    2.09935282
     atom   19 type  3   force =     3.01089318   -0.34061033   -3.78726004
     atom   20 type  3   force =     3.39958797    4.78274102    8.71842424
     atom   21 type  3   force =    -9.41981829   -0.97683000   -0.09264191
     atom   22 type  3   force =     4.47626075   -7.32572219    0.45243515
     atom   23 type  3   force =    -2.86312083    1.38783311    3.49210927
     atom   24 type  3   force =    -4.68696467   -6.77562662   -8.31149146
     atom   25 type  3   force =     9.12820121    0.12641666   -0.18630619
     The local contribution  to forces
     atom    1 type  2   force =     1.30934716   -2.84724796   -1.91673155
     atom    2 type  1   force =   -11.36228151   -4.18618275    1.24892280
     atom    3 type  1   force =    -3.68137354   10.62929470    2.82512403
     atom    4 type  1   force =     8.98403435    5.09945746   -1.52267524
     atom    5 type  1   force =     4.74227525   -9.63428266   -1.84561509
     atom    6 type  4   force =     2.18801683   -2.50887739    1.61833904
     atom    7 type  4   force =    -4.21660867    0.84284459   -0.95475214
     atom    8 type  4   force =    -2.09762647    2.68849509   -1.17369502
     atom    9 type  4   force =     4.22459884   -0.97766030    1.06591474
     atom   10 type  3   force =    -0.03945108   -5.65311754    1.70914953
     atom   11 type  3   force =    -7.55962086    3.47719776   -1.04728327
     atom   12 type  3   force =    -1.85926763    7.22289768   -0.65585023
     atom   13 type  3   force =     7.59810792   -3.38519901    0.97388774
     atom   14 type  3   force =    -2.30154747   -1.04670491   -6.66315641
     atom   15 type  3   force =     1.63799617    2.95372500   -2.47037551
     atom   16 type  3   force =     2.00932128    0.97125659    6.28477884
     atom   17 type  3   force =    -0.90353069   -4.43122565    4.85898855
     atom   18 type  3   force =     4.62717088   -7.01103996   -2.90196596
     atom   19 type  3   force =    -3.66233521   -0.28649752    2.86853284
     atom   20 type  3   force =    -3.42013648   -3.22875275   -7.75985629
     atom   21 type  3   force =     9.52041689   -0.03755403    0.68781943
     atom   22 type  3   force =    -4.62061766    6.02778861    0.41581994
     atom   23 type  3   force =     3.49943993   -0.73606300   -2.59927335
     atom   24 type  3   force =     4.66707473    5.13328580    7.36763881
     atom   25 type  3   force =    -9.26561351    0.81805955   -0.41650847
     The core correction contribution to forces
     atom    1 type  2   force =     0.00000000    0.00000000    0.00000000
     atom    2 type  1   force =    -0.00227581    0.00094541    0.00030052
     atom    3 type  1   force =     0.00094435   -0.00081994    0.00034348
     atom    4 type  1   force =     0.00247624   -0.00065717   -0.00017732
     atom    5 type  1   force =    -0.00139337    0.00054215   -0.00068913
     atom    6 type  4   force =     0.00555568   -0.00594817   -0.00408963
     atom    7 type  4   force =    -0.00287075   -0.00022197    0.00545117
     atom    8 type  4   force =    -0.00548091    0.00453401    0.00383761
     atom    9 type  4   force =     0.00328940   -0.00076644   -0.00528410
     atom   10 type  3   force =     0.00527086    0.00211258    0.00897430
     atom   11 type  3   force =     0.00107141   -0.00234778    0.01314592
     atom   12 type  3   force =    -0.00488746   -0.00264552   -0.00897737
     atom   13 type  3   force =    -0.00090727    0.00231124   -0.01306316
     atom   14 type  3   force =    -0.01284370    0.00208939    0.00645843
     atom   15 type  3   force =     0.01182064   -0.00378765    0.00099415
     atom   16 type  3   force =     0.01308889   -0.00208602   -0.00595025
     atom   17 type  3   force =    -0.01210888    0.00470281   -0.00155921
     atom   18 type  3   force =     0.00086645    0.01238790   -0.00693335
     atom   19 type  3   force =    -0.00603852   -0.00531137   -0.00853899
     atom   20 type  3   force =     0.00003630    0.01366876    0.00921720
     atom   21 type  3   force =     0.00071989   -0.00893088    0.00543193
     atom   22 type  3   force =    -0.00068134   -0.01212288    0.00768456
     atom   23 type  3   force =     0.00587049    0.00555561    0.00830296
     atom   24 type  3   force =    -0.00045953   -0.01454796   -0.00902834
     atom   25 type  3   force =    -0.00109029    0.00831958   -0.00548027
     The Hubbard contrib.    to forces
     atom    1 type  2   force =     0.00000000    0.00000000    0.00000000
     atom    2 type  1   force =     0.00000000    0.00000000    0.00000000
     atom    3 type  1   force =     0.00000000    0.00000000    0.00000000
     atom    4 type  1   force =     0.00000000    0.00000000    0.00000000
     atom    5 type  1   force =     0.00000000    0.00000000    0.00000000
     atom    6 type  4   force =     0.00000000    0.00000000    0.00000000
     atom    7 type  4   force =     0.00000000    0.00000000    0.00000000
     atom    8 type  4   force =     0.00000000    0.00000000    0.00000000
     atom    9 type  4   force =     0.00000000    0.00000000    0.00000000
     atom   10 type  3   force =     0.00000000    0.00000000    0.00000000
     atom   11 type  3   force =     0.00000000    0.00000000    0.00000000
     atom   12 type  3   force =     0.00000000    0.00000000    0.00000000
     atom   13 type  3   force =     0.00000000    0.00000000    0.00000000
     atom   14 type  3   force =     0.00000000    0.00000000    0.00000000
     atom   15 type  3   force =     0.00000000    0.00000000    0.00000000
     atom   16 type  3   force =     0.00000000    0.00000000    0.00000000
     atom   17 type  3   force =     0.00000000    0.00000000    0.00000000
     atom   18 type  3   force =     0.00000000    0.00000000    0.00000000
     atom   19 type  3   force =     0.00000000    0.00000000    0.00000000
     atom   20 type  3   force =     0.00000000    0.00000000    0.00000000
     atom   21 type  3   force =     0.00000000    0.00000000    0.00000000
     atom   22 type  3   force =     0.00000000    0.00000000    0.00000000
     atom   23 type  3   force =     0.00000000    0.00000000    0.00000000
     atom   24 type  3   force =     0.00000000    0.00000000    0.00000000
     atom   25 type  3   force =     0.00000000    0.00000000    0.00000000
     The SCF correction term to forces
     atom    1 type  2   force =     0.00000166    0.00000180   -0.00000027
     atom    2 type  1   force =    -0.00000027   -0.00000285   -0.00000265
     atom    3 type  1   force =     0.00000200   -0.00000201    0.00000101
     atom    4 type  1   force =    -0.00000203    0.00000039    0.00000085
     atom    5 type  1   force =    -0.00000126    0.00000170   -0.00000115
     atom    6 type  4   force =     0.00000090   -0.00000157    0.00000070
     atom    7 type  4   force =    -0.00000139    0.00000064   -0.00000037
     atom    8 type  4   force =     0.00000138   -0.00000009   -0.00000017
     atom    9 type  4   force =    -0.00000039   -0.00000015   -0.00000002
     atom   10 type  3   force =     0.00000104   -0.00000438   -0.00000067
     atom   11 type  3   force =    -0.00000415    0.00000180    0.00000366
     atom   12 type  3   force =     0.00000123   -0.00000027    0.00000042
     atom   13 type  3   force =    -0.00000109    0.00000008    0.00000035
     atom   14 type  3   force =     0.00000108   -0.00000026    0.00000085
     atom   15 type  3   force =     0.00000546    0.00000047   -0.00000183
     atom   16 type  3   force =    -0.00000181    0.00000017   -0.00000028
     atom   17 type  3   force =     0.00000079   -0.00000010   -0.00000007
     atom   18 type  3   force =    -0.00000068    0.00000076    0.00000064
     atom   19 type  3   force =    -0.00000191    0.00000458   -0.00000222
     atom   20 type  3   force =     0.00000101   -0.00000013    0.00000031
     atom   21 type  3   force =    -0.00000155    0.00000091   -0.00000031
     atom   22 type  3   force =     0.00000153   -0.00000003   -0.00000046
     atom   23 type  3   force =    -0.00000102   -0.00000096   -0.00000028
     atom   24 type  3   force =     0.00000373   -0.00000261    0.00000333
     atom   25 type  3   force =    -0.00000296   -0.00000323   -0.00000317

     Total force =     0.160318     Total SCF correction =     0.000016


     Computing stress (Cartesian axis) and pressure


     negative rho (up, down):  0.000E+00 9.255E-04
          total   stress  (Ry/bohr**3)                   (kbar)     P=      -38.48
  -0.00089854   0.00015955  -0.00000312         -132.18       23.47       -0.46
   0.00015955   0.00011008  -0.00003701           23.47       16.19       -5.45
  -0.00000312  -0.00003701   0.00000367           -0.46       -5.45        0.54

     kinetic stress (kbar)  25455.04     95.65    -46.56
                               95.65  25665.85     -2.49
                              -46.56     -2.49  25693.33

     local   stress (kbar)  -7995.20   3798.67  -8119.55
                             3798.67 -14804.42   -541.25
                            -8119.55   -541.25  -5295.66

     nonloc. stress (kbar)  -6501.83      8.06     -8.63
                                8.06  -6480.91     -9.87
                               -8.63     -9.87  -6473.51

     hartree stress (kbar)  13961.24  -1425.44   3419.23
                            -1425.44  17317.71    291.76
                             3419.23    291.76  13307.25

     exc-cor stress (kbar)  -2704.48     -3.34      3.41
                               -3.34  -2707.38     -0.91
                                3.41     -0.91  -2708.91

     corecor stress (kbar)  -3012.96      0.12     -0.27
                                0.12  -3014.52      1.45
                               -0.27      1.45  -3014.39

     ewald   stress (kbar) -19333.99  -2450.26   4751.90
                            -2450.26 -15960.14    255.86
                             4751.90    255.86 -21507.57

     hubbard stress (kbar)      0.00      0.00      0.00
                                0.00      0.00      0.00
                                0.00      0.00      0.00

     DFT-D   stress (kbar)      0.00      0.00      0.00
                                0.00      0.00      0.00
                                0.00      0.00      0.00

     XDM     stress (kbar)      0.00      0.00      0.00
                                0.00      0.00      0.00
                                0.00      0.00      0.00

     dft-nl  stress (kbar)      0.00      0.00      0.00
                                0.00      0.00      0.00
                                0.00      0.00      0.00

     TS-vdW  stress (kbar)      0.00      0.00      0.00
                                0.00      0.00      0.00
                                0.00      0.00      0.00



     init_run     :   1095.43s CPU   1359.50s WALL (       1 calls)
     electrons    :  85983.48s CPU  98750.50s WALL (       1 calls)
     forces       :    142.85s CPU    168.90s WALL (       1 calls)
     stress       :    653.29s CPU    759.22s WALL (       1 calls)

     Called by init_run:
     wfcinit      :   1079.33s CPU   1329.59s WALL (       1 calls)
     wfcinit:atom :      0.64s CPU      0.96s WALL (     316 calls)
     wfcinit:wfcr :   1074.21s CPU   1322.84s WALL (     316 calls)
     potinit      :      6.70s CPU     11.25s WALL (       1 calls)
     hinit0       :      6.14s CPU     11.80s WALL (       1 calls)

     Called by electrons:
     c_bands      :  71528.32s CPU  82158.34s WALL (      34 calls)
     sum_band     :  14216.32s CPU  16319.09s WALL (      34 calls)
     v_of_rho     :     85.72s CPU     98.67s WALL (      35 calls)
     v_h          :      7.97s CPU      9.02s WALL (      35 calls)
     v_xc         :     82.95s CPU     95.24s WALL (      37 calls)
     newd         :     57.58s CPU     67.45s WALL (      35 calls)
     PAW_pot      :     20.80s CPU     23.42s WALL (      35 calls)
     mix_rho      :     64.02s CPU     73.59s WALL (      34 calls)

     Called by c_bands:
     init_us_2    :     62.69s CPU     67.61s WALL (   22436 calls)
     cegterg      :  70734.52s CPU  81206.82s WALL (   10744 calls)

     Called by sum_band:
     sum_band:wei :      0.60s CPU      0.72s WALL (      34 calls)
     sum_band:loo :  14120.32s CPU  16206.19s WALL (      34 calls)
     sum_band:buf :     15.03s CPU     15.64s WALL (   10744 calls)
     sum_band:ini :     25.30s CPU     26.47s WALL (   10744 calls)
     sum_band:cal :    967.16s CPU   1120.46s WALL (   10744 calls)
     sum_band:bec :      2.52s CPU      2.53s WALL (   10744 calls)
     addusdens    :     77.66s CPU     91.39s WALL (      34 calls)
     addusd:skk   :      0.63s CPU      0.71s WALL (     102 calls)
     addusd:dgemm :      5.98s CPU      9.50s WALL (     204 calls)
     addusd:qvan2 :     70.39s CPU     80.25s WALL (     204 calls)

     Called by *egterg:
     cdiaghg      :   1253.98s CPU   1464.66s WALL (   39533 calls)
     cegterg:over :   4000.87s CPU   4588.28s WALL (   28789 calls)
     cegterg:upda :    169.74s CPU    183.75s WALL (   28789 calls)
     cegterg:last :    333.57s CPU    375.40s WALL (   17678 calls)
     h_psi        :  62331.45s CPU  71649.77s WALL (   39849 calls)
     s_psi        :    357.71s CPU    419.26s WALL (   39849 calls)
     g_psi        :     18.10s CPU     22.93s WALL (   28789 calls)

     Called by h_psi:
     h_psi:calbec :   3082.37s CPU   3566.61s WALL (   39849 calls)
     vloc_psi     :  58830.26s CPU  67596.00s WALL (   39849 calls)
     add_vuspsi   :    377.43s CPU    441.34s WALL (   39849 calls)

     General routines
     calbec       :   4298.85s CPU   4974.20s WALL (   52173 calls)
     fft          :    132.40s CPU    152.44s WALL (     913 calls)
     ffts         :      2.07s CPU      2.38s WALL (     138 calls)
     fftw         :  71260.79s CPU  81948.65s WALL ( 6644962 calls)
     interpolate  :     10.24s CPU     11.95s WALL (      70 calls)

     Parallel routines
     fft_scatt_xy :    289.89s CPU    293.16s WALL ( 6646013 calls)
     fft_scatt_yz :  69842.61s CPU  80533.59s WALL ( 6646013 calls)

     PAW routines
     PAW_pot      :     20.80s CPU     23.42s WALL (      35 calls)

     PWSCF        :   1d 0h24m CPU   1d 4h 4m WALL


   This run was terminated on:   7: 0:12   2Feb2023            

=------------------------------------------------------------------------------=
   JOB DONE.
=------------------------------------------------------------------------------=
Note: The following floating-point exceptions are signalling: IEEE_DENORMAL
Note: The following floating-point exceptions are signalling: IEEE_DENORMAL
Note: The following floating-point exceptions are signalling: IEEE_DENORMAL
Note: The following floating-point exceptions are signalling: IEEE_DENORMAL
Note: The following floating-point exceptions are signalling: IEEE_DENORMAL
Note: The following floating-point exceptions are signalling: IEEE_DENORMAL
Note: The following floating-point exceptions are signalling: IEEE_DENORMAL
Note: The following floating-point exceptions are signalling: IEEE_DENORMAL
Note: The following floating-point exceptions are signalling: IEEE_DENORMAL
Note: The following floating-point exceptions are signalling: IEEE_INVALID_FLAG IEEE_DENORMAL
Note: The following floating-point exceptions are signalling: IEEE_DENORMAL
Note: The following floating-point exceptions are signalling: IEEE_INVALID_FLAG IEEE_DENORMAL
Note: The following floating-point exceptions are signalling: IEEE_INVALID_FLAG IEEE_DENORMAL
Note: The following floating-point exceptions are signalling: IEEE_INVALID_FLAG IEEE_DENORMAL
Note: The following floating-point exceptions are signalling: IEEE_DENORMAL
Note: The following floating-point exceptions are signalling: IEEE_DENORMAL
Note: The following floating-point exceptions are signalling: IEEE_UNDERFLOW_FLAG IEEE_DENORMAL
Note: The following floating-point exceptions are signalling: IEEE_DENORMAL
Note: The following floating-point exceptions are signalling: IEEE_DENORMAL
Note: The following floating-point exceptions are signalling: IEEE_DENORMAL
Note: The following floating-point exceptions are signalling: IEEE_DENORMAL
Note: The following floating-point exceptions are signalling: IEEE_DENORMAL
Note: The following floating-point exceptions are signalling: IEEE_INVALID_FLAG IEEE_DENORMAL
Note: The following floating-point exceptions are signalling: IEEE_DENORMAL
Note: The following floating-point exceptions are signalling: IEEE_DENORMAL
Note: The following floating-point exceptions are signalling: IEEE_DENORMAL
Note: The following floating-point exceptions are signalling: IEEE_DENORMAL
Note: The following floating-point exceptions are signalling: IEEE_DENORMAL
Note: The following floating-point exceptions are signalling: IEEE_DENORMAL
Note: The following floating-point exceptions are signalling: IEEE_DENORMAL
Note: The following floating-point exceptions are signalling: IEEE_DENORMAL
