
     Program PWSCF v.6.7MaX starts on 15Jan2023 at 18:51:51 

     This program is part of the open-source Quantum ESPRESSO suite
     for quantum simulation of materials; please cite
         "P. Giannozzi et al., J. Phys.:Condens. Matter 21 395502 (2009);
         "P. Giannozzi et al., J. Phys.:Condens. Matter 29 465901 (2017);
          URL http://www.quantum-espresso.org", 
     in publications or presentations arising from this work. More details at
     http://www.quantum-espresso.org/quote

     Parallel version (MPI), running on    16 processors

     MPI processes distributed on     1 nodes
     R & G space division:  proc/nbgrp/npool/nimage =      16
     Reading input from scale_2dab-01.in

     Current dimensions of program PWSCF are:
     Max number of different atomic species (ntypx) = 10
     Max number of k-points (npk) =  40000
     Max angular momentum in pseudopotentials (lmaxx) =  3
     Message from routine read_pp_mesh:
     mesh size missing, using the one in header
     file Fe.pbe-spn-kjpaw_psl.0.2.1.UPF: wavefunction(s)  3D renormalized
     file O.pbe-n-kjpaw_psl.0.1.UPF: wavefunction(s)  2P renormalized

     Subspace diagonalization in iterative solution of the eigenvalue problem:
     a serial algorithm will be used


     Parallelization info
     --------------------
     sticks:   dense  smooth     PW     G-vecs:    dense   smooth      PW
     Min        1159     430    116                75626    17048    2402
     Max        1161     431    117                75627    17051    2404
     Sum       18565    6893   1859              1210029   272791   38441



     bravais-lattice index     =            0
     lattice parameter (alat)  =      19.0096  a.u.
     unit-cell volume          =    2018.7343 (a.u.)^3
     number of atoms/cell      =           25
     number of atomic types    =            4
     number of electrons       =       189.00
     number of Kohn-Sham states=          114
     kinetic-energy cutoff     =     100.0000  Ry
     charge density cutoff     =    1080.0000  Ry
     scf convergence threshold =      2.0E-10
     mixing beta               =       0.4000
     number of iterations used =            8  plain     mixing
     Exchange-correlation= PBE
                           (   1   4   3   4   0   0   0)

     celldm(1)=  19.009555  celldm(2)=   0.000000  celldm(3)=   0.000000
     celldm(4)=   0.000000  celldm(5)=   0.000000  celldm(6)=   0.000000

     crystal axes: (cart. coord. in units of alat)
               a(1) = (   1.000000   0.000000   0.000000 )  
               a(2) = (   0.000000   0.597590   0.000000 )  
               a(3) = (   0.000000   0.000000   0.491768 )  

     reciprocal axes: (cart. coord. in units 2 pi/alat)
               b(1) = (  1.000000  0.000000  0.000000 )  
               b(2) = (  0.000000  1.673388  0.000000 )  
               b(3) = (  0.000000  0.000000  2.033480 )  


     PseudoPot. # 1 for Fe read from file:
     /opt/QEpot/SSSP_precision_pseudos/Fe.pbe-spn-kjpaw_psl.0.2.1.UPF
     MD5 check sum: e86618425769142926afa95317d90200
     Pseudo is Projector augmented-wave + core cor, Zval = 16.0
     Generated using "atomic" code by A. Dal Corso  v.5.0.99 svn rev. 10869
     Shape of augmentation charge: PSQ
     Using radial grid of 1191 points,  6 beta functions with: 
                l(1) =   0
                l(2) =   0
                l(3) =   1
                l(4) =   1
                l(5) =   2
                l(6) =   2
     Q(r) pseudized with 0 coefficients 


     PseudoPot. # 2 for Na read from file:
     /opt/QEpot/SSSP_precision_pseudos/Na_ONCV_PBE-1.0.oncvpsp.upf
     MD5 check sum: 24a298df0a6742ae313db96548fdb2a4
     Pseudo is Norm-conserving, Zval =  9.0
     Generated using ONCVPSP code by D. R. Hamann
     Using radial grid of 1992 points,  4 beta functions with: 
                l(1) =   0
                l(2) =   0
                l(3) =   1
                l(4) =   1

     PseudoPot. # 3 for O  read from file:
     /opt/QEpot/SSSP_precision_pseudos/O.pbe-n-kjpaw_psl.0.1.UPF
     MD5 check sum: 0234752ac141de4415c5fc33072bef88
     Pseudo is Projector augmented-wave + core cor, Zval =  6.0
     Generated using "atomic" code by A. Dal Corso  v.5.0.99 svn rev. 10869
     Shape of augmentation charge: BESSEL
     Using radial grid of 1095 points,  4 beta functions with: 
                l(1) =   0
                l(2) =   0
                l(3) =   1
                l(4) =   1
     Q(r) pseudized with 0 coefficients 


     PseudoPot. # 4 for P  read from file:
     /opt/QEpot/SSSP_precision_pseudos/P.pbe-n-rrkjus_psl.1.0.0.UPF
     MD5 check sum: 8b930f418f0a4573dca56cd030ffe088
     Pseudo is Ultrasoft + core correction, Zval =  5.0
     Generated using "atomic" code by A. Dal Corso  v.5.1
     Using radial grid of 1147 points,  6 beta functions with: 
                l(1) =   0
                l(2) =   0
                l(3) =   1
                l(4) =   1
                l(5) =   2
                l(6) =   2
     Q(r) pseudized with 0 coefficients 


     atomic species   valence    mass     pseudopotential
        Fe            16.00    55.84500     Fe( 1.00)
        Na             9.00    22.98977     Na( 1.00)
        O              6.00    15.99940     O ( 1.00)
        P              5.00    30.97376     P ( 1.00)

     Starting magnetic structure 
     atomic species   magnetization
        Fe           0.312
        Na           0.000
        O            0.000
        P            0.000

     No symmetry found


                                    s                        frac. trans.

      isym =  1     identity                                     

 cryst.   s( 1) = (     1          0          0      )
                  (     0          1          0      )
                  (     0          0          1      )

 cart.    s( 1) = (  1.0000000  0.0000000  0.0000000 )
                  (  0.0000000  1.0000000  0.0000000 )
                  (  0.0000000  0.0000000  1.0000000 )


   Cartesian axes

     site n.     atom                  positions (alat units)
         1           Na  tau(   1) = (   0.0062130   0.5589946   0.3310089  )
         2           Fe  tau(   2) = (   0.3024540   0.4615785   0.4171877  )
         3           Fe  tau(   3) = (   0.2226710   0.2028125   0.2448453  )
         4           Fe  tau(   4) = (   0.7013320   0.1357252   0.0696087  )
         5           Fe  tau(   5) = (   0.7738600   0.3969605   0.2372858  )
         6           P   tau(   6) = (   0.0926260   0.3991805   0.1293570  )
         7           P   tau(   7) = (   0.3962170   0.1502998   0.4621515  )
         8           P   tau(   8) = (   0.9068620   0.2055130   0.3528148  )
         9           P   tau(   9) = (   0.6031040   0.4475943   0.0243155  )
        10           O   tau(  10) = (   0.1770480   0.4126729   0.2604604  )
        11           O   tau(  11) = (   0.3555840   0.1507863   0.1173653  )
        12           O   tau(  12) = (   0.8203270   0.1944755   0.2237735  )
        13           O   tau(  13) = (   0.6432920   0.4477502   0.3692133  )
        14           O   tau(  14) = (   0.4570760   0.4637854   0.0403545  )
        15           O   tau(  15) = (   0.0482830   0.1673598   0.3276767  )
        16           O   tau(  16) = (   0.5424170   0.1341864   0.4481027  )
        17           O   tau(  17) = (   0.9514120   0.4382384   0.1557453  )
        18           O   tau(  18) = (   0.1482380   0.4961150   0.0266514  )
        19           O   tau(  19) = (   0.3208110   0.0482100   0.3751268  )
        20           O   tau(  20) = (   0.8859830   0.3464032   0.3962448  )
        21           O   tau(  21) = (   0.6517160   0.3224966   0.0999066  )
        22           O   tau(  22) = (   0.8510480   0.1052200   0.4523216  )
        23           O   tau(  23) = (   0.6793830   0.5490411   0.1115964  )
        24           O   tau(  24) = (   0.1159970   0.2583363   0.0884641  )
        25           O   tau(  25) = (   0.3461160   0.2749679   0.3855513  )

   Crystallographic axes

     site n.     atom                  positions (cryst. coord.)
         1           Na  tau(   1) = (  0.0062130  0.9354150  0.6731000  )
         2           Fe  tau(   2) = (  0.3024540  0.7724000  0.8483430  )
         3           Fe  tau(   3) = (  0.2226710  0.3393840  0.4978880  )
         4           Fe  tau(   4) = (  0.7013320  0.2271210  0.1415480  )
         5           Fe  tau(   5) = (  0.7738600  0.6642690  0.4825160  )
         6           P   tau(   6) = (  0.0926260  0.6679840  0.2630450  )
         7           P   tau(   7) = (  0.3962170  0.2515100  0.9397760  )
         8           P   tau(   8) = (  0.9068620  0.3439030  0.7174420  )
         9           P   tau(   9) = (  0.6031040  0.7489990  0.0494450  )
        10           O   tau(  10) = (  0.1770480  0.6905620  0.5296410  )
        11           O   tau(  11) = (  0.3555840  0.2523240  0.2386600  )
        12           O   tau(  12) = (  0.8203270  0.3254330  0.4550390  )
        13           O   tau(  13) = (  0.6432920  0.7492600  0.7507880  )
        14           O   tau(  14) = (  0.4570760  0.7760930  0.0820600  )
        15           O   tau(  15) = (  0.0482830  0.2800580  0.6663240  )
        16           O   tau(  16) = (  0.5424170  0.2245460  0.9112080  )
        17           O   tau(  17) = (  0.9514120  0.7333430  0.3167050  )
        18           O   tau(  18) = (  0.1482380  0.8301930  0.0541950  )
        19           O   tau(  19) = (  0.3208110  0.0806740  0.7628130  )
        20           O   tau(  20) = (  0.8859830  0.5796670  0.8057560  )
        21           O   tau(  21) = (  0.6517160  0.5396620  0.2031580  )
        22           O   tau(  22) = (  0.8510480  0.1760740  0.9197870  )
        23           O   tau(  23) = (  0.6793830  0.9187590  0.2269290  )
        24           O   tau(  24) = (  0.1159970  0.4322970  0.1798900  )
        25           O   tau(  25) = (  0.3461160  0.4601280  0.7840110  )

     number of k points=   158  Marzari-Vanderbilt smearing, width (Ry)=  0.0073
                       cart. coord. in units 2pi/alat
        k(    1) = (   0.0000000   0.0000000   0.0000000), wk =   0.0031746
        k(    2) = (   0.0000000   0.0000000   0.2259422), wk =   0.0063492
        k(    3) = (   0.0000000   0.0000000   0.4518845), wk =   0.0063492
        k(    4) = (   0.0000000   0.0000000   0.6778267), wk =   0.0063492
        k(    5) = (   0.0000000   0.0000000   0.9037690), wk =   0.0063492
        k(    6) = (   0.0000000   0.2390555   0.0000000), wk =   0.0063492
        k(    7) = (   0.0000000   0.2390555   0.2259422), wk =   0.0063492
        k(    8) = (   0.0000000   0.2390555   0.4518845), wk =   0.0063492
        k(    9) = (   0.0000000   0.2390555   0.6778267), wk =   0.0063492
        k(   10) = (   0.0000000   0.2390555   0.9037690), wk =   0.0063492
        k(   11) = (   0.0000000   0.4781110   0.0000000), wk =   0.0063492
        k(   12) = (   0.0000000   0.4781110   0.2259422), wk =   0.0063492
        k(   13) = (   0.0000000   0.4781110   0.4518845), wk =   0.0063492
        k(   14) = (   0.0000000   0.4781110   0.6778267), wk =   0.0063492
        k(   15) = (   0.0000000   0.4781110   0.9037690), wk =   0.0063492
        k(   16) = (   0.0000000   0.7171664   0.0000000), wk =   0.0063492
        k(   17) = (   0.0000000   0.7171664   0.2259422), wk =   0.0063492
        k(   18) = (   0.0000000   0.7171664   0.4518845), wk =   0.0063492
        k(   19) = (   0.0000000   0.7171664   0.6778267), wk =   0.0063492
        k(   20) = (   0.0000000   0.7171664   0.9037690), wk =   0.0063492
        k(   21) = (   0.2000000   0.0000000   0.0000000), wk =   0.0063492
        k(   22) = (   0.2000000   0.0000000   0.2259422), wk =   0.0063492
        k(   23) = (   0.2000000   0.0000000   0.4518845), wk =   0.0063492
        k(   24) = (   0.2000000   0.0000000   0.6778267), wk =   0.0063492
        k(   25) = (   0.2000000   0.0000000   0.9037690), wk =   0.0063492
        k(   26) = (   0.2000000   0.2390555   0.0000000), wk =   0.0063492
        k(   27) = (   0.2000000   0.2390555   0.2259422), wk =   0.0063492
        k(   28) = (   0.2000000   0.2390555   0.4518845), wk =   0.0063492
        k(   29) = (   0.2000000   0.2390555   0.6778267), wk =   0.0063492
        k(   30) = (   0.2000000   0.2390555   0.9037690), wk =   0.0063492
        k(   31) = (   0.2000000   0.4781110   0.0000000), wk =   0.0063492
        k(   32) = (   0.2000000   0.4781110   0.2259422), wk =   0.0063492
        k(   33) = (   0.2000000   0.4781110   0.4518845), wk =   0.0063492
        k(   34) = (   0.2000000   0.4781110   0.6778267), wk =   0.0063492
        k(   35) = (   0.2000000   0.4781110   0.9037690), wk =   0.0063492
        k(   36) = (   0.2000000   0.7171664   0.0000000), wk =   0.0063492
        k(   37) = (   0.2000000   0.7171664   0.2259422), wk =   0.0063492
        k(   38) = (   0.2000000   0.7171664   0.4518845), wk =   0.0063492
        k(   39) = (   0.2000000   0.7171664   0.6778267), wk =   0.0063492
        k(   40) = (   0.2000000   0.7171664   0.9037690), wk =   0.0063492
        k(   41) = (   0.4000000   0.0000000   0.0000000), wk =   0.0063492
        k(   42) = (   0.4000000   0.0000000   0.2259422), wk =   0.0063492
        k(   43) = (   0.4000000   0.0000000   0.4518845), wk =   0.0063492
        k(   44) = (   0.4000000   0.0000000   0.6778267), wk =   0.0063492
        k(   45) = (   0.4000000   0.0000000   0.9037690), wk =   0.0063492
        k(   46) = (   0.4000000   0.2390555   0.0000000), wk =   0.0063492
        k(   47) = (   0.4000000   0.2390555   0.2259422), wk =   0.0063492
        k(   48) = (   0.4000000   0.2390555   0.4518845), wk =   0.0063492
        k(   49) = (   0.4000000   0.2390555   0.6778267), wk =   0.0063492
        k(   50) = (   0.4000000   0.2390555   0.9037690), wk =   0.0063492
        k(   51) = (   0.4000000   0.4781110   0.0000000), wk =   0.0063492
        k(   52) = (   0.4000000   0.4781110   0.2259422), wk =   0.0063492
        k(   53) = (   0.4000000   0.4781110   0.4518845), wk =   0.0063492
        k(   54) = (   0.4000000   0.4781110   0.6778267), wk =   0.0063492
        k(   55) = (   0.4000000   0.4781110   0.9037690), wk =   0.0063492
        k(   56) = (   0.4000000   0.7171664   0.0000000), wk =   0.0063492
        k(   57) = (   0.4000000   0.7171664   0.2259422), wk =   0.0063492
        k(   58) = (   0.4000000   0.7171664   0.4518845), wk =   0.0063492
        k(   59) = (   0.4000000   0.7171664   0.6778267), wk =   0.0063492
        k(   60) = (   0.4000000   0.7171664   0.9037690), wk =   0.0063492
        k(   61) = (   0.0000000  -0.2390555   0.2259422), wk =   0.0063492
        k(   62) = (   0.0000000  -0.2390555   0.4518845), wk =   0.0063492
        k(   63) = (   0.0000000  -0.2390555   0.6778267), wk =   0.0063492
        k(   64) = (   0.0000000  -0.2390555   0.9037690), wk =   0.0063492
        k(   65) = (   0.0000000  -0.4781110   0.2259422), wk =   0.0063492
        k(   66) = (   0.0000000  -0.4781110   0.4518845), wk =   0.0063492
        k(   67) = (   0.0000000  -0.4781110   0.6778267), wk =   0.0063492
        k(   68) = (   0.0000000  -0.4781110   0.9037690), wk =   0.0063492
        k(   69) = (   0.0000000  -0.7171664   0.2259422), wk =   0.0063492
        k(   70) = (   0.0000000  -0.7171664   0.4518845), wk =   0.0063492
        k(   71) = (   0.0000000  -0.7171664   0.6778267), wk =   0.0063492
        k(   72) = (   0.0000000  -0.7171664   0.9037690), wk =   0.0063492
        k(   73) = (  -0.2000000   0.0000000   0.2259422), wk =   0.0063492
        k(   74) = (  -0.2000000   0.0000000   0.4518845), wk =   0.0063492
        k(   75) = (  -0.2000000   0.0000000   0.6778267), wk =   0.0063492
        k(   76) = (  -0.2000000   0.0000000   0.9037690), wk =   0.0063492
        k(   77) = (  -0.2000000   0.2390555   0.0000000), wk =   0.0063492
        k(   78) = (  -0.2000000  -0.2390555   0.2259422), wk =   0.0063492
        k(   79) = (  -0.2000000   0.2390555  -0.2259422), wk =   0.0063492
        k(   80) = (   0.2000000  -0.2390555  -0.2259422), wk =   0.0063492
        k(   81) = (  -0.2000000  -0.2390555   0.4518845), wk =   0.0063492
        k(   82) = (  -0.2000000   0.2390555  -0.4518845), wk =   0.0063492
        k(   83) = (   0.2000000  -0.2390555  -0.4518845), wk =   0.0063492
        k(   84) = (  -0.2000000  -0.2390555   0.6778267), wk =   0.0063492
        k(   85) = (  -0.2000000   0.2390555  -0.6778267), wk =   0.0063492
        k(   86) = (   0.2000000  -0.2390555  -0.6778267), wk =   0.0063492
        k(   87) = (  -0.2000000  -0.2390555   0.9037690), wk =   0.0063492
        k(   88) = (  -0.2000000   0.2390555  -0.9037690), wk =   0.0063492
        k(   89) = (   0.2000000  -0.2390555  -0.9037690), wk =   0.0063492
        k(   90) = (  -0.2000000   0.4781110   0.0000000), wk =   0.0063492
        k(   91) = (  -0.2000000  -0.4781110   0.2259422), wk =   0.0063492
        k(   92) = (  -0.2000000   0.4781110  -0.2259422), wk =   0.0063492
        k(   93) = (   0.2000000  -0.4781110  -0.2259422), wk =   0.0063492
        k(   94) = (  -0.2000000  -0.4781110   0.4518845), wk =   0.0063492
        k(   95) = (  -0.2000000   0.4781110  -0.4518845), wk =   0.0063492
        k(   96) = (   0.2000000  -0.4781110  -0.4518845), wk =   0.0063492
        k(   97) = (  -0.2000000  -0.4781110   0.6778267), wk =   0.0063492
        k(   98) = (  -0.2000000   0.4781110  -0.6778267), wk =   0.0063492
        k(   99) = (   0.2000000  -0.4781110  -0.6778267), wk =   0.0063492
        k(  100) = (  -0.2000000  -0.4781110   0.9037690), wk =   0.0063492
        k(  101) = (  -0.2000000   0.4781110  -0.9037690), wk =   0.0063492
        k(  102) = (   0.2000000  -0.4781110  -0.9037690), wk =   0.0063492
        k(  103) = (  -0.2000000   0.7171664   0.0000000), wk =   0.0063492
        k(  104) = (  -0.2000000  -0.7171664   0.2259422), wk =   0.0063492
        k(  105) = (  -0.2000000   0.7171664  -0.2259422), wk =   0.0063492
        k(  106) = (   0.2000000  -0.7171664  -0.2259422), wk =   0.0063492
        k(  107) = (  -0.2000000  -0.7171664   0.4518845), wk =   0.0063492
        k(  108) = (  -0.2000000   0.7171664  -0.4518845), wk =   0.0063492
        k(  109) = (   0.2000000  -0.7171664  -0.4518845), wk =   0.0063492
        k(  110) = (  -0.2000000  -0.7171664   0.6778267), wk =   0.0063492
        k(  111) = (  -0.2000000   0.7171664  -0.6778267), wk =   0.0063492
        k(  112) = (   0.2000000  -0.7171664  -0.6778267), wk =   0.0063492
        k(  113) = (  -0.2000000  -0.7171664   0.9037690), wk =   0.0063492
        k(  114) = (  -0.2000000   0.7171664  -0.9037690), wk =   0.0063492
        k(  115) = (   0.2000000  -0.7171664  -0.9037690), wk =   0.0063492
        k(  116) = (  -0.4000000   0.0000000   0.2259422), wk =   0.0063492
        k(  117) = (  -0.4000000   0.0000000   0.4518845), wk =   0.0063492
        k(  118) = (  -0.4000000   0.0000000   0.6778267), wk =   0.0063492
        k(  119) = (  -0.4000000   0.0000000   0.9037690), wk =   0.0063492
        k(  120) = (  -0.4000000   0.2390555   0.0000000), wk =   0.0063492
        k(  121) = (  -0.4000000  -0.2390555   0.2259422), wk =   0.0063492
        k(  122) = (  -0.4000000   0.2390555  -0.2259422), wk =   0.0063492
        k(  123) = (   0.4000000  -0.2390555  -0.2259422), wk =   0.0063492
        k(  124) = (  -0.4000000  -0.2390555   0.4518845), wk =   0.0063492
        k(  125) = (  -0.4000000   0.2390555  -0.4518845), wk =   0.0063492
        k(  126) = (   0.4000000  -0.2390555  -0.4518845), wk =   0.0063492
        k(  127) = (  -0.4000000  -0.2390555   0.6778267), wk =   0.0063492
        k(  128) = (  -0.4000000   0.2390555  -0.6778267), wk =   0.0063492
        k(  129) = (   0.4000000  -0.2390555  -0.6778267), wk =   0.0063492
        k(  130) = (  -0.4000000  -0.2390555   0.9037690), wk =   0.0063492
        k(  131) = (  -0.4000000   0.2390555  -0.9037690), wk =   0.0063492
        k(  132) = (   0.4000000  -0.2390555  -0.9037690), wk =   0.0063492
        k(  133) = (  -0.4000000   0.4781110   0.0000000), wk =   0.0063492
        k(  134) = (  -0.4000000  -0.4781110   0.2259422), wk =   0.0063492
        k(  135) = (  -0.4000000   0.4781110  -0.2259422), wk =   0.0063492
        k(  136) = (   0.4000000  -0.4781110  -0.2259422), wk =   0.0063492
        k(  137) = (  -0.4000000  -0.4781110   0.4518845), wk =   0.0063492
        k(  138) = (  -0.4000000   0.4781110  -0.4518845), wk =   0.0063492
        k(  139) = (   0.4000000  -0.4781110  -0.4518845), wk =   0.0063492
        k(  140) = (  -0.4000000  -0.4781110   0.6778267), wk =   0.0063492
        k(  141) = (  -0.4000000   0.4781110  -0.6778267), wk =   0.0063492
        k(  142) = (   0.4000000  -0.4781110  -0.6778267), wk =   0.0063492
        k(  143) = (  -0.4000000  -0.4781110   0.9037690), wk =   0.0063492
        k(  144) = (  -0.4000000   0.4781110  -0.9037690), wk =   0.0063492
        k(  145) = (   0.4000000  -0.4781110  -0.9037690), wk =   0.0063492
        k(  146) = (  -0.4000000   0.7171664   0.0000000), wk =   0.0063492
        k(  147) = (  -0.4000000  -0.7171664   0.2259422), wk =   0.0063492
        k(  148) = (  -0.4000000   0.7171664  -0.2259422), wk =   0.0063492
        k(  149) = (   0.4000000  -0.7171664  -0.2259422), wk =   0.0063492
        k(  150) = (  -0.4000000  -0.7171664   0.4518845), wk =   0.0063492
        k(  151) = (  -0.4000000   0.7171664  -0.4518845), wk =   0.0063492
        k(  152) = (   0.4000000  -0.7171664  -0.4518845), wk =   0.0063492
        k(  153) = (  -0.4000000  -0.7171664   0.6778267), wk =   0.0063492
        k(  154) = (  -0.4000000   0.7171664  -0.6778267), wk =   0.0063492
        k(  155) = (   0.4000000  -0.7171664  -0.6778267), wk =   0.0063492
        k(  156) = (  -0.4000000  -0.7171664   0.9037690), wk =   0.0063492
        k(  157) = (  -0.4000000   0.7171664  -0.9037690), wk =   0.0063492
        k(  158) = (   0.4000000  -0.7171664  -0.9037690), wk =   0.0063492

                       cryst. coord.
        k(    1) = (   0.0000000   0.0000000   0.0000000), wk =   0.0031746
        k(    2) = (   0.0000000   0.0000000   0.1111111), wk =   0.0063492
        k(    3) = (   0.0000000   0.0000000   0.2222222), wk =   0.0063492
        k(    4) = (   0.0000000   0.0000000   0.3333333), wk =   0.0063492
        k(    5) = (   0.0000000   0.0000000   0.4444444), wk =   0.0063492
        k(    6) = (   0.0000000   0.1428571   0.0000000), wk =   0.0063492
        k(    7) = (   0.0000000   0.1428571   0.1111111), wk =   0.0063492
        k(    8) = (   0.0000000   0.1428571   0.2222222), wk =   0.0063492
        k(    9) = (   0.0000000   0.1428571   0.3333333), wk =   0.0063492
        k(   10) = (   0.0000000   0.1428571   0.4444444), wk =   0.0063492
        k(   11) = (   0.0000000   0.2857143   0.0000000), wk =   0.0063492
        k(   12) = (   0.0000000   0.2857143   0.1111111), wk =   0.0063492
        k(   13) = (   0.0000000   0.2857143   0.2222222), wk =   0.0063492
        k(   14) = (   0.0000000   0.2857143   0.3333333), wk =   0.0063492
        k(   15) = (   0.0000000   0.2857143   0.4444444), wk =   0.0063492
        k(   16) = (   0.0000000   0.4285714   0.0000000), wk =   0.0063492
        k(   17) = (   0.0000000   0.4285714   0.1111111), wk =   0.0063492
        k(   18) = (   0.0000000   0.4285714   0.2222222), wk =   0.0063492
        k(   19) = (   0.0000000   0.4285714   0.3333333), wk =   0.0063492
        k(   20) = (   0.0000000   0.4285714   0.4444444), wk =   0.0063492
        k(   21) = (   0.2000000   0.0000000   0.0000000), wk =   0.0063492
        k(   22) = (   0.2000000   0.0000000   0.1111111), wk =   0.0063492
        k(   23) = (   0.2000000   0.0000000   0.2222222), wk =   0.0063492
        k(   24) = (   0.2000000   0.0000000   0.3333333), wk =   0.0063492
        k(   25) = (   0.2000000   0.0000000   0.4444444), wk =   0.0063492
        k(   26) = (   0.2000000   0.1428571   0.0000000), wk =   0.0063492
        k(   27) = (   0.2000000   0.1428571   0.1111111), wk =   0.0063492
        k(   28) = (   0.2000000   0.1428571   0.2222222), wk =   0.0063492
        k(   29) = (   0.2000000   0.1428571   0.3333333), wk =   0.0063492
        k(   30) = (   0.2000000   0.1428571   0.4444444), wk =   0.0063492
        k(   31) = (   0.2000000   0.2857143   0.0000000), wk =   0.0063492
        k(   32) = (   0.2000000   0.2857143   0.1111111), wk =   0.0063492
        k(   33) = (   0.2000000   0.2857143   0.2222222), wk =   0.0063492
        k(   34) = (   0.2000000   0.2857143   0.3333333), wk =   0.0063492
        k(   35) = (   0.2000000   0.2857143   0.4444444), wk =   0.0063492
        k(   36) = (   0.2000000   0.4285714   0.0000000), wk =   0.0063492
        k(   37) = (   0.2000000   0.4285714   0.1111111), wk =   0.0063492
        k(   38) = (   0.2000000   0.4285714   0.2222222), wk =   0.0063492
        k(   39) = (   0.2000000   0.4285714   0.3333333), wk =   0.0063492
        k(   40) = (   0.2000000   0.4285714   0.4444444), wk =   0.0063492
        k(   41) = (   0.4000000   0.0000000   0.0000000), wk =   0.0063492
        k(   42) = (   0.4000000   0.0000000   0.1111111), wk =   0.0063492
        k(   43) = (   0.4000000   0.0000000   0.2222222), wk =   0.0063492
        k(   44) = (   0.4000000   0.0000000   0.3333333), wk =   0.0063492
        k(   45) = (   0.4000000   0.0000000   0.4444444), wk =   0.0063492
        k(   46) = (   0.4000000   0.1428571   0.0000000), wk =   0.0063492
        k(   47) = (   0.4000000   0.1428571   0.1111111), wk =   0.0063492
        k(   48) = (   0.4000000   0.1428571   0.2222222), wk =   0.0063492
        k(   49) = (   0.4000000   0.1428571   0.3333333), wk =   0.0063492
        k(   50) = (   0.4000000   0.1428571   0.4444444), wk =   0.0063492
        k(   51) = (   0.4000000   0.2857143   0.0000000), wk =   0.0063492
        k(   52) = (   0.4000000   0.2857143   0.1111111), wk =   0.0063492
        k(   53) = (   0.4000000   0.2857143   0.2222222), wk =   0.0063492
        k(   54) = (   0.4000000   0.2857143   0.3333333), wk =   0.0063492
        k(   55) = (   0.4000000   0.2857143   0.4444444), wk =   0.0063492
        k(   56) = (   0.4000000   0.4285714   0.0000000), wk =   0.0063492
        k(   57) = (   0.4000000   0.4285714   0.1111111), wk =   0.0063492
        k(   58) = (   0.4000000   0.4285714   0.2222222), wk =   0.0063492
        k(   59) = (   0.4000000   0.4285714   0.3333333), wk =   0.0063492
        k(   60) = (   0.4000000   0.4285714   0.4444444), wk =   0.0063492
        k(   61) = (   0.0000000  -0.1428571   0.1111111), wk =   0.0063492
        k(   62) = (   0.0000000  -0.1428571   0.2222222), wk =   0.0063492
        k(   63) = (   0.0000000  -0.1428571   0.3333333), wk =   0.0063492
        k(   64) = (   0.0000000  -0.1428571   0.4444444), wk =   0.0063492
        k(   65) = (   0.0000000  -0.2857143   0.1111111), wk =   0.0063492
        k(   66) = (   0.0000000  -0.2857143   0.2222222), wk =   0.0063492
        k(   67) = (   0.0000000  -0.2857143   0.3333333), wk =   0.0063492
        k(   68) = (   0.0000000  -0.2857143   0.4444444), wk =   0.0063492
        k(   69) = (   0.0000000  -0.4285714   0.1111111), wk =   0.0063492
        k(   70) = (   0.0000000  -0.4285714   0.2222222), wk =   0.0063492
        k(   71) = (   0.0000000  -0.4285714   0.3333333), wk =   0.0063492
        k(   72) = (   0.0000000  -0.4285714   0.4444444), wk =   0.0063492
        k(   73) = (  -0.2000000   0.0000000   0.1111111), wk =   0.0063492
        k(   74) = (  -0.2000000   0.0000000   0.2222222), wk =   0.0063492
        k(   75) = (  -0.2000000   0.0000000   0.3333333), wk =   0.0063492
        k(   76) = (  -0.2000000   0.0000000   0.4444444), wk =   0.0063492
        k(   77) = (  -0.2000000   0.1428571   0.0000000), wk =   0.0063492
        k(   78) = (  -0.2000000  -0.1428571   0.1111111), wk =   0.0063492
        k(   79) = (  -0.2000000   0.1428571  -0.1111111), wk =   0.0063492
        k(   80) = (   0.2000000  -0.1428571  -0.1111111), wk =   0.0063492
        k(   81) = (  -0.2000000  -0.1428571   0.2222222), wk =   0.0063492
        k(   82) = (  -0.2000000   0.1428571  -0.2222222), wk =   0.0063492
        k(   83) = (   0.2000000  -0.1428571  -0.2222222), wk =   0.0063492
        k(   84) = (  -0.2000000  -0.1428571   0.3333333), wk =   0.0063492
        k(   85) = (  -0.2000000   0.1428571  -0.3333333), wk =   0.0063492
        k(   86) = (   0.2000000  -0.1428571  -0.3333333), wk =   0.0063492
        k(   87) = (  -0.2000000  -0.1428571   0.4444444), wk =   0.0063492
        k(   88) = (  -0.2000000   0.1428571  -0.4444444), wk =   0.0063492
        k(   89) = (   0.2000000  -0.1428571  -0.4444444), wk =   0.0063492
        k(   90) = (  -0.2000000   0.2857143   0.0000000), wk =   0.0063492
        k(   91) = (  -0.2000000  -0.2857143   0.1111111), wk =   0.0063492
        k(   92) = (  -0.2000000   0.2857143  -0.1111111), wk =   0.0063492
        k(   93) = (   0.2000000  -0.2857143  -0.1111111), wk =   0.0063492
        k(   94) = (  -0.2000000  -0.2857143   0.2222222), wk =   0.0063492
        k(   95) = (  -0.2000000   0.2857143  -0.2222222), wk =   0.0063492
        k(   96) = (   0.2000000  -0.2857143  -0.2222222), wk =   0.0063492
        k(   97) = (  -0.2000000  -0.2857143   0.3333333), wk =   0.0063492
        k(   98) = (  -0.2000000   0.2857143  -0.3333333), wk =   0.0063492
        k(   99) = (   0.2000000  -0.2857143  -0.3333333), wk =   0.0063492
        k(  100) = (  -0.2000000  -0.2857143   0.4444444), wk =   0.0063492
        k(  101) = (  -0.2000000   0.2857143  -0.4444444), wk =   0.0063492
        k(  102) = (   0.2000000  -0.2857143  -0.4444444), wk =   0.0063492
        k(  103) = (  -0.2000000   0.4285714   0.0000000), wk =   0.0063492
        k(  104) = (  -0.2000000  -0.4285714   0.1111111), wk =   0.0063492
        k(  105) = (  -0.2000000   0.4285714  -0.1111111), wk =   0.0063492
        k(  106) = (   0.2000000  -0.4285714  -0.1111111), wk =   0.0063492
        k(  107) = (  -0.2000000  -0.4285714   0.2222222), wk =   0.0063492
        k(  108) = (  -0.2000000   0.4285714  -0.2222222), wk =   0.0063492
        k(  109) = (   0.2000000  -0.4285714  -0.2222222), wk =   0.0063492
        k(  110) = (  -0.2000000  -0.4285714   0.3333333), wk =   0.0063492
        k(  111) = (  -0.2000000   0.4285714  -0.3333333), wk =   0.0063492
        k(  112) = (   0.2000000  -0.4285714  -0.3333333), wk =   0.0063492
        k(  113) = (  -0.2000000  -0.4285714   0.4444444), wk =   0.0063492
        k(  114) = (  -0.2000000   0.4285714  -0.4444444), wk =   0.0063492
        k(  115) = (   0.2000000  -0.4285714  -0.4444444), wk =   0.0063492
        k(  116) = (  -0.4000000   0.0000000   0.1111111), wk =   0.0063492
        k(  117) = (  -0.4000000   0.0000000   0.2222222), wk =   0.0063492
        k(  118) = (  -0.4000000   0.0000000   0.3333333), wk =   0.0063492
        k(  119) = (  -0.4000000   0.0000000   0.4444444), wk =   0.0063492
        k(  120) = (  -0.4000000   0.1428571   0.0000000), wk =   0.0063492
        k(  121) = (  -0.4000000  -0.1428571   0.1111111), wk =   0.0063492
        k(  122) = (  -0.4000000   0.1428571  -0.1111111), wk =   0.0063492
        k(  123) = (   0.4000000  -0.1428571  -0.1111111), wk =   0.0063492
        k(  124) = (  -0.4000000  -0.1428571   0.2222222), wk =   0.0063492
        k(  125) = (  -0.4000000   0.1428571  -0.2222222), wk =   0.0063492
        k(  126) = (   0.4000000  -0.1428571  -0.2222222), wk =   0.0063492
        k(  127) = (  -0.4000000  -0.1428571   0.3333333), wk =   0.0063492
        k(  128) = (  -0.4000000   0.1428571  -0.3333333), wk =   0.0063492
        k(  129) = (   0.4000000  -0.1428571  -0.3333333), wk =   0.0063492
        k(  130) = (  -0.4000000  -0.1428571   0.4444444), wk =   0.0063492
        k(  131) = (  -0.4000000   0.1428571  -0.4444444), wk =   0.0063492
        k(  132) = (   0.4000000  -0.1428571  -0.4444444), wk =   0.0063492
        k(  133) = (  -0.4000000   0.2857143   0.0000000), wk =   0.0063492
        k(  134) = (  -0.4000000  -0.2857143   0.1111111), wk =   0.0063492
        k(  135) = (  -0.4000000   0.2857143  -0.1111111), wk =   0.0063492
        k(  136) = (   0.4000000  -0.2857143  -0.1111111), wk =   0.0063492
        k(  137) = (  -0.4000000  -0.2857143   0.2222222), wk =   0.0063492
        k(  138) = (  -0.4000000   0.2857143  -0.2222222), wk =   0.0063492
        k(  139) = (   0.4000000  -0.2857143  -0.2222222), wk =   0.0063492
        k(  140) = (  -0.4000000  -0.2857143   0.3333333), wk =   0.0063492
        k(  141) = (  -0.4000000   0.2857143  -0.3333333), wk =   0.0063492
        k(  142) = (   0.4000000  -0.2857143  -0.3333333), wk =   0.0063492
        k(  143) = (  -0.4000000  -0.2857143   0.4444444), wk =   0.0063492
        k(  144) = (  -0.4000000   0.2857143  -0.4444444), wk =   0.0063492
        k(  145) = (   0.4000000  -0.2857143  -0.4444444), wk =   0.0063492
        k(  146) = (  -0.4000000   0.4285714   0.0000000), wk =   0.0063492
        k(  147) = (  -0.4000000  -0.4285714   0.1111111), wk =   0.0063492
        k(  148) = (  -0.4000000   0.4285714  -0.1111111), wk =   0.0063492
        k(  149) = (   0.4000000  -0.4285714  -0.1111111), wk =   0.0063492
        k(  150) = (  -0.4000000  -0.4285714   0.2222222), wk =   0.0063492
        k(  151) = (  -0.4000000   0.4285714  -0.2222222), wk =   0.0063492
        k(  152) = (   0.4000000  -0.4285714  -0.2222222), wk =   0.0063492
        k(  153) = (  -0.4000000  -0.4285714   0.3333333), wk =   0.0063492
        k(  154) = (  -0.4000000   0.4285714  -0.3333333), wk =   0.0063492
        k(  155) = (   0.4000000  -0.4285714  -0.3333333), wk =   0.0063492
        k(  156) = (  -0.4000000  -0.4285714   0.4444444), wk =   0.0063492
        k(  157) = (  -0.4000000   0.4285714  -0.4444444), wk =   0.0063492
        k(  158) = (   0.4000000  -0.4285714  -0.4444444), wk =   0.0063492

     Dense  grid:  1210029 G-vectors     FFT dimensions: ( 200, 120, 100)

     Smooth grid:   272791 G-vectors     FFT dimensions: ( 125,  75,  60)

     Dynamical RAM for                 wfc:       3.71 MB

     Dynamical RAM for     wfc (w. buffer):    1174.53 MB

     Dynamical RAM for           str. fact:       4.62 MB

     Dynamical RAM for           local pot:       0.00 MB

     Dynamical RAM for          nlocal pot:       9.10 MB

     Dynamical RAM for                qrad:      10.54 MB

     Dynamical RAM for          rho,v,vnew:      14.61 MB

     Dynamical RAM for               rhoin:       4.87 MB

     Dynamical RAM for            rho*nmix:      36.93 MB

     Dynamical RAM for           G-vectors:       4.46 MB

     Dynamical RAM for          h,s,v(r/c):       2.38 MB

     Dynamical RAM for          <psi|beta>:       0.49 MB

     Dynamical RAM for                 psi:       7.41 MB

     Dynamical RAM for                hpsi:       7.41 MB

     Dynamical RAM for                spsi:       7.41 MB

     Dynamical RAM for      wfcinit/wfcrot:       9.34 MB

     Dynamical RAM for           addusdens:     234.26 MB

     Dynamical RAM for          addusforce:     269.00 MB

     Dynamical RAM for         addusstress:     233.68 MB

     Estimated static dynamical RAM per process >       1.24 GB

     Estimated max dynamical RAM per process >       1.51 GB

     Estimated total dynamical RAM >      24.10 GB

     Check: negative core charge=   -0.000003
     Generating pointlists ...
     new r_m :   0.0774 (alat units)  1.4717 (a.u.) for type    1
     new r_m :   0.0867 (alat units)  1.6485 (a.u.) for type    2
     new r_m :   0.0609 (alat units)  1.1586 (a.u.) for type    3
     new r_m :   0.0609 (alat units)  1.1586 (a.u.) for type    4

     Initial potential from superposition of free atoms

     starting charge  188.99132, renormalised to  189.00000
     Starting wfcs are  137 randomized atomic wfcs
     Checking if some PAW data can be deallocated... 
       PAW data deallocated on   13 nodes for type:  1
       PAW data deallocated on    4 nodes for type:  3

     total cpu time spent up to now is     1309.2 secs

     Self-consistent Calculation

     iteration #  1     ecut=   100.00 Ry     beta= 0.40
     Davidson diagonalization with overlap
     ethr =  1.00E-02,  avg # of iterations =  3.1

     negative rho (up, down):  0.000E+00 5.984E-05

     total cpu time spent up to now is     4987.8 secs

     total energy              =   -2123.90537666 Ry
     estimated scf accuracy    <       6.75574253 Ry

     total magnetization       =    19.00 Bohr mag/cell
     absolute magnetization    =    19.00 Bohr mag/cell

     iteration #  2     ecut=   100.00 Ry     beta= 0.40
     Davidson diagonalization with overlap
     ethr =  3.57E-03,  avg # of iterations =  2.0

     negative rho (up, down):  0.000E+00 4.127E-05

     total cpu time spent up to now is     8395.1 secs

     total energy              =   -2122.79994849 Ry
     estimated scf accuracy    <      15.81862961 Ry

     total magnetization       =    11.05 Bohr mag/cell
     absolute magnetization    =    11.90 Bohr mag/cell

     iteration #  3     ecut=   100.00 Ry     beta= 0.40
     Davidson diagonalization with overlap
     ethr =  3.57E-03,  avg # of iterations =  2.0

     negative rho (up, down):  0.000E+00 2.985E-05

     total cpu time spent up to now is    11256.7 secs

     total energy              =   -2124.56845733 Ry
     estimated scf accuracy    <      29.23311470 Ry

     total magnetization       =    11.00 Bohr mag/cell
     absolute magnetization    =    11.89 Bohr mag/cell

     iteration #  4     ecut=   100.00 Ry     beta= 0.40
     Davidson diagonalization with overlap
     ethr =  3.57E-03,  avg # of iterations =  1.5

     negative rho (up, down):  0.000E+00 8.769E-05

     total cpu time spent up to now is    14004.1 secs

     total energy              =   -2125.62682147 Ry
     estimated scf accuracy    <       3.76665242 Ry

     total magnetization       =    17.15 Bohr mag/cell
     absolute magnetization    =    17.19 Bohr mag/cell

     iteration #  5     ecut=   100.00 Ry     beta= 0.40
     Davidson diagonalization with overlap
     ethr =  1.99E-03,  avg # of iterations =  1.5

     negative rho (up, down):  0.000E+00 1.183E-04

     total cpu time spent up to now is    16737.8 secs

     total energy              =   -2125.58700609 Ry
     estimated scf accuracy    <       9.96130936 Ry

     total magnetization       =    14.92 Bohr mag/cell
     absolute magnetization    =    15.11 Bohr mag/cell

     iteration #  6     ecut=   100.00 Ry     beta= 0.40
     Davidson diagonalization with overlap
     ethr =  1.99E-03,  avg # of iterations =  1.0

     negative rho (up, down):  0.000E+00 1.424E-04

     total cpu time spent up to now is    19409.2 secs

     total energy              =   -2125.85765612 Ry
     estimated scf accuracy    <       1.46642312 Ry

     total magnetization       =    18.50 Bohr mag/cell
     absolute magnetization    =    18.50 Bohr mag/cell

     iteration #  7     ecut=   100.00 Ry     beta= 0.40
     Davidson diagonalization with overlap
     ethr =  7.76E-04,  avg # of iterations =  1.1

     negative rho (up, down):  0.000E+00 3.307E-04

     total cpu time spent up to now is    22093.2 secs

     total energy              =   -2125.92101731 Ry
     estimated scf accuracy    <       0.58234786 Ry

     total magnetization       =    19.00 Bohr mag/cell
     absolute magnetization    =    19.00 Bohr mag/cell

     iteration #  8     ecut=   100.00 Ry     beta= 0.40
     Davidson diagonalization with overlap
     ethr =  3.08E-04,  avg # of iterations =  2.5

     negative rho (up, down):  0.000E+00 3.871E-04

     total cpu time spent up to now is    24918.4 secs

     total energy              =   -2125.94712108 Ry
     estimated scf accuracy    <       0.59968067 Ry

     total magnetization       =    19.04 Bohr mag/cell
     absolute magnetization    =    19.05 Bohr mag/cell

     iteration #  9     ecut=   100.00 Ry     beta= 0.40
     Davidson diagonalization with overlap
     ethr =  3.08E-04,  avg # of iterations =  1.0

     negative rho (up, down):  0.000E+00 5.397E-04

     total cpu time spent up to now is    27602.7 secs

     total energy              =   -2125.94878026 Ry
     estimated scf accuracy    <       0.19040863 Ry

     total magnetization       =    19.00 Bohr mag/cell
     absolute magnetization    =    19.00 Bohr mag/cell

     iteration # 10     ecut=   100.00 Ry     beta= 0.40
     Davidson diagonalization with overlap
     c_bands:  1 eigenvalues not converged
     c_bands:  1 eigenvalues not converged
     c_bands:  1 eigenvalues not converged
     c_bands:  1 eigenvalues not converged
     c_bands:  1 eigenvalues not converged
     ethr =  1.01E-04,  avg # of iterations = 10.6

     negative rho (up, down):  0.000E+00 8.956E-04

     total cpu time spent up to now is    31148.5 secs

     total energy              =   -2125.95665555 Ry
     estimated scf accuracy    <       0.05133307 Ry

     total magnetization       =    19.00 Bohr mag/cell
     absolute magnetization    =    19.01 Bohr mag/cell

     iteration # 11     ecut=   100.00 Ry     beta= 0.40
     Davidson diagonalization with overlap
     c_bands:  1 eigenvalues not converged
     c_bands:  1 eigenvalues not converged
     ethr =  2.72E-05,  avg # of iterations =  8.9

     negative rho (up, down):  0.000E+00 8.921E-04

     total cpu time spent up to now is    34640.8 secs

     total energy              =   -2125.95827436 Ry
     estimated scf accuracy    <       0.11140302 Ry

     total magnetization       =    19.00 Bohr mag/cell
     absolute magnetization    =    19.03 Bohr mag/cell

     iteration # 12     ecut=   100.00 Ry     beta= 0.40
     Davidson diagonalization with overlap
     ethr =  2.72E-05,  avg # of iterations =  1.1

     negative rho (up, down):  0.000E+00 9.029E-04

     total cpu time spent up to now is    37323.9 secs

     total energy              =   -2125.96105984 Ry
     estimated scf accuracy    <       0.09623175 Ry

     total magnetization       =    19.00 Bohr mag/cell
     absolute magnetization    =    19.03 Bohr mag/cell

     iteration # 13     ecut=   100.00 Ry     beta= 0.40
     Davidson diagonalization with overlap
     ethr =  2.72E-05,  avg # of iterations =  1.0

     negative rho (up, down):  0.000E+00 9.242E-04

     total cpu time spent up to now is    39999.0 secs

     total energy              =   -2125.96096739 Ry
     estimated scf accuracy    <       0.04435019 Ry

     total magnetization       =    19.00 Bohr mag/cell
     absolute magnetization    =    19.03 Bohr mag/cell

     iteration # 14     ecut=   100.00 Ry     beta= 0.40
     Davidson diagonalization with overlap
     ethr =  2.35E-05,  avg # of iterations =  1.0

     negative rho (up, down):  0.000E+00 9.365E-04

     total cpu time spent up to now is    42674.8 secs

     total energy              =   -2125.96140098 Ry
     estimated scf accuracy    <       0.02077314 Ry

     total magnetization       =    19.00 Bohr mag/cell
     absolute magnetization    =    19.03 Bohr mag/cell

     iteration # 15     ecut=   100.00 Ry     beta= 0.40
     Davidson diagonalization with overlap
     ethr =  1.10E-05,  avg # of iterations =  1.2

     negative rho (up, down):  0.000E+00 9.340E-04

     total cpu time spent up to now is    45367.8 secs

     total energy              =   -2125.96204739 Ry
     estimated scf accuracy    <       0.01046401 Ry

     total magnetization       =    19.00 Bohr mag/cell
     absolute magnetization    =    19.04 Bohr mag/cell

     iteration # 16     ecut=   100.00 Ry     beta= 0.40
     Davidson diagonalization with overlap
     c_bands:  1 eigenvalues not converged
     c_bands:  1 eigenvalues not converged
     c_bands:  1 eigenvalues not converged
     c_bands:  1 eigenvalues not converged
     c_bands:  1 eigenvalues not converged
     c_bands:  1 eigenvalues not converged
     ethr =  5.54E-06,  avg # of iterations =  2.3

     negative rho (up, down):  0.000E+00 9.234E-04

     total cpu time spent up to now is    48164.7 secs

     total energy              =   -2125.96193445 Ry
     estimated scf accuracy    <       0.01120574 Ry

     total magnetization       =    19.00 Bohr mag/cell
     absolute magnetization    =    19.04 Bohr mag/cell

     iteration # 17     ecut=   100.00 Ry     beta= 0.40
     Davidson diagonalization with overlap
     c_bands:  1 eigenvalues not converged
     c_bands:  1 eigenvalues not converged
     ethr =  5.54E-06,  avg # of iterations =  1.7

     negative rho (up, down):  0.000E+00 9.232E-04

     total cpu time spent up to now is    50899.4 secs

     total energy              =   -2125.96212558 Ry
     estimated scf accuracy    <       0.00123634 Ry

     total magnetization       =    19.00 Bohr mag/cell
     absolute magnetization    =    19.04 Bohr mag/cell

     iteration # 18     ecut=   100.00 Ry     beta= 0.40
     Davidson diagonalization with overlap
     c_bands:  1 eigenvalues not converged
     c_bands:  1 eigenvalues not converged
     c_bands:  1 eigenvalues not converged
     c_bands:  1 eigenvalues not converged
     c_bands:  1 eigenvalues not converged
     c_bands:  2 eigenvalues not converged
     c_bands:  1 eigenvalues not converged
     c_bands:  1 eigenvalues not converged
     c_bands:  1 eigenvalues not converged
     c_bands:  1 eigenvalues not converged
     c_bands:  1 eigenvalues not converged
     c_bands:  1 eigenvalues not converged
     c_bands:  1 eigenvalues not converged
     c_bands:  1 eigenvalues not converged
     c_bands:  1 eigenvalues not converged
     c_bands:  1 eigenvalues not converged
     c_bands:  1 eigenvalues not converged
     c_bands:  1 eigenvalues not converged
     c_bands:  1 eigenvalues not converged
     c_bands:  1 eigenvalues not converged
     c_bands:  1 eigenvalues not converged
     c_bands:  1 eigenvalues not converged
     c_bands:  1 eigenvalues not converged
     ethr =  6.54E-07,  avg # of iterations =  9.3

     negative rho (up, down):  0.000E+00 9.155E-04

     total cpu time spent up to now is    54409.7 secs

     total energy              =   -2125.96223916 Ry
     estimated scf accuracy    <       0.00032415 Ry

     total magnetization       =    19.00 Bohr mag/cell
     absolute magnetization    =    19.04 Bohr mag/cell

     iteration # 19     ecut=   100.00 Ry     beta= 0.40
     Davidson diagonalization with overlap
     c_bands:  1 eigenvalues not converged
     ethr =  1.72E-07,  avg # of iterations =  4.6

     negative rho (up, down):  0.000E+00 9.090E-04

     total cpu time spent up to now is    57812.3 secs

     total energy              =   -2125.96230517 Ry
     estimated scf accuracy    <       0.00008181 Ry

     total magnetization       =    19.00 Bohr mag/cell
     absolute magnetization    =    19.04 Bohr mag/cell

     iteration # 20     ecut=   100.00 Ry     beta= 0.40
     Davidson diagonalization with overlap
     ethr =  4.33E-08,  avg # of iterations =  2.5

     negative rho (up, down):  0.000E+00 9.064E-04

     total cpu time spent up to now is    60750.1 secs

     total energy              =   -2125.96231318 Ry
     estimated scf accuracy    <       0.00002788 Ry

     total magnetization       =    19.00 Bohr mag/cell
     absolute magnetization    =    19.04 Bohr mag/cell

     iteration # 21     ecut=   100.00 Ry     beta= 0.40
     Davidson diagonalization with overlap
     ethr =  1.48E-08,  avg # of iterations =  1.6

     negative rho (up, down):  0.000E+00 9.058E-04

     total cpu time spent up to now is    63503.1 secs

     total energy              =   -2125.96231520 Ry
     estimated scf accuracy    <       0.00000181 Ry

     total magnetization       =    19.00 Bohr mag/cell
     absolute magnetization    =    19.04 Bohr mag/cell

     iteration # 22     ecut=   100.00 Ry     beta= 0.40
     Davidson diagonalization with overlap
     ethr =  9.57E-10,  avg # of iterations =  3.6

     negative rho (up, down):  0.000E+00 9.061E-04

     total cpu time spent up to now is    67109.4 secs

     total energy              =   -2125.96231603 Ry
     estimated scf accuracy    <       0.00000134 Ry

     total magnetization       =    19.00 Bohr mag/cell
     absolute magnetization    =    19.04 Bohr mag/cell

     iteration # 23     ecut=   100.00 Ry     beta= 0.40
     Davidson diagonalization with overlap
     ethr =  7.07E-10,  avg # of iterations =  1.0

     negative rho (up, down):  0.000E+00 9.066E-04

     total cpu time spent up to now is    69789.2 secs

     total energy              =   -2125.96231614 Ry
     estimated scf accuracy    <       0.00000119 Ry

     total magnetization       =    19.00 Bohr mag/cell
     absolute magnetization    =    19.04 Bohr mag/cell

     iteration # 24     ecut=   100.00 Ry     beta= 0.40
     Davidson diagonalization with overlap
     ethr =  6.29E-10,  avg # of iterations =  1.2

     negative rho (up, down):  0.000E+00 9.065E-04

     total cpu time spent up to now is    72479.6 secs

     total energy              =   -2125.96231623 Ry
     estimated scf accuracy    <       0.00000005 Ry

     total magnetization       =    19.00 Bohr mag/cell
     absolute magnetization    =    19.04 Bohr mag/cell

     iteration # 25     ecut=   100.00 Ry     beta= 0.40
     Davidson diagonalization with overlap
     ethr =  2.91E-11,  avg # of iterations =  4.7

     negative rho (up, down):  0.000E+00 9.067E-04

     total cpu time spent up to now is    76684.4 secs

     total energy              =   -2125.96231628 Ry
     estimated scf accuracy    <       0.00000005 Ry

     total magnetization       =    19.00 Bohr mag/cell
     absolute magnetization    =    19.04 Bohr mag/cell

     iteration # 26     ecut=   100.00 Ry     beta= 0.40
     Davidson diagonalization with overlap
     ethr =  2.63E-11,  avg # of iterations =  1.5

     negative rho (up, down):  0.000E+00 9.068E-04

     total cpu time spent up to now is    79418.6 secs

     total energy              =   -2125.96231628 Ry
     estimated scf accuracy    <       0.00000001 Ry

     total magnetization       =    19.00 Bohr mag/cell
     absolute magnetization    =    19.04 Bohr mag/cell

     iteration # 27     ecut=   100.00 Ry     beta= 0.40
     Davidson diagonalization with overlap
     ethr =  7.42E-12,  avg # of iterations =  2.3

     negative rho (up, down):  0.000E+00 9.067E-04

     total cpu time spent up to now is    82438.8 secs

     total energy              =   -2125.96231629 Ry
     estimated scf accuracy    <       0.00000002 Ry

     total magnetization       =    19.00 Bohr mag/cell
     absolute magnetization    =    19.04 Bohr mag/cell

     iteration # 28     ecut=   100.00 Ry     beta= 0.40
     Davidson diagonalization with overlap
     ethr =  7.42E-12,  avg # of iterations =  1.9

     negative rho (up, down):  0.000E+00 9.067E-04

     total cpu time spent up to now is    85217.1 secs

     total energy              =   -2125.96231629 Ry
     estimated scf accuracy    <          8.9E-09 Ry

     total magnetization       =    19.00 Bohr mag/cell
     absolute magnetization    =    19.04 Bohr mag/cell

     iteration # 29     ecut=   100.00 Ry     beta= 0.40
     Davidson diagonalization with overlap
     ethr =  4.71E-12,  avg # of iterations =  1.0

     negative rho (up, down):  0.000E+00 9.067E-04

     total cpu time spent up to now is    87895.1 secs

     total energy              =   -2125.96231630 Ry
     estimated scf accuracy    <          6.1E-09 Ry

     total magnetization       =    19.00 Bohr mag/cell
     absolute magnetization    =    19.04 Bohr mag/cell

     iteration # 30     ecut=   100.00 Ry     beta= 0.40
     Davidson diagonalization with overlap
     ethr =  3.21E-12,  avg # of iterations =  1.3

     negative rho (up, down):  0.000E+00 9.067E-04

     total cpu time spent up to now is    90602.9 secs

     total energy              =   -2125.96231630 Ry
     estimated scf accuracy    <          7.0E-10 Ry

     total magnetization       =    19.00 Bohr mag/cell
     absolute magnetization    =    19.04 Bohr mag/cell

     iteration # 31     ecut=   100.00 Ry     beta= 0.40
     Davidson diagonalization with overlap
     ethr =  3.71E-13,  avg # of iterations =  3.3

     negative rho (up, down):  0.000E+00 9.067E-04

     total cpu time spent up to now is    93714.7 secs

     total energy              =   -2125.96231630 Ry
     estimated scf accuracy    <          2.1E-10 Ry

     total magnetization       =    19.00 Bohr mag/cell
     absolute magnetization    =    19.04 Bohr mag/cell

     iteration # 32     ecut=   100.00 Ry     beta= 0.40
     Davidson diagonalization with overlap
     ethr =  1.12E-13,  avg # of iterations =  3.4

     negative rho (up, down):  0.000E+00 9.067E-04

     total cpu time spent up to now is    96794.0 secs

     total energy              =   -2125.96231630 Ry
     estimated scf accuracy    <          3.3E-10 Ry

     total magnetization       =    19.00 Bohr mag/cell
     absolute magnetization    =    19.04 Bohr mag/cell

     iteration # 33     ecut=   100.00 Ry     beta= 0.40
     Davidson diagonalization with overlap
     ethr =  1.12E-13,  avg # of iterations =  1.0

     negative rho (up, down):  0.000E+00 9.067E-04

     Magnetic moment per site:
     atom:    1    charge:    7.8458    magn:    0.0013    constr:    0.0000
     atom:    2    charge:   12.8182    magn:    3.5789    constr:    0.0000
     atom:    3    charge:   12.8095    magn:    3.5884    constr:    0.0000
     atom:    4    charge:   12.8148    magn:    3.5822    constr:    0.0000
     atom:    5    charge:   12.8173    magn:    3.5740    constr:    0.0000
     atom:    6    charge:    0.7872    magn:    0.0102    constr:    0.0000
     atom:    7    charge:    0.7719    magn:    0.0113    constr:    0.0000
     atom:    8    charge:    0.7875    magn:    0.0102    constr:    0.0000
     atom:    9    charge:    0.7736    magn:    0.0116    constr:    0.0000
     atom:   10    charge:    4.0877    magn:    0.1419    constr:    0.0000
     atom:   11    charge:    4.0888    magn:    0.1118    constr:    0.0000
     atom:   12    charge:    4.0890    magn:    0.1608    constr:    0.0000
     atom:   13    charge:    4.0890    magn:    0.1080    constr:    0.0000
     atom:   14    charge:    4.1233    magn:    0.1163    constr:    0.0000
     atom:   15    charge:    4.1366    magn:    0.0893    constr:    0.0000
     atom:   16    charge:    4.1205    magn:    0.1114    constr:    0.0000
     atom:   17    charge:    4.1253    magn:    0.0888    constr:    0.0000
     atom:   18    charge:    4.1114    magn:    0.1308    constr:    0.0000
     atom:   19    charge:    4.1051    magn:    0.1437    constr:    0.0000
     atom:   20    charge:    4.1130    magn:    0.1055    constr:    0.0000
     atom:   21    charge:    4.1212    magn:    0.1570    constr:    0.0000
     atom:   22    charge:    4.1085    magn:    0.1287    constr:    0.0000
     atom:   23    charge:    4.1054    magn:    0.1457    constr:    0.0000
     atom:   24    charge:    4.1125    magn:    0.1195    constr:    0.0000
     atom:   25    charge:    4.1162    magn:    0.1536    constr:    0.0000

     total cpu time spent up to now is    99468.3 secs

     End of self-consistent calculation

 ------ SPIN UP ------------


          k = 0.0000 0.0000 0.0000 ( 34089 PWs)   bands (ev):

   -84.1743 -84.1249 -84.0745 -84.0464 -50.3283 -50.3184 -50.2728 -50.2306
   -50.1855 -50.1601 -50.0810 -50.0119 -49.9927 -49.9580 -49.9335 -49.8888
   -44.0372 -16.2920 -16.1051 -16.0692 -16.0126 -15.8070 -15.7310 -15.4110
   -13.5249 -13.3764 -13.3495 -13.2013 -13.1388 -13.1143 -13.0344 -12.9569
   -12.8800 -12.8223 -12.7661 -12.6963  -3.8018  -3.4072  -2.9109  -2.7471
    -1.7905  -1.7098  -1.4199  -1.2822  -1.0609  -0.8621  -0.7953  -0.7187
    -0.6290  -0.4690  -0.4169  -0.2515   0.2677   0.3508   0.6586   0.8661
     0.8762   0.9583   1.0044   1.2093   1.3319   1.3970   1.5387   1.6223
     1.7379   1.8804   2.0365   2.1533   2.2201   2.2641   2.4699   2.5465
     2.6059   2.7088   2.8078   2.9350   3.0345   3.1287   3.1816   3.2320
     3.3370   3.4964   3.6869   3.7637   3.8622   3.8891   3.9023   4.0515
     4.1173   4.2944   4.3781   4.4301   4.6235   4.7024   4.7654   4.8056
     4.8649   5.0032   5.0614   5.1857   5.3727   5.4251   5.8305   5.9030
    10.2726  12.1248  12.4227  13.1415  13.2601  14.1790  14.2229  14.5072
    14.5921  14.7585

     occupation numbers 
     1.0000   1.0000   1.0000   1.0000   1.0000   1.0000   1.0000   1.0000
     1.0000   1.0000   1.0000   1.0000   1.0000   1.0000   1.0000   1.0000
     1.0000   1.0000   1.0000   1.0000   1.0000   1.0000   1.0000   1.0000
     1.0000   1.0000   1.0000   1.0000   1.0000   1.0000   1.0000   1.0000
     1.0000   1.0000   1.0000   1.0000   1.0000   1.0000   1.0000   1.0000
     1.0000   1.0000   1.0000   1.0000   1.0000   1.0000   1.0000   1.0000
     1.0000   1.0000   1.0000   1.0000   1.0000   1.0000   1.0000   1.0000
     1.0000   1.0000   1.0000   1.0000   1.0000   1.0000   1.0000   1.0000
     1.0000   1.0000   1.0000   1.0000   1.0000   1.0000   1.0000   1.0000
     1.0000   1.0000   1.0000   1.0000   1.0000   1.0000   1.0000   1.0000
     1.0000   1.0000   1.0000   1.0000   1.0000   1.0000   1.0000   1.0000
     1.0000   1.0000   1.0000   1.0000   1.0000   1.0000   1.0000   1.0000
     1.0000   1.0000   1.0000   1.0000   1.0000   1.0000   1.0000   1.0000
     0.0000   0.0000   0.0000   0.0000   0.0000   0.0000   0.0000   0.0000
     0.0000   0.0000

          k = 0.0000 0.0000 0.2259 ( 34083 PWs)   bands (ev):

   -84.1743 -84.1249 -84.0745 -84.0464 -50.3283 -50.3184 -50.2728 -50.2306
   -50.1855 -50.1601 -50.0810 -50.0119 -49.9927 -49.9580 -49.9335 -49.8888
   -44.0372 -16.2916 -16.1046 -16.0699 -16.0045 -15.7972 -15.7225 -15.4140
   -13.5310 -13.3999 -13.3325 -13.2020 -13.1433 -13.1077 -13.0432 -12.9773
   -12.8837 -12.8203 -12.7702 -12.6987  -3.7698  -3.3947  -2.9208  -2.7282
    -1.7748  -1.6908  -1.4109  -1.2873  -1.0442  -0.8666  -0.7665  -0.7185
    -0.5969  -0.4871  -0.4459  -0.2378   0.2798   0.3562   0.6653   0.8291
     0.8706   0.9557   1.0079   1.1910   1.3693   1.4163   1.5331   1.5912
     1.7081   1.9143   2.0395   2.1533   2.1936   2.3525   2.4734   2.5099
     2.5878   2.7141   2.8166   2.8970   3.0379   3.0794   3.1454   3.2246
     3.3580   3.4933   3.6742   3.7160   3.8269   3.9016   3.9182   4.0195
     4.1188   4.3063   4.3787   4.4262   4.5969   4.7073   4.7510   4.7949
     4.8827   5.0100   5.0577   5.1975   5.3694   5.4419   5.7961   5.9258
    10.4160  12.1876  12.4824  13.1475  13.3327  14.0708  14.2693  14.4825
    14.5356  14.7331

     occupation numbers 
     1.0000   1.0000   1.0000   1.0000   1.0000   1.0000   1.0000   1.0000
     1.0000   1.0000   1.0000   1.0000   1.0000   1.0000   1.0000   1.0000
     1.0000   1.0000   1.0000   1.0000   1.0000   1.0000   1.0000   1.0000
     1.0000   1.0000   1.0000   1.0000   1.0000   1.0000   1.0000   1.0000
     1.0000   1.0000   1.0000   1.0000   1.0000   1.0000   1.0000   1.0000
     1.0000   1.0000   1.0000   1.0000   1.0000   1.0000   1.0000   1.0000
     1.0000   1.0000   1.0000   1.0000   1.0000   1.0000   1.0000   1.0000
     1.0000   1.0000   1.0000   1.0000   1.0000   1.0000   1.0000   1.0000
     1.0000   1.0000   1.0000   1.0000   1.0000   1.0000   1.0000   1.0000
     1.0000   1.0000   1.0000   1.0000   1.0000   1.0000   1.0000   1.0000
     1.0000   1.0000   1.0000   1.0000   1.0000   1.0000   1.0000   1.0000
     1.0000   1.0000   1.0000   1.0000   1.0000   1.0000   1.0000   1.0000
     1.0000   1.0000   1.0000   1.0000   1.0000   1.0000   1.0000   1.0000
     0.0000   0.0000   0.0000   0.0000   0.0000   0.0000   0.0000   0.0000
     0.0000   0.0000

          k = 0.0000 0.0000 0.4519 ( 34060 PWs)   bands (ev):

   -84.1743 -84.1249 -84.0745 -84.0464 -50.3283 -50.3184 -50.2728 -50.2306
   -50.1855 -50.1601 -50.0810 -50.0119 -49.9927 -49.9580 -49.9335 -49.8888
   -44.0372 -16.2906 -16.1054 -16.0718 -15.9804 -15.7715 -15.7005 -15.4238
   -13.5478 -13.4374 -13.3123 -13.2028 -13.1538 -13.0980 -13.0602 -13.0162
   -12.8962 -12.8282 -12.7766 -12.7037  -3.6865  -3.3612  -2.9308  -2.7042
    -1.7712  -1.6050  -1.3720  -1.2931  -1.0151  -0.8623  -0.7857  -0.6405
    -0.5551  -0.5173  -0.4728  -0.2388   0.2783   0.3959   0.6934   0.7776
     0.8571   0.9481   1.0126   1.2527   1.3858   1.4043   1.5201   1.5786
     1.7112   1.9550   2.0029   2.1391   2.2227   2.3848   2.4063   2.4881
     2.5955   2.6855   2.7958   2.8746   2.9035   3.0412   3.1281   3.2065
     3.3525   3.4655   3.5557   3.6491   3.7613   3.9308   3.9808   4.0179
     4.1519   4.3021   4.3657   4.4046   4.6050   4.6869   4.7203   4.7849
     4.8868   5.0144   5.0555   5.2340   5.3616   5.4722   5.7591   5.9442
    10.8022  12.3477  12.6205  13.2017  13.4873  13.8319  14.2919  14.3875
    14.4298  14.5912

     occupation numbers 
     1.0000   1.0000   1.0000   1.0000   1.0000   1.0000   1.0000   1.0000
     1.0000   1.0000   1.0000   1.0000   1.0000   1.0000   1.0000   1.0000
     1.0000   1.0000   1.0000   1.0000   1.0000   1.0000   1.0000   1.0000
     1.0000   1.0000   1.0000   1.0000   1.0000   1.0000   1.0000   1.0000
     1.0000   1.0000   1.0000   1.0000   1.0000   1.0000   1.0000   1.0000
     1.0000   1.0000   1.0000   1.0000   1.0000   1.0000   1.0000   1.0000
     1.0000   1.0000   1.0000   1.0000   1.0000   1.0000   1.0000   1.0000
     1.0000   1.0000   1.0000   1.0000   1.0000   1.0000   1.0000   1.0000
     1.0000   1.0000   1.0000   1.0000   1.0000   1.0000   1.0000   1.0000
     1.0000   1.0000   1.0000   1.0000   1.0000   1.0000   1.0000   1.0000
     1.0000   1.0000   1.0000   1.0000   1.0000   1.0000   1.0000   1.0000
     1.0000   1.0000   1.0000   1.0000   1.0000   1.0000   1.0000   1.0000
     1.0000   1.0000   1.0000   1.0000   1.0000   1.0000   1.0000   1.0000
     0.0000   0.0000   0.0000   0.0000   0.0000   0.0000   0.0000   0.0000
     0.0000   0.0000

          k = 0.0000 0.0000 0.6778 ( 34088 PWs)   bands (ev):

   -84.1743 -84.1249 -84.0745 -84.0464 -50.3283 -50.3184 -50.2728 -50.2306
   -50.1855 -50.1601 -50.0810 -50.0119 -49.9927 -49.9580 -49.9336 -49.8888
   -44.0372 -16.2894 -16.1087 -16.0731 -15.9489 -15.7391 -15.6747 -15.4406
   -13.5682 -13.4745 -13.2967 -13.2021 -13.1666 -13.1061 -13.0647 -13.0466
   -12.9101 -12.8447 -12.7838 -12.7097  -3.5882  -3.3176  -2.9290  -2.7077
    -1.7640  -1.5239  -1.3149  -1.2568  -1.0058  -0.8569  -0.8257  -0.6252
    -0.5265  -0.4911  -0.4419  -0.2797   0.2576   0.4504   0.7293   0.7894
     0.8612   0.9851   1.0649   1.3024   1.3579   1.4459   1.5259   1.5709
     1.7569   1.9220   1.9694   2.0717   2.2262   2.2763   2.3373   2.4524
     2.5574   2.5902   2.7710   2.8330   2.9053   2.9753   3.1111   3.1831
     3.3157   3.4044   3.4638   3.5328   3.7801   3.9783   4.0299   4.1021
     4.1716   4.2785   4.3636   4.4304   4.5978   4.6759   4.6978   4.7657
     4.8541   4.9812   5.0827   5.2755   5.3501   5.4890   5.7679   5.9365
    11.3285  12.5303  12.7428  13.2884  13.3450  13.8543  14.1444  14.2786
    14.3986  14.5317

     occupation numbers 
     1.0000   1.0000   1.0000   1.0000   1.0000   1.0000   1.0000   1.0000
     1.0000   1.0000   1.0000   1.0000   1.0000   1.0000   1.0000   1.0000
     1.0000   1.0000   1.0000   1.0000   1.0000   1.0000   1.0000   1.0000
     1.0000   1.0000   1.0000   1.0000   1.0000   1.0000   1.0000   1.0000
     1.0000   1.0000   1.0000   1.0000   1.0000   1.0000   1.0000   1.0000
     1.0000   1.0000   1.0000   1.0000   1.0000   1.0000   1.0000   1.0000
     1.0000   1.0000   1.0000   1.0000   1.0000   1.0000   1.0000   1.0000
     1.0000   1.0000   1.0000   1.0000   1.0000   1.0000   1.0000   1.0000
     1.0000   1.0000   1.0000   1.0000   1.0000   1.0000   1.0000   1.0000
     1.0000   1.0000   1.0000   1.0000   1.0000   1.0000   1.0000   1.0000
     1.0000   1.0000   1.0000   1.0000   1.0000   1.0000   1.0000   1.0000
     1.0000   1.0000   1.0000   1.0000   1.0000   1.0000   1.0000   1.0000
     1.0000   1.0000   1.0000   1.0000   1.0000   1.0000   1.0000   1.0000
     0.0000   0.0000   0.0000   0.0000   0.0000   0.0000   0.0000   0.0000
     0.0000   0.0000

          k = 0.0000 0.0000 0.9038 ( 34082 PWs)   bands (ev):

   -84.1743 -84.1249 -84.0745 -84.0464 -50.3283 -50.3184 -50.2728 -50.2306
   -50.1855 -50.1601 -50.0810 -50.0119 -49.9927 -49.9580 -49.9336 -49.8888
   -44.0372 -16.2887 -16.1114 -16.0736 -15.9269 -15.7140 -15.6573 -15.4566
   -13.5813 -13.4990 -13.2880 -13.2008 -13.1761 -13.1180 -13.0761 -13.0491
   -12.9172 -12.8549 -12.7902 -12.7151  -3.5221  -3.2845  -2.9200  -2.7290
    -1.7473  -1.4967  -1.2826  -1.1791  -1.0317  -0.8601  -0.8531  -0.6478
    -0.4957  -0.4432  -0.4217  -0.3204   0.2448   0.4951   0.7305   0.7541
     0.9945   1.0537   1.1835   1.2800   1.3509   1.4785   1.5006   1.6077
     1.7893   1.8529   1.9196   1.9702   2.1046   2.1779   2.3399   2.4407
     2.4967   2.5769   2.7059   2.7800   2.8862   2.9924   3.0940   3.2197
     3.2963   3.3503   3.3865   3.5152   3.7873   4.0133   4.0582   4.1404
     4.1861   4.3092   4.3431   4.5001   4.5803   4.6619   4.6898   4.7493
     4.8211   4.9202   5.1205   5.3063   5.3344   5.4904   5.8083   5.9092
    11.8386  12.6426  12.7210  13.0203  13.3630  14.0048  14.1016  14.2471
    14.3997  14.4913

     occupation numbers 
     1.0000   1.0000   1.0000   1.0000   1.0000   1.0000   1.0000   1.0000
     1.0000   1.0000   1.0000   1.0000   1.0000   1.0000   1.0000   1.0000
     1.0000   1.0000   1.0000   1.0000   1.0000   1.0000   1.0000   1.0000
     1.0000   1.0000   1.0000   1.0000   1.0000   1.0000   1.0000   1.0000
     1.0000   1.0000   1.0000   1.0000   1.0000   1.0000   1.0000   1.0000
     1.0000   1.0000   1.0000   1.0000   1.0000   1.0000   1.0000   1.0000
     1.0000   1.0000   1.0000   1.0000   1.0000   1.0000   1.0000   1.0000
     1.0000   1.0000   1.0000   1.0000   1.0000   1.0000   1.0000   1.0000
     1.0000   1.0000   1.0000   1.0000   1.0000   1.0000   1.0000   1.0000
     1.0000   1.0000   1.0000   1.0000   1.0000   1.0000   1.0000   1.0000
     1.0000   1.0000   1.0000   1.0000   1.0000   1.0000   1.0000   1.0000
     1.0000   1.0000   1.0000   1.0000   1.0000   1.0000   1.0000   1.0000
     1.0000   1.0000   1.0000   1.0000   1.0000   1.0000   1.0000   1.0000
     0.0000   0.0000   0.0000   0.0000   0.0000   0.0000   0.0000   0.0000
     0.0000   0.0000

          k = 0.0000 0.2391 0.0000 ( 34090 PWs)   bands (ev):

   -84.1743 -84.1249 -84.0745 -84.0464 -50.3283 -50.3184 -50.2728 -50.2306
   -50.1855 -50.1601 -50.0810 -50.0119 -49.9927 -49.9580 -49.9335 -49.8888
   -44.0372 -16.3207 -16.0956 -16.0580 -15.9967 -15.7899 -15.7222 -15.4279
   -13.5515 -13.3730 -13.3511 -13.2095 -13.1746 -13.0822 -13.0326 -12.9636
   -12.8775 -12.8186 -12.7651 -12.6951  -3.7552  -3.3629  -2.9249  -2.7384
    -1.7813  -1.6750  -1.3952  -1.2736  -1.0661  -0.8924  -0.7785  -0.6853
    -0.6270  -0.4777  -0.4081  -0.2244   0.2620   0.3204   0.6522   0.7756
     0.8806   0.9214   1.0259   1.1672   1.3278   1.4130   1.5587   1.6226
     1.7536   1.8616   2.0362   2.1441   2.2138   2.2832   2.4477   2.5508
     2.5875   2.6581   2.8148   2.9007   2.9565   3.1171   3.1806   3.2799
     3.3548   3.4813   3.6563   3.7331   3.8007   3.8869   3.9825   4.0643
     4.1048   4.2376   4.3404   4.4443   4.6449   4.6851   4.7447   4.7938
     4.8680   4.9170   5.0341   5.1723   5.4894   5.5339   5.8836   5.9399
    10.4323  12.1879  12.5107  13.0735  13.3204  14.0261  14.2281  14.3777
    14.6732  14.7495

     occupation numbers 
     1.0000   1.0000   1.0000   1.0000   1.0000   1.0000   1.0000   1.0000
     1.0000   1.0000   1.0000   1.0000   1.0000   1.0000   1.0000   1.0000
     1.0000   1.0000   1.0000   1.0000   1.0000   1.0000   1.0000   1.0000
     1.0000   1.0000   1.0000   1.0000   1.0000   1.0000   1.0000   1.0000
     1.0000   1.0000   1.0000   1.0000   1.0000   1.0000   1.0000   1.0000
     1.0000   1.0000   1.0000   1.0000   1.0000   1.0000   1.0000   1.0000
     1.0000   1.0000   1.0000   1.0000   1.0000   1.0000   1.0000   1.0000
     1.0000   1.0000   1.0000   1.0000   1.0000   1.0000   1.0000   1.0000
     1.0000   1.0000   1.0000   1.0000   1.0000   1.0000   1.0000   1.0000
     1.0000   1.0000   1.0000   1.0000   1.0000   1.0000   1.0000   1.0000
     1.0000   1.0000   1.0000   1.0000   1.0000   1.0000   1.0000   1.0000
     1.0000   1.0000   1.0000   1.0000   1.0000   1.0000   1.0000   1.0000
     1.0000   1.0000   1.0000   1.0000   1.0000   1.0000   1.0000   1.0000
     0.0000   0.0000   0.0000   0.0000   0.0000   0.0000   0.0000   0.0000
     0.0000   0.0000

          k = 0.0000 0.2391 0.2259 ( 34083 PWs)   bands (ev):

   -84.1743 -84.1249 -84.0745 -84.0464 -50.3283 -50.3184 -50.2728 -50.2306
   -50.1855 -50.1601 -50.0810 -50.0119 -49.9927 -49.9580 -49.9335 -49.8888
   -44.0372 -16.3232 -16.0965 -16.0583 -15.9872 -15.7684 -15.7195 -15.4333
   -13.5550 -13.4025 -13.3340 -13.2106 -13.1722 -13.0981 -13.0340 -12.9716
   -12.8820 -12.8152 -12.7696 -12.6995  -3.7301  -3.3566  -2.9222  -2.7057
    -1.7701  -1.6607  -1.3987  -1.2653  -1.0370  -0.8737  -0.7819  -0.6772
    -0.6371  -0.4821  -0.4411  -0.1933   0.2774   0.3339   0.6663   0.7927
     0.8536   0.9426   1.0368   1.2012   1.2631   1.4025   1.5349   1.6170
     1.6590   1.8578   2.0364   2.1332   2.1692   2.3656   2.5069   2.5390
     2.5846   2.6566   2.8143   2.8564   3.0000   3.1193   3.1534   3.2773
     3.3843   3.5105   3.6084   3.6883   3.8058   3.8510   3.9649   4.0161
     4.0958   4.2401   4.3164   4.4415   4.6247   4.6913   4.7568   4.7962
     4.8554   4.9268   5.0516   5.1994   5.4893   5.5543   5.8229   5.9752
    10.5707  12.2505  12.5720  13.0604  13.4100  14.0133  14.2196  14.4066
    14.5891  14.7132

     occupation numbers 
     1.0000   1.0000   1.0000   1.0000   1.0000   1.0000   1.0000   1.0000
     1.0000   1.0000   1.0000   1.0000   1.0000   1.0000   1.0000   1.0000
     1.0000   1.0000   1.0000   1.0000   1.0000   1.0000   1.0000   1.0000
     1.0000   1.0000   1.0000   1.0000   1.0000   1.0000   1.0000   1.0000
     1.0000   1.0000   1.0000   1.0000   1.0000   1.0000   1.0000   1.0000
     1.0000   1.0000   1.0000   1.0000   1.0000   1.0000   1.0000   1.0000
     1.0000   1.0000   1.0000   1.0000   1.0000   1.0000   1.0000   1.0000
     1.0000   1.0000   1.0000   1.0000   1.0000   1.0000   1.0000   1.0000
     1.0000   1.0000   1.0000   1.0000   1.0000   1.0000   1.0000   1.0000
     1.0000   1.0000   1.0000   1.0000   1.0000   1.0000   1.0000   1.0000
     1.0000   1.0000   1.0000   1.0000   1.0000   1.0000   1.0000   1.0000
     1.0000   1.0000   1.0000   1.0000   1.0000   1.0000   1.0000   1.0000
     1.0000   1.0000   1.0000   1.0000   1.0000   1.0000   1.0000   1.0000
     0.0000   0.0000   0.0000   0.0000   0.0000   0.0000   0.0000   0.0000
     0.0000   0.0000

          k = 0.0000 0.2391 0.4519 ( 34077 PWs)   bands (ev):

   -84.1743 -84.1249 -84.0745 -84.0464 -50.3283 -50.3184 -50.2728 -50.2306
   -50.1855 -50.1601 -50.0810 -50.0119 -49.9927 -49.9580 -49.9335 -49.8888
   -44.0372 -16.3202 -16.0986 -16.0650 -15.9615 -15.7325 -15.7042 -15.4428
   -13.5692 -13.4345 -13.3233 -13.2153 -13.1753 -13.1078 -13.0472 -13.0001
   -12.8934 -12.8216 -12.7753 -12.7061  -3.6515  -3.3280  -2.9209  -2.6635
    -1.7658  -1.6056  -1.3545  -1.2577  -1.0172  -0.8602  -0.7712  -0.6583
    -0.5842  -0.5055  -0.4624  -0.1987   0.2562   0.3891   0.6980   0.8020
     0.8311   0.9607   1.0249   1.2070   1.3064   1.3885   1.4903   1.5773
     1.6536   1.8811   1.9774   2.1190   2.1734   2.4374   2.4518   2.5024
     2.5712   2.6925   2.7523   2.8718   2.9135   3.1232   3.1537   3.2444
     3.3586   3.4622   3.5502   3.6405   3.7062   3.8755   3.9460   4.0112
     4.1204   4.2387   4.2882   4.4173   4.6280   4.6690   4.7226   4.8213
     4.8638   4.9321   5.0870   5.2350   5.4996   5.5642   5.7689   5.9993
    10.9405  12.4050  12.7048  13.1079  13.5819  13.8567  14.1879  14.4040
    14.4770  14.5788

     occupation numbers 
     1.0000   1.0000   1.0000   1.0000   1.0000   1.0000   1.0000   1.0000
     1.0000   1.0000   1.0000   1.0000   1.0000   1.0000   1.0000   1.0000
     1.0000   1.0000   1.0000   1.0000   1.0000   1.0000   1.0000   1.0000
     1.0000   1.0000   1.0000   1.0000   1.0000   1.0000   1.0000   1.0000
     1.0000   1.0000   1.0000   1.0000   1.0000   1.0000   1.0000   1.0000
     1.0000   1.0000   1.0000   1.0000   1.0000   1.0000   1.0000   1.0000
     1.0000   1.0000   1.0000   1.0000   1.0000   1.0000   1.0000   1.0000
     1.0000   1.0000   1.0000   1.0000   1.0000   1.0000   1.0000   1.0000
     1.0000   1.0000   1.0000   1.0000   1.0000   1.0000   1.0000   1.0000
     1.0000   1.0000   1.0000   1.0000   1.0000   1.0000   1.0000   1.0000
     1.0000   1.0000   1.0000   1.0000   1.0000   1.0000   1.0000   1.0000
     1.0000   1.0000   1.0000   1.0000   1.0000   1.0000   1.0000   1.0000
     1.0000   1.0000   1.0000   1.0000   1.0000   1.0000   1.0000   1.0000
     0.0000   0.0000   0.0000   0.0000   0.0000   0.0000   0.0000   0.0000
     0.0000   0.0000

          k = 0.0000 0.2391 0.6778 ( 34083 PWs)   bands (ev):

   -84.1743 -84.1249 -84.0745 -84.0464 -50.3283 -50.3184 -50.2728 -50.2306
   -50.1855 -50.1601 -50.0810 -50.0119 -49.9927 -49.9580 -49.9336 -49.8888
   -44.0372 -16.3135 -16.1032 -16.0709 -15.9310 -15.6971 -15.6825 -15.4561
   -13.5879 -13.4666 -13.3137 -13.2207 -13.1856 -13.1122 -13.0637 -13.0220
   -12.9090 -12.8359 -12.7818 -12.7119  -3.5516  -3.2871  -2.9175  -2.6517
    -1.7673  -1.5368  -1.2882  -1.2217  -1.0129  -0.8728  -0.7894  -0.6408
    -0.5342  -0.4802  -0.4421  -0.2588   0.2307   0.4344   0.7202   0.8273
     0.8850   0.9653   1.0615   1.2031   1.3545   1.4081   1.4930   1.5841
     1.6990   1.8598   1.9176   2.0455   2.2042   2.3349   2.3488   2.4652
     2.5433   2.6010   2.7614   2.7921   2.9693   3.0023   3.1757   3.2350
     3.3160   3.3579   3.4696   3.5585   3.7176   3.9141   3.9646   4.0693
     4.1651   4.2268   4.2686   4.4744   4.5770   4.6586   4.6873   4.8195
     4.8441   4.9348   5.1202   5.2718   5.5100   5.5376   5.7836   5.9967
    11.4426  12.5724  12.8258  13.1904  13.4543  13.8993  14.1370  14.2405
    14.4029  14.5925

     occupation numbers 
     1.0000   1.0000   1.0000   1.0000   1.0000   1.0000   1.0000   1.0000
     1.0000   1.0000   1.0000   1.0000   1.0000   1.0000   1.0000   1.0000
     1.0000   1.0000   1.0000   1.0000   1.0000   1.0000   1.0000   1.0000
     1.0000   1.0000   1.0000   1.0000   1.0000   1.0000   1.0000   1.0000
     1.0000   1.0000   1.0000   1.0000   1.0000   1.0000   1.0000   1.0000
     1.0000   1.0000   1.0000   1.0000   1.0000   1.0000   1.0000   1.0000
     1.0000   1.0000   1.0000   1.0000   1.0000   1.0000   1.0000   1.0000
     1.0000   1.0000   1.0000   1.0000   1.0000   1.0000   1.0000   1.0000
     1.0000   1.0000   1.0000   1.0000   1.0000   1.0000   1.0000   1.0000
     1.0000   1.0000   1.0000   1.0000   1.0000   1.0000   1.0000   1.0000
     1.0000   1.0000   1.0000   1.0000   1.0000   1.0000   1.0000   1.0000
     1.0000   1.0000   1.0000   1.0000   1.0000   1.0000   1.0000   1.0000
     1.0000   1.0000   1.0000   1.0000   1.0000   1.0000   1.0000   1.0000
     0.0000   0.0000   0.0000   0.0000   0.0000   0.0000   0.0000   0.0000
     0.0000   0.0000

          k = 0.0000 0.2391 0.9038 ( 34099 PWs)   bands (ev):

   -84.1743 -84.1249 -84.0745 -84.0464 -50.3283 -50.3184 -50.2728 -50.2306
   -50.1855 -50.1601 -50.0810 -50.0119 -49.9927 -49.9580 -49.9336 -49.8888
   -44.0372 -16.3060 -16.1087 -16.0737 -15.9100 -15.6829 -15.6622 -15.4646
   -13.6008 -13.4898 -13.3037 -13.2209 -13.1900 -13.1190 -13.0824 -13.0294
   -12.9185 -12.8463 -12.7883 -12.7147  -3.4744  -3.2494  -2.9149  -2.6849
    -1.7449  -1.5026  -1.2556  -1.1615  -1.0314  -0.8793  -0.8276  -0.6531
    -0.4987  -0.4275  -0.4039  -0.3183   0.2081   0.4604   0.7229   0.8018
     0.9658   1.0307   1.1281   1.2045   1.3815   1.4704   1.5240   1.5875
     1.7618   1.8215   1.8776   1.9709   2.0915   2.1992   2.3455   2.4224
     2.5182   2.5871   2.6785   2.7437   2.9282   3.0207   3.1096   3.2515
     3.2956   3.3535   3.3698   3.5218   3.7427   3.9614   4.0107   4.1056
     4.1799   4.2253   4.2986   4.4995   4.5751   4.6185   4.6787   4.7901
     4.8383   4.9254   5.1313   5.2943   5.4743   5.5503   5.8260   5.9788
    11.9158  12.6741  12.8163  13.0986  13.3297  13.9455  14.2004  14.2329
    14.3859  14.5490

     occupation numbers 
     1.0000   1.0000   1.0000   1.0000   1.0000   1.0000   1.0000   1.0000
     1.0000   1.0000   1.0000   1.0000   1.0000   1.0000   1.0000   1.0000
     1.0000   1.0000   1.0000   1.0000   1.0000   1.0000   1.0000   1.0000
     1.0000   1.0000   1.0000   1.0000   1.0000   1.0000   1.0000   1.0000
     1.0000   1.0000   1.0000   1.0000   1.0000   1.0000   1.0000   1.0000
     1.0000   1.0000   1.0000   1.0000   1.0000   1.0000   1.0000   1.0000
     1.0000   1.0000   1.0000   1.0000   1.0000   1.0000   1.0000   1.0000
     1.0000   1.0000   1.0000   1.0000   1.0000   1.0000   1.0000   1.0000
     1.0000   1.0000   1.0000   1.0000   1.0000   1.0000   1.0000   1.0000
     1.0000   1.0000   1.0000   1.0000   1.0000   1.0000   1.0000   1.0000
     1.0000   1.0000   1.0000   1.0000   1.0000   1.0000   1.0000   1.0000
     1.0000   1.0000   1.0000   1.0000   1.0000   1.0000   1.0000   1.0000
     1.0000   1.0000   1.0000   1.0000   1.0000   1.0000   1.0000   1.0000
     0.0000   0.0000   0.0000   0.0000   0.0000   0.0000   0.0000   0.0000
     0.0000   0.0000

          k = 0.0000 0.4781 0.0000 ( 34064 PWs)   bands (ev):

   -84.1743 -84.1249 -84.0745 -84.0464 -50.3283 -50.3184 -50.2728 -50.2306
   -50.1855 -50.1601 -50.0810 -50.0119 -49.9927 -49.9580 -49.9335 -49.8888
   -44.0372 -16.3688 -16.0895 -16.0460 -15.9402 -15.7695 -15.6836 -15.4752
   -13.5967 -13.3985 -13.3443 -13.2512 -13.1680 -13.0651 -13.0372 -12.9686
   -12.8734 -12.8119 -12.7624 -12.6924  -3.6490  -3.2569  -2.9567  -2.7294
    -1.7392  -1.5743  -1.3529  -1.2414  -1.0794  -0.9362  -0.7468  -0.6679
    -0.5819  -0.4949  -0.3777  -0.1827   0.1930   0.2922   0.5753   0.6659
     0.8456   0.9021   0.9505   1.1611   1.2698   1.3277   1.6062   1.6581
     1.8284   1.8920   2.0105   2.1155   2.1845   2.3081   2.3884   2.5499
     2.5742   2.6602   2.7959   2.8331   2.8617   3.0949   3.1611   3.3199
     3.3754   3.4885   3.5838   3.6927   3.7443   3.8323   3.9723   4.0561
     4.1222   4.2004   4.3356   4.4206   4.5708   4.6878   4.7114   4.7598
     4.8109   4.9185   5.0292   5.1703   5.5978   5.7250   5.9509   6.0907
    10.8648  12.3246  12.6587  12.9153  13.3420  13.8889  14.2245  14.2792
    14.3983  14.6492

     occupation numbers 
     1.0000   1.0000   1.0000   1.0000   1.0000   1.0000   1.0000   1.0000
     1.0000   1.0000   1.0000   1.0000   1.0000   1.0000   1.0000   1.0000
     1.0000   1.0000   1.0000   1.0000   1.0000   1.0000   1.0000   1.0000
     1.0000   1.0000   1.0000   1.0000   1.0000   1.0000   1.0000   1.0000
     1.0000   1.0000   1.0000   1.0000   1.0000   1.0000   1.0000   1.0000
     1.0000   1.0000   1.0000   1.0000   1.0000   1.0000   1.0000   1.0000
     1.0000   1.0000   1.0000   1.0000   1.0000   1.0000   1.0000   1.0000
     1.0000   1.0000   1.0000   1.0000   1.0000   1.0000   1.0000   1.0000
     1.0000   1.0000   1.0000   1.0000   1.0000   1.0000   1.0000   1.0000
     1.0000   1.0000   1.0000   1.0000   1.0000   1.0000   1.0000   1.0000
[...]
     atom   11 type  3   force =     0.00498250   -0.00467493   -0.00037524
     atom   12 type  3   force =    -0.01048531   -0.01079754   -0.01107225
     atom   13 type  3   force =    -0.00546123    0.00505774   -0.00207165
     atom   14 type  3   force =    -0.08118526    0.01116840    0.01813135
     atom   15 type  3   force =     0.08010368   -0.02150116   -0.01871480
     atom   16 type  3   force =     0.08127003   -0.01057258   -0.01712304
     atom   17 type  3   force =    -0.07958230    0.03519375    0.01281142
     atom   18 type  3   force =     0.00400209    0.04128891   -0.02063540
     atom   19 type  3   force =    -0.02431607   -0.02593250   -0.03061205
     atom   20 type  3   force =     0.00248893    0.08031888    0.02902953
     atom   21 type  3   force =     0.00267890   -0.04326036    0.01186624
     atom   22 type  3   force =    -0.00466968   -0.03990547    0.01394247
     atom   23 type  3   force =     0.02315127    0.02734682    0.02615526
     atom   24 type  3   force =    -0.00046257   -0.07846977   -0.03253154
     atom   25 type  3   force =    -0.00467637    0.03964780   -0.01619037
     The non-local contrib.  to forces
     atom    1 type  2   force =    -0.06494724   -0.00390818   -0.04047547
     atom    2 type  1   force =     0.03512397   -0.10925515   -0.16975810
     atom    3 type  1   force =    -0.00707085   -0.09948533    0.14328243
     atom    4 type  1   force =    -0.05940397    0.10558066    0.15163741
     atom    5 type  1   force =     0.05879517    0.13110384   -0.07367651
     atom    6 type  4   force =     0.03064878    0.09727406    0.05944930
     atom    7 type  4   force =    -0.08388988    0.02130114   -0.01711100
     atom    8 type  4   force =    -0.02962158   -0.06901264   -0.05229243
     atom    9 type  4   force =     0.07763349   -0.00960273    0.01308513
     atom   10 type  3   force =    -0.56307544   -0.21934010   -1.04943133
     atom   11 type  3   force =    -0.05727751    0.21556952   -1.43870330
     atom   12 type  3   force =     0.52170870    0.28169250    1.07574595
     atom   13 type  3   force =     0.04010190   -0.21146379    1.43764573
     atom   14 type  3   force =     1.36609946   -0.21672307   -0.65357064
     atom   15 type  3   force =    -1.24329120    0.39817542   -0.05905664
     atom   16 type  3   force =    -1.38935775    0.21530801    0.59837567
     atom   17 type  3   force =     1.26873994   -0.49694579    0.13318050
     atom   18 type  3   force =    -0.09753962   -1.30476040    0.79550626
     atom   19 type  3   force =     0.60544420    0.62098293    0.96375109
     atom   20 type  3   force =     0.05819276   -1.54046405   -0.99153208
     atom   21 type  3   force =    -0.09224744    0.98237490   -0.63789208
     atom   22 type  3   force =     0.09149550    1.27359076   -0.88105762
     atom   23 type  3   force =    -0.59870935   -0.64606531   -0.94197240
     atom   24 type  3   force =    -0.01584744    1.64415721    0.97034111
     atom   25 type  3   force =     0.12780618   -0.91570162    0.64175088
     The ionic contribution  to forces
     atom    1 type  2   force =    -1.49172933    2.84316148    2.07283915
     atom    2 type  1   force =    10.98053195    4.24585923   -1.93846428
     atom    3 type  1   force =     5.17103049  -10.85445545   -3.99976454
     atom    4 type  1   force =    -8.03560128   -5.30911932    2.41308901
     atom    5 type  1   force =    -6.48803529    9.71883192    2.53022909
     atom    6 type  4   force =    -1.22348234    2.70561038   -1.94621675
     atom    7 type  4   force =     3.04250613   -0.77563296    1.64215811
     atom    8 type  4   force =     1.03490414   -2.74764692    1.47847512
     atom    9 type  4   force =    -3.04164467    0.90954896   -1.75408511
     atom   10 type  3   force =     1.15308875    6.34450159   -1.17136112
     atom   11 type  3   force =     7.60544572   -4.06726790    2.18936789
     atom   12 type  3   force =     0.96437565   -8.22698435   -0.18817562
     atom   13 type  3   force =    -7.66079277    3.92276400   -2.13174802
     atom   14 type  3   force =     0.24721061    1.44248537    8.43183851
     atom   15 type  3   force =    -0.24183898   -3.74108223    2.99183761
     atom   16 type  3   force =     0.04610473   -1.34751497   -7.94145889
     atom   17 type  3   force =    -0.40359743    5.70930407   -5.59684123
     atom   18 type  3   force =    -5.11311597    8.74988051    2.90431276
     atom   19 type  3   force =     2.97349275   -0.15442107   -4.29185306
     atom   20 type  3   force =     3.09107833    5.10951162    9.47272799
     atom   21 type  3   force =    -9.39755602   -0.75490355   -0.09973231
     atom   22 type  3   force =     4.84485201   -7.57745509    0.09225824
     atom   23 type  3   force =    -2.69876961    1.32235148    3.98251366
     atom   24 type  3   force =    -4.47639634   -7.31134361   -8.93002646
     atom   25 type  3   force =     9.11793876   -0.15598318   -0.21191978
     The local contribution  to forces
     atom    1 type  2   force =     1.55892725   -2.87220384   -1.98545079
     atom    2 type  1   force =   -11.01547732   -4.14553291    2.09600568
     atom    3 type  1   force =    -5.15801362   10.94329580    3.85419908
     atom    4 type  1   force =     8.09818780    5.21067397   -2.55513640
     atom    5 type  1   force =     6.42438418   -9.83578342   -2.45881159
     atom    6 type  4   force =     1.22268832   -2.76630668    1.89438639
     atom    7 type  4   force =    -3.00560447    0.75897743   -1.58457527
     atom    8 type  4   force =    -1.04205926    2.79427195   -1.43871580
     atom    9 type  4   force =     3.01034541   -0.90042762    1.69591969
     atom   10 type  3   force =    -0.58141549   -6.11565102    2.21923253
     atom   11 type  3   force =    -7.54439388    3.84915011   -0.76349880
     atom   12 type  3   force =    -1.49248795    7.93683596   -0.88957120
     atom   13 type  3   force =     7.61628922   -3.70832744    0.70440501
     atom   14 type  3   force =    -1.68414842   -1.21637039   -7.76613757
     atom   15 type  3   force =     1.55604212    3.32479515   -2.95274763
     atom   16 type  3   force =     1.41398065    1.12341817    7.33149477
     atom   17 type  3   force =    -0.93526800   -5.18129894    5.47825559
     atom   18 type  3   force =     5.21450199   -7.41508580   -3.71402727
     atom   19 type  3   force =    -3.59839038   -0.48786972    3.30566881
     atom   20 type  3   force =    -3.14645019   -3.50095778   -8.46096635
     atom   21 type  3   force =     9.49194888   -0.26294595    0.74402441
     atom   22 type  3   force =    -4.94094649    6.27488184    0.79548915
     atom   23 type  3   force =     3.31583927   -0.65379194   -3.02236909
     atom   24 type  3   force =     4.49186560    5.60190091    7.93574256
     atom   25 type  3   force =    -9.24954924    1.10407268   -0.44053185
     The core correction contribution to forces
     atom    1 type  2   force =     0.00000000    0.00000000    0.00000000
     atom    2 type  1   force =    -0.00243275    0.00122087    0.00152318
     atom    3 type  1   force =     0.00044460   -0.00043783    0.00080619
     atom    4 type  1   force =     0.00263462   -0.00086868   -0.00130575
     atom    5 type  1   force =    -0.00108372   -0.00013534   -0.00121652
     atom    6 type  4   force =    -0.00189656   -0.00666380   -0.00377962
     atom    7 type  4   force =     0.00638305   -0.00129735   -0.00106743
     atom    8 type  4   force =     0.00192916    0.00459972    0.00334436
     atom    9 type  4   force =    -0.00590723    0.00021563    0.00149817
     atom   10 type  3   force =     0.00437028    0.00183613    0.00893260
     atom   11 type  3   force =     0.00121229   -0.00212798    0.01245643
     atom   12 type  3   force =    -0.00408366   -0.00234207   -0.00907186
     atom   13 type  3   force =    -0.00106088    0.00208533   -0.01237363
     atom   14 type  3   force =    -0.01034854    0.00177666    0.00599918
     atom   15 type  3   force =     0.00918862   -0.00339028    0.00125376
     atom   16 type  3   force =     0.01054412   -0.00178412   -0.00553402
     atom   17 type  3   force =    -0.00945764    0.00413504   -0.00178349
     atom   18 type  3   force =     0.00015872    0.01125424   -0.00642872
     atom   19 type  3   force =    -0.00486070   -0.00462972   -0.00817645
     atom   20 type  3   force =    -0.00033306    0.01222953    0.00880094
     atom   21 type  3   force =     0.00053276   -0.00778664    0.00546570
     atom   22 type  3   force =    -0.00007264   -0.01092304    0.00725368
     atom   23 type  3   force =     0.00479024    0.00485389    0.00798273
     atom   24 type  3   force =    -0.00008552   -0.01318266   -0.00859139
     atom   25 type  3   force =    -0.00086962    0.00726447   -0.00548671
     The Hubbard contrib.    to forces
     atom    1 type  2   force =     0.00000000    0.00000000    0.00000000
     atom    2 type  1   force =     0.00000000    0.00000000    0.00000000
     atom    3 type  1   force =     0.00000000    0.00000000    0.00000000
     atom    4 type  1   force =     0.00000000    0.00000000    0.00000000
     atom    5 type  1   force =     0.00000000    0.00000000    0.00000000
     atom    6 type  4   force =     0.00000000    0.00000000    0.00000000
     atom    7 type  4   force =     0.00000000    0.00000000    0.00000000
     atom    8 type  4   force =     0.00000000    0.00000000    0.00000000
     atom    9 type  4   force =     0.00000000    0.00000000    0.00000000
     atom   10 type  3   force =     0.00000000    0.00000000    0.00000000
     atom   11 type  3   force =     0.00000000    0.00000000    0.00000000
     atom   12 type  3   force =     0.00000000    0.00000000    0.00000000
     atom   13 type  3   force =     0.00000000    0.00000000    0.00000000
     atom   14 type  3   force =     0.00000000    0.00000000    0.00000000
     atom   15 type  3   force =     0.00000000    0.00000000    0.00000000
     atom   16 type  3   force =     0.00000000    0.00000000    0.00000000
     atom   17 type  3   force =     0.00000000    0.00000000    0.00000000
     atom   18 type  3   force =     0.00000000    0.00000000    0.00000000
     atom   19 type  3   force =     0.00000000    0.00000000    0.00000000
     atom   20 type  3   force =     0.00000000    0.00000000    0.00000000
     atom   21 type  3   force =     0.00000000    0.00000000    0.00000000
     atom   22 type  3   force =     0.00000000    0.00000000    0.00000000
     atom   23 type  3   force =     0.00000000    0.00000000    0.00000000
     atom   24 type  3   force =     0.00000000    0.00000000    0.00000000
     atom   25 type  3   force =     0.00000000    0.00000000    0.00000000
     The SCF correction term to forces
     atom    1 type  2   force =     0.00000051    0.00000092   -0.00000079
     atom    2 type  1   force =    -0.00000406   -0.00000119   -0.00000154
     atom    3 type  1   force =    -0.00000292   -0.00000168   -0.00000150
     atom    4 type  1   force =     0.00000206    0.00000082    0.00000072
     atom    5 type  1   force =     0.00000296   -0.00000006    0.00000001
     atom    6 type  4   force =    -0.00000003   -0.00000115    0.00000080
     atom    7 type  4   force =    -0.00000156    0.00000051   -0.00000024
     atom    8 type  4   force =     0.00000146    0.00000015   -0.00000048
     atom    9 type  4   force =     0.00000066   -0.00000023    0.00000041
     atom   10 type  3   force =    -0.00000196   -0.00000326   -0.00000202
     atom   11 type  3   force =    -0.00000404    0.00000135    0.00000275
     atom   12 type  3   force =     0.00000204    0.00000044    0.00000070
     atom   13 type  3   force =     0.00000140   -0.00000035   -0.00000053
     atom   14 type  3   force =     0.00000174   -0.00000014    0.00000209
     atom   15 type  3   force =     0.00000322    0.00000080   -0.00000168
     atom   16 type  3   force =    -0.00000162    0.00000035   -0.00000036
     atom   17 type  3   force =     0.00000093   -0.00000060    0.00000025
     atom   18 type  3   force =    -0.00000294    0.00000039    0.00000178
     atom   19 type  3   force =    -0.00000184    0.00000510   -0.00000222
     atom   20 type  3   force =     0.00000118   -0.00000041   -0.00000076
     atom   21 type  3   force =     0.00000081    0.00000091    0.00000074
     atom   22 type  3   force =     0.00000204    0.00000009   -0.00000077
     atom   23 type  3   force =     0.00000082   -0.00000128    0.00000057
     atom   24 type  3   force =     0.00000123   -0.00000159    0.00000286
     atom   25 type  3   force =    -0.00000236   -0.00000452   -0.00000270

     Total force =     0.265361     Total SCF correction =     0.000015


     Computing stress (Cartesian axis) and pressure


     negative rho (up, down):  0.000E+00 9.067E-04
          total   stress  (Ry/bohr**3)                   (kbar)     P=      140.81
   0.00088242  -0.00002741   0.00001575          129.81       -4.03        2.32
  -0.00002741   0.00128037  -0.00003665           -4.03      188.35       -5.39
   0.00001575  -0.00003665   0.00070875            2.32       -5.39      104.26

     kinetic stress (kbar)  28648.83     93.22    -41.67
                               93.22  28785.81      1.88
                              -41.67      1.88  28727.09

     local   stress (kbar)  -8179.56   4414.12  -9199.05
                             4414.12 -15165.09   -611.11
                            -9199.05   -611.11  -4676.99

     nonloc. stress (kbar)  -7344.10      5.59     -1.09
                                5.59  -7333.74    -11.43
                               -1.09    -11.43  -7339.10

     hartree stress (kbar)  15257.86  -1609.58   3890.07
                            -1609.58  18732.11    320.67
                             3890.07    320.67  14269.40

     exc-cor stress (kbar)  -3024.62     -4.31      3.61
                               -4.31  -3027.94     -0.73
                                3.61     -0.73  -3028.90

     corecor stress (kbar)  -3337.95      0.75     -0.64
                                0.75  -3337.37      1.20
                               -0.64      1.20  -3336.09

     ewald   stress (kbar) -21890.66  -2903.82   5351.09
                            -2903.82 -18465.43    294.13
                             5351.09    294.13 -24511.15

     hubbard stress (kbar)      0.00      0.00      0.00
                                0.00      0.00      0.00
                                0.00      0.00      0.00

     DFT-D   stress (kbar)      0.00      0.00      0.00
                                0.00      0.00      0.00
                                0.00      0.00      0.00

     XDM     stress (kbar)      0.00      0.00      0.00
                                0.00      0.00      0.00
                                0.00      0.00      0.00

     dft-nl  stress (kbar)      0.00      0.00      0.00
                                0.00      0.00      0.00
                                0.00      0.00      0.00

     TS-vdW  stress (kbar)      0.00      0.00      0.00
                                0.00      0.00      0.00
                                0.00      0.00      0.00



     init_run     :   1127.13s CPU   1287.61s WALL (       1 calls)
     electrons    :  85494.43s CPU  98159.22s WALL (       1 calls)
     forces       :    138.57s CPU    162.81s WALL (       1 calls)
     stress       :   1175.36s CPU   1330.02s WALL (       1 calls)

     Called by init_run:
     wfcinit      :   1110.81s CPU   1269.61s WALL (       1 calls)
     wfcinit:atom :      1.39s CPU      1.52s WALL (     316 calls)
     wfcinit:wfcr :   1100.63s CPU   1257.72s WALL (     316 calls)
     potinit      :      6.92s CPU      7.17s WALL (       1 calls)
     hinit0       :      5.36s CPU      6.22s WALL (       1 calls)

     Called by electrons:
     c_bands      :  70838.66s CPU  81282.03s WALL (      33 calls)
     sum_band     :  14420.21s CPU  16600.59s WALL (      33 calls)
     v_of_rho     :     63.55s CPU     73.95s WALL (      34 calls)
     v_h          :      5.11s CPU      6.48s WALL (      34 calls)
     v_xc         :     62.11s CPU     71.89s WALL (      36 calls)
     newd         :     81.56s CPU     99.68s WALL (      34 calls)
     PAW_pot      :     36.84s CPU     40.32s WALL (      34 calls)
     mix_rho      :     46.48s CPU     53.22s WALL (      33 calls)

     Called by c_bands:
     init_us_2    :    115.01s CPU    126.88s WALL (   21804 calls)
     cegterg      :  70014.81s CPU  80269.44s WALL (   10428 calls)

     Called by sum_band:
     sum_band:wei :      0.59s CPU      0.72s WALL (      33 calls)
     sum_band:loo :  14234.59s CPU  16377.28s WALL (      33 calls)
     sum_band:buf :     32.22s CPU     34.99s WALL (   10428 calls)
     sum_band:ini :     49.23s CPU     54.11s WALL (   10428 calls)
     sum_band:cal :    876.22s CPU   1008.86s WALL (   10428 calls)
     sum_band:bec :      2.64s CPU      2.68s WALL (   10428 calls)
     addusdens    :    165.22s CPU    200.70s WALL (      33 calls)
     addusd:skk   :      1.39s CPU      1.58s WALL (      99 calls)
     addusd:dgemm :      6.52s CPU     13.42s WALL (     198 calls)
     addusd:qvan2 :    156.13s CPU    182.52s WALL (     198 calls)

     Called by *egterg:
     cdiaghg      :   1272.82s CPU   1494.62s WALL (   38119 calls)
     cegterg:over :   3440.75s CPU   3928.52s WALL (   27691 calls)
     cegterg:upda :    326.54s CPU    372.97s WALL (   27691 calls)
     cegterg:last :    587.44s CPU    680.79s WALL (   16450 calls)
     h_psi        :  61924.74s CPU  70997.11s WALL (   38435 calls)
     s_psi        :    687.17s CPU    800.65s WALL (   38435 calls)
     g_psi        :     35.66s CPU     40.19s WALL (   27691 calls)

     Called by h_psi:
     h_psi:calbec :   2576.88s CPU   2946.41s WALL (   38435 calls)
     vloc_psi     :  58574.07s CPU  67123.49s WALL (   38435 calls)
     add_vuspsi   :    705.37s CPU    839.92s WALL (   38435 calls)

     General routines
     calbec       :   3718.75s CPU   4253.18s WALL (   50443 calls)
     fft          :     92.52s CPU    106.23s WALL (     888 calls)
     ffts         :      2.58s CPU      3.01s WALL (     134 calls)
     fftw         :  69544.74s CPU  80046.58s WALL ( 6424944 calls)
     interpolate  :      7.16s CPU      8.22s WALL (      68 calls)

     Parallel routines
     fft_scatt_xy :   1196.37s CPU   1243.58s WALL ( 6425966 calls)
     fft_scatt_yz :  65241.30s CPU  75612.68s WALL ( 6425966 calls)

     PAW routines
     PAW_pot      :     36.84s CPU     40.32s WALL (      34 calls)

     PWSCF        :   1d 0h25m CPU   1d 4h 2m WALL


   This run was terminated on:  22:54:32  16Jan2023            

=------------------------------------------------------------------------------=
   JOB DONE.
=------------------------------------------------------------------------------=
Note: The following floating-point exceptions are signalling: IEEE_UNDERFLOW_FLAG IEEE_DENORMAL
Note: The following floating-point exceptions are signalling: IEEE_DENORMAL
Note: The following floating-point exceptions are signalling: IEEE_DENORMAL
Note: The following floating-point exceptions are signalling: IEEE_INVALID_FLAG IEEE_DENORMAL
Note: The following floating-point exceptions are signalling: IEEE_DENORMAL
Note: The following floating-point exceptions are signalling: IEEE_DENORMAL
Note: The following floating-point exceptions are signalling: IEEE_DENORMAL
Note: The following floating-point exceptions are signalling: IEEE_DENORMAL
Note: The following floating-point exceptions are signalling: IEEE_DENORMAL
Note: The following floating-point exceptions are signalling: IEEE_DENORMAL
Note: The following floating-point exceptions are signalling: IEEE_INVALID_FLAG IEEE_DENORMAL
