
     Program PWSCF v.6.7MaX starts on 16Jan2023 at 19:39:25 

     This program is part of the open-source Quantum ESPRESSO suite
     for quantum simulation of materials; please cite
         "P. Giannozzi et al., J. Phys.:Condens. Matter 21 395502 (2009);
         "P. Giannozzi et al., J. Phys.:Condens. Matter 29 465901 (2017);
          URL http://www.quantum-espresso.org", 
     in publications or presentations arising from this work. More details at
     http://www.quantum-espresso.org/quote

     Parallel version (MPI), running on    16 processors

     MPI processes distributed on     1 nodes
     R & G space division:  proc/nbgrp/npool/nimage =      16
     Reading input from scale_3d-02.in

     Current dimensions of program PWSCF are:
     Max number of different atomic species (ntypx) = 10
     Max number of k-points (npk) =  40000
     Max angular momentum in pseudopotentials (lmaxx) =  3
     Message from routine read_pp_mesh:
     mesh size missing, using the one in header
     file Fe.pbe-spn-kjpaw_psl.0.2.1.UPF: wavefunction(s)  3D renormalized
     file O.pbe-n-kjpaw_psl.0.1.UPF: wavefunction(s)  2P renormalized

     Subspace diagonalization in iterative solution of the eigenvalue problem:
     a serial algorithm will be used


     Parallelization info
     --------------------
     sticks:   dense  smooth     PW     G-vecs:    dense   smooth      PW
     Min        1200     444    119                76950    17338    2441
     Max        1202     446    120                76951    17339    2444
     Sum       19211    7107   1919              1231207   277409   39077



     bravais-lattice index     =            0
     lattice parameter (alat)  =      19.3373  a.u.
     unit-cell volume          =    2054.1302 (a.u.)^3
     number of atoms/cell      =           25
     number of atomic types    =            4
     number of electrons       =       189.00
     number of Kohn-Sham states=          114
     kinetic-energy cutoff     =     100.0000  Ry
     charge density cutoff     =    1080.0000  Ry
     scf convergence threshold =      2.0E-10
     mixing beta               =       0.4000
     number of iterations used =            8  plain     mixing
     Exchange-correlation= PBE
                           (   1   4   3   4   0   0   0)

     celldm(1)=  19.337306  celldm(2)=   0.000000  celldm(3)=   0.000000
     celldm(4)=   0.000000  celldm(5)=   0.000000  celldm(6)=   0.000000

     crystal axes: (cart. coord. in units of alat)
               a(1) = (   1.000000   0.000000   0.000000 )  
               a(2) = (   0.000000   0.597590   0.000000 )  
               a(3) = (   0.000000   0.000000   0.475375 )  

     reciprocal axes: (cart. coord. in units 2 pi/alat)
               b(1) = (  1.000000  0.000000  0.000000 )  
               b(2) = (  0.000000  1.673388  0.000000 )  
               b(3) = (  0.000000  0.000000  2.103600 )  


     PseudoPot. # 1 for Fe read from file:
     /opt/QEpot/SSSP_precision_pseudos/Fe.pbe-spn-kjpaw_psl.0.2.1.UPF
     MD5 check sum: e86618425769142926afa95317d90200
     Pseudo is Projector augmented-wave + core cor, Zval = 16.0
     Generated using "atomic" code by A. Dal Corso  v.5.0.99 svn rev. 10869
     Shape of augmentation charge: PSQ
     Using radial grid of 1191 points,  6 beta functions with: 
                l(1) =   0
                l(2) =   0
                l(3) =   1
                l(4) =   1
                l(5) =   2
                l(6) =   2
     Q(r) pseudized with 0 coefficients 


     PseudoPot. # 2 for Na read from file:
     /opt/QEpot/SSSP_precision_pseudos/Na_ONCV_PBE-1.0.oncvpsp.upf
     MD5 check sum: 24a298df0a6742ae313db96548fdb2a4
     Pseudo is Norm-conserving, Zval =  9.0
     Generated using ONCVPSP code by D. R. Hamann
     Using radial grid of 1992 points,  4 beta functions with: 
                l(1) =   0
                l(2) =   0
                l(3) =   1
                l(4) =   1

     PseudoPot. # 3 for O  read from file:
     /opt/QEpot/SSSP_precision_pseudos/O.pbe-n-kjpaw_psl.0.1.UPF
     MD5 check sum: 0234752ac141de4415c5fc33072bef88
     Pseudo is Projector augmented-wave + core cor, Zval =  6.0
     Generated using "atomic" code by A. Dal Corso  v.5.0.99 svn rev. 10869
     Shape of augmentation charge: BESSEL
     Using radial grid of 1095 points,  4 beta functions with: 
                l(1) =   0
                l(2) =   0
                l(3) =   1
                l(4) =   1
     Q(r) pseudized with 0 coefficients 


     PseudoPot. # 4 for P  read from file:
     /opt/QEpot/SSSP_precision_pseudos/P.pbe-n-rrkjus_psl.1.0.0.UPF
     MD5 check sum: 8b930f418f0a4573dca56cd030ffe088
     Pseudo is Ultrasoft + core correction, Zval =  5.0
     Generated using "atomic" code by A. Dal Corso  v.5.1
     Using radial grid of 1147 points,  6 beta functions with: 
                l(1) =   0
                l(2) =   0
                l(3) =   1
                l(4) =   1
                l(5) =   2
                l(6) =   2
     Q(r) pseudized with 0 coefficients 


     atomic species   valence    mass     pseudopotential
        Fe            16.00    55.84500     Fe( 1.00)
        Na             9.00    22.98977     Na( 1.00)
        O              6.00    15.99940     O ( 1.00)
        P              5.00    30.97376     P ( 1.00)

     Starting magnetic structure 
     atomic species   magnetization
        Fe           0.312
        Na           0.000
        O            0.000
        P            0.000

     No symmetry found


                                    s                        frac. trans.

      isym =  1     identity                                     

 cryst.   s( 1) = (     1          0          0      )
                  (     0          1          0      )
                  (     0          0          1      )

 cart.    s( 1) = (  1.0000000  0.0000000  0.0000000 )
                  (  0.0000000  1.0000000  0.0000000 )
                  (  0.0000000  0.0000000  1.0000000 )


   Cartesian axes

     site n.     atom                  positions (alat units)
         1           Na  tau(   1) = (   0.0062130   0.5589946   0.3199752  )
         2           Fe  tau(   2) = (   0.3024540   0.4615785   0.4032815  )
         3           Fe  tau(   3) = (   0.2226710   0.2028125   0.2366838  )
         4           Fe  tau(   4) = (   0.7013320   0.1357252   0.0672885  )
         5           Fe  tau(   5) = (   0.7738600   0.3969605   0.2293763  )
         6           P   tau(   6) = (   0.0926260   0.3991805   0.1250451  )
         7           P   tau(   7) = (   0.3962170   0.1502998   0.4467465  )
         8           P   tau(   8) = (   0.9068620   0.2055130   0.3410543  )
         9           P   tau(   9) = (   0.6031040   0.4475943   0.0235049  )
        10           O   tau(  10) = (   0.1770480   0.4126729   0.2517784  )
        11           O   tau(  11) = (   0.3555840   0.1507863   0.1134531  )
        12           O   tau(  12) = (   0.8203270   0.1944755   0.2163144  )
        13           O   tau(  13) = (   0.6432920   0.4477502   0.3569062  )
        14           O   tau(  14) = (   0.4570760   0.4637854   0.0390093  )
        15           O   tau(  15) = (   0.0482830   0.1673598   0.3167541  )
        16           O   tau(  16) = (   0.5424170   0.1341864   0.4331660  )
        17           O   tau(  17) = (   0.9514120   0.4382384   0.1505538  )
        18           O   tau(  18) = (   0.1482380   0.4961150   0.0257630  )
        19           O   tau(  19) = (   0.3208110   0.0482100   0.3626226  )
        20           O   tau(  20) = (   0.8859830   0.3464032   0.3830367  )
        21           O   tau(  21) = (   0.6517160   0.3224966   0.0965763  )
        22           O   tau(  22) = (   0.8510480   0.1052200   0.4372442  )
        23           O   tau(  23) = (   0.6793830   0.5490411   0.1078765  )
        24           O   tau(  24) = (   0.1159970   0.2583363   0.0855153  )
        25           O   tau(  25) = (   0.3461160   0.2749679   0.3726996  )

   Crystallographic axes

     site n.     atom                  positions (cryst. coord.)
         1           Na  tau(   1) = (  0.0062130  0.9354150  0.6731000  )
         2           Fe  tau(   2) = (  0.3024540  0.7724000  0.8483430  )
         3           Fe  tau(   3) = (  0.2226710  0.3393840  0.4978880  )
         4           Fe  tau(   4) = (  0.7013320  0.2271210  0.1415480  )
         5           Fe  tau(   5) = (  0.7738600  0.6642690  0.4825160  )
         6           P   tau(   6) = (  0.0926260  0.6679840  0.2630450  )
         7           P   tau(   7) = (  0.3962170  0.2515100  0.9397760  )
         8           P   tau(   8) = (  0.9068620  0.3439030  0.7174420  )
         9           P   tau(   9) = (  0.6031040  0.7489990  0.0494450  )
        10           O   tau(  10) = (  0.1770480  0.6905620  0.5296410  )
        11           O   tau(  11) = (  0.3555840  0.2523240  0.2386600  )
        12           O   tau(  12) = (  0.8203270  0.3254330  0.4550390  )
        13           O   tau(  13) = (  0.6432920  0.7492600  0.7507880  )
        14           O   tau(  14) = (  0.4570760  0.7760930  0.0820600  )
        15           O   tau(  15) = (  0.0482830  0.2800580  0.6663240  )
        16           O   tau(  16) = (  0.5424170  0.2245460  0.9112080  )
        17           O   tau(  17) = (  0.9514120  0.7333430  0.3167050  )
        18           O   tau(  18) = (  0.1482380  0.8301930  0.0541950  )
        19           O   tau(  19) = (  0.3208110  0.0806740  0.7628130  )
        20           O   tau(  20) = (  0.8859830  0.5796670  0.8057560  )
        21           O   tau(  21) = (  0.6517160  0.5396620  0.2031580  )
        22           O   tau(  22) = (  0.8510480  0.1760740  0.9197870  )
        23           O   tau(  23) = (  0.6793830  0.9187590  0.2269290  )
        24           O   tau(  24) = (  0.1159970  0.4322970  0.1798900  )
        25           O   tau(  25) = (  0.3461160  0.4601280  0.7840110  )

     number of k points=   158  Marzari-Vanderbilt smearing, width (Ry)=  0.0073
                       cart. coord. in units 2pi/alat
        k(    1) = (   0.0000000   0.0000000   0.0000000), wk =   0.0031746
        k(    2) = (   0.0000000   0.0000000   0.2337334), wk =   0.0063492
        k(    3) = (   0.0000000   0.0000000   0.4674667), wk =   0.0063492
        k(    4) = (   0.0000000   0.0000000   0.7012001), wk =   0.0063492
        k(    5) = (   0.0000000   0.0000000   0.9349334), wk =   0.0063492
        k(    6) = (   0.0000000   0.2390555   0.0000000), wk =   0.0063492
        k(    7) = (   0.0000000   0.2390555   0.2337334), wk =   0.0063492
        k(    8) = (   0.0000000   0.2390555   0.4674667), wk =   0.0063492
        k(    9) = (   0.0000000   0.2390555   0.7012001), wk =   0.0063492
        k(   10) = (   0.0000000   0.2390555   0.9349334), wk =   0.0063492
        k(   11) = (   0.0000000   0.4781110   0.0000000), wk =   0.0063492
        k(   12) = (   0.0000000   0.4781110   0.2337334), wk =   0.0063492
        k(   13) = (   0.0000000   0.4781110   0.4674667), wk =   0.0063492
        k(   14) = (   0.0000000   0.4781110   0.7012001), wk =   0.0063492
        k(   15) = (   0.0000000   0.4781110   0.9349334), wk =   0.0063492
        k(   16) = (   0.0000000   0.7171664   0.0000000), wk =   0.0063492
        k(   17) = (   0.0000000   0.7171664   0.2337334), wk =   0.0063492
        k(   18) = (   0.0000000   0.7171664   0.4674667), wk =   0.0063492
        k(   19) = (   0.0000000   0.7171664   0.7012001), wk =   0.0063492
        k(   20) = (   0.0000000   0.7171664   0.9349334), wk =   0.0063492
        k(   21) = (   0.2000000   0.0000000   0.0000000), wk =   0.0063492
        k(   22) = (   0.2000000   0.0000000   0.2337334), wk =   0.0063492
        k(   23) = (   0.2000000   0.0000000   0.4674667), wk =   0.0063492
        k(   24) = (   0.2000000   0.0000000   0.7012001), wk =   0.0063492
        k(   25) = (   0.2000000   0.0000000   0.9349334), wk =   0.0063492
        k(   26) = (   0.2000000   0.2390555   0.0000000), wk =   0.0063492
        k(   27) = (   0.2000000   0.2390555   0.2337334), wk =   0.0063492
        k(   28) = (   0.2000000   0.2390555   0.4674667), wk =   0.0063492
        k(   29) = (   0.2000000   0.2390555   0.7012001), wk =   0.0063492
        k(   30) = (   0.2000000   0.2390555   0.9349334), wk =   0.0063492
        k(   31) = (   0.2000000   0.4781110   0.0000000), wk =   0.0063492
        k(   32) = (   0.2000000   0.4781110   0.2337334), wk =   0.0063492
        k(   33) = (   0.2000000   0.4781110   0.4674667), wk =   0.0063492
        k(   34) = (   0.2000000   0.4781110   0.7012001), wk =   0.0063492
        k(   35) = (   0.2000000   0.4781110   0.9349334), wk =   0.0063492
        k(   36) = (   0.2000000   0.7171664   0.0000000), wk =   0.0063492
        k(   37) = (   0.2000000   0.7171664   0.2337334), wk =   0.0063492
        k(   38) = (   0.2000000   0.7171664   0.4674667), wk =   0.0063492
        k(   39) = (   0.2000000   0.7171664   0.7012001), wk =   0.0063492
        k(   40) = (   0.2000000   0.7171664   0.9349334), wk =   0.0063492
        k(   41) = (   0.4000000   0.0000000   0.0000000), wk =   0.0063492
        k(   42) = (   0.4000000   0.0000000   0.2337334), wk =   0.0063492
        k(   43) = (   0.4000000   0.0000000   0.4674667), wk =   0.0063492
        k(   44) = (   0.4000000   0.0000000   0.7012001), wk =   0.0063492
        k(   45) = (   0.4000000   0.0000000   0.9349334), wk =   0.0063492
        k(   46) = (   0.4000000   0.2390555   0.0000000), wk =   0.0063492
        k(   47) = (   0.4000000   0.2390555   0.2337334), wk =   0.0063492
        k(   48) = (   0.4000000   0.2390555   0.4674667), wk =   0.0063492
        k(   49) = (   0.4000000   0.2390555   0.7012001), wk =   0.0063492
        k(   50) = (   0.4000000   0.2390555   0.9349334), wk =   0.0063492
        k(   51) = (   0.4000000   0.4781110   0.0000000), wk =   0.0063492
        k(   52) = (   0.4000000   0.4781110   0.2337334), wk =   0.0063492
        k(   53) = (   0.4000000   0.4781110   0.4674667), wk =   0.0063492
        k(   54) = (   0.4000000   0.4781110   0.7012001), wk =   0.0063492
        k(   55) = (   0.4000000   0.4781110   0.9349334), wk =   0.0063492
        k(   56) = (   0.4000000   0.7171664   0.0000000), wk =   0.0063492
        k(   57) = (   0.4000000   0.7171664   0.2337334), wk =   0.0063492
        k(   58) = (   0.4000000   0.7171664   0.4674667), wk =   0.0063492
        k(   59) = (   0.4000000   0.7171664   0.7012001), wk =   0.0063492
        k(   60) = (   0.4000000   0.7171664   0.9349334), wk =   0.0063492
        k(   61) = (   0.0000000  -0.2390555   0.2337334), wk =   0.0063492
        k(   62) = (   0.0000000  -0.2390555   0.4674667), wk =   0.0063492
        k(   63) = (   0.0000000  -0.2390555   0.7012001), wk =   0.0063492
        k(   64) = (   0.0000000  -0.2390555   0.9349334), wk =   0.0063492
        k(   65) = (   0.0000000  -0.4781110   0.2337334), wk =   0.0063492
        k(   66) = (   0.0000000  -0.4781110   0.4674667), wk =   0.0063492
        k(   67) = (   0.0000000  -0.4781110   0.7012001), wk =   0.0063492
        k(   68) = (   0.0000000  -0.4781110   0.9349334), wk =   0.0063492
        k(   69) = (   0.0000000  -0.7171664   0.2337334), wk =   0.0063492
        k(   70) = (   0.0000000  -0.7171664   0.4674667), wk =   0.0063492
        k(   71) = (   0.0000000  -0.7171664   0.7012001), wk =   0.0063492
        k(   72) = (   0.0000000  -0.7171664   0.9349334), wk =   0.0063492
        k(   73) = (  -0.2000000   0.0000000   0.2337334), wk =   0.0063492
        k(   74) = (  -0.2000000   0.0000000   0.4674667), wk =   0.0063492
        k(   75) = (  -0.2000000   0.0000000   0.7012001), wk =   0.0063492
        k(   76) = (  -0.2000000   0.0000000   0.9349334), wk =   0.0063492
        k(   77) = (  -0.2000000   0.2390555   0.0000000), wk =   0.0063492
        k(   78) = (  -0.2000000  -0.2390555   0.2337334), wk =   0.0063492
        k(   79) = (  -0.2000000   0.2390555  -0.2337334), wk =   0.0063492
        k(   80) = (   0.2000000  -0.2390555  -0.2337334), wk =   0.0063492
        k(   81) = (  -0.2000000  -0.2390555   0.4674667), wk =   0.0063492
        k(   82) = (  -0.2000000   0.2390555  -0.4674667), wk =   0.0063492
        k(   83) = (   0.2000000  -0.2390555  -0.4674667), wk =   0.0063492
        k(   84) = (  -0.2000000  -0.2390555   0.7012001), wk =   0.0063492
        k(   85) = (  -0.2000000   0.2390555  -0.7012001), wk =   0.0063492
        k(   86) = (   0.2000000  -0.2390555  -0.7012001), wk =   0.0063492
        k(   87) = (  -0.2000000  -0.2390555   0.9349334), wk =   0.0063492
        k(   88) = (  -0.2000000   0.2390555  -0.9349334), wk =   0.0063492
        k(   89) = (   0.2000000  -0.2390555  -0.9349334), wk =   0.0063492
        k(   90) = (  -0.2000000   0.4781110   0.0000000), wk =   0.0063492
        k(   91) = (  -0.2000000  -0.4781110   0.2337334), wk =   0.0063492
        k(   92) = (  -0.2000000   0.4781110  -0.2337334), wk =   0.0063492
        k(   93) = (   0.2000000  -0.4781110  -0.2337334), wk =   0.0063492
        k(   94) = (  -0.2000000  -0.4781110   0.4674667), wk =   0.0063492
        k(   95) = (  -0.2000000   0.4781110  -0.4674667), wk =   0.0063492
        k(   96) = (   0.2000000  -0.4781110  -0.4674667), wk =   0.0063492
        k(   97) = (  -0.2000000  -0.4781110   0.7012001), wk =   0.0063492
        k(   98) = (  -0.2000000   0.4781110  -0.7012001), wk =   0.0063492
        k(   99) = (   0.2000000  -0.4781110  -0.7012001), wk =   0.0063492
        k(  100) = (  -0.2000000  -0.4781110   0.9349334), wk =   0.0063492
        k(  101) = (  -0.2000000   0.4781110  -0.9349334), wk =   0.0063492
        k(  102) = (   0.2000000  -0.4781110  -0.9349334), wk =   0.0063492
        k(  103) = (  -0.2000000   0.7171664   0.0000000), wk =   0.0063492
        k(  104) = (  -0.2000000  -0.7171664   0.2337334), wk =   0.0063492
        k(  105) = (  -0.2000000   0.7171664  -0.2337334), wk =   0.0063492
        k(  106) = (   0.2000000  -0.7171664  -0.2337334), wk =   0.0063492
        k(  107) = (  -0.2000000  -0.7171664   0.4674667), wk =   0.0063492
        k(  108) = (  -0.2000000   0.7171664  -0.4674667), wk =   0.0063492
        k(  109) = (   0.2000000  -0.7171664  -0.4674667), wk =   0.0063492
        k(  110) = (  -0.2000000  -0.7171664   0.7012001), wk =   0.0063492
        k(  111) = (  -0.2000000   0.7171664  -0.7012001), wk =   0.0063492
        k(  112) = (   0.2000000  -0.7171664  -0.7012001), wk =   0.0063492
        k(  113) = (  -0.2000000  -0.7171664   0.9349334), wk =   0.0063492
        k(  114) = (  -0.2000000   0.7171664  -0.9349334), wk =   0.0063492
        k(  115) = (   0.2000000  -0.7171664  -0.9349334), wk =   0.0063492
        k(  116) = (  -0.4000000   0.0000000   0.2337334), wk =   0.0063492
        k(  117) = (  -0.4000000   0.0000000   0.4674667), wk =   0.0063492
        k(  118) = (  -0.4000000   0.0000000   0.7012001), wk =   0.0063492
        k(  119) = (  -0.4000000   0.0000000   0.9349334), wk =   0.0063492
        k(  120) = (  -0.4000000   0.2390555   0.0000000), wk =   0.0063492
        k(  121) = (  -0.4000000  -0.2390555   0.2337334), wk =   0.0063492
        k(  122) = (  -0.4000000   0.2390555  -0.2337334), wk =   0.0063492
        k(  123) = (   0.4000000  -0.2390555  -0.2337334), wk =   0.0063492
        k(  124) = (  -0.4000000  -0.2390555   0.4674667), wk =   0.0063492
        k(  125) = (  -0.4000000   0.2390555  -0.4674667), wk =   0.0063492
        k(  126) = (   0.4000000  -0.2390555  -0.4674667), wk =   0.0063492
        k(  127) = (  -0.4000000  -0.2390555   0.7012001), wk =   0.0063492
        k(  128) = (  -0.4000000   0.2390555  -0.7012001), wk =   0.0063492
        k(  129) = (   0.4000000  -0.2390555  -0.7012001), wk =   0.0063492
        k(  130) = (  -0.4000000  -0.2390555   0.9349334), wk =   0.0063492
        k(  131) = (  -0.4000000   0.2390555  -0.9349334), wk =   0.0063492
        k(  132) = (   0.4000000  -0.2390555  -0.9349334), wk =   0.0063492
        k(  133) = (  -0.4000000   0.4781110   0.0000000), wk =   0.0063492
        k(  134) = (  -0.4000000  -0.4781110   0.2337334), wk =   0.0063492
        k(  135) = (  -0.4000000   0.4781110  -0.2337334), wk =   0.0063492
        k(  136) = (   0.4000000  -0.4781110  -0.2337334), wk =   0.0063492
        k(  137) = (  -0.4000000  -0.4781110   0.4674667), wk =   0.0063492
        k(  138) = (  -0.4000000   0.4781110  -0.4674667), wk =   0.0063492
        k(  139) = (   0.4000000  -0.4781110  -0.4674667), wk =   0.0063492
        k(  140) = (  -0.4000000  -0.4781110   0.7012001), wk =   0.0063492
        k(  141) = (  -0.4000000   0.4781110  -0.7012001), wk =   0.0063492
        k(  142) = (   0.4000000  -0.4781110  -0.7012001), wk =   0.0063492
        k(  143) = (  -0.4000000  -0.4781110   0.9349334), wk =   0.0063492
        k(  144) = (  -0.4000000   0.4781110  -0.9349334), wk =   0.0063492
        k(  145) = (   0.4000000  -0.4781110  -0.9349334), wk =   0.0063492
        k(  146) = (  -0.4000000   0.7171664   0.0000000), wk =   0.0063492
        k(  147) = (  -0.4000000  -0.7171664   0.2337334), wk =   0.0063492
        k(  148) = (  -0.4000000   0.7171664  -0.2337334), wk =   0.0063492
        k(  149) = (   0.4000000  -0.7171664  -0.2337334), wk =   0.0063492
        k(  150) = (  -0.4000000  -0.7171664   0.4674667), wk =   0.0063492
        k(  151) = (  -0.4000000   0.7171664  -0.4674667), wk =   0.0063492
        k(  152) = (   0.4000000  -0.7171664  -0.4674667), wk =   0.0063492
        k(  153) = (  -0.4000000  -0.7171664   0.7012001), wk =   0.0063492
        k(  154) = (  -0.4000000   0.7171664  -0.7012001), wk =   0.0063492
        k(  155) = (   0.4000000  -0.7171664  -0.7012001), wk =   0.0063492
        k(  156) = (  -0.4000000  -0.7171664   0.9349334), wk =   0.0063492
        k(  157) = (  -0.4000000   0.7171664  -0.9349334), wk =   0.0063492
        k(  158) = (   0.4000000  -0.7171664  -0.9349334), wk =   0.0063492

                       cryst. coord.
        k(    1) = (   0.0000000   0.0000000   0.0000000), wk =   0.0031746
        k(    2) = (   0.0000000   0.0000000   0.1111111), wk =   0.0063492
        k(    3) = (   0.0000000   0.0000000   0.2222222), wk =   0.0063492
        k(    4) = (   0.0000000   0.0000000   0.3333333), wk =   0.0063492
        k(    5) = (   0.0000000   0.0000000   0.4444444), wk =   0.0063492
        k(    6) = (   0.0000000   0.1428571   0.0000000), wk =   0.0063492
        k(    7) = (   0.0000000   0.1428571   0.1111111), wk =   0.0063492
        k(    8) = (   0.0000000   0.1428571   0.2222222), wk =   0.0063492
        k(    9) = (   0.0000000   0.1428571   0.3333333), wk =   0.0063492
        k(   10) = (   0.0000000   0.1428571   0.4444444), wk =   0.0063492
        k(   11) = (   0.0000000   0.2857143   0.0000000), wk =   0.0063492
        k(   12) = (   0.0000000   0.2857143   0.1111111), wk =   0.0063492
        k(   13) = (   0.0000000   0.2857143   0.2222222), wk =   0.0063492
        k(   14) = (   0.0000000   0.2857143   0.3333333), wk =   0.0063492
        k(   15) = (   0.0000000   0.2857143   0.4444444), wk =   0.0063492
        k(   16) = (   0.0000000   0.4285714   0.0000000), wk =   0.0063492
        k(   17) = (   0.0000000   0.4285714   0.1111111), wk =   0.0063492
        k(   18) = (   0.0000000   0.4285714   0.2222222), wk =   0.0063492
        k(   19) = (   0.0000000   0.4285714   0.3333333), wk =   0.0063492
        k(   20) = (   0.0000000   0.4285714   0.4444444), wk =   0.0063492
        k(   21) = (   0.2000000   0.0000000   0.0000000), wk =   0.0063492
        k(   22) = (   0.2000000   0.0000000   0.1111111), wk =   0.0063492
        k(   23) = (   0.2000000   0.0000000   0.2222222), wk =   0.0063492
        k(   24) = (   0.2000000   0.0000000   0.3333333), wk =   0.0063492
        k(   25) = (   0.2000000   0.0000000   0.4444444), wk =   0.0063492
        k(   26) = (   0.2000000   0.1428571   0.0000000), wk =   0.0063492
        k(   27) = (   0.2000000   0.1428571   0.1111111), wk =   0.0063492
        k(   28) = (   0.2000000   0.1428571   0.2222222), wk =   0.0063492
        k(   29) = (   0.2000000   0.1428571   0.3333333), wk =   0.0063492
        k(   30) = (   0.2000000   0.1428571   0.4444444), wk =   0.0063492
        k(   31) = (   0.2000000   0.2857143   0.0000000), wk =   0.0063492
        k(   32) = (   0.2000000   0.2857143   0.1111111), wk =   0.0063492
        k(   33) = (   0.2000000   0.2857143   0.2222222), wk =   0.0063492
        k(   34) = (   0.2000000   0.2857143   0.3333333), wk =   0.0063492
        k(   35) = (   0.2000000   0.2857143   0.4444444), wk =   0.0063492
        k(   36) = (   0.2000000   0.4285714   0.0000000), wk =   0.0063492
        k(   37) = (   0.2000000   0.4285714   0.1111111), wk =   0.0063492
        k(   38) = (   0.2000000   0.4285714   0.2222222), wk =   0.0063492
        k(   39) = (   0.2000000   0.4285714   0.3333333), wk =   0.0063492
        k(   40) = (   0.2000000   0.4285714   0.4444444), wk =   0.0063492
        k(   41) = (   0.4000000   0.0000000   0.0000000), wk =   0.0063492
        k(   42) = (   0.4000000   0.0000000   0.1111111), wk =   0.0063492
        k(   43) = (   0.4000000   0.0000000   0.2222222), wk =   0.0063492
        k(   44) = (   0.4000000   0.0000000   0.3333333), wk =   0.0063492
        k(   45) = (   0.4000000   0.0000000   0.4444444), wk =   0.0063492
        k(   46) = (   0.4000000   0.1428571   0.0000000), wk =   0.0063492
        k(   47) = (   0.4000000   0.1428571   0.1111111), wk =   0.0063492
        k(   48) = (   0.4000000   0.1428571   0.2222222), wk =   0.0063492
        k(   49) = (   0.4000000   0.1428571   0.3333333), wk =   0.0063492
        k(   50) = (   0.4000000   0.1428571   0.4444444), wk =   0.0063492
        k(   51) = (   0.4000000   0.2857143   0.0000000), wk =   0.0063492
        k(   52) = (   0.4000000   0.2857143   0.1111111), wk =   0.0063492
        k(   53) = (   0.4000000   0.2857143   0.2222222), wk =   0.0063492
        k(   54) = (   0.4000000   0.2857143   0.3333333), wk =   0.0063492
        k(   55) = (   0.4000000   0.2857143   0.4444444), wk =   0.0063492
        k(   56) = (   0.4000000   0.4285714   0.0000000), wk =   0.0063492
        k(   57) = (   0.4000000   0.4285714   0.1111111), wk =   0.0063492
        k(   58) = (   0.4000000   0.4285714   0.2222222), wk =   0.0063492
        k(   59) = (   0.4000000   0.4285714   0.3333333), wk =   0.0063492
        k(   60) = (   0.4000000   0.4285714   0.4444444), wk =   0.0063492
        k(   61) = (   0.0000000  -0.1428571   0.1111111), wk =   0.0063492
        k(   62) = (   0.0000000  -0.1428571   0.2222222), wk =   0.0063492
        k(   63) = (   0.0000000  -0.1428571   0.3333333), wk =   0.0063492
        k(   64) = (   0.0000000  -0.1428571   0.4444444), wk =   0.0063492
        k(   65) = (   0.0000000  -0.2857143   0.1111111), wk =   0.0063492
        k(   66) = (   0.0000000  -0.2857143   0.2222222), wk =   0.0063492
        k(   67) = (   0.0000000  -0.2857143   0.3333333), wk =   0.0063492
        k(   68) = (   0.0000000  -0.2857143   0.4444444), wk =   0.0063492
        k(   69) = (   0.0000000  -0.4285714   0.1111111), wk =   0.0063492
        k(   70) = (   0.0000000  -0.4285714   0.2222222), wk =   0.0063492
        k(   71) = (   0.0000000  -0.4285714   0.3333333), wk =   0.0063492
        k(   72) = (   0.0000000  -0.4285714   0.4444444), wk =   0.0063492
        k(   73) = (  -0.2000000   0.0000000   0.1111111), wk =   0.0063492
        k(   74) = (  -0.2000000   0.0000000   0.2222222), wk =   0.0063492
        k(   75) = (  -0.2000000   0.0000000   0.3333333), wk =   0.0063492
        k(   76) = (  -0.2000000   0.0000000   0.4444444), wk =   0.0063492
        k(   77) = (  -0.2000000   0.1428571   0.0000000), wk =   0.0063492
        k(   78) = (  -0.2000000  -0.1428571   0.1111111), wk =   0.0063492
        k(   79) = (  -0.2000000   0.1428571  -0.1111111), wk =   0.0063492
        k(   80) = (   0.2000000  -0.1428571  -0.1111111), wk =   0.0063492
        k(   81) = (  -0.2000000  -0.1428571   0.2222222), wk =   0.0063492
        k(   82) = (  -0.2000000   0.1428571  -0.2222222), wk =   0.0063492
        k(   83) = (   0.2000000  -0.1428571  -0.2222222), wk =   0.0063492
        k(   84) = (  -0.2000000  -0.1428571   0.3333333), wk =   0.0063492
        k(   85) = (  -0.2000000   0.1428571  -0.3333333), wk =   0.0063492
        k(   86) = (   0.2000000  -0.1428571  -0.3333333), wk =   0.0063492
        k(   87) = (  -0.2000000  -0.1428571   0.4444444), wk =   0.0063492
        k(   88) = (  -0.2000000   0.1428571  -0.4444444), wk =   0.0063492
        k(   89) = (   0.2000000  -0.1428571  -0.4444444), wk =   0.0063492
        k(   90) = (  -0.2000000   0.2857143   0.0000000), wk =   0.0063492
        k(   91) = (  -0.2000000  -0.2857143   0.1111111), wk =   0.0063492
        k(   92) = (  -0.2000000   0.2857143  -0.1111111), wk =   0.0063492
        k(   93) = (   0.2000000  -0.2857143  -0.1111111), wk =   0.0063492
        k(   94) = (  -0.2000000  -0.2857143   0.2222222), wk =   0.0063492
        k(   95) = (  -0.2000000   0.2857143  -0.2222222), wk =   0.0063492
        k(   96) = (   0.2000000  -0.2857143  -0.2222222), wk =   0.0063492
        k(   97) = (  -0.2000000  -0.2857143   0.3333333), wk =   0.0063492
        k(   98) = (  -0.2000000   0.2857143  -0.3333333), wk =   0.0063492
        k(   99) = (   0.2000000  -0.2857143  -0.3333333), wk =   0.0063492
        k(  100) = (  -0.2000000  -0.2857143   0.4444444), wk =   0.0063492
        k(  101) = (  -0.2000000   0.2857143  -0.4444444), wk =   0.0063492
        k(  102) = (   0.2000000  -0.2857143  -0.4444444), wk =   0.0063492
        k(  103) = (  -0.2000000   0.4285714   0.0000000), wk =   0.0063492
        k(  104) = (  -0.2000000  -0.4285714   0.1111111), wk =   0.0063492
        k(  105) = (  -0.2000000   0.4285714  -0.1111111), wk =   0.0063492
        k(  106) = (   0.2000000  -0.4285714  -0.1111111), wk =   0.0063492
        k(  107) = (  -0.2000000  -0.4285714   0.2222222), wk =   0.0063492
        k(  108) = (  -0.2000000   0.4285714  -0.2222222), wk =   0.0063492
        k(  109) = (   0.2000000  -0.4285714  -0.2222222), wk =   0.0063492
        k(  110) = (  -0.2000000  -0.4285714   0.3333333), wk =   0.0063492
        k(  111) = (  -0.2000000   0.4285714  -0.3333333), wk =   0.0063492
        k(  112) = (   0.2000000  -0.4285714  -0.3333333), wk =   0.0063492
        k(  113) = (  -0.2000000  -0.4285714   0.4444444), wk =   0.0063492
        k(  114) = (  -0.2000000   0.4285714  -0.4444444), wk =   0.0063492
        k(  115) = (   0.2000000  -0.4285714  -0.4444444), wk =   0.0063492
        k(  116) = (  -0.4000000   0.0000000   0.1111111), wk =   0.0063492
        k(  117) = (  -0.4000000   0.0000000   0.2222222), wk =   0.0063492
        k(  118) = (  -0.4000000   0.0000000   0.3333333), wk =   0.0063492
        k(  119) = (  -0.4000000   0.0000000   0.4444444), wk =   0.0063492
        k(  120) = (  -0.4000000   0.1428571   0.0000000), wk =   0.0063492
        k(  121) = (  -0.4000000  -0.1428571   0.1111111), wk =   0.0063492
        k(  122) = (  -0.4000000   0.1428571  -0.1111111), wk =   0.0063492
        k(  123) = (   0.4000000  -0.1428571  -0.1111111), wk =   0.0063492
        k(  124) = (  -0.4000000  -0.1428571   0.2222222), wk =   0.0063492
        k(  125) = (  -0.4000000   0.1428571  -0.2222222), wk =   0.0063492
        k(  126) = (   0.4000000  -0.1428571  -0.2222222), wk =   0.0063492
        k(  127) = (  -0.4000000  -0.1428571   0.3333333), wk =   0.0063492
        k(  128) = (  -0.4000000   0.1428571  -0.3333333), wk =   0.0063492
        k(  129) = (   0.4000000  -0.1428571  -0.3333333), wk =   0.0063492
        k(  130) = (  -0.4000000  -0.1428571   0.4444444), wk =   0.0063492
        k(  131) = (  -0.4000000   0.1428571  -0.4444444), wk =   0.0063492
        k(  132) = (   0.4000000  -0.1428571  -0.4444444), wk =   0.0063492
        k(  133) = (  -0.4000000   0.2857143   0.0000000), wk =   0.0063492
        k(  134) = (  -0.4000000  -0.2857143   0.1111111), wk =   0.0063492
        k(  135) = (  -0.4000000   0.2857143  -0.1111111), wk =   0.0063492
        k(  136) = (   0.4000000  -0.2857143  -0.1111111), wk =   0.0063492
        k(  137) = (  -0.4000000  -0.2857143   0.2222222), wk =   0.0063492
        k(  138) = (  -0.4000000   0.2857143  -0.2222222), wk =   0.0063492
        k(  139) = (   0.4000000  -0.2857143  -0.2222222), wk =   0.0063492
        k(  140) = (  -0.4000000  -0.2857143   0.3333333), wk =   0.0063492
        k(  141) = (  -0.4000000   0.2857143  -0.3333333), wk =   0.0063492
        k(  142) = (   0.4000000  -0.2857143  -0.3333333), wk =   0.0063492
        k(  143) = (  -0.4000000  -0.2857143   0.4444444), wk =   0.0063492
        k(  144) = (  -0.4000000   0.2857143  -0.4444444), wk =   0.0063492
        k(  145) = (   0.4000000  -0.2857143  -0.4444444), wk =   0.0063492
        k(  146) = (  -0.4000000   0.4285714   0.0000000), wk =   0.0063492
        k(  147) = (  -0.4000000  -0.4285714   0.1111111), wk =   0.0063492
        k(  148) = (  -0.4000000   0.4285714  -0.1111111), wk =   0.0063492
        k(  149) = (   0.4000000  -0.4285714  -0.1111111), wk =   0.0063492
        k(  150) = (  -0.4000000  -0.4285714   0.2222222), wk =   0.0063492
        k(  151) = (  -0.4000000   0.4285714  -0.2222222), wk =   0.0063492
        k(  152) = (   0.4000000  -0.4285714  -0.2222222), wk =   0.0063492
        k(  153) = (  -0.4000000  -0.4285714   0.3333333), wk =   0.0063492
        k(  154) = (  -0.4000000   0.4285714  -0.3333333), wk =   0.0063492
        k(  155) = (   0.4000000  -0.4285714  -0.3333333), wk =   0.0063492
        k(  156) = (  -0.4000000  -0.4285714   0.4444444), wk =   0.0063492
        k(  157) = (  -0.4000000   0.4285714  -0.4444444), wk =   0.0063492
        k(  158) = (   0.4000000  -0.4285714  -0.4444444), wk =   0.0063492

     Dense  grid:  1231207 G-vectors     FFT dimensions: ( 216, 125, 100)

     Smooth grid:   277409 G-vectors     FFT dimensions: ( 125,  75,  60)

     Dynamical RAM for                 wfc:       3.77 MB

     Dynamical RAM for     wfc (w. buffer):    1195.48 MB

     Dynamical RAM for           str. fact:       4.70 MB

     Dynamical RAM for           local pot:       0.00 MB

     Dynamical RAM for          nlocal pot:       9.26 MB

     Dynamical RAM for                qrad:      10.54 MB

     Dynamical RAM for          rho,v,vnew:      15.70 MB

     Dynamical RAM for               rhoin:       5.23 MB

     Dynamical RAM for            rho*nmix:      37.57 MB

     Dynamical RAM for           G-vectors:       4.54 MB

     Dynamical RAM for          h,s,v(r/c):       2.38 MB

     Dynamical RAM for          <psi|beta>:       0.49 MB

     Dynamical RAM for                 psi:       7.54 MB

     Dynamical RAM for                hpsi:       7.54 MB

     Dynamical RAM for                spsi:       7.54 MB

     Dynamical RAM for      wfcinit/wfcrot:       9.49 MB

     Dynamical RAM for           addusdens:     238.36 MB

     Dynamical RAM for          addusforce:     273.71 MB

     Dynamical RAM for         addusstress:     237.77 MB

     Estimated static dynamical RAM per process >       1.27 GB

     Estimated max dynamical RAM per process >       1.53 GB

     Estimated total dynamical RAM >      24.55 GB

     Check: negative core charge=   -0.000003
     Generating pointlists ...
     new r_m :   0.0766 (alat units)  1.4807 (a.u.) for type    1
     new r_m :   0.0867 (alat units)  1.6770 (a.u.) for type    2
     new r_m :   0.0609 (alat units)  1.1770 (a.u.) for type    3
     new r_m :   0.0609 (alat units)  1.1770 (a.u.) for type    4

     Initial potential from superposition of free atoms

     starting charge  188.99132, renormalised to  189.00000
     Starting wfcs are  137 randomized atomic wfcs
     Checking if some PAW data can be deallocated... 
       PAW data deallocated on   13 nodes for type:  1
       PAW data deallocated on    4 nodes for type:  3

     total cpu time spent up to now is     1305.9 secs

     Self-consistent Calculation

     iteration #  1     ecut=   100.00 Ry     beta= 0.40
     Davidson diagonalization with overlap
     ethr =  1.00E-02,  avg # of iterations =  3.0

     negative rho (up, down):  0.000E+00 6.809E-05

     total cpu time spent up to now is     4967.8 secs

     total energy              =   -2123.90912981 Ry
     estimated scf accuracy    <       6.80393733 Ry

     total magnetization       =    19.00 Bohr mag/cell
     absolute magnetization    =    19.00 Bohr mag/cell

     iteration #  2     ecut=   100.00 Ry     beta= 0.40
     Davidson diagonalization with overlap
     ethr =  3.60E-03,  avg # of iterations =  2.0

     negative rho (up, down):  0.000E+00 4.015E-05

     total cpu time spent up to now is     8368.5 secs

     total energy              =   -2122.47211502 Ry
     estimated scf accuracy    <      18.81450312 Ry

     total magnetization       =    10.44 Bohr mag/cell
     absolute magnetization    =    11.33 Bohr mag/cell

     iteration #  3     ecut=   100.00 Ry     beta= 0.40
     Davidson diagonalization with overlap
     ethr =  3.60E-03,  avg # of iterations =  2.0

     negative rho (up, down):  0.000E+00 3.137E-05

     total cpu time spent up to now is    11230.3 secs

     total energy              =   -2124.51002881 Ry
     estimated scf accuracy    <      30.72082256 Ry

     total magnetization       =    11.00 Bohr mag/cell
     absolute magnetization    =    11.82 Bohr mag/cell

     iteration #  4     ecut=   100.00 Ry     beta= 0.40
     Davidson diagonalization with overlap
     ethr =  3.60E-03,  avg # of iterations =  2.0

     negative rho (up, down):  0.000E+00 8.314E-05

     total cpu time spent up to now is    14030.6 secs

     total energy              =   -2125.43302184 Ry
     estimated scf accuracy    <       9.14045704 Ry

     total magnetization       =    15.11 Bohr mag/cell
     absolute magnetization    =    15.33 Bohr mag/cell

     iteration #  5     ecut=   100.00 Ry     beta= 0.40
     Davidson diagonalization with overlap
     ethr =  3.60E-03,  avg # of iterations =  1.5

     negative rho (up, down):  0.000E+00 1.066E-04

     total cpu time spent up to now is    16761.1 secs

     total energy              =   -2125.57434642 Ry
     estimated scf accuracy    <       9.15365035 Ry

     total magnetization       =    14.66 Bohr mag/cell
     absolute magnetization    =    14.81 Bohr mag/cell

     iteration #  6     ecut=   100.00 Ry     beta= 0.40
     Davidson diagonalization with overlap
     ethr =  3.60E-03,  avg # of iterations =  1.0

     negative rho (up, down):  0.000E+00 1.243E-04

     total cpu time spent up to now is    19432.3 secs

     total energy              =   -2125.80678287 Ry
     estimated scf accuracy    <       2.27299801 Ry

     total magnetization       =    17.91 Bohr mag/cell
     absolute magnetization    =    17.92 Bohr mag/cell

     iteration #  7     ecut=   100.00 Ry     beta= 0.40
     Davidson diagonalization with overlap
     ethr =  1.20E-03,  avg # of iterations =  1.0

     negative rho (up, down):  0.000E+00 2.729E-04

     total cpu time spent up to now is    22101.1 secs

     total energy              =   -2125.97970097 Ry
     estimated scf accuracy    <       0.74935256 Ry

     total magnetization       =    19.04 Bohr mag/cell
     absolute magnetization    =    19.04 Bohr mag/cell

     iteration #  8     ecut=   100.00 Ry     beta= 0.40
     Davidson diagonalization with overlap
     ethr =  3.96E-04,  avg # of iterations =  1.4

     negative rho (up, down):  0.000E+00 4.570E-04

     total cpu time spent up to now is    24808.9 secs

     total energy              =   -2125.97710506 Ry
     estimated scf accuracy    <       0.21682877 Ry

     total magnetization       =    19.00 Bohr mag/cell
     absolute magnetization    =    19.00 Bohr mag/cell

     iteration #  9     ecut=   100.00 Ry     beta= 0.40
     Davidson diagonalization with overlap
     c_bands:  2 eigenvalues not converged
     c_bands:  2 eigenvalues not converged
     c_bands:  1 eigenvalues not converged
     c_bands:  1 eigenvalues not converged
     c_bands:  1 eigenvalues not converged
     c_bands:  1 eigenvalues not converged
     c_bands:  1 eigenvalues not converged
     c_bands:  2 eigenvalues not converged
     c_bands:  1 eigenvalues not converged
     c_bands:  1 eigenvalues not converged
     ethr =  1.15E-04,  avg # of iterations = 11.8

     negative rho (up, down):  0.000E+00 7.951E-04

     total cpu time spent up to now is    28462.8 secs

     total energy              =   -2125.97440370 Ry
     estimated scf accuracy    <       0.19817492 Ry

     total magnetization       =    19.00 Bohr mag/cell
     absolute magnetization    =    19.01 Bohr mag/cell

     iteration # 10     ecut=   100.00 Ry     beta= 0.40
     Davidson diagonalization with overlap
     c_bands:  1 eigenvalues not converged
     ethr =  1.05E-04,  avg # of iterations =  2.5

     negative rho (up, down):  0.000E+00 8.342E-04

     total cpu time spent up to now is    31301.3 secs

     total energy              =   -2125.99833162 Ry
     estimated scf accuracy    <       0.67731057 Ry

     total magnetization       =    19.00 Bohr mag/cell
     absolute magnetization    =    19.03 Bohr mag/cell

     iteration # 11     ecut=   100.00 Ry     beta= 0.40
     Davidson diagonalization with overlap
     ethr =  1.05E-04,  avg # of iterations =  1.0

     negative rho (up, down):  0.000E+00 8.619E-04

     total cpu time spent up to now is    33975.3 secs

     total energy              =   -2125.98420624 Ry
     estimated scf accuracy    <       0.43360690 Ry

     total magnetization       =    19.00 Bohr mag/cell
     absolute magnetization    =    19.03 Bohr mag/cell

     iteration # 12     ecut=   100.00 Ry     beta= 0.40
     Davidson diagonalization with overlap
     ethr =  1.05E-04,  avg # of iterations =  1.0

     negative rho (up, down):  0.000E+00 8.738E-04

     total cpu time spent up to now is    36650.9 secs

     total energy              =   -2125.99514100 Ry
     estimated scf accuracy    <       0.13100442 Ry

     total magnetization       =    19.00 Bohr mag/cell
     absolute magnetization    =    19.02 Bohr mag/cell

     iteration # 13     ecut=   100.00 Ry     beta= 0.40
     Davidson diagonalization with overlap
     ethr =  6.93E-05,  avg # of iterations =  1.1

     negative rho (up, down):  0.000E+00 8.826E-04

     total cpu time spent up to now is    39331.1 secs

     total energy              =   -2125.99552669 Ry
     estimated scf accuracy    <       0.07240498 Ry

     total magnetization       =    19.00 Bohr mag/cell
     absolute magnetization    =    19.03 Bohr mag/cell

     iteration # 14     ecut=   100.00 Ry     beta= 0.40
     Davidson diagonalization with overlap
     c_bands:  1 eigenvalues not converged
     c_bands:  1 eigenvalues not converged
     c_bands:  1 eigenvalues not converged
     ethr =  3.83E-05,  avg # of iterations =  1.7

     negative rho (up, down):  0.000E+00 8.698E-04

     total cpu time spent up to now is    42069.1 secs

     total energy              =   -2125.99413206 Ry
     estimated scf accuracy    <       0.04988517 Ry

     total magnetization       =    19.00 Bohr mag/cell
     absolute magnetization    =    19.03 Bohr mag/cell

     iteration # 15     ecut=   100.00 Ry     beta= 0.40
     Davidson diagonalization with overlap
     c_bands:  1 eigenvalues not converged
     c_bands:  2 eigenvalues not converged
     c_bands:  1 eigenvalues not converged
     c_bands:  1 eigenvalues not converged
     c_bands:  1 eigenvalues not converged
     ethr =  2.64E-05,  avg # of iterations =  3.1

     negative rho (up, down):  0.000E+00 8.926E-04

     total cpu time spent up to now is    44924.3 secs

     total energy              =   -2125.99562679 Ry
     estimated scf accuracy    <       0.01485535 Ry

     total magnetization       =    19.00 Bohr mag/cell
     absolute magnetization    =    19.03 Bohr mag/cell

     iteration # 16     ecut=   100.00 Ry     beta= 0.40
     Davidson diagonalization with overlap
     c_bands:  1 eigenvalues not converged
     c_bands:  1 eigenvalues not converged
     c_bands:  1 eigenvalues not converged
     c_bands:  1 eigenvalues not converged
     c_bands:  1 eigenvalues not converged
     c_bands:  1 eigenvalues not converged
     c_bands:  1 eigenvalues not converged
     c_bands:  1 eigenvalues not converged
     c_bands:  1 eigenvalues not converged
     c_bands:  1 eigenvalues not converged
     c_bands:  1 eigenvalues not converged
     c_bands:  1 eigenvalues not converged
     c_bands:  1 eigenvalues not converged
     c_bands:  1 eigenvalues not converged
     c_bands:  1 eigenvalues not converged
     ethr =  7.86E-06,  avg # of iterations =  9.2

     negative rho (up, down):  0.000E+00 9.068E-04

     total cpu time spent up to now is    48339.1 secs

     total energy              =   -2125.99561680 Ry
     estimated scf accuracy    <       0.01504120 Ry

     total magnetization       =    19.00 Bohr mag/cell
     absolute magnetization    =    19.04 Bohr mag/cell

     iteration # 17     ecut=   100.00 Ry     beta= 0.40
     Davidson diagonalization with overlap
     ethr =  7.86E-06,  avg # of iterations =  1.2

     negative rho (up, down):  0.000E+00 8.998E-04

     total cpu time spent up to now is    51028.8 secs

     total energy              =   -2125.99603059 Ry
     estimated scf accuracy    <       0.00033360 Ry

     total magnetization       =    19.00 Bohr mag/cell
     absolute magnetization    =    19.04 Bohr mag/cell

     iteration # 18     ecut=   100.00 Ry     beta= 0.40
     Davidson diagonalization with overlap
     c_bands:  1 eigenvalues not converged
     c_bands:  1 eigenvalues not converged
     c_bands:  1 eigenvalues not converged
     c_bands:  1 eigenvalues not converged
     c_bands:  1 eigenvalues not converged
     c_bands:  1 eigenvalues not converged
     c_bands:  1 eigenvalues not converged
     c_bands:  1 eigenvalues not converged
     c_bands:  2 eigenvalues not converged
     c_bands:  1 eigenvalues not converged
     c_bands:  1 eigenvalues not converged
     c_bands:  1 eigenvalues not converged
     c_bands:  1 eigenvalues not converged
     c_bands:  1 eigenvalues not converged
     c_bands:  1 eigenvalues not converged
     c_bands:  1 eigenvalues not converged
     c_bands:  1 eigenvalues not converged
     c_bands:  1 eigenvalues not converged
     c_bands:  1 eigenvalues not converged
     c_bands:  1 eigenvalues not converged
     c_bands:  1 eigenvalues not converged
     c_bands:  1 eigenvalues not converged
     c_bands:  1 eigenvalues not converged
     c_bands:  1 eigenvalues not converged
     c_bands:  1 eigenvalues not converged
     c_bands:  1 eigenvalues not converged
     c_bands:  1 eigenvalues not converged
     c_bands:  1 eigenvalues not converged
     c_bands:  1 eigenvalues not converged
     c_bands:  1 eigenvalues not converged
     c_bands:  1 eigenvalues not converged
     c_bands:  1 eigenvalues not converged
     ethr =  1.77E-07,  avg # of iterations = 10.3

     negative rho (up, down):  0.000E+00 8.935E-04

     total cpu time spent up to now is    56372.8 secs

     total energy              =   -2125.99624943 Ry
     estimated scf accuracy    <       0.00030808 Ry

     total magnetization       =    19.00 Bohr mag/cell
     absolute magnetization    =    19.04 Bohr mag/cell

     iteration # 19     ecut=   100.00 Ry     beta= 0.40
     Davidson diagonalization with overlap
     c_bands:  1 eigenvalues not converged
     ethr =  1.63E-07,  avg # of iterations =  1.4

     negative rho (up, down):  0.000E+00 8.890E-04

     total cpu time spent up to now is    59077.4 secs

     total energy              =   -2125.99625477 Ry
     estimated scf accuracy    <       0.00020432 Ry

     total magnetization       =    19.00 Bohr mag/cell
     absolute magnetization    =    19.04 Bohr mag/cell

     iteration # 20     ecut=   100.00 Ry     beta= 0.40
     Davidson diagonalization with overlap
     ethr =  1.08E-07,  avg # of iterations =  1.0

     negative rho (up, down):  0.000E+00 8.853E-04

     total cpu time spent up to now is    61744.2 secs

     total energy              =   -2125.99626090 Ry
     estimated scf accuracy    <       0.00002282 Ry

     total magnetization       =    19.00 Bohr mag/cell
     absolute magnetization    =    19.04 Bohr mag/cell

     iteration # 21     ecut=   100.00 Ry     beta= 0.40
     Davidson diagonalization with overlap
     ethr =  1.21E-08,  avg # of iterations =  1.0

     negative rho (up, down):  0.000E+00 8.835E-04

     total cpu time spent up to now is    64418.2 secs

     total energy              =   -2125.99626288 Ry
     estimated scf accuracy    <       0.00001443 Ry

     total magnetization       =    19.00 Bohr mag/cell
     absolute magnetization    =    19.04 Bohr mag/cell

     iteration # 22     ecut=   100.00 Ry     beta= 0.40
     Davidson diagonalization with overlap
     ethr =  7.63E-09,  avg # of iterations =  1.0

     negative rho (up, down):  0.000E+00 8.835E-04

     total cpu time spent up to now is    67092.6 secs

     total energy              =   -2125.99626368 Ry
     estimated scf accuracy    <       0.00000629 Ry

     total magnetization       =    19.00 Bohr mag/cell
     absolute magnetization    =    19.04 Bohr mag/cell

     iteration # 23     ecut=   100.00 Ry     beta= 0.40
     Davidson diagonalization with overlap
     ethr =  3.33E-09,  avg # of iterations =  2.4

     negative rho (up, down):  0.000E+00 8.845E-04

     total cpu time spent up to now is    69927.0 secs

     total energy              =   -2125.99626454 Ry
     estimated scf accuracy    <       0.00000065 Ry

     total magnetization       =    19.00 Bohr mag/cell
     absolute magnetization    =    19.04 Bohr mag/cell

     iteration # 24     ecut=   100.00 Ry     beta= 0.40
     Davidson diagonalization with overlap
     ethr =  3.44E-10,  avg # of iterations =  4.7

     negative rho (up, down):  0.000E+00 8.844E-04

     total cpu time spent up to now is    74518.7 secs

     total energy              =   -2125.99626507 Ry
     estimated scf accuracy    <       0.00000068 Ry

     total magnetization       =    19.00 Bohr mag/cell
     absolute magnetization    =    19.04 Bohr mag/cell

     iteration # 25     ecut=   100.00 Ry     beta= 0.40
     Davidson diagonalization with overlap
     ethr =  3.44E-10,  avg # of iterations =  1.2

     negative rho (up, down):  0.000E+00 8.849E-04

     total cpu time spent up to now is    77207.8 secs

     total energy              =   -2125.99626516 Ry
     estimated scf accuracy    <       0.00000009 Ry

     total magnetization       =    19.00 Bohr mag/cell
     absolute magnetization    =    19.04 Bohr mag/cell

     iteration # 26     ecut=   100.00 Ry     beta= 0.40
     Davidson diagonalization with overlap
     ethr =  4.57E-11,  avg # of iterations =  2.3

     negative rho (up, down):  0.000E+00 8.848E-04

     total cpu time spent up to now is    80299.7 secs

     total energy              =   -2125.99626519 Ry
     estimated scf accuracy    <       0.00000026 Ry

     total magnetization       =    19.00 Bohr mag/cell
     absolute magnetization    =    19.04 Bohr mag/cell

     iteration # 27     ecut=   100.00 Ry     beta= 0.40
     Davidson diagonalization with overlap
     ethr =  4.57E-11,  avg # of iterations =  1.1

     negative rho (up, down):  0.000E+00 8.847E-04

     total cpu time spent up to now is    82981.9 secs

     total energy              =   -2125.99626521 Ry
     estimated scf accuracy    <       0.00000018 Ry

     total magnetization       =    19.00 Bohr mag/cell
     absolute magnetization    =    19.04 Bohr mag/cell

     iteration # 28     ecut=   100.00 Ry     beta= 0.40
     Davidson diagonalization with overlap
     ethr =  4.57E-11,  avg # of iterations =  1.0

     negative rho (up, down):  0.000E+00 8.847E-04

     total cpu time spent up to now is    85657.3 secs

     total energy              =   -2125.99626522 Ry
     estimated scf accuracy    <       0.00000010 Ry

     total magnetization       =    19.00 Bohr mag/cell
     absolute magnetization    =    19.04 Bohr mag/cell

     iteration # 29     ecut=   100.00 Ry     beta= 0.40
     Davidson diagonalization with overlap
     ethr =  4.57E-11,  avg # of iterations =  1.0

     negative rho (up, down):  0.000E+00 8.846E-04

     total cpu time spent up to now is    88333.5 secs

     total energy              =   -2125.99626522 Ry
     estimated scf accuracy    <       0.00000002 Ry

     total magnetization       =    19.00 Bohr mag/cell
     absolute magnetization    =    19.04 Bohr mag/cell

     iteration # 30     ecut=   100.00 Ry     beta= 0.40
     Davidson diagonalization with overlap
     ethr =  1.00E-11,  avg # of iterations =  2.0

     negative rho (up, down):  0.000E+00 8.846E-04

     total cpu time spent up to now is    91131.1 secs

     total energy              =   -2125.99626522 Ry
     estimated scf accuracy    <       0.00000002 Ry

     total magnetization       =    19.00 Bohr mag/cell
     absolute magnetization    =    19.04 Bohr mag/cell

     iteration # 31     ecut=   100.00 Ry     beta= 0.40
     Davidson diagonalization with overlap
     ethr =  1.00E-11,  avg # of iterations =  1.0

     negative rho (up, down):  0.000E+00 8.846E-04

     total cpu time spent up to now is    93806.0 secs

     total energy              =   -2125.99626523 Ry
     estimated scf accuracy    <          2.0E-09 Ry

     total magnetization       =    19.00 Bohr mag/cell
     absolute magnetization    =    19.04 Bohr mag/cell

     iteration # 32     ecut=   100.00 Ry     beta= 0.40
     Davidson diagonalization with overlap
     ethr =  1.06E-12,  avg # of iterations =  4.0

     negative rho (up, down):  0.000E+00 8.846E-04

     total cpu time spent up to now is    97122.2 secs

     total energy              =   -2125.99626523 Ry
     estimated scf accuracy    <          7.6E-10 Ry

     total magnetization       =    19.00 Bohr mag/cell
     absolute magnetization    =    19.04 Bohr mag/cell

     iteration # 33     ecut=   100.00 Ry     beta= 0.40
     Davidson diagonalization with overlap
     ethr =  4.02E-13,  avg # of iterations =  2.3

     negative rho (up, down):  0.000E+00 8.846E-04

     total cpu time spent up to now is    99983.2 secs

     total energy              =   -2125.99626523 Ry
     estimated scf accuracy    <          3.4E-10 Ry

     total magnetization       =    19.00 Bohr mag/cell
     absolute magnetization    =    19.04 Bohr mag/cell

     iteration # 34     ecut=   100.00 Ry     beta= 0.40
     Davidson diagonalization with overlap
     ethr =  1.79E-13,  avg # of iterations =  2.3

     negative rho (up, down):  0.000E+00 8.846E-04

     total cpu time spent up to now is   102889.2 secs

     total energy              =   -2125.99626523 Ry
     estimated scf accuracy    <          5.6E-10 Ry

     total magnetization       =    19.00 Bohr mag/cell
     absolute magnetization    =    19.04 Bohr mag/cell

     iteration # 35     ecut=   100.00 Ry     beta= 0.40
     Davidson diagonalization with overlap
     ethr =  1.79E-13,  avg # of iterations =  1.4

     negative rho (up, down):  0.000E+00 8.846E-04

     total cpu time spent up to now is   105606.8 secs

     total energy              =   -2125.99626523 Ry
     estimated scf accuracy    <          2.1E-10 Ry

     total magnetization       =    19.00 Bohr mag/cell
     absolute magnetization    =    19.04 Bohr mag/cell

     iteration # 36     ecut=   100.00 Ry     beta= 0.40
     Davidson diagonalization with overlap
     ethr =  1.13E-13,  avg # of iterations =  1.0

     negative rho (up, down):  0.000E+00 8.846E-04

     Magnetic moment per site:
     atom:    1    charge:    7.8679    magn:    0.0013    constr:    0.0000
     atom:    2    charge:   12.8439    magn:    3.5854    constr:    0.0000
     atom:    3    charge:   12.8347    magn:    3.6045    constr:    0.0000
     atom:    4    charge:   12.8406    magn:    3.5887    constr:    0.0000
     atom:    5    charge:   12.8424    magn:    3.5900    constr:    0.0000
     atom:    6    charge:    0.8243    magn:    0.0105    constr:    0.0000
     atom:    7    charge:    0.8124    magn:    0.0116    constr:    0.0000
     atom:    8    charge:    0.8235    magn:    0.0105    constr:    0.0000
     atom:    9    charge:    0.8144    magn:    0.0119    constr:    0.0000
     atom:   10    charge:    4.1756    magn:    0.1400    constr:    0.0000
     atom:   11    charge:    4.1885    magn:    0.1116    constr:    0.0000
     atom:   12    charge:    4.1773    magn:    0.1595    constr:    0.0000
     atom:   13    charge:    4.1892    magn:    0.1080    constr:    0.0000
     atom:   14    charge:    4.1877    magn:    0.1192    constr:    0.0000
     atom:   15    charge:    4.1999    magn:    0.0916    constr:    0.0000
     atom:   16    charge:    4.1849    magn:    0.1144    constr:    0.0000
     atom:   17    charge:    4.1914    magn:    0.0894    constr:    0.0000
     atom:   18    charge:    4.1930    magn:    0.1290    constr:    0.0000
     atom:   19    charge:    4.1776    magn:    0.1439    constr:    0.0000
     atom:   20    charge:    4.1833    magn:    0.1111    constr:    0.0000
     atom:   21    charge:    4.1927    magn:    0.1597    constr:    0.0000
     atom:   22    charge:    4.1880    magn:    0.1296    constr:    0.0000
     atom:   23    charge:    4.1780    magn:    0.1458    constr:    0.0000
     atom:   24    charge:    4.1818    magn:    0.1256    constr:    0.0000
     atom:   25    charge:    4.1879    magn:    0.1561    constr:    0.0000

     total cpu time spent up to now is   108284.9 secs

     End of self-consistent calculation

 ------ SPIN UP ------------


          k = 0.0000 0.0000 0.0000 ( 34745 PWs)   bands (ev):

   -84.4484 -84.3979 -84.3019 -84.2792 -50.5535 -50.5426 -50.5370 -50.5103
   -50.4522 -50.4119 -50.3635 -50.2902 -50.2378 -50.2115 -50.1370 -50.1015
   -44.2296 -16.4279 -16.2565 -16.2330 -16.0905 -15.8707 -15.7909 -15.5283
   -13.5709 -13.4451 -13.4292 -13.3271 -13.2429 -13.1943 -13.1247 -13.0675
   -13.0448 -12.9886 -12.9266 -12.8625  -3.9294  -3.5189  -3.0817  -2.9121
    -1.9261  -1.8212  -1.5015  -1.4097  -1.1366  -0.9861  -0.9290  -0.8394
    -0.7445  -0.5930  -0.5434  -0.4154   0.1419   0.2377   0.5021   0.7082
     0.7445   0.8269   0.8754   1.0454   1.1905   1.2468   1.3694   1.4727
     1.6071   1.7358   1.8562   1.9726   2.0751   2.0856   2.3044   2.3517
     2.4491   2.5597   2.6216   2.7950   2.8108   2.9040   2.9548   3.0264
     3.1364   3.3258   3.4660   3.5438   3.6149   3.6345   3.6903   3.8730
     3.9287   4.0795   4.1955   4.2499   4.4066   4.5002   4.5112   4.5982
     4.6234   4.7788   4.8046   4.9108   5.0939   5.1635   5.5684   5.6494
     9.9480  11.8317  12.0921  12.7722  13.0359  13.9128  13.9579  14.1501
    14.3222  14.4243

     occupation numbers 
     1.0000   1.0000   1.0000   1.0000   1.0000   1.0000   1.0000   1.0000
     1.0000   1.0000   1.0000   1.0000   1.0000   1.0000   1.0000   1.0000
     1.0000   1.0000   1.0000   1.0000   1.0000   1.0000   1.0000   1.0000
     1.0000   1.0000   1.0000   1.0000   1.0000   1.0000   1.0000   1.0000
     1.0000   1.0000   1.0000   1.0000   1.0000   1.0000   1.0000   1.0000
     1.0000   1.0000   1.0000   1.0000   1.0000   1.0000   1.0000   1.0000
     1.0000   1.0000   1.0000   1.0000   1.0000   1.0000   1.0000   1.0000
     1.0000   1.0000   1.0000   1.0000   1.0000   1.0000   1.0000   1.0000
     1.0000   1.0000   1.0000   1.0000   1.0000   1.0000   1.0000   1.0000
     1.0000   1.0000   1.0000   1.0000   1.0000   1.0000   1.0000   1.0000
     1.0000   1.0000   1.0000   1.0000   1.0000   1.0000   1.0000   1.0000
     1.0000   1.0000   1.0000   1.0000   1.0000   1.0000   1.0000   1.0000
     1.0000   1.0000   1.0000   1.0000   1.0000   1.0000   1.0000   1.0000
     0.0000   0.0000   0.0000   0.0000   0.0000   0.0000   0.0000   0.0000
     0.0000   0.0000

          k = 0.0000 0.0000 0.2337 ( 34669 PWs)   bands (ev):

   -84.4484 -84.3979 -84.3019 -84.2792 -50.5535 -50.5426 -50.5371 -50.5103
   -50.4522 -50.4119 -50.3635 -50.2902 -50.2378 -50.2115 -50.1370 -50.1015
   -44.2296 -16.4272 -16.2567 -16.2391 -16.0719 -15.8626 -15.7805 -15.5297
   -13.5820 -13.4776 -13.4090 -13.3286 -13.2440 -13.1929 -13.1351 -13.0791
   -13.0515 -12.9884 -12.9348 -12.8595  -3.8961  -3.5058  -3.0902  -2.8910
    -1.9025  -1.8080  -1.5074  -1.3925  -1.1302  -0.9880  -0.8987  -0.8434
    -0.7102  -0.6138  -0.5792  -0.3937   0.1574   0.2456   0.5069   0.6669
     0.7371   0.8257   0.8929   1.0213   1.2173   1.2761   1.3642   1.4363
     1.5690   1.7615   1.8616   1.9666   2.0323   2.1704   2.3007   2.3721
     2.4180   2.5594   2.6436   2.7367   2.8319   2.8854   2.9170   3.0115
     3.1485   3.3241   3.4549   3.5005   3.6031   3.6287   3.7108   3.8253
     3.9266   4.0948   4.1954   4.2447   4.3674   4.4875   4.5224   4.5912
     4.6254   4.7783   4.8062   4.9270   5.0915   5.1788   5.5471   5.6634
    10.0916  11.8892  12.1522  12.7880  13.0981  13.7866  14.0092  14.1364
    14.2552  14.3989

     occupation numbers 
     1.0000   1.0000   1.0000   1.0000   1.0000   1.0000   1.0000   1.0000
     1.0000   1.0000   1.0000   1.0000   1.0000   1.0000   1.0000   1.0000
     1.0000   1.0000   1.0000   1.0000   1.0000   1.0000   1.0000   1.0000
     1.0000   1.0000   1.0000   1.0000   1.0000   1.0000   1.0000   1.0000
     1.0000   1.0000   1.0000   1.0000   1.0000   1.0000   1.0000   1.0000
     1.0000   1.0000   1.0000   1.0000   1.0000   1.0000   1.0000   1.0000
     1.0000   1.0000   1.0000   1.0000   1.0000   1.0000   1.0000   1.0000
     1.0000   1.0000   1.0000   1.0000   1.0000   1.0000   1.0000   1.0000
     1.0000   1.0000   1.0000   1.0000   1.0000   1.0000   1.0000   1.0000
     1.0000   1.0000   1.0000   1.0000   1.0000   1.0000   1.0000   1.0000
     1.0000   1.0000   1.0000   1.0000   1.0000   1.0000   1.0000   1.0000
     1.0000   1.0000   1.0000   1.0000   1.0000   1.0000   1.0000   1.0000
     1.0000   1.0000   1.0000   1.0000   1.0000   1.0000   1.0000   1.0000
     0.0000   0.0000   0.0000   0.0000   0.0000   0.0000   0.0000   0.0000
     0.0000   0.0000

          k = 0.0000 0.0000 0.4675 ( 34709 PWs)   bands (ev):

   -84.4484 -84.3979 -84.3019 -84.2792 -50.5535 -50.5426 -50.5371 -50.5103
   -50.4522 -50.4119 -50.3635 -50.2902 -50.2378 -50.2115 -50.1370 -50.1015
   -44.2296 -16.4254 -16.2589 -16.2493 -16.0262 -15.8413 -15.7533 -15.5361
   -13.6128 -13.5265 -13.3934 -13.3346 -13.2510 -13.1849 -13.1550 -13.1045
   -13.0642 -12.9948 -12.9517 -12.8583  -3.8091  -3.4702  -3.0974  -2.8633
    -1.8788  -1.7398  -1.4802  -1.3769  -1.1191  -0.9764  -0.9089  -0.7734
    -0.6695  -0.6471  -0.6113  -0.3889   0.1668   0.2865   0.5341   0.6154
     0.7194   0.8225   0.8918   1.0857   1.2380   1.2689   1.3432   1.4253
     1.5576   1.7844   1.8252   1.9489   2.0645   2.1602   2.2887   2.3199
     2.4401   2.5223   2.6470   2.7080   2.7318   2.8497   2.9278   3.0001
     3.1432   3.2844   3.3503   3.4459   3.5267   3.6620   3.7644   3.8070
     3.9468   4.1067   4.1648   4.2152   4.3545   4.4701   4.5064   4.5722
     4.6352   4.7798   4.7938   4.9709   5.0859   5.2067   5.5240   5.6758
    10.4773  12.0353  12.2922  12.8499  13.2351  13.5315  13.9952  14.0747
    14.1456  14.3008

     occupation numbers 
     1.0000   1.0000   1.0000   1.0000   1.0000   1.0000   1.0000   1.0000
     1.0000   1.0000   1.0000   1.0000   1.0000   1.0000   1.0000   1.0000
     1.0000   1.0000   1.0000   1.0000   1.0000   1.0000   1.0000   1.0000
     1.0000   1.0000   1.0000   1.0000   1.0000   1.0000   1.0000   1.0000
     1.0000   1.0000   1.0000   1.0000   1.0000   1.0000   1.0000   1.0000
     1.0000   1.0000   1.0000   1.0000   1.0000   1.0000   1.0000   1.0000
     1.0000   1.0000   1.0000   1.0000   1.0000   1.0000   1.0000   1.0000
     1.0000   1.0000   1.0000   1.0000   1.0000   1.0000   1.0000   1.0000
     1.0000   1.0000   1.0000   1.0000   1.0000   1.0000   1.0000   1.0000
     1.0000   1.0000   1.0000   1.0000   1.0000   1.0000   1.0000   1.0000
     1.0000   1.0000   1.0000   1.0000   1.0000   1.0000   1.0000   1.0000
     1.0000   1.0000   1.0000   1.0000   1.0000   1.0000   1.0000   1.0000
     1.0000   1.0000   1.0000   1.0000   1.0000   1.0000   1.0000   1.0000
     0.0000   0.0000   0.0000   0.0000   0.0000   0.0000   0.0000   0.0000
     0.0000   0.0000

          k = 0.0000 0.0000 0.7012 ( 34655 PWs)   bands (ev):

   -84.4484 -84.3979 -84.3019 -84.2792 -50.5535 -50.5426 -50.5371 -50.5103
   -50.4522 -50.4119 -50.3635 -50.2902 -50.2378 -50.2115 -50.1370 -50.1015
   -44.2296 -16.4234 -16.2665 -16.2523 -15.9731 -15.8148 -15.7203 -15.5502
   -13.6497 -13.5767 -13.3863 -13.3449 -13.2647 -13.1903 -13.1500 -13.1222
   -13.0782 -13.0062 -12.9671 -12.8659  -3.7053  -3.4235  -3.0929  -2.8658
    -1.8625  -1.6617  -1.4094  -1.3565  -1.1225  -0.9605  -0.9480  -0.7456
    -0.6640  -0.6237  -0.5718  -0.4286   0.1500   0.3419   0.5770   0.6530
     0.7070   0.8545   0.9371   1.1427   1.2295   1.2876   1.3652   1.4094
     1.5913   1.7416   1.8057   1.8931   2.0596   2.0847   2.1559   2.2719
     2.3749   2.4468   2.6252   2.6623   2.7635   2.8186   2.9233   2.9862
     3.1381   3.2061   3.2483   3.3052   3.5436   3.7222   3.8293   3.8746
     3.9538   4.0858   4.1443   4.2263   4.3416   4.4744   4.4875   4.5492
     4.6206   4.7326   4.8169   5.0123   5.0773   5.2285   5.5339   5.6678
    11.0029  12.1989  12.4171  12.9436  13.0237  13.5832  13.8815  13.9494
    14.0649  14.2556

     occupation numbers 
     1.0000   1.0000   1.0000   1.0000   1.0000   1.0000   1.0000   1.0000
     1.0000   1.0000   1.0000   1.0000   1.0000   1.0000   1.0000   1.0000
     1.0000   1.0000   1.0000   1.0000   1.0000   1.0000   1.0000   1.0000
     1.0000   1.0000   1.0000   1.0000   1.0000   1.0000   1.0000   1.0000
     1.0000   1.0000   1.0000   1.0000   1.0000   1.0000   1.0000   1.0000
     1.0000   1.0000   1.0000   1.0000   1.0000   1.0000   1.0000   1.0000
     1.0000   1.0000   1.0000   1.0000   1.0000   1.0000   1.0000   1.0000
     1.0000   1.0000   1.0000   1.0000   1.0000   1.0000   1.0000   1.0000
     1.0000   1.0000   1.0000   1.0000   1.0000   1.0000   1.0000   1.0000
     1.0000   1.0000   1.0000   1.0000   1.0000   1.0000   1.0000   1.0000
     1.0000   1.0000   1.0000   1.0000   1.0000   1.0000   1.0000   1.0000
     1.0000   1.0000   1.0000   1.0000   1.0000   1.0000   1.0000   1.0000
     1.0000   1.0000   1.0000   1.0000   1.0000   1.0000   1.0000   1.0000
     0.0000   0.0000   0.0000   0.0000   0.0000   0.0000   0.0000   0.0000
     0.0000   0.0000

          k = 0.0000 0.0000 0.9349 ( 34716 PWs)   bands (ev):

   -84.4484 -84.3979 -84.3019 -84.2792 -50.5535 -50.5426 -50.5371 -50.5103
   -50.4522 -50.4119 -50.3635 -50.2902 -50.2378 -50.2115 -50.1370 -50.1015
   -44.2296 -16.4222 -16.2721 -16.2526 -15.9368 -15.7946 -15.6960 -15.5666
   -13.6733 -13.6105 -13.3854 -13.3540 -13.2755 -13.1989 -13.1502 -13.1086
   -13.0915 -13.0125 -12.9782 -12.8760  -3.6344  -3.3878  -3.0819  -2.8895
    -1.8421  -1.6280  -1.3726  -1.2977  -1.1450  -0.9880  -0.9493  -0.7660
    -0.6389  -0.5711  -0.5593  -0.4648   0.1349   0.3889   0.5925   0.6164
     0.8492   0.9232   1.0547   1.1444   1.2053   1.3177   1.3230   1.4606
     1.6135   1.6953   1.7593   1.7994   1.9312   1.9828   2.1145   2.2569
     2.3286   2.4401   2.5198   2.6345   2.7452   2.8254   2.9394   3.0316
     3.1006   3.1425   3.2230   3.2551   3.5499   3.7522   3.8738   3.9189
     3.9510   4.1049   4.1246   4.2811   4.3431   4.4424   4.4920   4.5315
     4.5975   4.6717   4.8488   5.0381   5.0658   5.2385   5.5676   5.6427
    11.5202  12.2624  12.4077  12.7003  13.0267  13.7646  13.8301  13.8854
    14.0365  14.1545

     occupation numbers 
     1.0000   1.0000   1.0000   1.0000   1.0000   1.0000   1.0000   1.0000
     1.0000   1.0000   1.0000   1.0000   1.0000   1.0000   1.0000   1.0000
     1.0000   1.0000   1.0000   1.0000   1.0000   1.0000   1.0000   1.0000
     1.0000   1.0000   1.0000   1.0000   1.0000   1.0000   1.0000   1.0000
     1.0000   1.0000   1.0000   1.0000   1.0000   1.0000   1.0000   1.0000
     1.0000   1.0000   1.0000   1.0000   1.0000   1.0000   1.0000   1.0000
     1.0000   1.0000   1.0000   1.0000   1.0000   1.0000   1.0000   1.0000
     1.0000   1.0000   1.0000   1.0000   1.0000   1.0000   1.0000   1.0000
     1.0000   1.0000   1.0000   1.0000   1.0000   1.0000   1.0000   1.0000
     1.0000   1.0000   1.0000   1.0000   1.0000   1.0000   1.0000   1.0000
     1.0000   1.0000   1.0000   1.0000   1.0000   1.0000   1.0000   1.0000
     1.0000   1.0000   1.0000   1.0000   1.0000   1.0000   1.0000   1.0000
     1.0000   1.0000   1.0000   1.0000   1.0000   1.0000   1.0000   1.0000
     0.0000   0.0000   0.0000   0.0000   0.0000   0.0000   0.0000   0.0000
     0.0000   0.0000

          k = 0.0000 0.2391 0.0000 ( 34769 PWs)   bands (ev):

   -84.4484 -84.3979 -84.3019 -84.2792 -50.5535 -50.5426 -50.5371 -50.5103
   -50.4522 -50.4119 -50.3635 -50.2902 -50.2378 -50.2115 -50.1370 -50.1015
   -44.2296 -16.4463 -16.2612 -16.2284 -16.0598 -15.8595 -15.7835 -15.5456
   -13.5920 -13.4576 -13.4133 -13.3274 -13.2823 -13.1709 -13.1314 -13.0659
   -13.0423 -12.9836 -12.9251 -12.8593  -3.8862  -3.4782  -3.0969  -2.9058
    -1.9120  -1.7862  -1.4877  -1.3967  -1.1455  -1.0065  -0.9169  -0.8059
    -0.7472  -0.5987  -0.5475  -0.3879   0.1360   0.2117   0.4946   0.6385
     0.7357   0.7950   0.8885   0.9963   1.1849   1.2575   1.4026   1.4751
     1.6268   1.7110   1.8584   1.9615   2.0738   2.1114   2.3007   2.3596
     2.3832   2.5008   2.6344   2.7407   2.7703   2.8903   2.9693   3.0747
     3.1615   3.3060   3.4335   3.4889   3.5698   3.6499   3.7683   3.8855
     3.9224   4.0244   4.1450   4.2638   4.4316   4.4566   4.5305   4.5866
     4.6232   4.6681   4.8070   4.9053   5.2079   5.2743   5.6183   5.6674
    10.1064  11.9006  12.1848  12.6994  13.0878  13.7690  13.9646  14.0352
    14.3381  14.4171

     occupation numbers 
     1.0000   1.0000   1.0000   1.0000   1.0000   1.0000   1.0000   1.0000
     1.0000   1.0000   1.0000   1.0000   1.0000   1.0000   1.0000   1.0000
     1.0000   1.0000   1.0000   1.0000   1.0000   1.0000   1.0000   1.0000
     1.0000   1.0000   1.0000   1.0000   1.0000   1.0000   1.0000   1.0000
     1.0000   1.0000   1.0000   1.0000   1.0000   1.0000   1.0000   1.0000
     1.0000   1.0000   1.0000   1.0000   1.0000   1.0000   1.0000   1.0000
     1.0000   1.0000   1.0000   1.0000   1.0000   1.0000   1.0000   1.0000
     1.0000   1.0000   1.0000   1.0000   1.0000   1.0000   1.0000   1.0000
     1.0000   1.0000   1.0000   1.0000   1.0000   1.0000   1.0000   1.0000
     1.0000   1.0000   1.0000   1.0000   1.0000   1.0000   1.0000   1.0000
     1.0000   1.0000   1.0000   1.0000   1.0000   1.0000   1.0000   1.0000
     1.0000   1.0000   1.0000   1.0000   1.0000   1.0000   1.0000   1.0000
     1.0000   1.0000   1.0000   1.0000   1.0000   1.0000   1.0000   1.0000
     0.0000   0.0000   0.0000   0.0000   0.0000   0.0000   0.0000   0.0000
     0.0000   0.0000

          k = 0.0000 0.2391 0.2337 ( 34721 PWs)   bands (ev):

   -84.4484 -84.3979 -84.3019 -84.2792 -50.5535 -50.5426 -50.5371 -50.5103
   -50.4522 -50.4119 -50.3635 -50.2902 -50.2378 -50.2115 -50.1370 -50.1015
   -44.2296 -16.4477 -16.2622 -16.2321 -16.0431 -15.8408 -15.7789 -15.5484
   -13.6005 -13.4882 -13.3988 -13.3279 -13.2833 -13.1879 -13.1285 -13.0737
   -13.0510 -12.9837 -12.9302 -12.8572  -3.8603  -3.4723  -3.0935  -2.8694
    -1.8931  -1.7731  -1.5129  -1.3629  -1.1279  -0.9871  -0.9060  -0.8168
    -0.7474  -0.6130  -0.5860  -0.3454   0.1610   0.2160   0.5099   0.6469
     0.7164   0.8168   0.9034   1.0331   1.1162   1.2429   1.3794   1.4456
     1.5375   1.7131   1.8610   1.9391   2.0252   2.1871   2.3256   2.3700
     2.4425   2.5045   2.6468   2.6747   2.7992   2.9087   2.9410   3.0677
     3.1832   3.3316   3.3875   3.4801   3.5814   3.6156   3.7365   3.8209
     3.9110   4.0211   4.1335   4.2466   4.4235   4.4538   4.5292   4.5982
     4.6175   4.6625   4.8353   4.9276   5.2074   5.2929   5.5687   5.6973
    10.2440  11.9624  12.2412  12.6971  13.1751  13.7436  13.9187  14.0882
    14.2428  14.3852

     occupation numbers 
     1.0000   1.0000   1.0000   1.0000   1.0000   1.0000   1.0000   1.0000
     1.0000   1.0000   1.0000   1.0000   1.0000   1.0000   1.0000   1.0000
     1.0000   1.0000   1.0000   1.0000   1.0000   1.0000   1.0000   1.0000
     1.0000   1.0000   1.0000   1.0000   1.0000   1.0000   1.0000   1.0000
     1.0000   1.0000   1.0000   1.0000   1.0000   1.0000   1.0000   1.0000
     1.0000   1.0000   1.0000   1.0000   1.0000   1.0000   1.0000   1.0000
     1.0000   1.0000   1.0000   1.0000   1.0000   1.0000   1.0000   1.0000
     1.0000   1.0000   1.0000   1.0000   1.0000   1.0000   1.0000   1.0000
     1.0000   1.0000   1.0000   1.0000   1.0000   1.0000   1.0000   1.0000
     1.0000   1.0000   1.0000   1.0000   1.0000   1.0000   1.0000   1.0000
     1.0000   1.0000   1.0000   1.0000   1.0000   1.0000   1.0000   1.0000
     1.0000   1.0000   1.0000   1.0000   1.0000   1.0000   1.0000   1.0000
     1.0000   1.0000   1.0000   1.0000   1.0000   1.0000   1.0000   1.0000
     0.0000   0.0000   0.0000   0.0000   0.0000   0.0000   0.0000   0.0000
     0.0000   0.0000

          k = 0.0000 0.2391 0.4675 ( 34695 PWs)   bands (ev):

   -84.4484 -84.3979 -84.3019 -84.2792 -50.5535 -50.5426 -50.5371 -50.5103
   -50.4522 -50.4119 -50.3635 -50.2902 -50.2378 -50.2115 -50.1370 -50.1015
   -44.2296 -16.4448 -16.2637 -16.2420 -16.0027 -15.8100 -15.7577 -15.5537
   -13.6278 -13.5275 -13.3980 -13.3435 -13.2745 -13.2023 -13.1382 -13.0978
   -13.0614 -12.9891 -12.9438 -12.8576  -3.7788  -3.4430  -3.0879  -2.8221
    -1.8691  -1.7352  -1.4748  -1.3443  -1.1197  -0.9721  -0.8794  -0.8095
    -0.6925  -0.6343  -0.6180  -0.3439   0.1464   0.2686   0.5423   0.6427
     0.7059   0.8427   0.8930   1.0395   1.1544   1.2184   1.3347   1.4332
     1.4998   1.7156   1.8079   1.9418   2.0066   2.2039   2.2875   2.3786
     2.4129   2.5529   2.6175   2.6729   2.7458   2.9374   2.9516   3.0297
     3.1488   3.2799   3.3541   3.4089   3.4929   3.6403   3.7279   3.7882
     3.9196   4.0252   4.1009   4.2166   4.4117   4.4373   4.5076   4.5956
     4.6360   4.6772   4.8557   4.9681   5.2183   5.2986   5.5306   5.7173
    10.6131  12.1080  12.3703  12.7543  13.3267  13.5543  13.8837  14.1119
    14.1558  14.2429

     occupation numbers 
     1.0000   1.0000   1.0000   1.0000   1.0000   1.0000   1.0000   1.0000
     1.0000   1.0000   1.0000   1.0000   1.0000   1.0000   1.0000   1.0000
     1.0000   1.0000   1.0000   1.0000   1.0000   1.0000   1.0000   1.0000
     1.0000   1.0000   1.0000   1.0000   1.0000   1.0000   1.0000   1.0000
     1.0000   1.0000   1.0000   1.0000   1.0000   1.0000   1.0000   1.0000
     1.0000   1.0000   1.0000   1.0000   1.0000   1.0000   1.0000   1.0000
     1.0000   1.0000   1.0000   1.0000   1.0000   1.0000   1.0000   1.0000
     1.0000   1.0000   1.0000   1.0000   1.0000   1.0000   1.0000   1.0000
     1.0000   1.0000   1.0000   1.0000   1.0000   1.0000   1.0000   1.0000
     1.0000   1.0000   1.0000   1.0000   1.0000   1.0000   1.0000   1.0000
     1.0000   1.0000   1.0000   1.0000   1.0000   1.0000   1.0000   1.0000
     1.0000   1.0000   1.0000   1.0000   1.0000   1.0000   1.0000   1.0000
     1.0000   1.0000   1.0000   1.0000   1.0000   1.0000   1.0000   1.0000
     0.0000   0.0000   0.0000   0.0000   0.0000   0.0000   0.0000   0.0000
     0.0000   0.0000

          k = 0.0000 0.2391 0.7012 ( 34688 PWs)   bands (ev):

   -84.4484 -84.3979 -84.3019 -84.2792 -50.5535 -50.5426 -50.5371 -50.5103
   -50.4522 -50.4119 -50.3635 -50.2902 -50.2378 -50.2115 -50.1370 -50.1015
   -44.2296 -16.4392 -16.2673 -16.2500 -15.9558 -15.7803 -15.7272 -15.5643
   -13.6620 -13.5713 -13.4016 -13.3612 -13.2770 -13.2061 -13.1416 -13.1158
   -13.0742 -12.9993 -12.9575 -12.8658  -3.6746  -3.4001  -3.0797  -2.8083
    -1.8624  -1.6715  -1.3958  -1.3237  -1.1226  -0.9893  -0.8926  -0.7783
    -0.6546  -0.6075  -0.5928  -0.4042   0.1235   0.3114   0.5710   0.6981
     0.7403   0.8436   0.9185   1.0436   1.2044   1.2442   1.3314   1.4560
     1.5266   1.6800   1.7561   1.8743   2.0312   2.1275   2.1707   2.2915
     2.3818   2.4561   2.5975   2.6604   2.8042   2.8505   2.9855   3.0250
     3.1328   3.1709   3.2545   3.3237   3.4825   3.6738   3.7603   3.8531
     3.9478   4.0256   4.0582   4.2653   4.3629   4.4217   4.4775   4.5896
     4.6267   4.6890   4.8646   5.0094   5.2283   5.2799   5.5484   5.7131
    11.1157  12.2651  12.4838  12.8475  13.1109  13.6490  13.8305  13.9565
    14.0745  14.2966

     occupation numbers 
     1.0000   1.0000   1.0000   1.0000   1.0000   1.0000   1.0000   1.0000
     1.0000   1.0000   1.0000   1.0000   1.0000   1.0000   1.0000   1.0000
     1.0000   1.0000   1.0000   1.0000   1.0000   1.0000   1.0000   1.0000
     1.0000   1.0000   1.0000   1.0000   1.0000   1.0000   1.0000   1.0000
     1.0000   1.0000   1.0000   1.0000   1.0000   1.0000   1.0000   1.0000
     1.0000   1.0000   1.0000   1.0000   1.0000   1.0000   1.0000   1.0000
     1.0000   1.0000   1.0000   1.0000   1.0000   1.0000   1.0000   1.0000
     1.0000   1.0000   1.0000   1.0000   1.0000   1.0000   1.0000   1.0000
     1.0000   1.0000   1.0000   1.0000   1.0000   1.0000   1.0000   1.0000
     1.0000   1.0000   1.0000   1.0000   1.0000   1.0000   1.0000   1.0000
     1.0000   1.0000   1.0000   1.0000   1.0000   1.0000   1.0000   1.0000
     1.0000   1.0000   1.0000   1.0000   1.0000   1.0000   1.0000   1.0000
     1.0000   1.0000   1.0000   1.0000   1.0000   1.0000   1.0000   1.0000
     0.0000   0.0000   0.0000   0.0000   0.0000   0.0000   0.0000   0.0000
     0.0000   0.0000

          k = 0.0000 0.2391 0.9349 ( 34658 PWs)   bands (ev):

   -84.4484 -84.3979 -84.3019 -84.2792 -50.5535 -50.5426 -50.5371 -50.5103
   -50.4522 -50.4119 -50.3635 -50.2902 -50.2378 -50.2115 -50.1370 -50.1015
   -44.2296 -16.4332 -16.2718 -16.2532 -15.9226 -15.7676 -15.7016 -15.5741
   -13.6841 -13.6045 -13.4005 -13.3694 -13.2840 -13.2147 -13.1468 -13.1038
   -13.0875 -13.0067 -12.9684 -12.8754  -3.5930  -3.3591  -3.0754  -2.8435
    -1.8383  -1.6344  -1.3520  -1.2825  -1.1381  -1.0068  -0.9239  -0.7823
    -0.6267  -0.5647  -0.5439  -0.4629   0.0987   0.3431   0.5834   0.6723
     0.8345   0.8888   0.9938   1.0560   1.2233   1.2984   1.3824   1.4432
     1.5923   1.6508   1.7184   1.8008   1.9164   2.0081   2.1322   2.2480
     2.3513   2.4540   2.4964   2.5948   2.7785   2.8588   2.9467   3.0674
     3.0992   3.1359   3.2036   3.2687   3.5023   3.7188   3.8110   3.8852
     3.9768   3.9943   4.1054   4.2906   4.3393   4.3985   4.4654   4.5736
     4.6103   4.6840   4.8644   5.0310   5.2002   5.2963   5.5883   5.6928
    11.5991  12.3579  12.4361  12.7803  12.9922  13.7158  13.8364  13.9318
    14.0486  14.2280

     occupation numbers 
     1.0000   1.0000   1.0000   1.0000   1.0000   1.0000   1.0000   1.0000
     1.0000   1.0000   1.0000   1.0000   1.0000   1.0000   1.0000   1.0000
     1.0000   1.0000   1.0000   1.0000   1.0000   1.0000   1.0000   1.0000
     1.0000   1.0000   1.0000   1.0000   1.0000   1.0000   1.0000   1.0000
[...]
     atom   12 type  3   force =    -0.01664918   -0.00390248   -0.02599504
     atom   13 type  3   force =     0.00508725    0.00321686   -0.03793646
     atom   14 type  3   force =    -0.03584532    0.00556458    0.01221518
     atom   15 type  3   force =     0.03679972   -0.01297293   -0.01068518
     atom   16 type  3   force =     0.03596108   -0.00513708   -0.01177038
     atom   17 type  3   force =    -0.03719342    0.01994961    0.00317369
     atom   18 type  3   force =     0.00341756    0.03319883   -0.02341476
     atom   19 type  3   force =    -0.01591113   -0.01647231   -0.02299705
     atom   20 type  3   force =     0.00533298    0.04031028    0.02213128
     atom   21 type  3   force =     0.00015220   -0.02594582    0.00884292
     atom   22 type  3   force =    -0.00306272   -0.03140182    0.01698994
     atom   23 type  3   force =     0.01531563    0.01742384    0.01954932
     atom   24 type  3   force =    -0.00466390   -0.03725596   -0.02652326
     atom   25 type  3   force =    -0.00219622    0.02406109   -0.01291712
     The non-local contrib.  to forces
     atom    1 type  2   force =    -0.05784444   -0.00156575   -0.03205196
     atom    2 type  1   force =     0.03972523   -0.11315066   -0.16785297
     atom    3 type  1   force =    -0.01373301   -0.09986856    0.14830029
     atom    4 type  1   force =    -0.06743395    0.10668583    0.15158134
     atom    5 type  1   force =     0.06629085    0.12923056   -0.08580274
     atom    6 type  4   force =    -0.00551871    0.06793712    0.04311976
     atom    7 type  4   force =    -0.03929964    0.02224914   -0.06837369
     atom    8 type  4   force =     0.00649589   -0.04582359   -0.03566728
     atom    9 type  4   force =     0.03347294   -0.01101278    0.06593536
     atom   10 type  3   force =    -0.59606775   -0.21332336   -1.03045353
     atom   11 type  3   force =    -0.03794204    0.22183875   -1.45014805
     atom   12 type  3   force =     0.55384703    0.27300114    1.04689413
     atom   13 type  3   force =     0.02058589   -0.21871158    1.44802200
     atom   14 type  3   force =     1.36181271   -0.22251102   -0.63296626
     atom   15 type  3   force =    -1.25774353    0.40653614   -0.05477890
     atom   16 type  3   force =    -1.38458660    0.22080537    0.57962734
     atom   17 type  3   force =     1.28517054   -0.50339254    0.12618539
     atom   18 type  3   force =    -0.12294998   -1.33488463    0.77458615
     atom   19 type  3   force =     0.62770724    0.67014715    0.93063828
     atom   20 type  3   force =     0.02873488   -1.55126240   -0.96273017
     atom   21 type  3   force =    -0.09000706    1.03675722   -0.58877412
     atom   22 type  3   force =     0.10843109    1.30580194   -0.85136696
     atom   23 type  3   force =    -0.61876766   -0.69462139   -0.90877328
     atom   24 type  3   force =     0.01177994    1.64872178    0.94425301
     atom   25 type  3   force =     0.12522980   -0.96835578    0.59270319
     The ionic contribution  to forces
     atom    1 type  2   force =    -1.43958686    3.21086252    1.98486498
     atom    2 type  1   force =    11.57150301    4.55845569   -1.85494012
     atom    3 type  1   force =     4.41067376  -10.83941487   -3.30840988
     atom    4 type  1   force =    -8.82451425   -5.59296697    2.25450183
     atom    5 type  1   force =    -5.69995339    9.65162003    2.05575632
     atom    6 type  4   force =    -1.64264405    2.43656245   -1.93705495
     atom    7 type  4   force =     3.58357979   -0.85429552    1.16762404
     atom    8 type  4   force =     1.54585532   -2.63277823    1.48312052
     atom    9 type  4   force =    -3.59204144    0.98199577   -1.28591093
     atom   10 type  3   force =     0.98148753    6.02319031   -0.94033447
     atom   11 type  3   force =     7.74416117   -4.10689112    2.37364605
     atom   12 type  3   force =     1.07283076   -7.80788964   -0.26795991
     atom   13 type  3   force =    -7.79190752    3.98416633   -2.30439294
     atom   14 type  3   force =     0.65264750    1.47278552    8.04877508
     atom   15 type  3   force =    -0.38541317   -3.88738748    2.82527475
     atom   16 type  3   force =    -0.33575654   -1.38205202   -7.57514547
     atom   17 type  3   force =    -0.39150336    5.53981444   -5.37501903
     atom   18 type  3   force =    -4.94548512    8.85983084    2.66279815
     atom   19 type  3   force =     2.93571451   -0.54283475   -4.01897260
     atom   20 type  3   force =     3.41545387    4.83031335    9.25145715
     atom   21 type  3   force =    -9.58878195   -1.12121020   -0.29845076
     atom   22 type  3   force =     4.88369062   -7.73406185    0.13897810
     atom   23 type  3   force =    -2.71864717    1.69608300    3.71902468
     atom   24 type  3   force =    -4.73946074   -6.95996008   -8.80121544
     atom   25 type  3   force =     9.29809774    0.21606250    0.00198486
     The local contribution  to forces
     atom    1 type  2   force =     1.50018803   -3.23123355   -1.90610108
     atom    2 type  1   force =   -11.60509808   -4.44962155    2.01338468
     atom    3 type  1   force =    -4.39988439   10.93181875    3.16341791
     atom    4 type  1   force =     8.88719157    5.48920053   -2.39951447
     atom    5 type  1   force =     5.63732456   -9.77217663   -1.97645426
     atom    6 type  4   force =     1.64352067   -2.49204292    1.89315190
     atom    7 type  4   force =    -3.54769094    0.83334305   -1.11031990
     atom    8 type  4   force =    -1.54927862    2.67225068   -1.45086720
     atom    9 type  4   force =     3.56154746   -0.96952739    1.22740794
     atom   10 type  3   force =    -0.37360549   -5.80411248    1.98373998
     atom   11 type  3   force =    -7.71331169    3.88487779   -0.90010971
     atom   12 type  3   force =    -1.63901254    7.53330769   -0.79632331
     atom   13 type  3   force =     7.77739717   -3.76440283    0.83036884
     atom   14 type  3   force =    -2.03934113   -1.24663645   -7.40951958
     atom   15 type  3   force =     1.67003001    3.47150207   -2.78230816
     atom   16 type  3   force =     1.74514071    1.15803894    6.98921564
     atom   17 type  3   force =    -0.92067064   -5.02090859    5.25361914
     atom   18 type  3   force =     5.07145591   -7.50337940   -3.45457015
     atom   19 type  3   force =    -3.57412648   -0.13857363    3.07335221
     atom   20 type  3   force =    -3.43876679   -3.25164494   -8.27527725
     atom   21 type  3   force =     9.67836901    0.06705613    0.89096365
     atom   22 type  3   force =    -4.99492144    6.40819803    0.72238854
     atom   23 type  3   force =     3.34761883   -0.98947607   -2.79851389
     atom   24 type  3   force =     4.72332216    5.28780898    7.83892410
     atom   25 type  3   force =    -9.42461548    0.76837253   -0.60247653
     The core correction contribution to forces
     atom    1 type  2   force =     0.00000000    0.00000000    0.00000000
     atom    2 type  1   force =    -0.00264142    0.00112176    0.00107463
     atom    3 type  1   force =     0.00072452   -0.00063561    0.00035124
     atom    4 type  1   force =     0.00284333   -0.00076505   -0.00090929
     atom    5 type  1   force =    -0.00129739    0.00032214   -0.00076845
     atom    6 type  4   force =     0.00162943   -0.00410173   -0.00217330
     atom    7 type  4   force =     0.00241346   -0.00142322    0.00399979
     atom    8 type  4   force =    -0.00159784    0.00253761    0.00168994
     atom    9 type  4   force =    -0.00196999    0.00039475   -0.00369521
     atom   10 type  3   force =     0.00463620    0.00180355    0.00855454
     atom   11 type  3   force =     0.00114418   -0.00219834    0.01203156
     atom   12 type  3   force =    -0.00431295   -0.00231836   -0.00860384
     atom   13 type  3   force =    -0.00098698    0.00216399   -0.01193599
     atom   14 type  3   force =    -0.01096685    0.00192630    0.00592530
     atom   15 type  3   force =     0.00992659   -0.00362322    0.00112719
     atom   16 type  3   force =     0.01116016   -0.00192913   -0.00546948
     atom   17 type  3   force =    -0.01019179    0.00443596   -0.00161066
     atom   18 type  3   force =     0.00039805    0.01163167   -0.00622936
     atom   19 type  3   force =    -0.00520722   -0.00521294   -0.00801436
     atom   20 type  3   force =    -0.00008994    0.01290548    0.00867960
     atom   21 type  3   force =     0.00057264   -0.00854460    0.00510628
     atom   22 type  3   force =    -0.00026027   -0.01134011    0.00698856
     atom   23 type  3   force =     0.00511176    0.00543376    0.00781369
     atom   24 type  3   force =    -0.00030503   -0.01382601   -0.00848462
     atom   25 type  3   force =    -0.00090977    0.00798396   -0.00512826
     The Hubbard contrib.    to forces
     atom    1 type  2   force =     0.00000000    0.00000000    0.00000000
     atom    2 type  1   force =     0.00000000    0.00000000    0.00000000
     atom    3 type  1   force =     0.00000000    0.00000000    0.00000000
     atom    4 type  1   force =     0.00000000    0.00000000    0.00000000
     atom    5 type  1   force =     0.00000000    0.00000000    0.00000000
     atom    6 type  4   force =     0.00000000    0.00000000    0.00000000
     atom    7 type  4   force =     0.00000000    0.00000000    0.00000000
     atom    8 type  4   force =     0.00000000    0.00000000    0.00000000
     atom    9 type  4   force =     0.00000000    0.00000000    0.00000000
     atom   10 type  3   force =     0.00000000    0.00000000    0.00000000
     atom   11 type  3   force =     0.00000000    0.00000000    0.00000000
     atom   12 type  3   force =     0.00000000    0.00000000    0.00000000
     atom   13 type  3   force =     0.00000000    0.00000000    0.00000000
     atom   14 type  3   force =     0.00000000    0.00000000    0.00000000
     atom   15 type  3   force =     0.00000000    0.00000000    0.00000000
     atom   16 type  3   force =     0.00000000    0.00000000    0.00000000
     atom   17 type  3   force =     0.00000000    0.00000000    0.00000000
     atom   18 type  3   force =     0.00000000    0.00000000    0.00000000
     atom   19 type  3   force =     0.00000000    0.00000000    0.00000000
     atom   20 type  3   force =     0.00000000    0.00000000    0.00000000
     atom   21 type  3   force =     0.00000000    0.00000000    0.00000000
     atom   22 type  3   force =     0.00000000    0.00000000    0.00000000
     atom   23 type  3   force =     0.00000000    0.00000000    0.00000000
     atom   24 type  3   force =     0.00000000    0.00000000    0.00000000
     atom   25 type  3   force =     0.00000000    0.00000000    0.00000000
     The SCF correction term to forces
     atom    1 type  2   force =    -0.00000018    0.00000159    0.00000041
     atom    2 type  1   force =     0.00000107    0.00000071    0.00000024
     atom    3 type  1   force =     0.00000020   -0.00000069   -0.00000097
     atom    4 type  1   force =    -0.00000149   -0.00000159   -0.00000222
     atom    5 type  1   force =    -0.00000234   -0.00000136   -0.00000041
     atom    6 type  4   force =     0.00000003   -0.00000057   -0.00000014
     atom    7 type  4   force =     0.00000120    0.00000002    0.00000041
     atom    8 type  4   force =    -0.00000012   -0.00000128    0.00000082
     atom    9 type  4   force =     0.00000016    0.00000054   -0.00000015
     atom   10 type  3   force =    -0.00000098   -0.00000087   -0.00000098
     atom   11 type  3   force =     0.00000113    0.00000003    0.00000002
     atom   12 type  3   force =    -0.00000179   -0.00000312   -0.00000200
     atom   13 type  3   force =    -0.00000162    0.00000115    0.00000175
     atom   14 type  3   force =     0.00000215    0.00000042    0.00000076
     atom   15 type  3   force =    -0.00000048   -0.00000026    0.00000006
     atom   16 type  3   force =     0.00000306   -0.00000005    0.00000171
     atom   17 type  3   force =     0.00000152    0.00000052   -0.00000103
     atom   18 type  3   force =    -0.00000160    0.00000054    0.00000058
     atom   19 type  3   force =     0.00000051    0.00000206   -0.00000046
     atom   20 type  3   force =     0.00000067   -0.00000101    0.00000207
     atom   21 type  3   force =    -0.00000075   -0.00000418   -0.00000201
     atom   22 type  3   force =    -0.00000302    0.00000036    0.00000181
     atom   23 type  3   force =    -0.00000043    0.00000473   -0.00000175
     atom   24 type  3   force =    -0.00000053   -0.00000044   -0.00000020
     atom   25 type  3   force =     0.00000120   -0.00000193   -0.00000027

     Total force =     0.157359     Total SCF correction =     0.000013


     Computing stress (Cartesian axis) and pressure


     negative rho (up, down):  0.000E+00 8.846E-04
          total   stress  (Ry/bohr**3)                   (kbar)     P=      102.14
   0.00042626   0.00004859  -0.00000038           62.71        7.15       -0.06
   0.00004859   0.00085694  -0.00004588            7.15      126.06       -6.75
  -0.00000038  -0.00004588   0.00079990           -0.06       -6.75      117.67

     kinetic stress (kbar)  28045.93     92.26    -44.00
                               92.26  28182.96      1.46
                              -44.00      1.46  28215.87

     local   stress (kbar)  -8518.46   4245.54  -8817.64
                             4245.54 -14298.83   -656.59
                            -8817.64   -656.59  -5099.88

     nonloc. stress (kbar)  -7197.91      7.48     -5.99
                                7.48  -7167.80    -12.76
                               -5.99    -12.76  -7173.10

     hartree stress (kbar)  15141.69  -1564.80   3705.22
                            -1564.80  18161.53    338.22
                             3705.22    338.22  14231.88

     exc-cor stress (kbar)  -2966.04     -3.99      3.78
                               -3.99  -2970.21     -0.74
                                3.78     -0.74  -2970.73

     corecor stress (kbar)  -3278.77      0.54     -0.55
                                0.54  -3278.79      1.30
                               -0.55      1.30  -3278.90

     ewald   stress (kbar) -21163.74  -2769.88   5159.12
                            -2769.88 -18502.80    322.36
                             5159.12    322.36 -23807.47

     hubbard stress (kbar)      0.00      0.00      0.00
                                0.00      0.00      0.00
                                0.00      0.00      0.00

     DFT-D   stress (kbar)      0.00      0.00      0.00
                                0.00      0.00      0.00
                                0.00      0.00      0.00

     XDM     stress (kbar)      0.00      0.00      0.00
                                0.00      0.00      0.00
                                0.00      0.00      0.00

     dft-nl  stress (kbar)      0.00      0.00      0.00
                                0.00      0.00      0.00
                                0.00      0.00      0.00

     TS-vdW  stress (kbar)      0.00      0.00      0.00
                                0.00      0.00      0.00
                                0.00      0.00      0.00



     init_run     :   1121.71s CPU   1283.39s WALL (       1 calls)
     electrons    :  92683.61s CPU 106979.09s WALL (       1 calls)
     forces       :    144.05s CPU    165.35s WALL (       1 calls)
     stress       :   1231.34s CPU   1392.30s WALL (       1 calls)

     Called by init_run:
     wfcinit      :   1105.99s CPU   1265.41s WALL (       1 calls)
     wfcinit:atom :      1.44s CPU      1.61s WALL (     316 calls)
     wfcinit:wfcr :   1095.72s CPU   1253.58s WALL (     316 calls)
     potinit      :      5.69s CPU      6.99s WALL (       1 calls)
     hinit0       :      5.95s CPU      6.17s WALL (       1 calls)

     Called by electrons:
     c_bands      :  76727.47s CPU  88576.75s WALL (      36 calls)
     sum_band     :  15685.29s CPU  18083.47s WALL (      36 calls)
     v_of_rho     :     85.30s CPU     97.76s WALL (      37 calls)
     v_h          :      5.85s CPU      6.81s WALL (      37 calls)
     v_xc         :     83.47s CPU     95.53s WALL (      39 calls)
     newd         :     89.89s CPU    108.73s WALL (      37 calls)
     PAW_pot      :     36.99s CPU     43.06s WALL (      37 calls)
     mix_rho      :     50.09s CPU     58.47s WALL (      36 calls)

     Called by c_bands:
     init_us_2    :    122.17s CPU    135.75s WALL (   23700 calls)
     cegterg      :  75826.40s CPU  87500.84s WALL (   11376 calls)

     Called by sum_band:
     sum_band:wei :      0.64s CPU      0.83s WALL (      36 calls)
     sum_band:loo :  15486.37s CPU  17844.51s WALL (      36 calls)
     sum_band:buf :     34.08s CPU     36.81s WALL (   11376 calls)
     sum_band:ini :     51.92s CPU     57.12s WALL (   11376 calls)
     sum_band:cal :    952.53s CPU   1098.43s WALL (   11376 calls)
     sum_band:bec :      2.75s CPU      2.76s WALL (   11376 calls)
     addusdens    :    181.43s CPU    218.61s WALL (      36 calls)
     addusd:skk   :      1.49s CPU      1.74s WALL (     108 calls)
     addusd:dgemm :      7.38s CPU     14.48s WALL (     216 calls)
     addusd:qvan2 :    171.34s CPU    199.03s WALL (     216 calls)

     Called by *egterg:
     cdiaghg      :   1322.66s CPU   1566.35s WALL (   39487 calls)
     cegterg:over :   3580.81s CPU   4108.90s WALL (   28111 calls)
     cegterg:upda :    352.98s CPU    404.61s WALL (   28111 calls)
     cegterg:last :    622.44s CPU    721.37s WALL (   17716 calls)
     h_psi        :  67258.14s CPU  77611.93s WALL (   39803 calls)
     s_psi        :    730.15s CPU    860.03s WALL (   39803 calls)
     g_psi        :     40.05s CPU     45.35s WALL (   28111 calls)

     Called by h_psi:
     h_psi:calbec :   2708.53s CPU   3119.58s WALL (   39803 calls)
     vloc_psi     :  63722.98s CPU  73492.72s WALL (   39803 calls)
     add_vuspsi   :    751.58s CPU    905.49s WALL (   39803 calls)

     General routines
     calbec       :   3930.51s CPU   4519.22s WALL (   52759 calls)
     fft          :    111.16s CPU    128.03s WALL (     963 calls)
     ffts         :      3.10s CPU      3.68s WALL (     146 calls)
     fftw         :  75748.57s CPU  87669.26s WALL ( 7036252 calls)
     interpolate  :      7.74s CPU      9.55s WALL (      74 calls)

     Parallel routines
     fft_scatt_xy :   1287.76s CPU   1322.58s WALL ( 7037361 calls)
     fft_scatt_yz :  71204.94s CPU  82998.52s WALL ( 7037361 calls)

     PAW routines
     PAW_pot      :     36.99s CPU     43.06s WALL (      37 calls)

     PWSCF        :   1d 2h26m CPU   1d 6h30m WALL


   This run was terminated on:   2:10: 8  18Jan2023            

=------------------------------------------------------------------------------=
   JOB DONE.
=------------------------------------------------------------------------------=
Note: The following floating-point exceptions are signalling: IEEE_DENORMAL
Note: The following floating-point exceptions are signalling: IEEE_INVALID_FLAG IEEE_DENORMAL
Note: The following floating-point exceptions are signalling: IEEE_UNDERFLOW_FLAG IEEE_DENORMAL
Note: The following floating-point exceptions are signalling: IEEE_DENORMAL
Note: The following floating-point exceptions are signalling: IEEE_DENORMAL
Note: The following floating-point exceptions are signalling: IEEE_DENORMAL
Note: The following floating-point exceptions are signalling: IEEE_INVALID_FLAG IEEE_DENORMAL
Note: The following floating-point exceptions are signalling: IEEE_DENORMAL
Note: The following floating-point exceptions are signalling: IEEE_DENORMAL
Note: The following floating-point exceptions are signalling: IEEE_DENORMAL
Note: The following floating-point exceptions are signalling: IEEE_DENORMAL
Note: The following floating-point exceptions are signalling: IEEE_DENORMAL
