
     Program PWSCF v.6.7MaX starts on 14Dec2022 at 16:40:52 

     This program is part of the open-source Quantum ESPRESSO suite
     for quantum simulation of materials; please cite
         "P. Giannozzi et al., J. Phys.:Condens. Matter 21 395502 (2009);
         "P. Giannozzi et al., J. Phys.:Condens. Matter 29 465901 (2017);
          URL http://www.quantum-espresso.org", 
     in publications or presentations arising from this work. More details at
     http://www.quantum-espresso.org/quote

     Parallel version (MPI), running on    24 processors

     MPI processes distributed on     1 nodes
     R & G space division:  proc/nbgrp/npool/nimage =      24
     Reading input from path3_cod-3.in

     Current dimensions of program PWSCF are:
     Max number of different atomic species (ntypx) = 10
     Max number of k-points (npk) =  40000
     Max angular momentum in pseudopotentials (lmaxx) =  3
     Message from routine read_pp_mesh:
     mesh size missing, using the one in header
     file Fe.pbe-spn-kjpaw_psl.0.2.1.UPF: wavefunction(s)  3D renormalized
     file O.pbe-n-kjpaw_psl.0.1.UPF: wavefunction(s)  2P renormalized

     Subspace diagonalization in iterative solution of the eigenvalue problem:
     a serial algorithm will be used


     Parallelization info
     --------------------
     sticks:   dense  smooth     PW     G-vecs:    dense   smooth      PW
     Min         827     306     82                53951    12161    1706
     Max         828     309     83                53954    12162    1709
     Sum       19863    7371   1983              1294859   291873   40977



     bravais-lattice index     =            0
     lattice parameter (alat)  =      19.6651  a.u.
     unit-cell volume          =    2160.3578 (a.u.)^3
     number of atoms/cell      =           25
     number of atomic types    =            4
     number of electrons       =       189.00
     number of Kohn-Sham states=          114
     kinetic-energy cutoff     =     100.0000  Ry
     charge density cutoff     =    1080.0000  Ry
     scf convergence threshold =      2.0E-10
     mixing beta               =       0.4000
     number of iterations used =            8  plain     mixing
     Exchange-correlation= PBE
                           (   1   4   3   4   0   0   0)

     celldm(1)=  19.665057  celldm(2)=   0.000000  celldm(3)=   0.000000
     celldm(4)=   0.000000  celldm(5)=   0.000000  celldm(6)=   0.000000

     crystal axes: (cart. coord. in units of alat)
               a(1) = (   1.000000   0.000000   0.000000 )  
               a(2) = (   0.000000   0.597590   0.000000 )  
               a(3) = (   0.000000   0.000000   0.475375 )  

     reciprocal axes: (cart. coord. in units 2 pi/alat)
               b(1) = (  1.000000  0.000000  0.000000 )  
               b(2) = (  0.000000  1.673388  0.000000 )  
               b(3) = (  0.000000  0.000000  2.103600 )  


     PseudoPot. # 1 for Fe read from file:
     /opt/QEpot/SSSP_precision_pseudos/Fe.pbe-spn-kjpaw_psl.0.2.1.UPF
     MD5 check sum: e86618425769142926afa95317d90200
     Pseudo is Projector augmented-wave + core cor, Zval = 16.0
     Generated using "atomic" code by A. Dal Corso  v.5.0.99 svn rev. 10869
     Shape of augmentation charge: PSQ
     Using radial grid of 1191 points,  6 beta functions with: 
                l(1) =   0
                l(2) =   0
                l(3) =   1
                l(4) =   1
                l(5) =   2
                l(6) =   2
     Q(r) pseudized with 0 coefficients 


     PseudoPot. # 2 for Na read from file:
     /opt/QEpot/SSSP_precision_pseudos/Na_ONCV_PBE-1.0.oncvpsp.upf
     MD5 check sum: 24a298df0a6742ae313db96548fdb2a4
     Pseudo is Norm-conserving, Zval =  9.0
     Generated using ONCVPSP code by D. R. Hamann
     Using radial grid of 1992 points,  4 beta functions with: 
                l(1) =   0
                l(2) =   0
                l(3) =   1
                l(4) =   1

     PseudoPot. # 3 for O  read from file:
     /opt/QEpot/SSSP_precision_pseudos/O.pbe-n-kjpaw_psl.0.1.UPF
     MD5 check sum: 0234752ac141de4415c5fc33072bef88
     Pseudo is Projector augmented-wave + core cor, Zval =  6.0
     Generated using "atomic" code by A. Dal Corso  v.5.0.99 svn rev. 10869
     Shape of augmentation charge: BESSEL
     Using radial grid of 1095 points,  4 beta functions with: 
                l(1) =   0
                l(2) =   0
                l(3) =   1
                l(4) =   1
     Q(r) pseudized with 0 coefficients 


     PseudoPot. # 4 for P  read from file:
     /opt/QEpot/SSSP_precision_pseudos/P.pbe-n-rrkjus_psl.1.0.0.UPF
     MD5 check sum: 8b930f418f0a4573dca56cd030ffe088
     Pseudo is Ultrasoft + core correction, Zval =  5.0
     Generated using "atomic" code by A. Dal Corso  v.5.1
     Using radial grid of 1147 points,  6 beta functions with: 
                l(1) =   0
                l(2) =   0
                l(3) =   1
                l(4) =   1
                l(5) =   2
                l(6) =   2
     Q(r) pseudized with 0 coefficients 


     atomic species   valence    mass     pseudopotential
        Fe            16.00    55.84500     Fe( 1.00)
        Na             9.00    22.98977     Na( 1.00)
        O              6.00    15.99940     O ( 1.00)
        P              5.00    30.97376     P ( 1.00)

     Starting magnetic structure 
     atomic species   magnetization
        Fe           0.312
        Na           0.000
        O            0.000
        P            0.000

     No symmetry found


                                    s                        frac. trans.

      isym =  1     identity                                     

 cryst.   s( 1) = (     1          0          0      )
                  (     0          1          0      )
                  (     0          0          1      )

 cart.    s( 1) = (  1.0000000  0.0000000  0.0000000 )
                  (  0.0000000  1.0000000  0.0000000 )
                  (  0.0000000  0.0000000  1.0000000 )


   Cartesian axes

     site n.     atom                  positions (alat units)
         1           Na  tau(   1) = (   0.0091645   0.0619543   0.0842169  )
         2           Fe  tau(   2) = (   0.3006931   0.4598936   0.4183237  )
         3           Fe  tau(   3) = (   0.2172794   0.1994152   0.2522182  )
         4           Fe  tau(   4) = (   0.7013423   0.1375294   0.0676876  )
         5           Fe  tau(   5) = (   0.7823918   0.4166066   0.2462896  )
         6           P   tau(   6) = (   0.0916694   0.4042623   0.1489444  )
         7           P   tau(   7) = (   0.3922301   0.1495789   0.4588707  )
         8           P   tau(   8) = (   0.9035733   0.1787421   0.3282381  )
         9           P   tau(   9) = (   0.6068375   0.4472655   0.0379740  )
        10           O   tau(  10) = (   0.1716028   0.3997689   0.2776274  )
        11           O   tau(  11) = (   0.3459221   0.1497711   0.1236957  )
        12           O   tau(  12) = (   0.8394906   0.1630618   0.1947898  )
        13           O   tau(  13) = (   0.6484429   0.4495184   0.3717044  )
        14           O   tau(  14) = (   0.4599474   0.4563694   0.0500570  )
        15           O   tau(  15) = (   0.0476716   0.1360599   0.3218528  )
        16           O   tau(  16) = (   0.5389438   0.1383011   0.4482491  )
        17           O   tau(  17) = (   0.9533535   0.4560513   0.1648620  )
        18           O   tau(  18) = (   0.1614453   0.5005252   0.0578248  )
        19           O   tau(  19) = (   0.3222971   0.0448919   0.3739349  )
        20           O   tau(  20) = (   0.8832038   0.3185241   0.3742397  )
        21           O   tau(  21) = (   0.6645328   0.3263285   0.1122249  )
        22           O   tau(  22) = (   0.8349710   0.0852782   0.4231795  )
        23           O   tau(  23) = (   0.6757630   0.5543232   0.1211685  )
        24           O   tau(  24) = (   0.1041629   0.2643246   0.1001937  )
        25           O   tau(  25) = (   0.3431372   0.2727687   0.3837463  )

   Crystallographic axes

     site n.     atom                  positions (cryst. coord.)
         1           Na  tau(   1) = (  0.0091645  0.1036736  0.1771587  )
         2           Fe  tau(   2) = (  0.3006931  0.7695805  0.8799859  )
         3           Fe  tau(   3) = (  0.2172794  0.3336990  0.5305663  )
         4           Fe  tau(   4) = (  0.7013423  0.2301401  0.1423876  )
         5           Fe  tau(   5) = (  0.7823918  0.6971446  0.5180949  )
         6           P   tau(   6) = (  0.0916694  0.6764878  0.3133195  )
         7           P   tau(   7) = (  0.3922301  0.2503036  0.9652804  )
         8           P   tau(   8) = (  0.9035733  0.2991050  0.6904818  )
         9           P   tau(   9) = (  0.6068375  0.7484489  0.0798821  )
        10           O   tau(  10) = (  0.1716028  0.6689685  0.5840170  )
        11           O   tau(  11) = (  0.3459221  0.2506252  0.2602063  )
        12           O   tau(  12) = (  0.8394906  0.2728657  0.4097599  )
        13           O   tau(  13) = (  0.6484429  0.7522188  0.7819175  )
        14           O   tau(  14) = (  0.4599474  0.7636833  0.1052999  )
        15           O   tau(  15) = (  0.0476716  0.2276811  0.6770496  )
        16           O   tau(  16) = (  0.5389438  0.2314314  0.9429369  )
        17           O   tau(  17) = (  0.9533535  0.7631510  0.3468038  )
        18           O   tau(  18) = (  0.1614453  0.8375730  0.1216403  )
        19           O   tau(  19) = (  0.3222971  0.0751216  0.7866096  )
        20           O   tau(  20) = (  0.8832038  0.5330146  0.7872506  )
        21           O   tau(  21) = (  0.6645328  0.5460744  0.2360764  )
        22           O   tau(  22) = (  0.8349710  0.1427035  0.8902004  )
        23           O   tau(  23) = (  0.6757630  0.9275980  0.2548902  )
        24           O   tau(  24) = (  0.1041629  0.4423177  0.2107676  )
        25           O   tau(  25) = (  0.3431372  0.4564480  0.8072487  )

     number of k points=   158  Marzari-Vanderbilt smearing, width (Ry)=  0.0073
                       cart. coord. in units 2pi/alat
        k(    1) = (   0.0000000   0.0000000   0.0000000), wk =   0.0031746
        k(    2) = (   0.0000000   0.0000000   0.2337334), wk =   0.0063492
        k(    3) = (   0.0000000   0.0000000   0.4674667), wk =   0.0063492
        k(    4) = (   0.0000000   0.0000000   0.7012001), wk =   0.0063492
        k(    5) = (   0.0000000   0.0000000   0.9349334), wk =   0.0063492
        k(    6) = (   0.0000000   0.2390555   0.0000000), wk =   0.0063492
        k(    7) = (   0.0000000   0.2390555   0.2337334), wk =   0.0063492
        k(    8) = (   0.0000000   0.2390555   0.4674667), wk =   0.0063492
        k(    9) = (   0.0000000   0.2390555   0.7012001), wk =   0.0063492
        k(   10) = (   0.0000000   0.2390555   0.9349334), wk =   0.0063492
        k(   11) = (   0.0000000   0.4781110   0.0000000), wk =   0.0063492
        k(   12) = (   0.0000000   0.4781110   0.2337334), wk =   0.0063492
        k(   13) = (   0.0000000   0.4781110   0.4674667), wk =   0.0063492
        k(   14) = (   0.0000000   0.4781110   0.7012001), wk =   0.0063492
        k(   15) = (   0.0000000   0.4781110   0.9349334), wk =   0.0063492
        k(   16) = (   0.0000000   0.7171664   0.0000000), wk =   0.0063492
        k(   17) = (   0.0000000   0.7171664   0.2337334), wk =   0.0063492
        k(   18) = (   0.0000000   0.7171664   0.4674667), wk =   0.0063492
        k(   19) = (   0.0000000   0.7171664   0.7012001), wk =   0.0063492
        k(   20) = (   0.0000000   0.7171664   0.9349334), wk =   0.0063492
        k(   21) = (   0.2000000   0.0000000   0.0000000), wk =   0.0063492
        k(   22) = (   0.2000000   0.0000000   0.2337334), wk =   0.0063492
        k(   23) = (   0.2000000   0.0000000   0.4674667), wk =   0.0063492
        k(   24) = (   0.2000000   0.0000000   0.7012001), wk =   0.0063492
        k(   25) = (   0.2000000   0.0000000   0.9349334), wk =   0.0063492
        k(   26) = (   0.2000000   0.2390555   0.0000000), wk =   0.0063492
        k(   27) = (   0.2000000   0.2390555   0.2337334), wk =   0.0063492
        k(   28) = (   0.2000000   0.2390555   0.4674667), wk =   0.0063492
        k(   29) = (   0.2000000   0.2390555   0.7012001), wk =   0.0063492
        k(   30) = (   0.2000000   0.2390555   0.9349334), wk =   0.0063492
        k(   31) = (   0.2000000   0.4781110   0.0000000), wk =   0.0063492
        k(   32) = (   0.2000000   0.4781110   0.2337334), wk =   0.0063492
        k(   33) = (   0.2000000   0.4781110   0.4674667), wk =   0.0063492
        k(   34) = (   0.2000000   0.4781110   0.7012001), wk =   0.0063492
        k(   35) = (   0.2000000   0.4781110   0.9349334), wk =   0.0063492
        k(   36) = (   0.2000000   0.7171664   0.0000000), wk =   0.0063492
        k(   37) = (   0.2000000   0.7171664   0.2337334), wk =   0.0063492
        k(   38) = (   0.2000000   0.7171664   0.4674667), wk =   0.0063492
        k(   39) = (   0.2000000   0.7171664   0.7012001), wk =   0.0063492
        k(   40) = (   0.2000000   0.7171664   0.9349334), wk =   0.0063492
        k(   41) = (   0.4000000   0.0000000   0.0000000), wk =   0.0063492
        k(   42) = (   0.4000000   0.0000000   0.2337334), wk =   0.0063492
        k(   43) = (   0.4000000   0.0000000   0.4674667), wk =   0.0063492
        k(   44) = (   0.4000000   0.0000000   0.7012001), wk =   0.0063492
        k(   45) = (   0.4000000   0.0000000   0.9349334), wk =   0.0063492
        k(   46) = (   0.4000000   0.2390555   0.0000000), wk =   0.0063492
        k(   47) = (   0.4000000   0.2390555   0.2337334), wk =   0.0063492
        k(   48) = (   0.4000000   0.2390555   0.4674667), wk =   0.0063492
        k(   49) = (   0.4000000   0.2390555   0.7012001), wk =   0.0063492
        k(   50) = (   0.4000000   0.2390555   0.9349334), wk =   0.0063492
        k(   51) = (   0.4000000   0.4781110   0.0000000), wk =   0.0063492
        k(   52) = (   0.4000000   0.4781110   0.2337334), wk =   0.0063492
        k(   53) = (   0.4000000   0.4781110   0.4674667), wk =   0.0063492
        k(   54) = (   0.4000000   0.4781110   0.7012001), wk =   0.0063492
        k(   55) = (   0.4000000   0.4781110   0.9349334), wk =   0.0063492
        k(   56) = (   0.4000000   0.7171664   0.0000000), wk =   0.0063492
        k(   57) = (   0.4000000   0.7171664   0.2337334), wk =   0.0063492
        k(   58) = (   0.4000000   0.7171664   0.4674667), wk =   0.0063492
        k(   59) = (   0.4000000   0.7171664   0.7012001), wk =   0.0063492
        k(   60) = (   0.4000000   0.7171664   0.9349334), wk =   0.0063492
        k(   61) = (   0.0000000  -0.2390555   0.2337334), wk =   0.0063492
        k(   62) = (   0.0000000  -0.2390555   0.4674667), wk =   0.0063492
        k(   63) = (   0.0000000  -0.2390555   0.7012001), wk =   0.0063492
        k(   64) = (   0.0000000  -0.2390555   0.9349334), wk =   0.0063492
        k(   65) = (   0.0000000  -0.4781110   0.2337334), wk =   0.0063492
        k(   66) = (   0.0000000  -0.4781110   0.4674667), wk =   0.0063492
        k(   67) = (   0.0000000  -0.4781110   0.7012001), wk =   0.0063492
        k(   68) = (   0.0000000  -0.4781110   0.9349334), wk =   0.0063492
        k(   69) = (   0.0000000  -0.7171664   0.2337334), wk =   0.0063492
        k(   70) = (   0.0000000  -0.7171664   0.4674667), wk =   0.0063492
        k(   71) = (   0.0000000  -0.7171664   0.7012001), wk =   0.0063492
        k(   72) = (   0.0000000  -0.7171664   0.9349334), wk =   0.0063492
        k(   73) = (  -0.2000000   0.0000000   0.2337334), wk =   0.0063492
        k(   74) = (  -0.2000000   0.0000000   0.4674667), wk =   0.0063492
        k(   75) = (  -0.2000000   0.0000000   0.7012001), wk =   0.0063492
        k(   76) = (  -0.2000000   0.0000000   0.9349334), wk =   0.0063492
        k(   77) = (  -0.2000000   0.2390555   0.0000000), wk =   0.0063492
        k(   78) = (  -0.2000000  -0.2390555   0.2337334), wk =   0.0063492
        k(   79) = (  -0.2000000   0.2390555  -0.2337334), wk =   0.0063492
        k(   80) = (   0.2000000  -0.2390555  -0.2337334), wk =   0.0063492
        k(   81) = (  -0.2000000  -0.2390555   0.4674667), wk =   0.0063492
        k(   82) = (  -0.2000000   0.2390555  -0.4674667), wk =   0.0063492
        k(   83) = (   0.2000000  -0.2390555  -0.4674667), wk =   0.0063492
        k(   84) = (  -0.2000000  -0.2390555   0.7012001), wk =   0.0063492
        k(   85) = (  -0.2000000   0.2390555  -0.7012001), wk =   0.0063492
        k(   86) = (   0.2000000  -0.2390555  -0.7012001), wk =   0.0063492
        k(   87) = (  -0.2000000  -0.2390555   0.9349334), wk =   0.0063492
        k(   88) = (  -0.2000000   0.2390555  -0.9349334), wk =   0.0063492
        k(   89) = (   0.2000000  -0.2390555  -0.9349334), wk =   0.0063492
        k(   90) = (  -0.2000000   0.4781110   0.0000000), wk =   0.0063492
        k(   91) = (  -0.2000000  -0.4781110   0.2337334), wk =   0.0063492
        k(   92) = (  -0.2000000   0.4781110  -0.2337334), wk =   0.0063492
        k(   93) = (   0.2000000  -0.4781110  -0.2337334), wk =   0.0063492
        k(   94) = (  -0.2000000  -0.4781110   0.4674667), wk =   0.0063492
        k(   95) = (  -0.2000000   0.4781110  -0.4674667), wk =   0.0063492
        k(   96) = (   0.2000000  -0.4781110  -0.4674667), wk =   0.0063492
        k(   97) = (  -0.2000000  -0.4781110   0.7012001), wk =   0.0063492
        k(   98) = (  -0.2000000   0.4781110  -0.7012001), wk =   0.0063492
        k(   99) = (   0.2000000  -0.4781110  -0.7012001), wk =   0.0063492
        k(  100) = (  -0.2000000  -0.4781110   0.9349334), wk =   0.0063492
        k(  101) = (  -0.2000000   0.4781110  -0.9349334), wk =   0.0063492
        k(  102) = (   0.2000000  -0.4781110  -0.9349334), wk =   0.0063492
        k(  103) = (  -0.2000000   0.7171664   0.0000000), wk =   0.0063492
        k(  104) = (  -0.2000000  -0.7171664   0.2337334), wk =   0.0063492
        k(  105) = (  -0.2000000   0.7171664  -0.2337334), wk =   0.0063492
        k(  106) = (   0.2000000  -0.7171664  -0.2337334), wk =   0.0063492
        k(  107) = (  -0.2000000  -0.7171664   0.4674667), wk =   0.0063492
        k(  108) = (  -0.2000000   0.7171664  -0.4674667), wk =   0.0063492
        k(  109) = (   0.2000000  -0.7171664  -0.4674667), wk =   0.0063492
        k(  110) = (  -0.2000000  -0.7171664   0.7012001), wk =   0.0063492
        k(  111) = (  -0.2000000   0.7171664  -0.7012001), wk =   0.0063492
        k(  112) = (   0.2000000  -0.7171664  -0.7012001), wk =   0.0063492
        k(  113) = (  -0.2000000  -0.7171664   0.9349334), wk =   0.0063492
        k(  114) = (  -0.2000000   0.7171664  -0.9349334), wk =   0.0063492
        k(  115) = (   0.2000000  -0.7171664  -0.9349334), wk =   0.0063492
        k(  116) = (  -0.4000000   0.0000000   0.2337334), wk =   0.0063492
        k(  117) = (  -0.4000000   0.0000000   0.4674667), wk =   0.0063492
        k(  118) = (  -0.4000000   0.0000000   0.7012001), wk =   0.0063492
        k(  119) = (  -0.4000000   0.0000000   0.9349334), wk =   0.0063492
        k(  120) = (  -0.4000000   0.2390555   0.0000000), wk =   0.0063492
        k(  121) = (  -0.4000000  -0.2390555   0.2337334), wk =   0.0063492
        k(  122) = (  -0.4000000   0.2390555  -0.2337334), wk =   0.0063492
        k(  123) = (   0.4000000  -0.2390555  -0.2337334), wk =   0.0063492
        k(  124) = (  -0.4000000  -0.2390555   0.4674667), wk =   0.0063492
        k(  125) = (  -0.4000000   0.2390555  -0.4674667), wk =   0.0063492
        k(  126) = (   0.4000000  -0.2390555  -0.4674667), wk =   0.0063492
        k(  127) = (  -0.4000000  -0.2390555   0.7012001), wk =   0.0063492
        k(  128) = (  -0.4000000   0.2390555  -0.7012001), wk =   0.0063492
        k(  129) = (   0.4000000  -0.2390555  -0.7012001), wk =   0.0063492
        k(  130) = (  -0.4000000  -0.2390555   0.9349334), wk =   0.0063492
        k(  131) = (  -0.4000000   0.2390555  -0.9349334), wk =   0.0063492
        k(  132) = (   0.4000000  -0.2390555  -0.9349334), wk =   0.0063492
        k(  133) = (  -0.4000000   0.4781110   0.0000000), wk =   0.0063492
        k(  134) = (  -0.4000000  -0.4781110   0.2337334), wk =   0.0063492
        k(  135) = (  -0.4000000   0.4781110  -0.2337334), wk =   0.0063492
        k(  136) = (   0.4000000  -0.4781110  -0.2337334), wk =   0.0063492
        k(  137) = (  -0.4000000  -0.4781110   0.4674667), wk =   0.0063492
        k(  138) = (  -0.4000000   0.4781110  -0.4674667), wk =   0.0063492
        k(  139) = (   0.4000000  -0.4781110  -0.4674667), wk =   0.0063492
        k(  140) = (  -0.4000000  -0.4781110   0.7012001), wk =   0.0063492
        k(  141) = (  -0.4000000   0.4781110  -0.7012001), wk =   0.0063492
        k(  142) = (   0.4000000  -0.4781110  -0.7012001), wk =   0.0063492
        k(  143) = (  -0.4000000  -0.4781110   0.9349334), wk =   0.0063492
        k(  144) = (  -0.4000000   0.4781110  -0.9349334), wk =   0.0063492
        k(  145) = (   0.4000000  -0.4781110  -0.9349334), wk =   0.0063492
        k(  146) = (  -0.4000000   0.7171664   0.0000000), wk =   0.0063492
        k(  147) = (  -0.4000000  -0.7171664   0.2337334), wk =   0.0063492
        k(  148) = (  -0.4000000   0.7171664  -0.2337334), wk =   0.0063492
        k(  149) = (   0.4000000  -0.7171664  -0.2337334), wk =   0.0063492
        k(  150) = (  -0.4000000  -0.7171664   0.4674667), wk =   0.0063492
        k(  151) = (  -0.4000000   0.7171664  -0.4674667), wk =   0.0063492
        k(  152) = (   0.4000000  -0.7171664  -0.4674667), wk =   0.0063492
        k(  153) = (  -0.4000000  -0.7171664   0.7012001), wk =   0.0063492
        k(  154) = (  -0.4000000   0.7171664  -0.7012001), wk =   0.0063492
        k(  155) = (   0.4000000  -0.7171664  -0.7012001), wk =   0.0063492
        k(  156) = (  -0.4000000  -0.7171664   0.9349334), wk =   0.0063492
        k(  157) = (  -0.4000000   0.7171664  -0.9349334), wk =   0.0063492
        k(  158) = (   0.4000000  -0.7171664  -0.9349334), wk =   0.0063492

                       cryst. coord.
        k(    1) = (   0.0000000   0.0000000   0.0000000), wk =   0.0031746
        k(    2) = (   0.0000000   0.0000000   0.1111111), wk =   0.0063492
        k(    3) = (   0.0000000   0.0000000   0.2222222), wk =   0.0063492
        k(    4) = (   0.0000000   0.0000000   0.3333333), wk =   0.0063492
        k(    5) = (   0.0000000   0.0000000   0.4444444), wk =   0.0063492
        k(    6) = (   0.0000000   0.1428571   0.0000000), wk =   0.0063492
        k(    7) = (   0.0000000   0.1428571   0.1111111), wk =   0.0063492
        k(    8) = (   0.0000000   0.1428571   0.2222222), wk =   0.0063492
        k(    9) = (   0.0000000   0.1428571   0.3333333), wk =   0.0063492
        k(   10) = (   0.0000000   0.1428571   0.4444444), wk =   0.0063492
        k(   11) = (   0.0000000   0.2857143   0.0000000), wk =   0.0063492
        k(   12) = (   0.0000000   0.2857143   0.1111111), wk =   0.0063492
        k(   13) = (   0.0000000   0.2857143   0.2222222), wk =   0.0063492
        k(   14) = (   0.0000000   0.2857143   0.3333333), wk =   0.0063492
        k(   15) = (   0.0000000   0.2857143   0.4444444), wk =   0.0063492
        k(   16) = (   0.0000000   0.4285714   0.0000000), wk =   0.0063492
        k(   17) = (   0.0000000   0.4285714   0.1111111), wk =   0.0063492
        k(   18) = (   0.0000000   0.4285714   0.2222222), wk =   0.0063492
        k(   19) = (   0.0000000   0.4285714   0.3333333), wk =   0.0063492
        k(   20) = (   0.0000000   0.4285714   0.4444444), wk =   0.0063492
        k(   21) = (   0.2000000   0.0000000   0.0000000), wk =   0.0063492
        k(   22) = (   0.2000000   0.0000000   0.1111111), wk =   0.0063492
        k(   23) = (   0.2000000   0.0000000   0.2222222), wk =   0.0063492
        k(   24) = (   0.2000000   0.0000000   0.3333333), wk =   0.0063492
        k(   25) = (   0.2000000   0.0000000   0.4444444), wk =   0.0063492
        k(   26) = (   0.2000000   0.1428571   0.0000000), wk =   0.0063492
        k(   27) = (   0.2000000   0.1428571   0.1111111), wk =   0.0063492
        k(   28) = (   0.2000000   0.1428571   0.2222222), wk =   0.0063492
        k(   29) = (   0.2000000   0.1428571   0.3333333), wk =   0.0063492
        k(   30) = (   0.2000000   0.1428571   0.4444444), wk =   0.0063492
        k(   31) = (   0.2000000   0.2857143   0.0000000), wk =   0.0063492
        k(   32) = (   0.2000000   0.2857143   0.1111111), wk =   0.0063492
        k(   33) = (   0.2000000   0.2857143   0.2222222), wk =   0.0063492
        k(   34) = (   0.2000000   0.2857143   0.3333333), wk =   0.0063492
        k(   35) = (   0.2000000   0.2857143   0.4444444), wk =   0.0063492
        k(   36) = (   0.2000000   0.4285714   0.0000000), wk =   0.0063492
        k(   37) = (   0.2000000   0.4285714   0.1111111), wk =   0.0063492
        k(   38) = (   0.2000000   0.4285714   0.2222222), wk =   0.0063492
        k(   39) = (   0.2000000   0.4285714   0.3333333), wk =   0.0063492
        k(   40) = (   0.2000000   0.4285714   0.4444444), wk =   0.0063492
        k(   41) = (   0.4000000   0.0000000   0.0000000), wk =   0.0063492
        k(   42) = (   0.4000000   0.0000000   0.1111111), wk =   0.0063492
        k(   43) = (   0.4000000   0.0000000   0.2222222), wk =   0.0063492
        k(   44) = (   0.4000000   0.0000000   0.3333333), wk =   0.0063492
        k(   45) = (   0.4000000   0.0000000   0.4444444), wk =   0.0063492
        k(   46) = (   0.4000000   0.1428571   0.0000000), wk =   0.0063492
        k(   47) = (   0.4000000   0.1428571   0.1111111), wk =   0.0063492
        k(   48) = (   0.4000000   0.1428571   0.2222222), wk =   0.0063492
        k(   49) = (   0.4000000   0.1428571   0.3333333), wk =   0.0063492
        k(   50) = (   0.4000000   0.1428571   0.4444444), wk =   0.0063492
        k(   51) = (   0.4000000   0.2857143   0.0000000), wk =   0.0063492
        k(   52) = (   0.4000000   0.2857143   0.1111111), wk =   0.0063492
        k(   53) = (   0.4000000   0.2857143   0.2222222), wk =   0.0063492
        k(   54) = (   0.4000000   0.2857143   0.3333333), wk =   0.0063492
        k(   55) = (   0.4000000   0.2857143   0.4444444), wk =   0.0063492
        k(   56) = (   0.4000000   0.4285714   0.0000000), wk =   0.0063492
        k(   57) = (   0.4000000   0.4285714   0.1111111), wk =   0.0063492
        k(   58) = (   0.4000000   0.4285714   0.2222222), wk =   0.0063492
        k(   59) = (   0.4000000   0.4285714   0.3333333), wk =   0.0063492
        k(   60) = (   0.4000000   0.4285714   0.4444444), wk =   0.0063492
        k(   61) = (   0.0000000  -0.1428571   0.1111111), wk =   0.0063492
        k(   62) = (   0.0000000  -0.1428571   0.2222222), wk =   0.0063492
        k(   63) = (   0.0000000  -0.1428571   0.3333333), wk =   0.0063492
        k(   64) = (   0.0000000  -0.1428571   0.4444444), wk =   0.0063492
        k(   65) = (   0.0000000  -0.2857143   0.1111111), wk =   0.0063492
        k(   66) = (   0.0000000  -0.2857143   0.2222222), wk =   0.0063492
        k(   67) = (   0.0000000  -0.2857143   0.3333333), wk =   0.0063492
        k(   68) = (   0.0000000  -0.2857143   0.4444444), wk =   0.0063492
        k(   69) = (   0.0000000  -0.4285714   0.1111111), wk =   0.0063492
        k(   70) = (   0.0000000  -0.4285714   0.2222222), wk =   0.0063492
        k(   71) = (   0.0000000  -0.4285714   0.3333333), wk =   0.0063492
        k(   72) = (   0.0000000  -0.4285714   0.4444444), wk =   0.0063492
        k(   73) = (  -0.2000000   0.0000000   0.1111111), wk =   0.0063492
        k(   74) = (  -0.2000000   0.0000000   0.2222222), wk =   0.0063492
        k(   75) = (  -0.2000000   0.0000000   0.3333333), wk =   0.0063492
        k(   76) = (  -0.2000000   0.0000000   0.4444444), wk =   0.0063492
        k(   77) = (  -0.2000000   0.1428571   0.0000000), wk =   0.0063492
        k(   78) = (  -0.2000000  -0.1428571   0.1111111), wk =   0.0063492
        k(   79) = (  -0.2000000   0.1428571  -0.1111111), wk =   0.0063492
        k(   80) = (   0.2000000  -0.1428571  -0.1111111), wk =   0.0063492
        k(   81) = (  -0.2000000  -0.1428571   0.2222222), wk =   0.0063492
        k(   82) = (  -0.2000000   0.1428571  -0.2222222), wk =   0.0063492
        k(   83) = (   0.2000000  -0.1428571  -0.2222222), wk =   0.0063492
        k(   84) = (  -0.2000000  -0.1428571   0.3333333), wk =   0.0063492
        k(   85) = (  -0.2000000   0.1428571  -0.3333333), wk =   0.0063492
        k(   86) = (   0.2000000  -0.1428571  -0.3333333), wk =   0.0063492
        k(   87) = (  -0.2000000  -0.1428571   0.4444444), wk =   0.0063492
        k(   88) = (  -0.2000000   0.1428571  -0.4444444), wk =   0.0063492
        k(   89) = (   0.2000000  -0.1428571  -0.4444444), wk =   0.0063492
        k(   90) = (  -0.2000000   0.2857143   0.0000000), wk =   0.0063492
        k(   91) = (  -0.2000000  -0.2857143   0.1111111), wk =   0.0063492
        k(   92) = (  -0.2000000   0.2857143  -0.1111111), wk =   0.0063492
        k(   93) = (   0.2000000  -0.2857143  -0.1111111), wk =   0.0063492
        k(   94) = (  -0.2000000  -0.2857143   0.2222222), wk =   0.0063492
        k(   95) = (  -0.2000000   0.2857143  -0.2222222), wk =   0.0063492
        k(   96) = (   0.2000000  -0.2857143  -0.2222222), wk =   0.0063492
        k(   97) = (  -0.2000000  -0.2857143   0.3333333), wk =   0.0063492
        k(   98) = (  -0.2000000   0.2857143  -0.3333333), wk =   0.0063492
        k(   99) = (   0.2000000  -0.2857143  -0.3333333), wk =   0.0063492
        k(  100) = (  -0.2000000  -0.2857143   0.4444444), wk =   0.0063492
        k(  101) = (  -0.2000000   0.2857143  -0.4444444), wk =   0.0063492
        k(  102) = (   0.2000000  -0.2857143  -0.4444444), wk =   0.0063492
        k(  103) = (  -0.2000000   0.4285714   0.0000000), wk =   0.0063492
        k(  104) = (  -0.2000000  -0.4285714   0.1111111), wk =   0.0063492
        k(  105) = (  -0.2000000   0.4285714  -0.1111111), wk =   0.0063492
        k(  106) = (   0.2000000  -0.4285714  -0.1111111), wk =   0.0063492
        k(  107) = (  -0.2000000  -0.4285714   0.2222222), wk =   0.0063492
        k(  108) = (  -0.2000000   0.4285714  -0.2222222), wk =   0.0063492
        k(  109) = (   0.2000000  -0.4285714  -0.2222222), wk =   0.0063492
        k(  110) = (  -0.2000000  -0.4285714   0.3333333), wk =   0.0063492
        k(  111) = (  -0.2000000   0.4285714  -0.3333333), wk =   0.0063492
        k(  112) = (   0.2000000  -0.4285714  -0.3333333), wk =   0.0063492
        k(  113) = (  -0.2000000  -0.4285714   0.4444444), wk =   0.0063492
        k(  114) = (  -0.2000000   0.4285714  -0.4444444), wk =   0.0063492
        k(  115) = (   0.2000000  -0.4285714  -0.4444444), wk =   0.0063492
        k(  116) = (  -0.4000000   0.0000000   0.1111111), wk =   0.0063492
        k(  117) = (  -0.4000000   0.0000000   0.2222222), wk =   0.0063492
        k(  118) = (  -0.4000000   0.0000000   0.3333333), wk =   0.0063492
        k(  119) = (  -0.4000000   0.0000000   0.4444444), wk =   0.0063492
        k(  120) = (  -0.4000000   0.1428571   0.0000000), wk =   0.0063492
        k(  121) = (  -0.4000000  -0.1428571   0.1111111), wk =   0.0063492
        k(  122) = (  -0.4000000   0.1428571  -0.1111111), wk =   0.0063492
        k(  123) = (   0.4000000  -0.1428571  -0.1111111), wk =   0.0063492
        k(  124) = (  -0.4000000  -0.1428571   0.2222222), wk =   0.0063492
        k(  125) = (  -0.4000000   0.1428571  -0.2222222), wk =   0.0063492
        k(  126) = (   0.4000000  -0.1428571  -0.2222222), wk =   0.0063492
        k(  127) = (  -0.4000000  -0.1428571   0.3333333), wk =   0.0063492
        k(  128) = (  -0.4000000   0.1428571  -0.3333333), wk =   0.0063492
        k(  129) = (   0.4000000  -0.1428571  -0.3333333), wk =   0.0063492
        k(  130) = (  -0.4000000  -0.1428571   0.4444444), wk =   0.0063492
        k(  131) = (  -0.4000000   0.1428571  -0.4444444), wk =   0.0063492
        k(  132) = (   0.4000000  -0.1428571  -0.4444444), wk =   0.0063492
        k(  133) = (  -0.4000000   0.2857143   0.0000000), wk =   0.0063492
        k(  134) = (  -0.4000000  -0.2857143   0.1111111), wk =   0.0063492
        k(  135) = (  -0.4000000   0.2857143  -0.1111111), wk =   0.0063492
        k(  136) = (   0.4000000  -0.2857143  -0.1111111), wk =   0.0063492
        k(  137) = (  -0.4000000  -0.2857143   0.2222222), wk =   0.0063492
        k(  138) = (  -0.4000000   0.2857143  -0.2222222), wk =   0.0063492
        k(  139) = (   0.4000000  -0.2857143  -0.2222222), wk =   0.0063492
        k(  140) = (  -0.4000000  -0.2857143   0.3333333), wk =   0.0063492
        k(  141) = (  -0.4000000   0.2857143  -0.3333333), wk =   0.0063492
        k(  142) = (   0.4000000  -0.2857143  -0.3333333), wk =   0.0063492
        k(  143) = (  -0.4000000  -0.2857143   0.4444444), wk =   0.0063492
        k(  144) = (  -0.4000000   0.2857143  -0.4444444), wk =   0.0063492
        k(  145) = (   0.4000000  -0.2857143  -0.4444444), wk =   0.0063492
        k(  146) = (  -0.4000000   0.4285714   0.0000000), wk =   0.0063492
        k(  147) = (  -0.4000000  -0.4285714   0.1111111), wk =   0.0063492
        k(  148) = (  -0.4000000   0.4285714  -0.1111111), wk =   0.0063492
        k(  149) = (   0.4000000  -0.4285714  -0.1111111), wk =   0.0063492
        k(  150) = (  -0.4000000  -0.4285714   0.2222222), wk =   0.0063492
        k(  151) = (  -0.4000000   0.4285714  -0.2222222), wk =   0.0063492
        k(  152) = (   0.4000000  -0.4285714  -0.2222222), wk =   0.0063492
        k(  153) = (  -0.4000000  -0.4285714   0.3333333), wk =   0.0063492
        k(  154) = (  -0.4000000   0.4285714  -0.3333333), wk =   0.0063492
        k(  155) = (   0.4000000  -0.4285714  -0.3333333), wk =   0.0063492
        k(  156) = (  -0.4000000  -0.4285714   0.4444444), wk =   0.0063492
        k(  157) = (  -0.4000000   0.4285714  -0.4444444), wk =   0.0063492
        k(  158) = (   0.4000000  -0.4285714  -0.4444444), wk =   0.0063492

     Dense  grid:  1294859 G-vectors     FFT dimensions: ( 216, 125, 100)

     Smooth grid:   291873 G-vectors     FFT dimensions: ( 125,  75,  60)

     Dynamical RAM for                 wfc:       2.64 MB

     Dynamical RAM for     wfc (w. buffer):     838.16 MB

     Dynamical RAM for           str. fact:       3.29 MB

     Dynamical RAM for           local pot:       0.00 MB

     Dynamical RAM for          nlocal pot:       6.49 MB

     Dynamical RAM for                qrad:      10.54 MB

     Dynamical RAM for          rho,v,vnew:      11.12 MB

     Dynamical RAM for               rhoin:       3.71 MB

     Dynamical RAM for            rho*nmix:      26.34 MB

     Dynamical RAM for           G-vectors:       3.18 MB

     Dynamical RAM for          h,s,v(r/c):       2.38 MB

     Dynamical RAM for          <psi|beta>:       0.49 MB

     Dynamical RAM for                 psi:       5.29 MB

     Dynamical RAM for                hpsi:       5.29 MB

     Dynamical RAM for                spsi:       5.29 MB

     Dynamical RAM for      wfcinit/wfcrot:       6.79 MB

     Dynamical RAM for           addusdens:     167.12 MB

     Dynamical RAM for          addusforce:     191.95 MB

     Dynamical RAM for         addusstress:     166.71 MB

     Estimated static dynamical RAM per process >     913.14 MB

     Estimated max dynamical RAM per process >       1.08 GB

     Estimated total dynamical RAM >      25.90 GB

     Check: negative core charge=   -0.000003
     Generating pointlists ...
     new r_m :   0.0763 (alat units)  1.5010 (a.u.) for type    1
     new r_m :   0.0915 (alat units)  1.7988 (a.u.) for type    2
     new r_m :   0.0609 (alat units)  1.1967 (a.u.) for type    3
     new r_m :   0.0609 (alat units)  1.1967 (a.u.) for type    4

     Initial potential from superposition of free atoms

     starting charge  188.99132, renormalised to  189.00000
     Starting wfcs are  137 randomized atomic wfcs
     Checking if some PAW data can be deallocated... 
       PAW data deallocated on   20 nodes for type:  1
       PAW data deallocated on    8 nodes for type:  3

     total cpu time spent up to now is      213.7 secs

     Self-consistent Calculation

     iteration #  1     ecut=   100.00 Ry     beta= 0.40
     Davidson diagonalization with overlap
     ethr =  1.00E-02,  avg # of iterations =  3.0

     negative rho (up, down):  0.000E+00 1.169E-04

     total cpu time spent up to now is      918.4 secs

     total energy              =   -2123.94358889 Ry
     estimated scf accuracy    <       6.89465442 Ry

     total magnetization       =    19.00 Bohr mag/cell
     absolute magnetization    =    19.00 Bohr mag/cell

     iteration #  2     ecut=   100.00 Ry     beta= 0.40
     Davidson diagonalization with overlap
     ethr =  3.65E-03,  avg # of iterations =  2.0

     negative rho (up, down):  0.000E+00 7.741E-05

     total cpu time spent up to now is     1534.3 secs

     total energy              =   -2121.85025692 Ry
     estimated scf accuracy    <      25.59379823 Ry

     total magnetization       =     8.80 Bohr mag/cell
     absolute magnetization    =    10.66 Bohr mag/cell

     iteration #  3     ecut=   100.00 Ry     beta= 0.40
     Davidson diagonalization with overlap
     ethr =  3.65E-03,  avg # of iterations =  2.1

     negative rho (up, down):  0.000E+00 6.379E-05

     total cpu time spent up to now is     2070.6 secs

     total energy              =   -2123.97406376 Ry
     estimated scf accuracy    <      47.89253055 Ry

     total magnetization       =     7.12 Bohr mag/cell
     absolute magnetization    =     8.48 Bohr mag/cell

     iteration #  4     ecut=   100.00 Ry     beta= 0.40
     Davidson diagonalization with overlap
     ethr =  3.65E-03,  avg # of iterations =  2.0

     negative rho (up, down):  0.000E+00 8.778E-05

     total cpu time spent up to now is     2589.4 secs

     total energy              =   -2125.11141955 Ry
     estimated scf accuracy    <      20.52241439 Ry

     total magnetization       =    12.91 Bohr mag/cell
     absolute magnetization    =    13.22 Bohr mag/cell

     iteration #  5     ecut=   100.00 Ry     beta= 0.40
     Davidson diagonalization with overlap
     ethr =  3.65E-03,  avg # of iterations =  1.5

     negative rho (up, down):  0.000E+00 1.379E-04

     total cpu time spent up to now is     3069.2 secs

     total energy              =   -2125.64561075 Ry
     estimated scf accuracy    <       7.67562943 Ry

     total magnetization       =    15.22 Bohr mag/cell
     absolute magnetization    =    15.41 Bohr mag/cell

     iteration #  6     ecut=   100.00 Ry     beta= 0.40
     Davidson diagonalization with overlap
     ethr =  3.65E-03,  avg # of iterations =  1.0

     negative rho (up, down):  0.000E+00 1.578E-04

     total cpu time spent up to now is     3505.2 secs

     total energy              =   -2125.77280444 Ry
     estimated scf accuracy    <       3.44973522 Ry

     total magnetization       =    17.11 Bohr mag/cell
     absolute magnetization    =    17.13 Bohr mag/cell

     iteration #  7     ecut=   100.00 Ry     beta= 0.40
     Davidson diagonalization with overlap
     ethr =  1.83E-03,  avg # of iterations =  1.0

     negative rho (up, down):  0.000E+00 2.430E-04

     total cpu time spent up to now is     3942.2 secs

     total energy              =   -2126.02196666 Ry
     estimated scf accuracy    <       2.08117838 Ry

     total magnetization       =    17.59 Bohr mag/cell
     absolute magnetization    =    17.61 Bohr mag/cell

     iteration #  8     ecut=   100.00 Ry     beta= 0.40
     Davidson diagonalization with overlap
     ethr =  1.10E-03,  avg # of iterations =  1.0

     negative rho (up, down):  0.000E+00 3.427E-04

     total cpu time spent up to now is     4381.0 secs

     total energy              =   -2126.07859654 Ry
     estimated scf accuracy    <       0.31299557 Ry

     total magnetization       =    19.00 Bohr mag/cell
     absolute magnetization    =    19.00 Bohr mag/cell

     iteration #  9     ecut=   100.00 Ry     beta= 0.40
     Davidson diagonalization with overlap
     ethr =  1.66E-04,  avg # of iterations =  3.8

     negative rho (up, down):  0.000E+00 4.412E-04

     total cpu time spent up to now is     4911.5 secs

     total energy              =   -2126.08359317 Ry
     estimated scf accuracy    <       0.12728468 Ry

     total magnetization       =    19.00 Bohr mag/cell
     absolute magnetization    =    19.00 Bohr mag/cell

     iteration # 10     ecut=   100.00 Ry     beta= 0.40
     Davidson diagonalization with overlap
     c_bands:  1 eigenvalues not converged
     c_bands:  1 eigenvalues not converged
     c_bands:  1 eigenvalues not converged
     c_bands:  1 eigenvalues not converged
     c_bands:  1 eigenvalues not converged
     c_bands:  1 eigenvalues not converged
     c_bands:  1 eigenvalues not converged
     c_bands:  1 eigenvalues not converged
     ethr =  6.73E-05,  avg # of iterations = 12.3

     negative rho (up, down):  0.000E+00 8.293E-04

     total cpu time spent up to now is     6119.2 secs

     total energy              =   -2126.08484581 Ry
     estimated scf accuracy    <       0.09181297 Ry

     total magnetization       =    19.00 Bohr mag/cell
     absolute magnetization    =    19.01 Bohr mag/cell

     iteration # 11     ecut=   100.00 Ry     beta= 0.40
     Davidson diagonalization with overlap
     c_bands:  1 eigenvalues not converged
     c_bands:  1 eigenvalues not converged
     c_bands:  1 eigenvalues not converged
     ethr =  4.86E-05,  avg # of iterations =  3.5

     negative rho (up, down):  0.000E+00 8.783E-04

     total cpu time spent up to now is     6662.9 secs

     total energy              =   -2126.09527939 Ry
     estimated scf accuracy    <       0.08397078 Ry

     total magnetization       =    19.00 Bohr mag/cell
     absolute magnetization    =    19.02 Bohr mag/cell

     iteration # 12     ecut=   100.00 Ry     beta= 0.40
     Davidson diagonalization with overlap
     ethr =  4.44E-05,  avg # of iterations =  1.1

     negative rho (up, down):  0.000E+00 8.501E-04

     total cpu time spent up to now is     7104.0 secs

     total energy              =   -2126.09579255 Ry
     estimated scf accuracy    <       0.05096080 Ry

     total magnetization       =    19.00 Bohr mag/cell
     absolute magnetization    =    19.03 Bohr mag/cell

     iteration # 13     ecut=   100.00 Ry     beta= 0.40
     Davidson diagonalization with overlap
     c_bands:  1 eigenvalues not converged
     ethr =  2.70E-05,  avg # of iterations =  2.1

     negative rho (up, down):  0.000E+00 8.564E-04

     total cpu time spent up to now is     7587.2 secs

     total energy              =   -2126.09615987 Ry
     estimated scf accuracy    <       0.02418441 Ry

     total magnetization       =    19.00 Bohr mag/cell
     absolute magnetization    =    19.03 Bohr mag/cell

     iteration # 14     ecut=   100.00 Ry     beta= 0.40
     Davidson diagonalization with overlap
     c_bands:  1 eigenvalues not converged
     c_bands:  2 eigenvalues not converged
     c_bands:  2 eigenvalues not converged
     c_bands:  1 eigenvalues not converged
     c_bands:  1 eigenvalues not converged
     c_bands:  1 eigenvalues not converged
     c_bands:  2 eigenvalues not converged
     c_bands:  1 eigenvalues not converged
     c_bands:  1 eigenvalues not converged
     c_bands:  1 eigenvalues not converged
     c_bands:  1 eigenvalues not converged
     c_bands:  1 eigenvalues not converged
     c_bands:  1 eigenvalues not converged
     c_bands:  2 eigenvalues not converged
     ethr =  1.28E-05,  avg # of iterations =  5.0

     negative rho (up, down):  0.000E+00 8.892E-04

     total cpu time spent up to now is     8153.6 secs

     total energy              =   -2126.09672832 Ry
     estimated scf accuracy    <       0.00806932 Ry

     total magnetization       =    19.00 Bohr mag/cell
     absolute magnetization    =    19.03 Bohr mag/cell

     iteration # 15     ecut=   100.00 Ry     beta= 0.40
     Davidson diagonalization with overlap
     c_bands:  2 eigenvalues not converged
     c_bands:  1 eigenvalues not converged
     c_bands:  1 eigenvalues not converged
     c_bands:  1 eigenvalues not converged
     c_bands:  1 eigenvalues not converged
     c_bands:  1 eigenvalues not converged
     c_bands:  1 eigenvalues not converged
     c_bands:  1 eigenvalues not converged
     c_bands:  1 eigenvalues not converged
     c_bands:  1 eigenvalues not converged
     c_bands:  1 eigenvalues not converged
     c_bands:  1 eigenvalues not converged
     c_bands:  1 eigenvalues not converged
     c_bands:  1 eigenvalues not converged
     c_bands:  1 eigenvalues not converged
     c_bands:  1 eigenvalues not converged
     c_bands:  1 eigenvalues not converged
     c_bands:  1 eigenvalues not converged
     c_bands:  1 eigenvalues not converged
     c_bands:  1 eigenvalues not converged
     c_bands:  1 eigenvalues not converged
     c_bands:  1 eigenvalues not converged
     ethr =  4.27E-06,  avg # of iterations = 10.2

     negative rho (up, down):  0.000E+00 8.906E-04

     total cpu time spent up to now is     9091.1 secs

     total energy              =   -2126.09715168 Ry
     estimated scf accuracy    <       0.00982860 Ry

     total magnetization       =    19.00 Bohr mag/cell
     absolute magnetization    =    19.04 Bohr mag/cell

     iteration # 16     ecut=   100.00 Ry     beta= 0.40
     Davidson diagonalization with overlap
     ethr =  4.27E-06,  avg # of iterations =  1.2

     negative rho (up, down):  0.000E+00 8.876E-04

     total cpu time spent up to now is     9532.3 secs

     total energy              =   -2126.09736908 Ry
     estimated scf accuracy    <       0.00157533 Ry

     total magnetization       =    19.00 Bohr mag/cell
     absolute magnetization    =    19.04 Bohr mag/cell

     iteration # 17     ecut=   100.00 Ry     beta= 0.40
     Davidson diagonalization with overlap
     c_bands:  1 eigenvalues not converged
     c_bands:  1 eigenvalues not converged
     ethr =  8.34E-07,  avg # of iterations =  4.4

     negative rho (up, down):  0.000E+00 8.838E-04

     total cpu time spent up to now is    10152.6 secs

     total energy              =   -2126.09758511 Ry
     estimated scf accuracy    <       0.00029856 Ry

     total magnetization       =    19.00 Bohr mag/cell
     absolute magnetization    =    19.04 Bohr mag/cell

     iteration # 18     ecut=   100.00 Ry     beta= 0.40
     Davidson diagonalization with overlap
     ethr =  1.58E-07,  avg # of iterations =  3.7

     negative rho (up, down):  0.000E+00 8.796E-04

     total cpu time spent up to now is    10936.6 secs

     total energy              =   -2126.09766974 Ry
     estimated scf accuracy    <       0.00013993 Ry

     total magnetization       =    19.00 Bohr mag/cell
     absolute magnetization    =    19.04 Bohr mag/cell

     iteration # 19     ecut=   100.00 Ry     beta= 0.40
     Davidson diagonalization with overlap
     ethr =  7.40E-08,  avg # of iterations =  1.1

     negative rho (up, down):  0.000E+00 8.766E-04

     total cpu time spent up to now is    11379.4 secs

     total energy              =   -2126.09767475 Ry
     estimated scf accuracy    <       0.00000831 Ry

     total magnetization       =    19.00 Bohr mag/cell
     absolute magnetization    =    19.04 Bohr mag/cell

     iteration # 20     ecut=   100.00 Ry     beta= 0.40
     Davidson diagonalization with overlap
     ethr =  4.40E-09,  avg # of iterations =  3.6

     negative rho (up, down):  0.000E+00 8.759E-04

     total cpu time spent up to now is    12476.5 secs

     total energy              =   -2126.09767709 Ry
     estimated scf accuracy    <       0.00004069 Ry

     total magnetization       =    19.00 Bohr mag/cell
     absolute magnetization    =    19.04 Bohr mag/cell

     iteration # 21     ecut=   100.00 Ry     beta= 0.40
     Davidson diagonalization with overlap
     ethr =  4.40E-09,  avg # of iterations =  1.0

     negative rho (up, down):  0.000E+00 8.741E-04

     total cpu time spent up to now is    13125.4 secs

     total energy              =   -2126.09767826 Ry
     estimated scf accuracy    <       0.00001547 Ry

     total magnetization       =    19.00 Bohr mag/cell
     absolute magnetization    =    19.04 Bohr mag/cell

     iteration # 22     ecut=   100.00 Ry     beta= 0.40
     Davidson diagonalization with overlap
     ethr =  4.40E-09,  avg # of iterations =  1.0

     negative rho (up, down):  0.000E+00 8.744E-04

     total cpu time spent up to now is    13562.7 secs

     total energy              =   -2126.09767905 Ry
     estimated scf accuracy    <       0.00000367 Ry

     total magnetization       =    19.00 Bohr mag/cell
     absolute magnetization    =    19.04 Bohr mag/cell

     iteration # 23     ecut=   100.00 Ry     beta= 0.40
     Davidson diagonalization with overlap
     ethr =  1.94E-09,  avg # of iterations =  1.0

     negative rho (up, down):  0.000E+00 8.745E-04

     total cpu time spent up to now is    13998.1 secs

     total energy              =   -2126.09767925 Ry
     estimated scf accuracy    <       0.00000024 Ry

     total magnetization       =    19.00 Bohr mag/cell
     absolute magnetization    =    19.04 Bohr mag/cell

     iteration # 24     ecut=   100.00 Ry     beta= 0.40
     Davidson diagonalization with overlap
     ethr =  1.29E-10,  avg # of iterations =  4.3

     negative rho (up, down):  0.000E+00 8.742E-04

     total cpu time spent up to now is    15781.4 secs

     total energy              =   -2126.09767941 Ry
     estimated scf accuracy    <       0.00000066 Ry

     total magnetization       =    19.00 Bohr mag/cell
     absolute magnetization    =    19.04 Bohr mag/cell

     iteration # 25     ecut=   100.00 Ry     beta= 0.40
     Davidson diagonalization with overlap
     ethr =  1.29E-10,  avg # of iterations =  2.0

     negative rho (up, down):  0.000E+00 8.744E-04

     total cpu time spent up to now is    16314.8 secs

     total energy              =   -2126.09767946 Ry
     estimated scf accuracy    <       0.00000020 Ry

     total magnetization       =    19.00 Bohr mag/cell
     absolute magnetization    =    19.04 Bohr mag/cell

     iteration # 26     ecut=   100.00 Ry     beta= 0.40
     Davidson diagonalization with overlap
     ethr =  1.05E-10,  avg # of iterations =  2.0

     negative rho (up, down):  0.000E+00 8.745E-04

     total cpu time spent up to now is    16842.4 secs

     total energy              =   -2126.09767949 Ry
     estimated scf accuracy    <       0.00000012 Ry

     total magnetization       =    19.00 Bohr mag/cell
     absolute magnetization    =    19.04 Bohr mag/cell

     iteration # 27     ecut=   100.00 Ry     beta= 0.40
     Davidson diagonalization with overlap
     ethr =  6.32E-11,  avg # of iterations =  1.5

     negative rho (up, down):  0.000E+00 8.745E-04

     total cpu time spent up to now is    17316.6 secs

     total energy              =   -2126.09767950 Ry
     estimated scf accuracy    <       0.00000003 Ry

     total magnetization       =    19.00 Bohr mag/cell
     absolute magnetization    =    19.04 Bohr mag/cell

     iteration # 28     ecut=   100.00 Ry     beta= 0.40
     Davidson diagonalization with overlap
     ethr =  1.49E-11,  avg # of iterations =  1.4

     negative rho (up, down):  0.000E+00 8.745E-04

     total cpu time spent up to now is    17785.5 secs

     total energy              =   -2126.09767950 Ry
     estimated scf accuracy    <       0.00000002 Ry

     total magnetization       =    19.00 Bohr mag/cell
     absolute magnetization    =    19.04 Bohr mag/cell

     iteration # 29     ecut=   100.00 Ry     beta= 0.40
     Davidson diagonalization with overlap
     ethr =  1.18E-11,  avg # of iterations =  2.0

     negative rho (up, down):  0.000E+00 8.745E-04

     total cpu time spent up to now is    18318.5 secs

     total energy              =   -2126.09767951 Ry
     estimated scf accuracy    <       0.00000003 Ry

     total magnetization       =    19.00 Bohr mag/cell
     absolute magnetization    =    19.04 Bohr mag/cell

     iteration # 30     ecut=   100.00 Ry     beta= 0.40
     Davidson diagonalization with overlap
     ethr =  1.18E-11,  avg # of iterations =  1.0

     negative rho (up, down):  0.000E+00 8.745E-04

     total cpu time spent up to now is    18755.5 secs

     total energy              =   -2126.09767951 Ry
     estimated scf accuracy    <          4.0E-09 Ry

     total magnetization       =    19.00 Bohr mag/cell
     absolute magnetization    =    19.04 Bohr mag/cell

     iteration # 31     ecut=   100.00 Ry     beta= 0.40
     Davidson diagonalization with overlap
     ethr =  2.14E-12,  avg # of iterations =  2.8

     negative rho (up, down):  0.000E+00 8.745E-04

     total cpu time spent up to now is    19299.8 secs

     total energy              =   -2126.09767951 Ry
     estimated scf accuracy    <          4.7E-09 Ry

     total magnetization       =    19.00 Bohr mag/cell
     absolute magnetization    =    19.04 Bohr mag/cell

     iteration # 32     ecut=   100.00 Ry     beta= 0.40
     Davidson diagonalization with overlap
     ethr =  2.14E-12,  avg # of iterations =  1.0

     negative rho (up, down):  0.000E+00 8.745E-04

     total cpu time spent up to now is    19736.9 secs

     total energy              =   -2126.09767951 Ry
     estimated scf accuracy    <          1.9E-09 Ry

     total magnetization       =    19.00 Bohr mag/cell
     absolute magnetization    =    19.04 Bohr mag/cell

     iteration # 33     ecut=   100.00 Ry     beta= 0.40
     Davidson diagonalization with overlap
     ethr =  9.86E-13,  avg # of iterations =  1.4

     negative rho (up, down):  0.000E+00 8.745E-04

     total cpu time spent up to now is    20206.5 secs

     total energy              =   -2126.09767951 Ry
     estimated scf accuracy    <          1.1E-09 Ry

     total magnetization       =    19.00 Bohr mag/cell
     absolute magnetization    =    19.04 Bohr mag/cell

     iteration # 34     ecut=   100.00 Ry     beta= 0.40
     Davidson diagonalization with overlap
     ethr =  5.65E-13,  avg # of iterations =  1.4

     negative rho (up, down):  0.000E+00 8.745E-04

     Magnetic moment per site:
     atom:    1    charge:    7.9546    magn:    0.0016    constr:    0.0000
     atom:    2    charge:   12.8946    magn:    3.6187    constr:    0.0000
     atom:    3    charge:   12.8901    magn:    3.6285    constr:    0.0000
     atom:    4    charge:   12.8826    magn:    3.6626    constr:    0.0000
     atom:    5    charge:   12.9028    magn:    3.5802    constr:    0.0000
     atom:    6    charge:    0.8497    magn:    0.0098    constr:    0.0000
     atom:    7    charge:    0.8423    magn:    0.0122    constr:    0.0000
     atom:    8    charge:    0.8521    magn:    0.0118    constr:    0.0000
     atom:    9    charge:    0.8409    magn:    0.0123    constr:    0.0000
     atom:   10    charge:    4.2435    magn:    0.1616    constr:    0.0000
     atom:   11    charge:    4.2534    magn:    0.1119    constr:    0.0000
     atom:   12    charge:    4.2706    magn:    0.1136    constr:    0.0000
     atom:   13    charge:    4.2580    magn:    0.1101    constr:    0.0000
     atom:   14    charge:    4.2503    magn:    0.1157    constr:    0.0000
     atom:   15    charge:    4.2422    magn:    0.1052    constr:    0.0000
     atom:   16    charge:    4.2564    magn:    0.1231    constr:    0.0000
     atom:   17    charge:    4.2558    magn:    0.0883    constr:    0.0000
     atom:   18    charge:    4.2623    magn:    0.1259    constr:    0.0000
     atom:   19    charge:    4.2429    magn:    0.1446    constr:    0.0000
     atom:   20    charge:    4.2476    magn:    0.1109    constr:    0.0000
     atom:   21    charge:    4.2426    magn:    0.1506    constr:    0.0000
     atom:   22    charge:    4.2585    magn:    0.1313    constr:    0.0000
     atom:   23    charge:    4.2461    magn:    0.1476    constr:    0.0000
     atom:   24    charge:    4.2486    magn:    0.1117    constr:    0.0000
     atom:   25    charge:    4.2570    magn:    0.1583    constr:    0.0000

     total cpu time spent up to now is    20672.2 secs

     End of self-consistent calculation

 ------ SPIN UP ------------


          k = 0.0000 0.0000 0.0000 ( 36463 PWs)   bands (ev):

   -85.2411 -85.2147 -85.0429 -84.8180 -51.3377 -51.3331 -51.2927 -51.2270
   -51.1635 -51.1536 -51.1226 -51.0302 -50.9832 -50.8517 -50.8051 -50.6313
   -44.4257 -16.5554 -16.4305 -16.4124 -16.3283 -16.1161 -16.0232 -15.8246
   -13.9788 -13.8198 -13.7563 -13.6684 -13.6301 -13.5572 -13.5472 -13.5082
   -13.4529 -13.3862 -13.3559 -13.3064  -4.4109  -3.9322  -3.6677  -3.4392
    -2.3333  -2.1984  -1.9400  -1.8871  -1.5632  -1.4125  -1.2943  -1.2524
    -1.1608  -1.1320  -1.0179  -0.8924  -0.2461  -0.1423   0.0587   0.2849
     0.3167   0.4164   0.5222   0.6354   0.6493   0.7222   0.7340   0.8434
     1.1015   1.2507   1.2879   1.4490   1.5985   1.7147   1.7194   1.8959
     1.9169   2.0298   2.1148   2.1423   2.2918   2.3223   2.3520   2.4325
     2.6135   2.6961   2.7849   2.8865   2.9342   3.0094   3.0671   3.1911
     3.3793   3.4615   3.5500   3.5938   3.6553   3.7051   3.8824   3.9315
     3.9709   4.0142   4.1731   4.2597   4.2705   4.4446   4.7192   5.0418
     9.0964  10.9998  11.3763  11.8967  12.1814  13.0855  13.2580  13.3025
    13.4016  13.4536

     occupation numbers 
     1.0000   1.0000   1.0000   1.0000   1.0000   1.0000   1.0000   1.0000
     1.0000   1.0000   1.0000   1.0000   1.0000   1.0000   1.0000   1.0000
     1.0000   1.0000   1.0000   1.0000   1.0000   1.0000   1.0000   1.0000
     1.0000   1.0000   1.0000   1.0000   1.0000   1.0000   1.0000   1.0000
     1.0000   1.0000   1.0000   1.0000   1.0000   1.0000   1.0000   1.0000
     1.0000   1.0000   1.0000   1.0000   1.0000   1.0000   1.0000   1.0000
     1.0000   1.0000   1.0000   1.0000   1.0000   1.0000   1.0000   1.0000
     1.0000   1.0000   1.0000   1.0000   1.0000   1.0000   1.0000   1.0000
     1.0000   1.0000   1.0000   1.0000   1.0000   1.0000   1.0000   1.0000
     1.0000   1.0000   1.0000   1.0000   1.0000   1.0000   1.0000   1.0000
     1.0000   1.0000   1.0000   1.0000   1.0000   1.0000   1.0000   1.0000
     1.0000   1.0000   1.0000   1.0000   1.0000   1.0000   1.0000   1.0000
     1.0000   1.0000   1.0000   1.0000   1.0000   1.0000   1.0000   1.0000
     0.0000   0.0000   0.0000   0.0000   0.0000   0.0000   0.0000   0.0000
     0.0000   0.0000

          k = 0.0000 0.0000 0.2337 ( 36493 PWs)   bands (ev):

   -85.2411 -85.2147 -85.0429 -84.8180 -51.3377 -51.3331 -51.2927 -51.2270
   -51.1635 -51.1536 -51.1226 -51.0302 -50.9832 -50.8517 -50.8051 -50.6313
   -44.4257 -16.5562 -16.4402 -16.4117 -16.3102 -16.1078 -16.0141 -15.8232
   -13.9902 -13.8241 -13.7689 -13.6686 -13.6249 -13.5693 -13.5464 -13.5090
   -13.4694 -13.3859 -13.3589 -13.3031  -4.3796  -3.9169  -3.6646  -3.4269
    -2.3198  -2.1888  -1.9502  -1.8521  -1.5646  -1.4160  -1.2918  -1.2453
    -1.1496  -1.1157  -1.0546  -0.8660  -0.2337  -0.1282   0.0550   0.2690
     0.3117   0.4289   0.4994   0.5693   0.6796   0.7316   0.7714   0.8439
     1.0794   1.2266   1.3286   1.4473   1.5809   1.6925   1.7541   1.8762
     1.9367   2.0280   2.0831   2.1529   2.2288   2.3088   2.3485   2.4612
     2.5886   2.6955   2.7861   2.8459   2.9442   2.9707   3.0778   3.1953
     3.3515   3.4791   3.5485   3.5939   3.6435   3.6994   3.8651   3.9234
     3.9654   4.0518   4.1597   4.2494   4.2875   4.4449   4.7165   5.0346
     9.2398  11.0687  11.4286  11.9276  12.2243  13.0333  13.1720  13.2874
    13.3267  13.3884

     occupation numbers 
     1.0000   1.0000   1.0000   1.0000   1.0000   1.0000   1.0000   1.0000
     1.0000   1.0000   1.0000   1.0000   1.0000   1.0000   1.0000   1.0000
     1.0000   1.0000   1.0000   1.0000   1.0000   1.0000   1.0000   1.0000
     1.0000   1.0000   1.0000   1.0000   1.0000   1.0000   1.0000   1.0000
     1.0000   1.0000   1.0000   1.0000   1.0000   1.0000   1.0000   1.0000
     1.0000   1.0000   1.0000   1.0000   1.0000   1.0000   1.0000   1.0000
     1.0000   1.0000   1.0000   1.0000   1.0000   1.0000   1.0000   1.0000
     1.0000   1.0000   1.0000   1.0000   1.0000   1.0000   1.0000   1.0000
     1.0000   1.0000   1.0000   1.0000   1.0000   1.0000   1.0000   1.0000
     1.0000   1.0000   1.0000   1.0000   1.0000   1.0000   1.0000   1.0000
     1.0000   1.0000   1.0000   1.0000   1.0000   1.0000   1.0000   1.0000
     1.0000   1.0000   1.0000   1.0000   1.0000   1.0000   1.0000   1.0000
     1.0000   1.0000   1.0000   1.0000   1.0000   1.0000   1.0000   1.0000
     0.0000   0.0000   0.0000   0.0000   0.0000   0.0000   0.0000   0.0000
     0.0000   0.0000

          k = 0.0000 0.0000 0.4675 ( 36542 PWs)   bands (ev):

   -85.2411 -85.2147 -85.0429 -84.8180 -51.3377 -51.3331 -51.2927 -51.2270
   -51.1635 -51.1536 -51.1226 -51.0302 -50.9832 -50.8517 -50.8051 -50.6313
   -44.4257 -16.5590 -16.4563 -16.4102 -16.2698 -16.0866 -15.9901 -15.8212
   -14.0196 -13.8435 -13.7907 -13.6746 -13.6138 -13.5948 -13.5547 -13.5104
   -13.4923 -13.3925 -13.3645 -13.2984  -4.2976  -3.8754  -3.6535  -3.4117
    -2.3051  -2.1424  -1.9260  -1.8107  -1.5697  -1.4249  -1.3031  -1.2249
    -1.1288  -1.0957  -1.0526  -0.8439  -0.2176  -0.0847   0.0693   0.2306
     0.3000   0.4149   0.4970   0.5571   0.6708   0.7482   0.8036   0.8850
     1.0431   1.2191   1.3210   1.4441   1.5591   1.6582   1.7671   1.8275
     1.9354   1.9864   2.0333   2.1140   2.1809   2.2775   2.3599   2.4476
     2.5697   2.6792   2.7144   2.7905   2.8551   2.9948   3.1284   3.2062
     3.3125   3.4980   3.5303   3.5959   3.6431   3.7033   3.8487   3.9130
     3.9603   4.0816   4.1558   4.2411   4.3113   4.4417   4.7122   5.0178
     9.6267  11.2452  11.5419  12.0239  12.3334  12.7712  13.0361  13.1480
    13.2423  13.3464

     occupation numbers 
     1.0000   1.0000   1.0000   1.0000   1.0000   1.0000   1.0000   1.0000
     1.0000   1.0000   1.0000   1.0000   1.0000   1.0000   1.0000   1.0000
     1.0000   1.0000   1.0000   1.0000   1.0000   1.0000   1.0000   1.0000
     1.0000   1.0000   1.0000   1.0000   1.0000   1.0000   1.0000   1.0000
     1.0000   1.0000   1.0000   1.0000   1.0000   1.0000   1.0000   1.0000
     1.0000   1.0000   1.0000   1.0000   1.0000   1.0000   1.0000   1.0000
     1.0000   1.0000   1.0000   1.0000   1.0000   1.0000   1.0000   1.0000
     1.0000   1.0000   1.0000   1.0000   1.0000   1.0000   1.0000   1.0000
     1.0000   1.0000   1.0000   1.0000   1.0000   1.0000   1.0000   1.0000
     1.0000   1.0000   1.0000   1.0000   1.0000   1.0000   1.0000   1.0000
     1.0000   1.0000   1.0000   1.0000   1.0000   1.0000   1.0000   1.0000
     1.0000   1.0000   1.0000   1.0000   1.0000   1.0000   1.0000   1.0000
     1.0000   1.0000   1.0000   1.0000   1.0000   1.0000   1.0000   1.0000
     0.0000   0.0000   0.0000   0.0000   0.0000   0.0000   0.0000   0.0000
     0.0000   0.0000

          k = 0.0000 0.0000 0.7012 ( 36506 PWs)   bands (ev):

   -85.2411 -85.2147 -85.0429 -84.8180 -51.3377 -51.3331 -51.2927 -51.2270
   -51.1635 -51.1536 -51.1226 -51.0302 -50.9832 -50.8517 -50.8051 -50.6313
   -44.4256 -16.5637 -16.4673 -16.4087 -16.2267 -16.0610 -15.9612 -15.8228
   -14.0530 -13.8803 -13.8011 -13.6862 -13.6375 -13.5979 -13.5637 -13.5153
   -13.4956 -13.3988 -13.3721 -13.2985  -4.1979  -3.8209  -3.6376  -3.4225
    -2.3060  -2.0723  -1.8607  -1.7902  -1.5795  -1.4311  -1.3430  -1.2139
    -1.1084  -1.0474  -0.9975  -0.8555  -0.2205  -0.0266   0.1317   0.1885
     0.3194   0.4188   0.4951   0.5978   0.6996   0.7686   0.8321   0.8962
     1.0340   1.2054   1.2492   1.4249   1.5265   1.6018   1.6724   1.7304
     1.8125   1.9347   2.0535   2.0901   2.1985   2.2621   2.2969   2.4412
     2.5638   2.5812   2.6502   2.7152   2.8385   3.0443   3.1822   3.2191
     3.2965   3.4860   3.5057   3.5984   3.7033   3.7275   3.8391   3.9048
     3.9454   4.0738   4.1807   4.2483   4.3274   4.4357   4.7117   4.9990
    10.1630  11.4316  11.6357  12.1041  12.2821  12.6653  12.8781  12.9640
    13.1362  13.2702

     occupation numbers 
     1.0000   1.0000   1.0000   1.0000   1.0000   1.0000   1.0000   1.0000
     1.0000   1.0000   1.0000   1.0000   1.0000   1.0000   1.0000   1.0000
     1.0000   1.0000   1.0000   1.0000   1.0000   1.0000   1.0000   1.0000
     1.0000   1.0000   1.0000   1.0000   1.0000   1.0000   1.0000   1.0000
     1.0000   1.0000   1.0000   1.0000   1.0000   1.0000   1.0000   1.0000
     1.0000   1.0000   1.0000   1.0000   1.0000   1.0000   1.0000   1.0000
     1.0000   1.0000   1.0000   1.0000   1.0000   1.0000   1.0000   1.0000
     1.0000   1.0000   1.0000   1.0000   1.0000   1.0000   1.0000   1.0000
     1.0000   1.0000   1.0000   1.0000   1.0000   1.0000   1.0000   1.0000
     1.0000   1.0000   1.0000   1.0000   1.0000   1.0000   1.0000   1.0000
     1.0000   1.0000   1.0000   1.0000   1.0000   1.0000   1.0000   1.0000
     1.0000   1.0000   1.0000   1.0000   1.0000   1.0000   1.0000   1.0000
     1.0000   1.0000   1.0000   1.0000   1.0000   1.0000   1.0000   1.0000
     0.0000   0.0000   0.0000   0.0000   0.0000   0.0000   0.0000   0.0000
     0.0000   0.0000

          k = 0.0000 0.0000 0.9349 ( 36496 PWs)   bands (ev):

   -85.2411 -85.2147 -85.0429 -84.8180 -51.3377 -51.3331 -51.2927 -51.2270
   -51.1636 -51.1536 -51.1226 -51.0302 -50.9832 -50.8517 -50.8051 -50.6313
   -44.4256 -16.5676 -16.4719 -16.4077 -16.1988 -16.0426 -15.9407 -15.8275
   -14.0743 -13.9085 -13.8051 -13.6948 -13.6659 -13.5954 -13.5646 -13.5185
   -13.4921 -13.3972 -13.3810 -13.3014  -4.1278  -3.7795  -3.6223  -3.4512
    -2.3074  -2.0291  -1.8068  -1.7777  -1.5863  -1.4314  -1.3878  -1.1967
    -1.0736  -1.0114  -0.9787  -0.8724  -0.2251   0.0227   0.1367   0.2037
     0.3753   0.4390   0.5569   0.6533   0.7130   0.7728   0.8315   0.9184
     1.0389   1.1307   1.1623   1.3874   1.4389   1.5233   1.6305   1.7128
     1.7650   1.8407   1.9787   2.0922   2.2165   2.2826   2.3110   2.4398
     2.4901   2.5488   2.6339   2.6684   2.8470   3.0742   3.1904   3.2079
     3.3409   3.4513   3.5202   3.6196   3.6930   3.7856   3.8396   3.9072
     3.9182   4.0621   4.1984   4.2685   4.3295   4.4313   4.7154   4.9848
    10.7339  11.3509  11.6959  11.8983  12.3190  12.7855  12.8211  12.9255
    13.0496  13.1217

     occupation numbers 
     1.0000   1.0000   1.0000   1.0000   1.0000   1.0000   1.0000   1.0000
     1.0000   1.0000   1.0000   1.0000   1.0000   1.0000   1.0000   1.0000
     1.0000   1.0000   1.0000   1.0000   1.0000   1.0000   1.0000   1.0000
     1.0000   1.0000   1.0000   1.0000   1.0000   1.0000   1.0000   1.0000
     1.0000   1.0000   1.0000   1.0000   1.0000   1.0000   1.0000   1.0000
     1.0000   1.0000   1.0000   1.0000   1.0000   1.0000   1.0000   1.0000
     1.0000   1.0000   1.0000   1.0000   1.0000   1.0000   1.0000   1.0000
     1.0000   1.0000   1.0000   1.0000   1.0000   1.0000   1.0000   1.0000
     1.0000   1.0000   1.0000   1.0000   1.0000   1.0000   1.0000   1.0000
     1.0000   1.0000   1.0000   1.0000   1.0000   1.0000   1.0000   1.0000
     1.0000   1.0000   1.0000   1.0000   1.0000   1.0000   1.0000   1.0000
     1.0000   1.0000   1.0000   1.0000   1.0000   1.0000   1.0000   1.0000
     1.0000   1.0000   1.0000   1.0000   1.0000   1.0000   1.0000   1.0000
     0.0000   0.0000   0.0000   0.0000   0.0000   0.0000   0.0000   0.0000
     0.0000   0.0000

          k = 0.0000 0.2391 0.0000 ( 36485 PWs)   bands (ev):

   -85.2411 -85.2147 -85.0429 -84.8180 -51.3377 -51.3331 -51.2927 -51.2270
   -51.1635 -51.1536 -51.1226 -51.0302 -50.9832 -50.8517 -50.8051 -50.6313
   -44.4257 -16.5672 -16.4417 -16.4152 -16.2991 -16.1000 -16.0182 -15.8376
   -13.9872 -13.8266 -13.7532 -13.6907 -13.6359 -13.5554 -13.5371 -13.5073
   -13.4537 -13.3880 -13.3512 -13.3044  -4.3757  -3.9031  -3.6808  -3.4385
    -2.3077  -2.1598  -1.9456  -1.8664  -1.5607  -1.4272  -1.2848  -1.2408
    -1.1799  -1.0955  -1.0068  -0.8827  -0.2574  -0.1532   0.0417   0.2254
     0.2867   0.4210   0.4686   0.5507   0.6582   0.7274   0.8307   0.9084
     1.0947   1.2341   1.2812   1.4673   1.6083   1.6605   1.7276   1.8429
     1.8590   1.9958   2.0874   2.1430   2.2471   2.3323   2.3546   2.4847
     2.6223   2.6897   2.7810   2.8215   2.9467   2.9822   3.0902   3.1743
     3.3622   3.4746   3.4956   3.5909   3.6716   3.6991   3.8768   3.9017
     3.9654   4.0219   4.1441   4.2343   4.3579   4.5389   4.7880   5.0482
     9.2513  11.0763  11.4693  11.8224  12.1891  12.9920  13.1281  13.2524
    13.3792  13.5233

     occupation numbers 
     1.0000   1.0000   1.0000   1.0000   1.0000   1.0000   1.0000   1.0000
     1.0000   1.0000   1.0000   1.0000   1.0000   1.0000   1.0000   1.0000
     1.0000   1.0000   1.0000   1.0000   1.0000   1.0000   1.0000   1.0000
     1.0000   1.0000   1.0000   1.0000   1.0000   1.0000   1.0000   1.0000
     1.0000   1.0000   1.0000   1.0000   1.0000   1.0000   1.0000   1.0000
     1.0000   1.0000   1.0000   1.0000   1.0000   1.0000   1.0000   1.0000
     1.0000   1.0000   1.0000   1.0000   1.0000   1.0000   1.0000   1.0000
     1.0000   1.0000   1.0000   1.0000   1.0000   1.0000   1.0000   1.0000
     1.0000   1.0000   1.0000   1.0000   1.0000   1.0000   1.0000   1.0000
     1.0000   1.0000   1.0000   1.0000   1.0000   1.0000   1.0000   1.0000
     1.0000   1.0000   1.0000   1.0000   1.0000   1.0000   1.0000   1.0000
     1.0000   1.0000   1.0000   1.0000   1.0000   1.0000   1.0000   1.0000
     1.0000   1.0000   1.0000   1.0000   1.0000   1.0000   1.0000   1.0000
     0.0000   0.0000   0.0000   0.0000   0.0000   0.0000   0.0000   0.0000
     0.0000   0.0000

          k = 0.0000 0.2391 0.2337 ( 36495 PWs)   bands (ev):

   -85.2411 -85.2147 -85.0429 -84.8180 -51.3377 -51.3331 -51.2927 -51.2270
   -51.1635 -51.1536 -51.1226 -51.0302 -50.9832 -50.8517 -50.8051 -50.6313
   -44.4257 -16.5597 -16.4584 -16.4124 -16.2880 -16.0900 -16.0130 -15.8289
   -14.0001 -13.8321 -13.7685 -13.6848 -13.6327 -13.5763 -13.5362 -13.5098
   -13.4543 -13.3918 -13.3516 -13.3051  -4.3517  -3.8895  -3.6694  -3.4193
    -2.2952  -2.1501  -1.9641  -1.8267  -1.5489  -1.3983  -1.3154  -1.2124
    -1.1774  -1.1211  -1.0456  -0.8384  -0.2430  -0.1416   0.0359   0.2283
     0.3136   0.4293   0.4685   0.5624   0.6133   0.7022   0.8290   0.9059
     1.0528   1.2065   1.2613   1.4642   1.5710   1.6779   1.7117   1.8735
     1.9242   1.9900   2.0579   2.1673   2.2514   2.3292   2.3494   2.4901
     2.6136   2.7002   2.7534   2.8150   2.9104   2.9525   3.0788   3.1615
     3.3541   3.4446   3.5142   3.5807   3.6241   3.7424   3.8344   3.9190
     3.9638   4.0423   4.1407   4.2662   4.3481   4.5477   4.7881   5.0373
     9.3876  11.1539  11.5213  11.8430  12.2352  13.0054  13.0566  13.2294
    13.3184  13.4283

     occupation numbers 
     1.0000   1.0000   1.0000   1.0000   1.0000   1.0000   1.0000   1.0000
     1.0000   1.0000   1.0000   1.0000   1.0000   1.0000   1.0000   1.0000
     1.0000   1.0000   1.0000   1.0000   1.0000   1.0000   1.0000   1.0000
     1.0000   1.0000   1.0000   1.0000   1.0000   1.0000   1.0000   1.0000
     1.0000   1.0000   1.0000   1.0000   1.0000   1.0000   1.0000   1.0000
     1.0000   1.0000   1.0000   1.0000   1.0000   1.0000   1.0000   1.0000
     1.0000   1.0000   1.0000   1.0000   1.0000   1.0000   1.0000   1.0000
     1.0000   1.0000   1.0000   1.0000   1.0000   1.0000   1.0000   1.0000
     1.0000   1.0000   1.0000   1.0000   1.0000   1.0000   1.0000   1.0000
     1.0000   1.0000   1.0000   1.0000   1.0000   1.0000   1.0000   1.0000
     1.0000   1.0000   1.0000   1.0000   1.0000   1.0000   1.0000   1.0000
     1.0000   1.0000   1.0000   1.0000   1.0000   1.0000   1.0000   1.0000
     1.0000   1.0000   1.0000   1.0000   1.0000   1.0000   1.0000   1.0000
     0.0000   0.0000   0.0000   0.0000   0.0000   0.0000   0.0000   0.0000
     0.0000   0.0000

          k = 0.0000 0.2391 0.4675 ( 36500 PWs)   bands (ev):

   -85.2411 -85.2147 -85.0429 -84.8180 -51.3377 -51.3331 -51.2927 -51.2270
   -51.1635 -51.1536 -51.1226 -51.0302 -50.9832 -50.8517 -50.8051 -50.6313
   -44.4257 -16.5541 -16.4778 -16.4114 -16.2555 -16.0683 -15.9922 -15.8191
   -14.0295 -13.8466 -13.7990 -13.6860 -13.6320 -13.6024 -13.5408 -13.5103
   -13.4751 -13.3973 -13.3549 -13.3022  -4.2756  -3.8504  -3.6516  -3.3890
    -2.2854  -2.1213  -1.9288  -1.7861  -1.5509  -1.3611  -1.3458  -1.2062
    -1.1420  -1.1188  -1.0659  -0.8072  -0.2448  -0.0996   0.0595   0.2243
     0.3204   0.4016   0.4776   0.5360   0.6115   0.7200   0.8335   0.9301
     1.0058   1.1659   1.2523   1.4410   1.5554   1.6518   1.7045   1.8549
     1.9268   1.9814   2.0260   2.1395   2.2295   2.2901   2.3688   2.4858
     2.5649   2.6636   2.7367   2.7667   2.8428   2.9264   3.1007   3.1542
     3.3404   3.4003   3.5099   3.5611   3.6351   3.7549   3.8337   3.9124
     3.9767   4.0512   4.1671   4.2725   4.3580   4.5544   4.7729   5.0240
     9.7584  11.3356  11.6249  11.9332  12.3512  12.7881  12.9899  13.1299
    13.2032  13.3449

     occupation numbers 
     1.0000   1.0000   1.0000   1.0000   1.0000   1.0000   1.0000   1.0000
     1.0000   1.0000   1.0000   1.0000   1.0000   1.0000   1.0000   1.0000
     1.0000   1.0000   1.0000   1.0000   1.0000   1.0000   1.0000   1.0000
     1.0000   1.0000   1.0000   1.0000   1.0000   1.0000   1.0000   1.0000
     1.0000   1.0000   1.0000   1.0000   1.0000   1.0000   1.0000   1.0000
     1.0000   1.0000   1.0000   1.0000   1.0000   1.0000   1.0000   1.0000
     1.0000   1.0000   1.0000   1.0000   1.0000   1.0000   1.0000   1.0000
     1.0000   1.0000   1.0000   1.0000   1.0000   1.0000   1.0000   1.0000
     1.0000   1.0000   1.0000   1.0000   1.0000   1.0000   1.0000   1.0000
     1.0000   1.0000   1.0000   1.0000   1.0000   1.0000   1.0000   1.0000
     1.0000   1.0000   1.0000   1.0000   1.0000   1.0000   1.0000   1.0000
     1.0000   1.0000   1.0000   1.0000   1.0000   1.0000   1.0000   1.0000
     1.0000   1.0000   1.0000   1.0000   1.0000   1.0000   1.0000   1.0000
     0.0000   0.0000   0.0000   0.0000   0.0000   0.0000   0.0000   0.0000
     0.0000   0.0000

          k = 0.0000 0.2391 0.7012 ( 36515 PWs)   bands (ev):

   -85.2411 -85.2147 -85.0429 -84.8180 -51.3377 -51.3331 -51.2927 -51.2270
   -51.1635 -51.1536 -51.1226 -51.0302 -50.9832 -50.8517 -50.8051 -50.6313
   -44.4256 -16.5558 -16.4882 -16.4106 -16.2168 -16.0444 -15.9642 -15.8155
   -14.0616 -13.8770 -13.8195 -13.6964 -13.6583 -13.6030 -13.5487 -13.5059
   -13.4919 -13.4033 -13.3608 -13.3011  -4.1775  -3.7978  -3.6371  -3.3818
    -2.2935  -2.0644  -1.8576  -1.7631  -1.5632  -1.3865  -1.3457  -1.2167
    -1.1178  -1.0570  -1.0266  -0.8196  -0.2573  -0.0586   0.1257   0.2069
     0.3398   0.4178   0.4355   0.5564   0.6644   0.7489   0.8529   0.9547
     1.0115   1.1300   1.2102   1.3945   1.5540   1.5694   1.6530   1.7535
     1.8281   1.9492   1.9925   2.0846   2.2141   2.2892   2.3592   2.4742
     2.5271   2.5753   2.6635   2.7372   2.8064   2.9609   3.1270   3.2152
     3.3080   3.3784   3.4703   3.6098   3.6574   3.7433   3.8607   3.8902
     3.9958   4.0499   4.2039   4.2593   4.3734   4.5614   4.7577   5.0125
    10.2755  11.5374  11.6908  12.0357  12.3090  12.7000  12.8406  12.9849
    13.1096  13.3044

     occupation numbers 
     1.0000   1.0000   1.0000   1.0000   1.0000   1.0000   1.0000   1.0000
     1.0000   1.0000   1.0000   1.0000   1.0000   1.0000   1.0000   1.0000
     1.0000   1.0000   1.0000   1.0000   1.0000   1.0000   1.0000   1.0000
     1.0000   1.0000   1.0000   1.0000   1.0000   1.0000   1.0000   1.0000
     1.0000   1.0000   1.0000   1.0000   1.0000   1.0000   1.0000   1.0000
     1.0000   1.0000   1.0000   1.0000   1.0000   1.0000   1.0000   1.0000
     1.0000   1.0000   1.0000   1.0000   1.0000   1.0000   1.0000   1.0000
     1.0000   1.0000   1.0000   1.0000   1.0000   1.0000   1.0000   1.0000
     1.0000   1.0000   1.0000   1.0000   1.0000   1.0000   1.0000   1.0000
     1.0000   1.0000   1.0000   1.0000   1.0000   1.0000   1.0000   1.0000
     1.0000   1.0000   1.0000   1.0000   1.0000   1.0000   1.0000   1.0000
     1.0000   1.0000   1.0000   1.0000   1.0000   1.0000   1.0000   1.0000
     1.0000   1.0000   1.0000   1.0000   1.0000   1.0000   1.0000   1.0000
     0.0000   0.0000   0.0000   0.0000   0.0000   0.0000   0.0000   0.0000
     0.0000   0.0000

          k = 0.0000 0.2391 0.9349 ( 36488 PWs)   bands (ev):

   -85.2411 -85.2147 -85.0429 -84.8180 -51.3377 -51.3331 -51.2927 -51.2270
   -51.1636 -51.1536 -51.1226 -51.0302 -50.9832 -50.8517 -50.8051 -50.6313
   -44.4256 -16.5638 -16.4871 -16.4102 -16.1893 -16.0259 -15.9430 -15.8218
   -14.0808 -13.9064 -13.8224 -13.7064 -13.6803 -13.6007 -13.5584 -13.5040
   -13.4941 -13.4028 -13.3690 -13.3012  -4.0999  -3.7532  -3.6281  -3.4137
    -2.2929  -2.0230  -1.8024  -1.7538  -1.5727  -1.4167  -1.3715  -1.2062
    -1.0824  -1.0088  -0.9772  -0.8578  -0.2693  -0.0258   0.1451   0.2174
     0.3574   0.4140   0.4841   0.6148   0.6989   0.8093   0.8456   0.9685
     1.0552   1.0881   1.1413   1.3646   1.4361   1.5195   1.6056   1.6887
     1.8086   1.8446   1.9821   2.0292   2.2369   2.2714   2.3475   2.4380
     2.4946   2.5274   2.6228   2.6919   2.8238   3.0196   3.1512   3.2433
     3.3113   3.3530   3.4849   3.6098   3.6763   3.7499   3.8493   3.9184
     3.9987   4.0572   4.1963   4.2683   4.3777   4.5538   4.7648   5.0005
    10.8235  11.4740  11.7097  11.9688  12.2785  12.7364  12.8297  12.9475
    13.0722  13.1799

     occupation numbers 
     1.0000   1.0000   1.0000   1.0000   1.0000   1.0000   1.0000   1.0000
     1.0000   1.0000   1.0000   1.0000   1.0000   1.0000   1.0000   1.0000
     1.0000   1.0000   1.0000   1.0000   1.0000   1.0000   1.0000   1.0000
     1.0000   1.0000   1.0000   1.0000   1.0000   1.0000   1.0000   1.0000
     1.0000   1.0000   1.0000   1.0000   1.0000   1.0000   1.0000   1.0000
     1.0000   1.0000   1.0000   1.0000   1.0000   1.0000   1.0000   1.0000
     1.0000   1.0000   1.0000   1.0000   1.0000   1.0000   1.0000   1.0000
     1.0000   1.0000   1.0000   1.0000   1.0000   1.0000   1.0000   1.0000
     1.0000   1.0000   1.0000   1.0000   1.0000   1.0000   1.0000   1.0000
     1.0000   1.0000   1.0000   1.0000   1.0000   1.0000   1.0000   1.0000
     1.0000   1.0000   1.0000   1.0000   1.0000   1.0000   1.0000   1.0000
     1.0000   1.0000   1.0000   1.0000   1.0000   1.0000   1.0000   1.0000
     1.0000   1.0000   1.0000   1.0000   1.0000   1.0000   1.0000   1.0000
     0.0000   0.0000   0.0000   0.0000   0.0000   0.0000   0.0000   0.0000
     0.0000   0.0000

          k = 0.0000 0.4781 0.0000 ( 36507 PWs)   bands (ev):

   -85.2411 -85.2147 -85.0429 -84.8180 -51.3377 -51.3331 -51.2927 -51.2270
   -51.1635 -51.1536 -51.1226 -51.0302 -50.9832 -50.8517 -50.8051 -50.6313
   -44.4257 -16.5929 -16.4550 -16.4155 -16.2474 -16.0646 -16.0034 -15.8737
   -14.0044 -13.8398 -13.7659 -13.7217 -13.6303 -13.5685 -13.5169 -13.5059
   -13.4601 -13.3874 -13.3420 -13.2998  -4.2927  -3.8407  -3.7047  -3.4460
    -2.2398  -2.0619  -1.9443  -1.8229  -1.5546  -1.4624  -1.2800  -1.2014
    -1.1766  -1.0419  -0.9806  -0.8741  -0.3133  -0.1725  -0.0264   0.1279
     0.2246   0.3431   0.4120   0.4991   0.6350   0.7457   0.9080   1.0062
     1.1203   1.2058   1.2824   1.4636   1.5651   1.6473   1.7161   1.7683
     1.8095   1.9651   2.0457   2.1130   2.2178   2.3197   2.3443   2.5275
     2.5815   2.6744   2.7368   2.8064   2.8796   3.0010   3.0693   3.1410
     3.3460   3.4265   3.4640   3.5989   3.6497   3.7355   3.8286   3.8948
[...]
     atom   23 type  3   force =    -0.00063043    0.00186112    0.00159806
     atom   24 type  3   force =    -0.00032339    0.00017370    0.00319887
     atom   25 type  3   force =    -0.00139084   -0.00077134    0.00064026
     The non-local contrib.  to forces
     atom    1 type  2   force =     0.07472368    0.00156286    0.02749868
     atom    2 type  1   force =     0.05485132   -0.11310125   -0.16788818
     atom    3 type  1   force =    -0.01280344   -0.12341401    0.06815369
     atom    4 type  1   force =    -0.06778654    0.13413368    0.05368565
     atom    5 type  1   force =     0.00674948    0.11086190   -0.15675140
     atom    6 type  4   force =    -0.00110837    0.04189112    0.03062026
     atom    7 type  4   force =    -0.01851407    0.00963334   -0.05042864
     atom    8 type  4   force =     0.04002062   -0.05806711   -0.01904961
     atom    9 type  4   force =     0.02942910   -0.02007808    0.05805821
     atom   10 type  3   force =    -0.46976059   -0.10615387   -1.19364309
     atom   11 type  3   force =     0.03825377    0.21708354   -1.42433430
     atom   12 type  3   force =     0.35469533    0.10950862    1.20634471
     atom   13 type  3   force =     0.04311870   -0.18263408    1.43660676
     atom   14 type  3   force =     1.39951834   -0.11980557   -0.57933559
     atom   15 type  3   force =    -1.18826866    0.70615290   -0.22642441
     atom   16 type  3   force =    -1.34364110    0.16415567    0.55960452
     atom   17 type  3   force =     1.22627943   -0.68803182    0.09250279
     atom   18 type  3   force =    -0.35818469   -1.27509526    0.70578867
     atom   19 type  3   force =     0.57951598    0.70809701    1.00483536
     atom   20 type  3   force =    -0.09429548   -1.46713492   -1.03928134
     atom   21 type  3   force =    -0.28557371    0.99258516   -0.66510444
     atom   22 type  3   force =     0.41220837    1.35998134   -0.65043587
     atom   23 type  3   force =    -0.53200191   -0.77094719   -0.96216196
     atom   24 type  3   force =     0.06206780    1.45339157    0.98576966
     atom   25 type  3   force =     0.10724631   -1.02723172    0.64936967
     The ionic contribution  to forces
     atom    1 type  2   force =     1.81231104   -3.60592212   -2.26461540
     atom    2 type  1   force =    10.58864006    3.90221641   -3.05846644
     atom    3 type  1   force =     7.06563680   -8.04173119   -1.40774341
     atom    4 type  1   force =   -13.63399918    0.22465314    0.96036898
     atom    5 type  1   force =    -3.46618958    6.49130189    3.46819007
     atom    6 type  4   force =    -1.56830945    2.56538785   -0.82658345
     atom    7 type  4   force =     4.16041469   -0.74805355    1.26608467
     atom    8 type  4   force =     0.37524305   -1.34204523    0.86200778
     atom    9 type  4   force =    -3.97553570    0.04268913   -1.01556501
     atom   10 type  3   force =    -1.81740465    6.79852852    1.33891318
     atom   11 type  3   force =     8.44042423   -3.51227694    2.11914325
     atom   12 type  3   force =     0.62675348   -1.65930068    1.24873156
     atom   13 type  3   force =    -8.30694055    2.20861387   -2.08616080
     atom   14 type  3   force =     0.71394143    0.61216943    7.30283562
     atom   15 type  3   force =    -0.18379879   -6.49759664    3.71167501
     atom   16 type  3   force =    -1.44116199   -0.55610837   -6.89459194
     atom   17 type  3   force =     0.37243963    3.84297058   -2.42040396
     atom   18 type  3   force =    -2.25801941    5.97303858    1.36794307
     atom   19 type  3   force =     3.90485683   -1.07736756   -4.66165286
     atom   20 type  3   force =     3.88499227    4.33271923    8.61801909
     atom   21 type  3   force =    -7.92458699   -1.40017353    0.94235956
     atom   22 type  3   force =     1.03182045   -7.98481098   -3.86640010
     atom   23 type  3   force =    -5.07716140    0.75673586    4.18983433
     atom   24 type  3   force =    -3.06541253   -2.17679864   -8.55421189
     atom   25 type  3   force =     9.74104625    0.85116095   -0.33971089
     The local contribution  to forces
     atom    1 type  2   force =    -1.88571300    3.60753223    2.22701747
     atom    2 type  1   force =   -10.64095654   -3.79042607    3.22554443
     atom    3 type  1   force =    -7.05571010    8.16841248    1.34083385
     atom    4 type  1   force =    13.70028989   -0.35641525   -1.01399782
     atom    5 type  1   force =     3.45947520   -6.59775273   -3.31208457
     atom    6 type  4   force =     1.56590345   -2.60115289    0.79891453
     atom    7 type  4   force =    -4.14283690    0.73746609   -1.21824630
     atom    8 type  4   force =    -0.41395036    1.39674711   -0.84527678
     atom    9 type  4   force =     3.94888595   -0.02444644    0.96189817
     atom   10 type  3   force =     2.28441719   -6.69567163   -0.15397120
     atom   11 type  3   force =    -8.48114331    3.29717736   -0.70531210
     atom   12 type  3   force =    -0.97788076    1.54782017   -2.44950723
     atom   13 type  3   force =     8.26524168   -2.02763449    0.66414529
     atom   14 type  3   force =    -2.10128608   -0.49449554   -6.72883710
     atom   15 type  3   force =     1.36414254    5.79431137   -3.48812179
     atom   16 type  3   force =     2.77308317    0.39428411    6.34210723
     atom   17 type  3   force =    -1.58652607   -3.15833757    2.32968010
     atom   18 type  3   force =     2.61406174   -4.70912137   -2.06653166
     atom   19 type  3   force =    -4.47888292    0.37603165    3.66657784
     atom   20 type  3   force =    -3.79021580   -2.88247072   -7.58969366
     atom   21 type  3   force =     8.20913151    0.41554514   -0.28149686
     atom   22 type  3   force =    -1.44323249    6.63510922    4.50815711
     atom   23 type  3   force =     5.60387933    0.00969161   -3.23480529
     atom   24 type  3   force =     3.00377638    0.73622272    7.58079891
     atom   25 type  3   force =    -9.84892001    0.16642335   -0.30315931
     The core correction contribution to forces
     atom    1 type  2   force =     0.00000000    0.00000000    0.00000000
     atom    2 type  1   force =    -0.00258479    0.00077992    0.00150392
     atom    3 type  1   force =     0.00123128   -0.00063722    0.00083331
     atom    4 type  1   force =     0.00240467   -0.00184485   -0.00088115
     atom    5 type  1   force =    -0.00054665   -0.00130580    0.00110812
     atom    6 type  4   force =     0.00151609   -0.00273605   -0.00205893
     atom    7 type  4   force =     0.00102898   -0.00033177    0.00275837
     atom    8 type  4   force =    -0.00411409    0.00328617    0.00069552
     atom    9 type  4   force =    -0.00169973    0.00160746   -0.00371805
     atom   10 type  3   force =     0.00376710    0.00085509    0.01040995
     atom   11 type  3   force =     0.00042714   -0.00220626    0.01233629
     atom   12 type  3   force =    -0.00253681   -0.00089182   -0.01035286
     atom   13 type  3   force =    -0.00111005    0.00178754   -0.01249108
     atom   14 type  3   force =    -0.01190137    0.00109635    0.00570238
     atom   15 type  3   force =     0.01007946   -0.00670063    0.00249965
     atom   16 type  3   force =     0.01139416   -0.00151488   -0.00549825
     atom   17 type  3   force =    -0.01029273    0.00635472   -0.00135854
     atom   18 type  3   force =     0.00259553    0.01165800   -0.00595300
     atom   19 type  3   force =    -0.00504794   -0.00580331   -0.00909771
     atom   20 type  3   force =     0.00111369    0.01272615    0.00972454
     atom   21 type  3   force =     0.00246871   -0.00854904    0.00603547
     atom   22 type  3   force =    -0.00311028   -0.01243919    0.00545533
     atom   23 type  3   force =     0.00465468    0.00638119    0.00873119
     atom   24 type  3   force =    -0.00075991   -0.01264001   -0.00916116
     atom   25 type  3   force =    -0.00075749    0.00887790   -0.00585604
     The Hubbard contrib.    to forces
     atom    1 type  2   force =     0.00000000    0.00000000    0.00000000
     atom    2 type  1   force =     0.00000000    0.00000000    0.00000000
     atom    3 type  1   force =     0.00000000    0.00000000    0.00000000
     atom    4 type  1   force =     0.00000000    0.00000000    0.00000000
     atom    5 type  1   force =     0.00000000    0.00000000    0.00000000
     atom    6 type  4   force =     0.00000000    0.00000000    0.00000000
     atom    7 type  4   force =     0.00000000    0.00000000    0.00000000
     atom    8 type  4   force =     0.00000000    0.00000000    0.00000000
     atom    9 type  4   force =     0.00000000    0.00000000    0.00000000
     atom   10 type  3   force =     0.00000000    0.00000000    0.00000000
     atom   11 type  3   force =     0.00000000    0.00000000    0.00000000
     atom   12 type  3   force =     0.00000000    0.00000000    0.00000000
     atom   13 type  3   force =     0.00000000    0.00000000    0.00000000
     atom   14 type  3   force =     0.00000000    0.00000000    0.00000000
     atom   15 type  3   force =     0.00000000    0.00000000    0.00000000
     atom   16 type  3   force =     0.00000000    0.00000000    0.00000000
     atom   17 type  3   force =     0.00000000    0.00000000    0.00000000
     atom   18 type  3   force =     0.00000000    0.00000000    0.00000000
     atom   19 type  3   force =     0.00000000    0.00000000    0.00000000
     atom   20 type  3   force =     0.00000000    0.00000000    0.00000000
     atom   21 type  3   force =     0.00000000    0.00000000    0.00000000
     atom   22 type  3   force =     0.00000000    0.00000000    0.00000000
     atom   23 type  3   force =     0.00000000    0.00000000    0.00000000
     atom   24 type  3   force =     0.00000000    0.00000000    0.00000000
     atom   25 type  3   force =     0.00000000    0.00000000    0.00000000
     The SCF correction term to forces
     atom    1 type  2   force =     0.00000599    0.00000189    0.00000069
     atom    2 type  1   force =    -0.00000595   -0.00000246   -0.00000271
     atom    3 type  1   force =    -0.00000179    0.00000078    0.00000022
     atom    4 type  1   force =    -0.00000010   -0.00000043    0.00000008
     atom    5 type  1   force =     0.00000447   -0.00000013    0.00000004
     atom    6 type  4   force =     0.00000265   -0.00000206    0.00000108
     atom    7 type  4   force =    -0.00000384    0.00000057   -0.00000066
     atom    8 type  4   force =     0.00000385   -0.00000013   -0.00000024
     atom    9 type  4   force =    -0.00000149   -0.00000001    0.00000006
     atom   10 type  3   force =     0.00000146   -0.00000482   -0.00000074
     atom   11 type  3   force =    -0.00000652    0.00000177    0.00000405
     atom   12 type  3   force =     0.00000386   -0.00000017    0.00000040
     atom   13 type  3   force =    -0.00000197    0.00000029    0.00000049
     atom   14 type  3   force =    -0.00000341   -0.00000028    0.00000034
     atom   15 type  3   force =     0.00000801    0.00000196   -0.00000180
     atom   16 type  3   force =    -0.00000394    0.00000013   -0.00000071
     atom   17 type  3   force =     0.00000448   -0.00000018   -0.00000038
     atom   18 type  3   force =     0.00000085    0.00000019    0.00000033
     atom   19 type  3   force =    -0.00000424    0.00000296   -0.00000211
     atom   20 type  3   force =     0.00000426   -0.00000057    0.00000087
     atom   21 type  3   force =    -0.00000181    0.00000039   -0.00000047
     atom   22 type  3   force =     0.00000348   -0.00000030   -0.00000048
     atom   23 type  3   force =    -0.00000118   -0.00000042   -0.00000026
     atom   24 type  3   force =     0.00000483   -0.00000199    0.00000328
     atom   25 type  3   force =    -0.00000593   -0.00000187   -0.00000322

     Total force =     0.018225     Total SCF correction =     0.000023


     Computing stress (Cartesian axis) and pressure


     negative rho (up, down):  0.000E+00 8.745E-04
          total   stress  (Ry/bohr**3)                   (kbar)     P=       13.43
  -0.00016177   0.00005977   0.00002458          -23.80        8.79        3.62
   0.00005977   0.00023149  -0.00010992            8.79       34.05      -16.17
   0.00002458  -0.00010992   0.00020409            3.62      -16.17       30.02

     kinetic stress (kbar)  26512.54     72.84    -42.74
                               72.84  26668.45     -9.13
                              -42.74     -9.13  26640.13

     local   stress (kbar)  -8048.99   3581.42  -7280.09
                             3581.42 -14628.29    625.33
                            -7280.09    625.33  -5328.77

     nonloc. stress (kbar)  -6792.83      8.40      2.81
                                8.40  -6759.73     -4.83
                                2.81     -4.83  -6765.99

     hartree stress (kbar)  14254.81  -1343.95   3061.88
                            -1343.95  17794.39   -191.82
                             3061.88   -191.82  13638.94

     exc-cor stress (kbar)  -2805.15     -3.14      3.17
                               -3.14  -2809.81     -1.08
                                3.17     -1.08  -2809.90

     corecor stress (kbar)  -3114.98      0.10     -0.95
                                0.10  -3115.86      0.81
                               -0.95      0.81  -3116.04

     ewald   stress (kbar) -20029.18  -2306.88   4259.52
                            -2306.88 -17115.10   -435.46
                             4259.52   -435.46 -22228.35

     hubbard stress (kbar)      0.00      0.00      0.00
                                0.00      0.00      0.00
                                0.00      0.00      0.00

     DFT-D   stress (kbar)      0.00      0.00      0.00
                                0.00      0.00      0.00
                                0.00      0.00      0.00

     XDM     stress (kbar)      0.00      0.00      0.00
                                0.00      0.00      0.00
                                0.00      0.00      0.00

     dft-nl  stress (kbar)      0.00      0.00      0.00
                                0.00      0.00      0.00
                                0.00      0.00      0.00

     TS-vdW  stress (kbar)      0.00      0.00      0.00
                                0.00      0.00      0.00
                                0.00      0.00      0.00



     init_run     :    208.07s CPU    212.75s WALL (       1 calls)
     electrons    :  20111.14s CPU  20458.64s WALL (       1 calls)
     forces       :    132.48s CPU    134.97s WALL (       1 calls)
     stress       :   1103.53s CPU   1112.16s WALL (       1 calls)

     Called by init_run:
     wfcinit      :    196.86s CPU    200.66s WALL (       1 calls)
     wfcinit:atom :      4.37s CPU      4.48s WALL (     316 calls)
     wfcinit:wfcr :    181.48s CPU    184.94s WALL (     316 calls)
     potinit      :      4.14s CPU      4.28s WALL (       1 calls)
     hinit0       :      3.69s CPU      3.79s WALL (       1 calls)

     Called by electrons:
     c_bands      :  17699.56s CPU  17946.78s WALL (      34 calls)
     sum_band     :   2291.45s CPU   2366.04s WALL (      34 calls)
     v_of_rho     :     35.47s CPU     37.22s WALL (      35 calls)
     v_h          :      2.17s CPU      2.25s WALL (      35 calls)
     v_xc         :     35.39s CPU     37.12s WALL (      37 calls)
     newd         :     56.50s CPU     80.07s WALL (      35 calls)
     PAW_pot      :     16.46s CPU     16.59s WALL (      35 calls)
     mix_rho      :     10.88s CPU     11.39s WALL (      34 calls)

     Called by c_bands:
     init_us_2    :    324.23s CPU    332.56s WALL (   22436 calls)
     cegterg      :  17151.51s CPU  17386.44s WALL (   10744 calls)

     Called by sum_band:
     sum_band:wei :      0.59s CPU      0.59s WALL (      34 calls)
     sum_band:loo :   2125.91s CPU   2169.81s WALL (      34 calls)
     sum_band:buf :     78.24s CPU     80.05s WALL (   10744 calls)
     sum_band:ini :    156.72s CPU    160.43s WALL (   10744 calls)
     sum_band:cal :    831.36s CPU    842.41s WALL (   10744 calls)
     sum_band:bec :      8.81s CPU      8.97s WALL (   10744 calls)
     addusdens    :    155.82s CPU    186.27s WALL (      34 calls)
     addusd:skk   :      0.94s CPU      0.97s WALL (     102 calls)
     addusd:dgemm :     68.46s CPU     92.59s WALL (     204 calls)
     addusd:qvan2 :     84.27s CPU     85.14s WALL (     204 calls)

     Called by *egterg:
     cdiaghg      :    991.97s CPU   1020.95s WALL (   39067 calls)
     cegterg:over :   1655.81s CPU   1688.47s WALL (   28323 calls)
     cegterg:upda :    827.25s CPU    832.62s WALL (   28323 calls)
     cegterg:last :   1639.29s CPU   1650.39s WALL (   17264 calls)
     h_psi        :   9066.26s CPU   9193.98s WALL (   39383 calls)
     s_psi        :   1944.05s CPU   1956.86s WALL (   39383 calls)
     g_psi        :     18.83s CPU     19.10s WALL (   28323 calls)

     Called by h_psi:
     h_psi:calbec :   2119.37s CPU   2148.31s WALL (   39383 calls)
     vloc_psi     :   4741.72s CPU   4820.99s WALL (   39383 calls)
     add_vuspsi   :   2026.91s CPU   2040.63s WALL (   39383 calls)

     General routines
     calbec       :   3080.66s CPU   3122.43s WALL (   51707 calls)
     fft          :     37.07s CPU     39.35s WALL (     913 calls)
     ffts         :      0.64s CPU      0.74s WALL (     138 calls)
     fftw         :   5518.86s CPU   5621.45s WALL ( 6592858 calls)
     interpolate  :      2.85s CPU      3.11s WALL (      70 calls)

     Parallel routines
     fft_scatt_xy :    311.93s CPU    315.23s WALL ( 6593909 calls)
     fft_scatt_yz :   3224.74s CPU   3305.81s WALL ( 6593909 calls)

     PAW routines
     PAW_pot      :     16.46s CPU     16.59s WALL (      35 calls)

     PWSCF        :      5h59m CPU      6h 5m WALL


   This run was terminated on:  22:46:11  14Dec2022            

=------------------------------------------------------------------------------=
   JOB DONE.
=------------------------------------------------------------------------------=
Note: The following floating-point exceptions are signalling: IEEE_UNDERFLOW_FLAG IEEE_DENORMAL
Note: The following floating-point exceptions are signalling: IEEE_DENORMAL
Note: The following floating-point exceptions are signalling: IEEE_DENORMAL
Note: The following floating-point exceptions are signalling: IEEE_DENORMAL
Note: The following floating-point exceptions are signalling: IEEE_DENORMAL
Note: The following floating-point exceptions are signalling: IEEE_DENORMAL
Note: The following floating-point exceptions are signalling: IEEE_DENORMAL
Note: The following floating-point exceptions are signalling: IEEE_INVALID_FLAG IEEE_DENORMAL
Note: The following floating-point exceptions are signalling: IEEE_DENORMAL
Note: The following floating-point exceptions are signalling: IEEE_DENORMAL
Note: The following floating-point exceptions are signalling: IEEE_DENORMAL
Note: The following floating-point exceptions are signalling: IEEE_DENORMAL
Note: The following floating-point exceptions are signalling: IEEE_DENORMAL
Note: The following floating-point exceptions are signalling: IEEE_DENORMAL
Note: The following floating-point exceptions are signalling: IEEE_DENORMAL
Note: The following floating-point exceptions are signalling: IEEE_DENORMAL
Note: The following floating-point exceptions are signalling: IEEE_INVALID_FLAG IEEE_DENORMAL
Note: The following floating-point exceptions are signalling: IEEE_DENORMAL
Note: The following floating-point exceptions are signalling: IEEE_DENORMAL
Note: The following floating-point exceptions are signalling: IEEE_DENORMALNote: The following floating-point exceptions are signalling: IEEE_DENORMAL

Note: The following floating-point exceptions are signalling: IEEE_DENORMAL
Note: The following floating-point exceptions are signalling: IEEE_DENORMAL
