
     Program PWSCF v.6.7MaX starts on  3Jan2023 at 11:50:16 

     This program is part of the open-source Quantum ESPRESSO suite
     for quantum simulation of materials; please cite
         "P. Giannozzi et al., J. Phys.:Condens. Matter 21 395502 (2009);
         "P. Giannozzi et al., J. Phys.:Condens. Matter 29 465901 (2017);
          URL http://www.quantum-espresso.org", 
     in publications or presentations arising from this work. More details at
     http://www.quantum-espresso.org/quote

     Parallel version (MPI), running on    32 processors

     MPI processes distributed on     2 nodes
     R & G space division:  proc/nbgrp/npool/nimage =      32
     Reading input from scale_2dab-04.in

     Current dimensions of program PWSCF are:
     Max number of different atomic species (ntypx) = 10
     Max number of k-points (npk) =  40000
     Max angular momentum in pseudopotentials (lmaxx) =  3
     Message from routine read_pp_mesh:
     mesh size missing, using the one in header
     file Fe.pbe-spn-kjpaw_psl.0.2.1.UPF: wavefunction(s)  3D renormalized
     file O.pbe-n-kjpaw_psl.0.1.UPF: wavefunction(s)  2P renormalized

     Subspace diagonalization in iterative solution of the eigenvalue problem:
     a serial algorithm will be used


     Parallelization info
     --------------------
     sticks:   dense  smooth     PW     G-vecs:    dense   smooth      PW
     Min         662     245     66                43200     9735    1366
     Max         663     246     67                43203     9738    1369
     Sum       21211    7849   2123              1382463   311535   43725



     bravais-lattice index     =            0
     lattice parameter (alat)  =      20.3206  a.u.
     unit-cell volume          =    2306.7820 (a.u.)^3
     number of atoms/cell      =           25
     number of atomic types    =            4
     number of electrons       =       189.00
     number of Kohn-Sham states=          114
     kinetic-energy cutoff     =     100.0000  Ry
     charge density cutoff     =    1080.0000  Ry
     scf convergence threshold =      2.0E-10
     mixing beta               =       0.4000
     number of iterations used =            8  plain     mixing
     Exchange-correlation= PBE
                           (   1   4   3   4   0   0   0)

     celldm(1)=  20.320559  celldm(2)=   0.000000  celldm(3)=   0.000000
     celldm(4)=   0.000000  celldm(5)=   0.000000  celldm(6)=   0.000000

     crystal axes: (cart. coord. in units of alat)
               a(1) = (   1.000000   0.000000   0.000000 )  
               a(2) = (   0.000000   0.597590   0.000000 )  
               a(3) = (   0.000000   0.000000   0.460041 )  

     reciprocal axes: (cart. coord. in units 2 pi/alat)
               b(1) = (  1.000000  0.000000  0.000000 )  
               b(2) = (  0.000000  1.673388  0.000000 )  
               b(3) = (  0.000000  0.000000  2.173720 )  


     PseudoPot. # 1 for Fe read from file:
     /opt/QEpot/SSSP_precision_pseudos/Fe.pbe-spn-kjpaw_psl.0.2.1.UPF
     MD5 check sum: e86618425769142926afa95317d90200
     Pseudo is Projector augmented-wave + core cor, Zval = 16.0
     Generated using "atomic" code by A. Dal Corso  v.5.0.99 svn rev. 10869
     Shape of augmentation charge: PSQ
     Using radial grid of 1191 points,  6 beta functions with: 
                l(1) =   0
                l(2) =   0
                l(3) =   1
                l(4) =   1
                l(5) =   2
                l(6) =   2
     Q(r) pseudized with 0 coefficients 


     PseudoPot. # 2 for Na read from file:
     /opt/QEpot/SSSP_precision_pseudos/Na_ONCV_PBE-1.0.oncvpsp.upf
     MD5 check sum: 24a298df0a6742ae313db96548fdb2a4
     Pseudo is Norm-conserving, Zval =  9.0
     Generated using ONCVPSP code by D. R. Hamann
     Using radial grid of 1992 points,  4 beta functions with: 
                l(1) =   0
                l(2) =   0
                l(3) =   1
                l(4) =   1

     PseudoPot. # 3 for O  read from file:
     /opt/QEpot/SSSP_precision_pseudos/O.pbe-n-kjpaw_psl.0.1.UPF
     MD5 check sum: 0234752ac141de4415c5fc33072bef88
     Pseudo is Projector augmented-wave + core cor, Zval =  6.0
     Generated using "atomic" code by A. Dal Corso  v.5.0.99 svn rev. 10869
     Shape of augmentation charge: BESSEL
     Using radial grid of 1095 points,  4 beta functions with: 
                l(1) =   0
                l(2) =   0
                l(3) =   1
                l(4) =   1
     Q(r) pseudized with 0 coefficients 


     PseudoPot. # 4 for P  read from file:
     /opt/QEpot/SSSP_precision_pseudos/P.pbe-n-rrkjus_psl.1.0.0.UPF
     MD5 check sum: 8b930f418f0a4573dca56cd030ffe088
     Pseudo is Ultrasoft + core correction, Zval =  5.0
     Generated using "atomic" code by A. Dal Corso  v.5.1
     Using radial grid of 1147 points,  6 beta functions with: 
                l(1) =   0
                l(2) =   0
                l(3) =   1
                l(4) =   1
                l(5) =   2
                l(6) =   2
     Q(r) pseudized with 0 coefficients 


     atomic species   valence    mass     pseudopotential
        Fe            16.00    55.84500     Fe( 1.00)
        Na             9.00    22.98977     Na( 1.00)
        O              6.00    15.99940     O ( 1.00)
        P              5.00    30.97376     P ( 1.00)

     Starting magnetic structure 
     atomic species   magnetization
        Fe           0.312
        Na           0.000
        O            0.000
        P            0.000

     No symmetry found


                                    s                        frac. trans.

      isym =  1     identity                                     

 cryst.   s( 1) = (     1          0          0      )
                  (     0          1          0      )
                  (     0          0          1      )

 cart.    s( 1) = (  1.0000000  0.0000000  0.0000000 )
                  (  0.0000000  1.0000000  0.0000000 )
                  (  0.0000000  0.0000000  1.0000000 )


   Cartesian axes

     site n.     atom                  positions (alat units)
         1           Na  tau(   1) = (   0.0091640   0.0619545   0.0815004  )
         2           Fe  tau(   2) = (   0.3006930   0.4598938   0.4048295  )
         3           Fe  tau(   3) = (   0.2172790   0.1994152   0.2440820  )
         4           Fe  tau(   4) = (   0.7013420   0.1375293   0.0655043  )
         5           Fe  tau(   5) = (   0.7823920   0.4166068   0.2383448  )
         6           P   tau(   6) = (   0.0916690   0.4042624   0.1441395  )
         7           P   tau(   7) = (   0.3922300   0.1495791   0.4440682  )
         8           P   tau(   8) = (   0.9035730   0.1787421   0.3176499  )
         9           P   tau(   9) = (   0.6068380   0.4472656   0.0367490  )
        10           O   tau(  10) = (   0.1716030   0.3997691   0.2686716  )
        11           O   tau(  11) = (   0.3459220   0.1497710   0.1197054  )
        12           O   tau(  12) = (   0.8394910   0.1630620   0.1885063  )
        13           O   tau(  13) = (   0.6484430   0.4495185   0.3597142  )
        14           O   tau(  14) = (   0.4599470   0.4563693   0.0484423  )
        15           O   tau(  15) = (   0.0476720   0.1360599   0.3114706  )
        16           O   tau(  16) = (   0.5389440   0.1383008   0.4337895  )
        17           O   tau(  17) = (   0.9533530   0.4560513   0.1595440  )
        18           O   tau(  18) = (   0.1614450   0.5005252   0.0559594  )
        19           O   tau(  19) = (   0.3222970   0.0448922   0.3618727  )
        20           O   tau(  20) = (   0.8832040   0.3185244   0.3621676  )
        21           O   tau(  21) = (   0.6645330   0.3263283   0.1086046  )
        22           O   tau(  22) = (   0.8349710   0.0852785   0.4095283  )
        23           O   tau(  23) = (   0.6757630   0.5543232   0.1172598  )
        24           O   tau(  24) = (   0.1041630   0.2643248   0.0969619  )
        25           O   tau(  25) = (   0.3431370   0.2727687   0.3713675  )

   Crystallographic axes

     site n.     atom                  positions (cryst. coord.)
         1           Na  tau(   1) = (  0.0091640  0.1036740  0.1771590  )
         2           Fe  tau(   2) = (  0.3006930  0.7695810  0.8799860  )
         3           Fe  tau(   3) = (  0.2172790  0.3336990  0.5305660  )
         4           Fe  tau(   4) = (  0.7013420  0.2301400  0.1423880  )
         5           Fe  tau(   5) = (  0.7823920  0.6971450  0.5180950  )
         6           P   tau(   6) = (  0.0916690  0.6764880  0.3133190  )
         7           P   tau(   7) = (  0.3922300  0.2503040  0.9652800  )
         8           P   tau(   8) = (  0.9035730  0.2991050  0.6904820  )
         9           P   tau(   9) = (  0.6068380  0.7484490  0.0798820  )
        10           O   tau(  10) = (  0.1716030  0.6689690  0.5840170  )
        11           O   tau(  11) = (  0.3459220  0.2506250  0.2602060  )
        12           O   tau(  12) = (  0.8394910  0.2728660  0.4097600  )
        13           O   tau(  13) = (  0.6484430  0.7522190  0.7819180  )
        14           O   tau(  14) = (  0.4599470  0.7636830  0.1053000  )
        15           O   tau(  15) = (  0.0476720  0.2276810  0.6770500  )
        16           O   tau(  16) = (  0.5389440  0.2314310  0.9429370  )
        17           O   tau(  17) = (  0.9533530  0.7631510  0.3468040  )
        18           O   tau(  18) = (  0.1614450  0.8375730  0.1216400  )
        19           O   tau(  19) = (  0.3222970  0.0751220  0.7866100  )
        20           O   tau(  20) = (  0.8832040  0.5330150  0.7872510  )
        21           O   tau(  21) = (  0.6645330  0.5460740  0.2360760  )
        22           O   tau(  22) = (  0.8349710  0.1427040  0.8902000  )
        23           O   tau(  23) = (  0.6757630  0.9275980  0.2548900  )
        24           O   tau(  24) = (  0.1041630  0.4423180  0.2107680  )
        25           O   tau(  25) = (  0.3431370  0.4564480  0.8072490  )

     number of k points=   158  Marzari-Vanderbilt smearing, width (Ry)=  0.0073
                       cart. coord. in units 2pi/alat
        k(    1) = (   0.0000000   0.0000000   0.0000000), wk =   0.0031746
        k(    2) = (   0.0000000   0.0000000   0.2415245), wk =   0.0063492
        k(    3) = (   0.0000000   0.0000000   0.4830489), wk =   0.0063492
        k(    4) = (   0.0000000   0.0000000   0.7245734), wk =   0.0063492
        k(    5) = (   0.0000000   0.0000000   0.9660979), wk =   0.0063492
        k(    6) = (   0.0000000   0.2390555   0.0000000), wk =   0.0063492
        k(    7) = (   0.0000000   0.2390555   0.2415245), wk =   0.0063492
        k(    8) = (   0.0000000   0.2390555   0.4830489), wk =   0.0063492
        k(    9) = (   0.0000000   0.2390555   0.7245734), wk =   0.0063492
        k(   10) = (   0.0000000   0.2390555   0.9660979), wk =   0.0063492
        k(   11) = (   0.0000000   0.4781110   0.0000000), wk =   0.0063492
        k(   12) = (   0.0000000   0.4781110   0.2415245), wk =   0.0063492
        k(   13) = (   0.0000000   0.4781110   0.4830489), wk =   0.0063492
        k(   14) = (   0.0000000   0.4781110   0.7245734), wk =   0.0063492
        k(   15) = (   0.0000000   0.4781110   0.9660979), wk =   0.0063492
        k(   16) = (   0.0000000   0.7171664   0.0000000), wk =   0.0063492
        k(   17) = (   0.0000000   0.7171664   0.2415245), wk =   0.0063492
        k(   18) = (   0.0000000   0.7171664   0.4830489), wk =   0.0063492
        k(   19) = (   0.0000000   0.7171664   0.7245734), wk =   0.0063492
        k(   20) = (   0.0000000   0.7171664   0.9660979), wk =   0.0063492
        k(   21) = (   0.2000000   0.0000000   0.0000000), wk =   0.0063492
        k(   22) = (   0.2000000   0.0000000   0.2415245), wk =   0.0063492
        k(   23) = (   0.2000000   0.0000000   0.4830489), wk =   0.0063492
        k(   24) = (   0.2000000   0.0000000   0.7245734), wk =   0.0063492
        k(   25) = (   0.2000000   0.0000000   0.9660979), wk =   0.0063492
        k(   26) = (   0.2000000   0.2390555   0.0000000), wk =   0.0063492
        k(   27) = (   0.2000000   0.2390555   0.2415245), wk =   0.0063492
        k(   28) = (   0.2000000   0.2390555   0.4830489), wk =   0.0063492
        k(   29) = (   0.2000000   0.2390555   0.7245734), wk =   0.0063492
        k(   30) = (   0.2000000   0.2390555   0.9660979), wk =   0.0063492
        k(   31) = (   0.2000000   0.4781110   0.0000000), wk =   0.0063492
        k(   32) = (   0.2000000   0.4781110   0.2415245), wk =   0.0063492
        k(   33) = (   0.2000000   0.4781110   0.4830489), wk =   0.0063492
        k(   34) = (   0.2000000   0.4781110   0.7245734), wk =   0.0063492
        k(   35) = (   0.2000000   0.4781110   0.9660979), wk =   0.0063492
        k(   36) = (   0.2000000   0.7171664   0.0000000), wk =   0.0063492
        k(   37) = (   0.2000000   0.7171664   0.2415245), wk =   0.0063492
        k(   38) = (   0.2000000   0.7171664   0.4830489), wk =   0.0063492
        k(   39) = (   0.2000000   0.7171664   0.7245734), wk =   0.0063492
        k(   40) = (   0.2000000   0.7171664   0.9660979), wk =   0.0063492
        k(   41) = (   0.4000000   0.0000000   0.0000000), wk =   0.0063492
        k(   42) = (   0.4000000   0.0000000   0.2415245), wk =   0.0063492
        k(   43) = (   0.4000000   0.0000000   0.4830489), wk =   0.0063492
        k(   44) = (   0.4000000   0.0000000   0.7245734), wk =   0.0063492
        k(   45) = (   0.4000000   0.0000000   0.9660979), wk =   0.0063492
        k(   46) = (   0.4000000   0.2390555   0.0000000), wk =   0.0063492
        k(   47) = (   0.4000000   0.2390555   0.2415245), wk =   0.0063492
        k(   48) = (   0.4000000   0.2390555   0.4830489), wk =   0.0063492
        k(   49) = (   0.4000000   0.2390555   0.7245734), wk =   0.0063492
        k(   50) = (   0.4000000   0.2390555   0.9660979), wk =   0.0063492
        k(   51) = (   0.4000000   0.4781110   0.0000000), wk =   0.0063492
        k(   52) = (   0.4000000   0.4781110   0.2415245), wk =   0.0063492
        k(   53) = (   0.4000000   0.4781110   0.4830489), wk =   0.0063492
        k(   54) = (   0.4000000   0.4781110   0.7245734), wk =   0.0063492
        k(   55) = (   0.4000000   0.4781110   0.9660979), wk =   0.0063492
        k(   56) = (   0.4000000   0.7171664   0.0000000), wk =   0.0063492
        k(   57) = (   0.4000000   0.7171664   0.2415245), wk =   0.0063492
        k(   58) = (   0.4000000   0.7171664   0.4830489), wk =   0.0063492
        k(   59) = (   0.4000000   0.7171664   0.7245734), wk =   0.0063492
        k(   60) = (   0.4000000   0.7171664   0.9660979), wk =   0.0063492
        k(   61) = (   0.0000000  -0.2390555   0.2415245), wk =   0.0063492
        k(   62) = (   0.0000000  -0.2390555   0.4830489), wk =   0.0063492
        k(   63) = (   0.0000000  -0.2390555   0.7245734), wk =   0.0063492
        k(   64) = (   0.0000000  -0.2390555   0.9660979), wk =   0.0063492
        k(   65) = (   0.0000000  -0.4781110   0.2415245), wk =   0.0063492
        k(   66) = (   0.0000000  -0.4781110   0.4830489), wk =   0.0063492
        k(   67) = (   0.0000000  -0.4781110   0.7245734), wk =   0.0063492
        k(   68) = (   0.0000000  -0.4781110   0.9660979), wk =   0.0063492
        k(   69) = (   0.0000000  -0.7171664   0.2415245), wk =   0.0063492
        k(   70) = (   0.0000000  -0.7171664   0.4830489), wk =   0.0063492
        k(   71) = (   0.0000000  -0.7171664   0.7245734), wk =   0.0063492
        k(   72) = (   0.0000000  -0.7171664   0.9660979), wk =   0.0063492
        k(   73) = (  -0.2000000   0.0000000   0.2415245), wk =   0.0063492
        k(   74) = (  -0.2000000   0.0000000   0.4830489), wk =   0.0063492
        k(   75) = (  -0.2000000   0.0000000   0.7245734), wk =   0.0063492
        k(   76) = (  -0.2000000   0.0000000   0.9660979), wk =   0.0063492
        k(   77) = (  -0.2000000   0.2390555   0.0000000), wk =   0.0063492
        k(   78) = (  -0.2000000  -0.2390555   0.2415245), wk =   0.0063492
        k(   79) = (  -0.2000000   0.2390555  -0.2415245), wk =   0.0063492
        k(   80) = (   0.2000000  -0.2390555  -0.2415245), wk =   0.0063492
        k(   81) = (  -0.2000000  -0.2390555   0.4830489), wk =   0.0063492
        k(   82) = (  -0.2000000   0.2390555  -0.4830489), wk =   0.0063492
        k(   83) = (   0.2000000  -0.2390555  -0.4830489), wk =   0.0063492
        k(   84) = (  -0.2000000  -0.2390555   0.7245734), wk =   0.0063492
        k(   85) = (  -0.2000000   0.2390555  -0.7245734), wk =   0.0063492
        k(   86) = (   0.2000000  -0.2390555  -0.7245734), wk =   0.0063492
        k(   87) = (  -0.2000000  -0.2390555   0.9660979), wk =   0.0063492
        k(   88) = (  -0.2000000   0.2390555  -0.9660979), wk =   0.0063492
        k(   89) = (   0.2000000  -0.2390555  -0.9660979), wk =   0.0063492
        k(   90) = (  -0.2000000   0.4781110   0.0000000), wk =   0.0063492
        k(   91) = (  -0.2000000  -0.4781110   0.2415245), wk =   0.0063492
        k(   92) = (  -0.2000000   0.4781110  -0.2415245), wk =   0.0063492
        k(   93) = (   0.2000000  -0.4781110  -0.2415245), wk =   0.0063492
        k(   94) = (  -0.2000000  -0.4781110   0.4830489), wk =   0.0063492
        k(   95) = (  -0.2000000   0.4781110  -0.4830489), wk =   0.0063492
        k(   96) = (   0.2000000  -0.4781110  -0.4830489), wk =   0.0063492
        k(   97) = (  -0.2000000  -0.4781110   0.7245734), wk =   0.0063492
        k(   98) = (  -0.2000000   0.4781110  -0.7245734), wk =   0.0063492
        k(   99) = (   0.2000000  -0.4781110  -0.7245734), wk =   0.0063492
        k(  100) = (  -0.2000000  -0.4781110   0.9660979), wk =   0.0063492
        k(  101) = (  -0.2000000   0.4781110  -0.9660979), wk =   0.0063492
        k(  102) = (   0.2000000  -0.4781110  -0.9660979), wk =   0.0063492
        k(  103) = (  -0.2000000   0.7171664   0.0000000), wk =   0.0063492
        k(  104) = (  -0.2000000  -0.7171664   0.2415245), wk =   0.0063492
        k(  105) = (  -0.2000000   0.7171664  -0.2415245), wk =   0.0063492
        k(  106) = (   0.2000000  -0.7171664  -0.2415245), wk =   0.0063492
        k(  107) = (  -0.2000000  -0.7171664   0.4830489), wk =   0.0063492
        k(  108) = (  -0.2000000   0.7171664  -0.4830489), wk =   0.0063492
        k(  109) = (   0.2000000  -0.7171664  -0.4830489), wk =   0.0063492
        k(  110) = (  -0.2000000  -0.7171664   0.7245734), wk =   0.0063492
        k(  111) = (  -0.2000000   0.7171664  -0.7245734), wk =   0.0063492
        k(  112) = (   0.2000000  -0.7171664  -0.7245734), wk =   0.0063492
        k(  113) = (  -0.2000000  -0.7171664   0.9660979), wk =   0.0063492
        k(  114) = (  -0.2000000   0.7171664  -0.9660979), wk =   0.0063492
        k(  115) = (   0.2000000  -0.7171664  -0.9660979), wk =   0.0063492
        k(  116) = (  -0.4000000   0.0000000   0.2415245), wk =   0.0063492
        k(  117) = (  -0.4000000   0.0000000   0.4830489), wk =   0.0063492
        k(  118) = (  -0.4000000   0.0000000   0.7245734), wk =   0.0063492
        k(  119) = (  -0.4000000   0.0000000   0.9660979), wk =   0.0063492
        k(  120) = (  -0.4000000   0.2390555   0.0000000), wk =   0.0063492
        k(  121) = (  -0.4000000  -0.2390555   0.2415245), wk =   0.0063492
        k(  122) = (  -0.4000000   0.2390555  -0.2415245), wk =   0.0063492
        k(  123) = (   0.4000000  -0.2390555  -0.2415245), wk =   0.0063492
        k(  124) = (  -0.4000000  -0.2390555   0.4830489), wk =   0.0063492
        k(  125) = (  -0.4000000   0.2390555  -0.4830489), wk =   0.0063492
        k(  126) = (   0.4000000  -0.2390555  -0.4830489), wk =   0.0063492
        k(  127) = (  -0.4000000  -0.2390555   0.7245734), wk =   0.0063492
        k(  128) = (  -0.4000000   0.2390555  -0.7245734), wk =   0.0063492
        k(  129) = (   0.4000000  -0.2390555  -0.7245734), wk =   0.0063492
        k(  130) = (  -0.4000000  -0.2390555   0.9660979), wk =   0.0063492
        k(  131) = (  -0.4000000   0.2390555  -0.9660979), wk =   0.0063492
        k(  132) = (   0.4000000  -0.2390555  -0.9660979), wk =   0.0063492
        k(  133) = (  -0.4000000   0.4781110   0.0000000), wk =   0.0063492
        k(  134) = (  -0.4000000  -0.4781110   0.2415245), wk =   0.0063492
        k(  135) = (  -0.4000000   0.4781110  -0.2415245), wk =   0.0063492
        k(  136) = (   0.4000000  -0.4781110  -0.2415245), wk =   0.0063492
        k(  137) = (  -0.4000000  -0.4781110   0.4830489), wk =   0.0063492
        k(  138) = (  -0.4000000   0.4781110  -0.4830489), wk =   0.0063492
        k(  139) = (   0.4000000  -0.4781110  -0.4830489), wk =   0.0063492
        k(  140) = (  -0.4000000  -0.4781110   0.7245734), wk =   0.0063492
        k(  141) = (  -0.4000000   0.4781110  -0.7245734), wk =   0.0063492
        k(  142) = (   0.4000000  -0.4781110  -0.7245734), wk =   0.0063492
        k(  143) = (  -0.4000000  -0.4781110   0.9660979), wk =   0.0063492
        k(  144) = (  -0.4000000   0.4781110  -0.9660979), wk =   0.0063492
        k(  145) = (   0.4000000  -0.4781110  -0.9660979), wk =   0.0063492
        k(  146) = (  -0.4000000   0.7171664   0.0000000), wk =   0.0063492
        k(  147) = (  -0.4000000  -0.7171664   0.2415245), wk =   0.0063492
        k(  148) = (  -0.4000000   0.7171664  -0.2415245), wk =   0.0063492
        k(  149) = (   0.4000000  -0.7171664  -0.2415245), wk =   0.0063492
        k(  150) = (  -0.4000000  -0.7171664   0.4830489), wk =   0.0063492
        k(  151) = (  -0.4000000   0.7171664  -0.4830489), wk =   0.0063492
        k(  152) = (   0.4000000  -0.7171664  -0.4830489), wk =   0.0063492
        k(  153) = (  -0.4000000  -0.7171664   0.7245734), wk =   0.0063492
        k(  154) = (  -0.4000000   0.7171664  -0.7245734), wk =   0.0063492
        k(  155) = (   0.4000000  -0.7171664  -0.7245734), wk =   0.0063492
        k(  156) = (  -0.4000000  -0.7171664   0.9660979), wk =   0.0063492
        k(  157) = (  -0.4000000   0.7171664  -0.9660979), wk =   0.0063492
        k(  158) = (   0.4000000  -0.7171664  -0.9660979), wk =   0.0063492

                       cryst. coord.
        k(    1) = (   0.0000000   0.0000000   0.0000000), wk =   0.0031746
        k(    2) = (   0.0000000   0.0000000   0.1111111), wk =   0.0063492
        k(    3) = (   0.0000000   0.0000000   0.2222222), wk =   0.0063492
        k(    4) = (   0.0000000   0.0000000   0.3333333), wk =   0.0063492
        k(    5) = (   0.0000000   0.0000000   0.4444444), wk =   0.0063492
        k(    6) = (   0.0000000   0.1428571   0.0000000), wk =   0.0063492
        k(    7) = (   0.0000000   0.1428571   0.1111111), wk =   0.0063492
        k(    8) = (   0.0000000   0.1428571   0.2222222), wk =   0.0063492
        k(    9) = (   0.0000000   0.1428571   0.3333333), wk =   0.0063492
        k(   10) = (   0.0000000   0.1428571   0.4444444), wk =   0.0063492
        k(   11) = (   0.0000000   0.2857143   0.0000000), wk =   0.0063492
        k(   12) = (   0.0000000   0.2857143   0.1111111), wk =   0.0063492
        k(   13) = (   0.0000000   0.2857143   0.2222222), wk =   0.0063492
        k(   14) = (   0.0000000   0.2857143   0.3333333), wk =   0.0063492
        k(   15) = (   0.0000000   0.2857143   0.4444444), wk =   0.0063492
        k(   16) = (   0.0000000   0.4285714   0.0000000), wk =   0.0063492
        k(   17) = (   0.0000000   0.4285714   0.1111111), wk =   0.0063492
        k(   18) = (   0.0000000   0.4285714   0.2222222), wk =   0.0063492
        k(   19) = (   0.0000000   0.4285714   0.3333333), wk =   0.0063492
        k(   20) = (   0.0000000   0.4285714   0.4444444), wk =   0.0063492
        k(   21) = (   0.2000000   0.0000000   0.0000000), wk =   0.0063492
        k(   22) = (   0.2000000   0.0000000   0.1111111), wk =   0.0063492
        k(   23) = (   0.2000000   0.0000000   0.2222222), wk =   0.0063492
        k(   24) = (   0.2000000   0.0000000   0.3333333), wk =   0.0063492
        k(   25) = (   0.2000000   0.0000000   0.4444444), wk =   0.0063492
        k(   26) = (   0.2000000   0.1428571   0.0000000), wk =   0.0063492
        k(   27) = (   0.2000000   0.1428571   0.1111111), wk =   0.0063492
        k(   28) = (   0.2000000   0.1428571   0.2222222), wk =   0.0063492
        k(   29) = (   0.2000000   0.1428571   0.3333333), wk =   0.0063492
        k(   30) = (   0.2000000   0.1428571   0.4444444), wk =   0.0063492
        k(   31) = (   0.2000000   0.2857143   0.0000000), wk =   0.0063492
        k(   32) = (   0.2000000   0.2857143   0.1111111), wk =   0.0063492
        k(   33) = (   0.2000000   0.2857143   0.2222222), wk =   0.0063492
        k(   34) = (   0.2000000   0.2857143   0.3333333), wk =   0.0063492
        k(   35) = (   0.2000000   0.2857143   0.4444444), wk =   0.0063492
        k(   36) = (   0.2000000   0.4285714   0.0000000), wk =   0.0063492
        k(   37) = (   0.2000000   0.4285714   0.1111111), wk =   0.0063492
        k(   38) = (   0.2000000   0.4285714   0.2222222), wk =   0.0063492
        k(   39) = (   0.2000000   0.4285714   0.3333333), wk =   0.0063492
        k(   40) = (   0.2000000   0.4285714   0.4444444), wk =   0.0063492
        k(   41) = (   0.4000000   0.0000000   0.0000000), wk =   0.0063492
        k(   42) = (   0.4000000   0.0000000   0.1111111), wk =   0.0063492
        k(   43) = (   0.4000000   0.0000000   0.2222222), wk =   0.0063492
        k(   44) = (   0.4000000   0.0000000   0.3333333), wk =   0.0063492
        k(   45) = (   0.4000000   0.0000000   0.4444444), wk =   0.0063492
        k(   46) = (   0.4000000   0.1428571   0.0000000), wk =   0.0063492
        k(   47) = (   0.4000000   0.1428571   0.1111111), wk =   0.0063492
        k(   48) = (   0.4000000   0.1428571   0.2222222), wk =   0.0063492
        k(   49) = (   0.4000000   0.1428571   0.3333333), wk =   0.0063492
        k(   50) = (   0.4000000   0.1428571   0.4444444), wk =   0.0063492
        k(   51) = (   0.4000000   0.2857143   0.0000000), wk =   0.0063492
        k(   52) = (   0.4000000   0.2857143   0.1111111), wk =   0.0063492
        k(   53) = (   0.4000000   0.2857143   0.2222222), wk =   0.0063492
        k(   54) = (   0.4000000   0.2857143   0.3333333), wk =   0.0063492
        k(   55) = (   0.4000000   0.2857143   0.4444444), wk =   0.0063492
        k(   56) = (   0.4000000   0.4285714   0.0000000), wk =   0.0063492
        k(   57) = (   0.4000000   0.4285714   0.1111111), wk =   0.0063492
        k(   58) = (   0.4000000   0.4285714   0.2222222), wk =   0.0063492
        k(   59) = (   0.4000000   0.4285714   0.3333333), wk =   0.0063492
        k(   60) = (   0.4000000   0.4285714   0.4444444), wk =   0.0063492
        k(   61) = (   0.0000000  -0.1428571   0.1111111), wk =   0.0063492
        k(   62) = (   0.0000000  -0.1428571   0.2222222), wk =   0.0063492
        k(   63) = (   0.0000000  -0.1428571   0.3333333), wk =   0.0063492
        k(   64) = (   0.0000000  -0.1428571   0.4444444), wk =   0.0063492
        k(   65) = (   0.0000000  -0.2857143   0.1111111), wk =   0.0063492
        k(   66) = (   0.0000000  -0.2857143   0.2222222), wk =   0.0063492
        k(   67) = (   0.0000000  -0.2857143   0.3333333), wk =   0.0063492
        k(   68) = (   0.0000000  -0.2857143   0.4444444), wk =   0.0063492
        k(   69) = (   0.0000000  -0.4285714   0.1111111), wk =   0.0063492
        k(   70) = (   0.0000000  -0.4285714   0.2222222), wk =   0.0063492
        k(   71) = (   0.0000000  -0.4285714   0.3333333), wk =   0.0063492
        k(   72) = (   0.0000000  -0.4285714   0.4444444), wk =   0.0063492
        k(   73) = (  -0.2000000   0.0000000   0.1111111), wk =   0.0063492
        k(   74) = (  -0.2000000   0.0000000   0.2222222), wk =   0.0063492
        k(   75) = (  -0.2000000   0.0000000   0.3333333), wk =   0.0063492
        k(   76) = (  -0.2000000   0.0000000   0.4444444), wk =   0.0063492
        k(   77) = (  -0.2000000   0.1428571   0.0000000), wk =   0.0063492
        k(   78) = (  -0.2000000  -0.1428571   0.1111111), wk =   0.0063492
        k(   79) = (  -0.2000000   0.1428571  -0.1111111), wk =   0.0063492
        k(   80) = (   0.2000000  -0.1428571  -0.1111111), wk =   0.0063492
        k(   81) = (  -0.2000000  -0.1428571   0.2222222), wk =   0.0063492
        k(   82) = (  -0.2000000   0.1428571  -0.2222222), wk =   0.0063492
        k(   83) = (   0.2000000  -0.1428571  -0.2222222), wk =   0.0063492
        k(   84) = (  -0.2000000  -0.1428571   0.3333333), wk =   0.0063492
        k(   85) = (  -0.2000000   0.1428571  -0.3333333), wk =   0.0063492
        k(   86) = (   0.2000000  -0.1428571  -0.3333333), wk =   0.0063492
        k(   87) = (  -0.2000000  -0.1428571   0.4444444), wk =   0.0063492
        k(   88) = (  -0.2000000   0.1428571  -0.4444444), wk =   0.0063492
        k(   89) = (   0.2000000  -0.1428571  -0.4444444), wk =   0.0063492
        k(   90) = (  -0.2000000   0.2857143   0.0000000), wk =   0.0063492
        k(   91) = (  -0.2000000  -0.2857143   0.1111111), wk =   0.0063492
        k(   92) = (  -0.2000000   0.2857143  -0.1111111), wk =   0.0063492
        k(   93) = (   0.2000000  -0.2857143  -0.1111111), wk =   0.0063492
        k(   94) = (  -0.2000000  -0.2857143   0.2222222), wk =   0.0063492
        k(   95) = (  -0.2000000   0.2857143  -0.2222222), wk =   0.0063492
        k(   96) = (   0.2000000  -0.2857143  -0.2222222), wk =   0.0063492
        k(   97) = (  -0.2000000  -0.2857143   0.3333333), wk =   0.0063492
        k(   98) = (  -0.2000000   0.2857143  -0.3333333), wk =   0.0063492
        k(   99) = (   0.2000000  -0.2857143  -0.3333333), wk =   0.0063492
        k(  100) = (  -0.2000000  -0.2857143   0.4444444), wk =   0.0063492
        k(  101) = (  -0.2000000   0.2857143  -0.4444444), wk =   0.0063492
        k(  102) = (   0.2000000  -0.2857143  -0.4444444), wk =   0.0063492
        k(  103) = (  -0.2000000   0.4285714   0.0000000), wk =   0.0063492
        k(  104) = (  -0.2000000  -0.4285714   0.1111111), wk =   0.0063492
        k(  105) = (  -0.2000000   0.4285714  -0.1111111), wk =   0.0063492
        k(  106) = (   0.2000000  -0.4285714  -0.1111111), wk =   0.0063492
        k(  107) = (  -0.2000000  -0.4285714   0.2222222), wk =   0.0063492
        k(  108) = (  -0.2000000   0.4285714  -0.2222222), wk =   0.0063492
        k(  109) = (   0.2000000  -0.4285714  -0.2222222), wk =   0.0063492
        k(  110) = (  -0.2000000  -0.4285714   0.3333333), wk =   0.0063492
        k(  111) = (  -0.2000000   0.4285714  -0.3333333), wk =   0.0063492
        k(  112) = (   0.2000000  -0.4285714  -0.3333333), wk =   0.0063492
        k(  113) = (  -0.2000000  -0.4285714   0.4444444), wk =   0.0063492
        k(  114) = (  -0.2000000   0.4285714  -0.4444444), wk =   0.0063492
        k(  115) = (   0.2000000  -0.4285714  -0.4444444), wk =   0.0063492
        k(  116) = (  -0.4000000   0.0000000   0.1111111), wk =   0.0063492
        k(  117) = (  -0.4000000   0.0000000   0.2222222), wk =   0.0063492
        k(  118) = (  -0.4000000   0.0000000   0.3333333), wk =   0.0063492
        k(  119) = (  -0.4000000   0.0000000   0.4444444), wk =   0.0063492
        k(  120) = (  -0.4000000   0.1428571   0.0000000), wk =   0.0063492
        k(  121) = (  -0.4000000  -0.1428571   0.1111111), wk =   0.0063492
        k(  122) = (  -0.4000000   0.1428571  -0.1111111), wk =   0.0063492
        k(  123) = (   0.4000000  -0.1428571  -0.1111111), wk =   0.0063492
        k(  124) = (  -0.4000000  -0.1428571   0.2222222), wk =   0.0063492
        k(  125) = (  -0.4000000   0.1428571  -0.2222222), wk =   0.0063492
        k(  126) = (   0.4000000  -0.1428571  -0.2222222), wk =   0.0063492
        k(  127) = (  -0.4000000  -0.1428571   0.3333333), wk =   0.0063492
        k(  128) = (  -0.4000000   0.1428571  -0.3333333), wk =   0.0063492
        k(  129) = (   0.4000000  -0.1428571  -0.3333333), wk =   0.0063492
        k(  130) = (  -0.4000000  -0.1428571   0.4444444), wk =   0.0063492
        k(  131) = (  -0.4000000   0.1428571  -0.4444444), wk =   0.0063492
        k(  132) = (   0.4000000  -0.1428571  -0.4444444), wk =   0.0063492
        k(  133) = (  -0.4000000   0.2857143   0.0000000), wk =   0.0063492
        k(  134) = (  -0.4000000  -0.2857143   0.1111111), wk =   0.0063492
        k(  135) = (  -0.4000000   0.2857143  -0.1111111), wk =   0.0063492
        k(  136) = (   0.4000000  -0.2857143  -0.1111111), wk =   0.0063492
        k(  137) = (  -0.4000000  -0.2857143   0.2222222), wk =   0.0063492
        k(  138) = (  -0.4000000   0.2857143  -0.2222222), wk =   0.0063492
        k(  139) = (   0.4000000  -0.2857143  -0.2222222), wk =   0.0063492
        k(  140) = (  -0.4000000  -0.2857143   0.3333333), wk =   0.0063492
        k(  141) = (  -0.4000000   0.2857143  -0.3333333), wk =   0.0063492
        k(  142) = (   0.4000000  -0.2857143  -0.3333333), wk =   0.0063492
        k(  143) = (  -0.4000000  -0.2857143   0.4444444), wk =   0.0063492
        k(  144) = (  -0.4000000   0.2857143  -0.4444444), wk =   0.0063492
        k(  145) = (   0.4000000  -0.2857143  -0.4444444), wk =   0.0063492
        k(  146) = (  -0.4000000   0.4285714   0.0000000), wk =   0.0063492
        k(  147) = (  -0.4000000  -0.4285714   0.1111111), wk =   0.0063492
        k(  148) = (  -0.4000000   0.4285714  -0.1111111), wk =   0.0063492
        k(  149) = (   0.4000000  -0.4285714  -0.1111111), wk =   0.0063492
        k(  150) = (  -0.4000000  -0.4285714   0.2222222), wk =   0.0063492
        k(  151) = (  -0.4000000   0.4285714  -0.2222222), wk =   0.0063492
        k(  152) = (   0.4000000  -0.4285714  -0.2222222), wk =   0.0063492
        k(  153) = (  -0.4000000  -0.4285714   0.3333333), wk =   0.0063492
        k(  154) = (  -0.4000000   0.4285714  -0.3333333), wk =   0.0063492
        k(  155) = (   0.4000000  -0.4285714  -0.3333333), wk =   0.0063492
        k(  156) = (  -0.4000000  -0.4285714   0.4444444), wk =   0.0063492
        k(  157) = (  -0.4000000   0.4285714  -0.4444444), wk =   0.0063492
        k(  158) = (   0.4000000  -0.4285714  -0.4444444), wk =   0.0063492

     Dense  grid:  1382463 G-vectors     FFT dimensions: ( 216, 128, 100)

     Smooth grid:   311535 G-vectors     FFT dimensions: ( 135,  80,  60)

     Dynamical RAM for                 wfc:       2.12 MB

     Dynamical RAM for     wfc (w. buffer):     671.08 MB

     Dynamical RAM for           str. fact:       2.64 MB

     Dynamical RAM for           local pot:       0.00 MB

     Dynamical RAM for          nlocal pot:       5.20 MB

     Dynamical RAM for                qrad:      10.54 MB

     Dynamical RAM for          rho,v,vnew:       9.02 MB

     Dynamical RAM for               rhoin:       3.01 MB

     Dynamical RAM for            rho*nmix:      21.09 MB

     Dynamical RAM for           G-vectors:       2.55 MB

     Dynamical RAM for          h,s,v(r/c):       2.38 MB

     Dynamical RAM for          <psi|beta>:       0.49 MB

     Dynamical RAM for                 psi:       4.23 MB

     Dynamical RAM for                hpsi:       4.23 MB

     Dynamical RAM for                spsi:       4.23 MB

     Dynamical RAM for      wfcinit/wfcrot:       5.52 MB

     Dynamical RAM for           addusdens:     133.82 MB

     Dynamical RAM for          addusforce:     153.72 MB

     Dynamical RAM for         addusstress:     133.49 MB

     Estimated static dynamical RAM per process >     733.48 MB

     Estimated max dynamical RAM per process >     887.20 MB

     Estimated total dynamical RAM >      27.73 GB

     Check: negative core charge=   -0.000003
     Generating pointlists ...
     new r_m :   0.0754 (alat units)  1.5319 (a.u.) for type    1
     new r_m :   0.0907 (alat units)  1.8425 (a.u.) for type    2
     new r_m :   0.0591 (alat units)  1.2009 (a.u.) for type    3
     new r_m :   0.0591 (alat units)  1.2009 (a.u.) for type    4

     Initial potential from superposition of free atoms

     starting charge  188.99132, renormalised to  189.00000
     Starting wfcs are  137 randomized atomic wfcs
     Checking if some PAW data can be deallocated... 
       PAW data deallocated on   24 nodes for type:  1
       PAW data deallocated on   16 nodes for type:  3

     total cpu time spent up to now is     1348.6 secs

     Self-consistent Calculation

     iteration #  1     ecut=   100.00 Ry     beta= 0.40
     Davidson diagonalization with overlap
     ethr =  1.00E-02,  avg # of iterations =  3.0

     negative rho (up, down):  0.000E+00 1.008E-04

     total cpu time spent up to now is     4964.7 secs

     total energy              =   -2123.79619812 Ry
     estimated scf accuracy    <       7.04798364 Ry

     total magnetization       =    19.00 Bohr mag/cell
     absolute magnetization    =    19.00 Bohr mag/cell

     iteration #  2     ecut=   100.00 Ry     beta= 0.40
     Davidson diagonalization with overlap
     ethr =  3.73E-03,  avg # of iterations =  2.0

     negative rho (up, down):  0.000E+00 5.201E-05

     total cpu time spent up to now is     8415.7 secs

     total energy              =   -2121.20048549 Ry
     estimated scf accuracy    <      32.19730194 Ry

     total magnetization       =     7.60 Bohr mag/cell
     absolute magnetization    =     9.34 Bohr mag/cell

     iteration #  3     ecut=   100.00 Ry     beta= 0.40
     Davidson diagonalization with overlap
     ethr =  3.73E-03,  avg # of iterations =  2.1

     negative rho (up, down):  0.000E+00 4.945E-05

     total cpu time spent up to now is    11361.7 secs

     total energy              =   -2124.56206296 Ry
     estimated scf accuracy    <      30.74122764 Ry

     total magnetization       =    10.99 Bohr mag/cell
     absolute magnetization    =    12.22 Bohr mag/cell

     iteration #  4     ecut=   100.00 Ry     beta= 0.40
     Davidson diagonalization with overlap
     ethr =  3.73E-03,  avg # of iterations =  1.5

     negative rho (up, down):  0.000E+00 1.118E-04

     total cpu time spent up to now is    14126.6 secs

     total energy              =   -2125.74090661 Ry
     estimated scf accuracy    <       5.08504669 Ry

     total magnetization       =    17.28 Bohr mag/cell
     absolute magnetization    =    17.35 Bohr mag/cell

     iteration #  5     ecut=   100.00 Ry     beta= 0.40
     Davidson diagonalization with overlap
     ethr =  2.69E-03,  avg # of iterations =  1.0

     negative rho (up, down):  0.000E+00 1.338E-04

     total cpu time spent up to now is    16828.4 secs

     total energy              =   -2125.67270312 Ry
     estimated scf accuracy    <       8.73158274 Ry

     total magnetization       =    15.24 Bohr mag/cell
     absolute magnetization    =    15.51 Bohr mag/cell

     iteration #  6     ecut=   100.00 Ry     beta= 0.40
     Davidson diagonalization with overlap
     ethr =  2.69E-03,  avg # of iterations =  1.0

     negative rho (up, down):  0.000E+00 1.692E-04

     total cpu time spent up to now is    19539.4 secs

     total energy              =   -2125.97454661 Ry
     estimated scf accuracy    <       1.30962332 Ry

     total magnetization       =    19.00 Bohr mag/cell
     absolute magnetization    =    19.01 Bohr mag/cell

     iteration #  7     ecut=   100.00 Ry     beta= 0.40
     Davidson diagonalization with overlap
     ethr =  6.93E-04,  avg # of iterations =  1.0

     negative rho (up, down):  0.000E+00 3.112E-04

     total cpu time spent up to now is    22244.7 secs

     total energy              =   -2126.04400836 Ry
     estimated scf accuracy    <       1.11754389 Ry

     total magnetization       =    19.01 Bohr mag/cell
     absolute magnetization    =    19.01 Bohr mag/cell

     iteration #  8     ecut=   100.00 Ry     beta= 0.40
     Davidson diagonalization with overlap
     ethr =  5.91E-04,  avg # of iterations =  1.0

     negative rho (up, down):  0.000E+00 4.714E-04

     total cpu time spent up to now is    24951.3 secs

     total energy              =   -2126.01843329 Ry
     estimated scf accuracy    <       0.40924721 Ry

     total magnetization       =    19.00 Bohr mag/cell
     absolute magnetization    =    19.00 Bohr mag/cell

     iteration #  9     ecut=   100.00 Ry     beta= 0.40
     Davidson diagonalization with overlap
     ethr =  2.17E-04,  avg # of iterations =  2.4

     negative rho (up, down):  0.000E+00 7.339E-04

     total cpu time spent up to now is    27794.1 secs

     total energy              =   -2126.01827786 Ry
     estimated scf accuracy    <       0.36454394 Ry

     total magnetization       =    19.00 Bohr mag/cell
     absolute magnetization    =    19.01 Bohr mag/cell

     iteration # 10     ecut=   100.00 Ry     beta= 0.40
     Davidson diagonalization with overlap
     ethr =  1.93E-04,  avg # of iterations =  2.4

     negative rho (up, down):  0.000E+00 7.955E-04

     total cpu time spent up to now is    30653.5 secs

     total energy              =   -2126.03878451 Ry
     estimated scf accuracy    <       0.21976391 Ry

     total magnetization       =    19.00 Bohr mag/cell
     absolute magnetization    =    19.02 Bohr mag/cell

     iteration # 11     ecut=   100.00 Ry     beta= 0.40
     Davidson diagonalization with overlap
     ethr =  1.16E-04,  avg # of iterations =  1.7

     negative rho (up, down):  0.000E+00 8.610E-04

     total cpu time spent up to now is    33428.7 secs

     total energy              =   -2126.03661350 Ry
     estimated scf accuracy    <       0.13451361 Ry

     total magnetization       =    19.00 Bohr mag/cell
     absolute magnetization    =    19.03 Bohr mag/cell

     iteration # 12     ecut=   100.00 Ry     beta= 0.40
     Davidson diagonalization with overlap
     c_bands:  1 eigenvalues not converged
     c_bands:  1 eigenvalues not converged
     c_bands:  1 eigenvalues not converged
     c_bands:  1 eigenvalues not converged
     c_bands:  2 eigenvalues not converged
     c_bands:  2 eigenvalues not converged
     c_bands:  1 eigenvalues not converged
     c_bands:  1 eigenvalues not converged
     c_bands:  1 eigenvalues not converged
     c_bands:  2 eigenvalues not converged
     c_bands:  1 eigenvalues not converged
     ethr =  7.12E-05,  avg # of iterations =  9.1

     negative rho (up, down):  0.000E+00 9.008E-04

     total cpu time spent up to now is    36910.8 secs

     total energy              =   -2126.04111019 Ry
     estimated scf accuracy    <       0.08598161 Ry

     total magnetization       =    19.00 Bohr mag/cell
     absolute magnetization    =    19.04 Bohr mag/cell

     iteration # 13     ecut=   100.00 Ry     beta= 0.40
     Davidson diagonalization with overlap
     c_bands:  1 eigenvalues not converged
     c_bands:  1 eigenvalues not converged
     c_bands:  1 eigenvalues not converged
     c_bands:  1 eigenvalues not converged
     c_bands:  1 eigenvalues not converged
     c_bands:  1 eigenvalues not converged
     c_bands:  1 eigenvalues not converged
     c_bands:  1 eigenvalues not converged
     c_bands:  1 eigenvalues not converged
     c_bands:  1 eigenvalues not converged
     ethr =  4.55E-05,  avg # of iterations =  5.3

     negative rho (up, down):  0.000E+00 9.153E-04

     total cpu time spent up to now is    40035.2 secs

     total energy              =   -2126.04268533 Ry
     estimated scf accuracy    <       0.00120715 Ry

     total magnetization       =    19.00 Bohr mag/cell
     absolute magnetization    =    19.04 Bohr mag/cell

     iteration # 14     ecut=   100.00 Ry     beta= 0.40
     Davidson diagonalization with overlap
     c_bands:  1 eigenvalues not converged
     c_bands:  2 eigenvalues not converged
     c_bands:  2 eigenvalues not converged
     c_bands:  1 eigenvalues not converged
     c_bands:  3 eigenvalues not converged
     c_bands:  4 eigenvalues not converged
     c_bands:  1 eigenvalues not converged
     c_bands:  1 eigenvalues not converged
     c_bands:  1 eigenvalues not converged
     c_bands:  1 eigenvalues not converged
     c_bands:  1 eigenvalues not converged
     c_bands:  1 eigenvalues not converged
     c_bands:  1 eigenvalues not converged
     c_bands:  1 eigenvalues not converged
     c_bands:  2 eigenvalues not converged
     c_bands:  1 eigenvalues not converged
     c_bands:  1 eigenvalues not converged
     c_bands:  1 eigenvalues not converged
     c_bands:  1 eigenvalues not converged
     c_bands:  1 eigenvalues not converged
     c_bands:  2 eigenvalues not converged
     c_bands:  1 eigenvalues not converged
     c_bands:  3 eigenvalues not converged
     c_bands:  2 eigenvalues not converged
     c_bands:  2 eigenvalues not converged
     c_bands:  1 eigenvalues not converged
     c_bands:  1 eigenvalues not converged
     c_bands:  1 eigenvalues not converged
     c_bands:  1 eigenvalues not converged
     c_bands:  3 eigenvalues not converged
     c_bands:  2 eigenvalues not converged
     c_bands:  3 eigenvalues not converged
     c_bands:  1 eigenvalues not converged
     c_bands:  1 eigenvalues not converged
     c_bands:  1 eigenvalues not converged
     c_bands:  1 eigenvalues not converged
     c_bands:  1 eigenvalues not converged
     c_bands:  2 eigenvalues not converged
     c_bands:  1 eigenvalues not converged
     c_bands:  1 eigenvalues not converged
     c_bands:  1 eigenvalues not converged
     c_bands:  1 eigenvalues not converged
     c_bands:  2 eigenvalues not converged
     c_bands:  2 eigenvalues not converged
     c_bands:  3 eigenvalues not converged
     c_bands:  2 eigenvalues not converged
     c_bands:  1 eigenvalues not converged
     c_bands:  1 eigenvalues not converged
     c_bands:  1 eigenvalues not converged
     c_bands:  1 eigenvalues not converged
     c_bands:  1 eigenvalues not converged
     c_bands:  2 eigenvalues not converged
     c_bands:  1 eigenvalues not converged
     c_bands:  1 eigenvalues not converged
     c_bands:  1 eigenvalues not converged
     c_bands:  1 eigenvalues not converged
     c_bands:  2 eigenvalues not converged
     c_bands:  2 eigenvalues not converged
     c_bands:  2 eigenvalues not converged
     c_bands:  1 eigenvalues not converged
     c_bands:  1 eigenvalues not converged
     c_bands:  1 eigenvalues not converged
     c_bands:  1 eigenvalues not converged
     c_bands:  1 eigenvalues not converged
     c_bands:  1 eigenvalues not converged
     c_bands:  1 eigenvalues not converged
     c_bands:  1 eigenvalues not converged
     c_bands:  2 eigenvalues not converged
     c_bands:  1 eigenvalues not converged
     c_bands:  1 eigenvalues not converged
     c_bands:  2 eigenvalues not converged
     c_bands:  1 eigenvalues not converged
     c_bands:  2 eigenvalues not converged
     c_bands:  1 eigenvalues not converged
     c_bands:  2 eigenvalues not converged
     c_bands:  1 eigenvalues not converged
     c_bands:  1 eigenvalues not converged
     c_bands:  1 eigenvalues not converged
     c_bands:  1 eigenvalues not converged
     c_bands:  2 eigenvalues not converged
     c_bands:  2 eigenvalues not converged
     c_bands:  1 eigenvalues not converged
     c_bands:  1 eigenvalues not converged
     c_bands:  1 eigenvalues not converged
     c_bands:  1 eigenvalues not converged
     c_bands:  1 eigenvalues not converged
     c_bands:  1 eigenvalues not converged
     c_bands:  1 eigenvalues not converged
     c_bands:  1 eigenvalues not converged
     c_bands:  1 eigenvalues not converged
     c_bands:  1 eigenvalues not converged
     c_bands:  1 eigenvalues not converged
     c_bands:  1 eigenvalues not converged
     c_bands:  2 eigenvalues not converged
     c_bands:  1 eigenvalues not converged
     c_bands:  1 eigenvalues not converged
     c_bands:  1 eigenvalues not converged
     c_bands:  1 eigenvalues not converged
     c_bands:  1 eigenvalues not converged
     c_bands:  1 eigenvalues not converged
     c_bands:  1 eigenvalues not converged
     c_bands:  2 eigenvalues not converged
     c_bands:  2 eigenvalues not converged
     c_bands:  2 eigenvalues not converged
     c_bands:  1 eigenvalues not converged
     c_bands:  1 eigenvalues not converged
     c_bands:  1 eigenvalues not converged
     c_bands:  1 eigenvalues not converged
     c_bands:  1 eigenvalues not converged
     c_bands:  1 eigenvalues not converged
     c_bands:  1 eigenvalues not converged
     c_bands:  1 eigenvalues not converged
     c_bands:  1 eigenvalues not converged
     c_bands:  2 eigenvalues not converged
     c_bands:  1 eigenvalues not converged
     c_bands:  1 eigenvalues not converged
     c_bands:  1 eigenvalues not converged
     c_bands:  1 eigenvalues not converged
     c_bands:  1 eigenvalues not converged
     c_bands:  2 eigenvalues not converged
     ethr =  6.39E-07,  avg # of iterations = 17.4

     negative rho (up, down):  0.000E+00 8.974E-04

     total cpu time spent up to now is    47612.6 secs

     total energy              =   -2126.04387567 Ry
     estimated scf accuracy    <       0.00118538 Ry

     total magnetization       =    19.00 Bohr mag/cell
     absolute magnetization    =    19.05 Bohr mag/cell

     iteration # 15     ecut=   100.00 Ry     beta= 0.40
     Davidson diagonalization with overlap
     c_bands:  1 eigenvalues not converged
     c_bands:  1 eigenvalues not converged
     c_bands:  1 eigenvalues not converged
     c_bands:  1 eigenvalues not converged
     c_bands:  1 eigenvalues not converged
     c_bands:  2 eigenvalues not converged
     ethr =  6.27E-07,  avg # of iterations =  2.8

     negative rho (up, down):  0.000E+00 8.893E-04

     total cpu time spent up to now is    50475.3 secs

     total energy              =   -2126.04390597 Ry
     estimated scf accuracy    <       0.00042259 Ry

     total magnetization       =    19.00 Bohr mag/cell
     absolute magnetization    =    19.05 Bohr mag/cell

     iteration # 16     ecut=   100.00 Ry     beta= 0.40
     Davidson diagonalization with overlap
     ethr =  2.24E-07,  avg # of iterations =  1.1

     negative rho (up, down):  0.000E+00 8.835E-04

     total cpu time spent up to now is    53186.3 secs

     total energy              =   -2126.04391198 Ry
     estimated scf accuracy    <       0.00017363 Ry

     total magnetization       =    19.00 Bohr mag/cell
     absolute magnetization    =    19.05 Bohr mag/cell

     iteration # 17     ecut=   100.00 Ry     beta= 0.40
     Davidson diagonalization with overlap
     ethr =  9.19E-08,  avg # of iterations =  1.0

     negative rho (up, down):  0.000E+00 8.805E-04

     total cpu time spent up to now is    55885.1 secs

     total energy              =   -2126.04392366 Ry
     estimated scf accuracy    <       0.00024132 Ry

     total magnetization       =    19.00 Bohr mag/cell
     absolute magnetization    =    19.05 Bohr mag/cell

     iteration # 18     ecut=   100.00 Ry     beta= 0.40
     Davidson diagonalization with overlap
     ethr =  9.19E-08,  avg # of iterations =  1.0

     negative rho (up, down):  0.000E+00 8.787E-04

     total cpu time spent up to now is    58591.0 secs

     total energy              =   -2126.04392668 Ry
     estimated scf accuracy    <       0.00005217 Ry

     total magnetization       =    19.00 Bohr mag/cell
     absolute magnetization    =    19.05 Bohr mag/cell

     iteration # 19     ecut=   100.00 Ry     beta= 0.40
     Davidson diagonalization with overlap
     ethr =  2.76E-08,  avg # of iterations =  1.0

     negative rho (up, down):  0.000E+00 8.800E-04

     total cpu time spent up to now is    61293.4 secs

     total energy              =   -2126.04392850 Ry
     estimated scf accuracy    <       0.00000951 Ry

     total magnetization       =    19.00 Bohr mag/cell
     absolute magnetization    =    19.05 Bohr mag/cell

     iteration # 20     ecut=   100.00 Ry     beta= 0.40
     Davidson diagonalization with overlap
     ethr =  5.03E-09,  avg # of iterations =  2.4

     negative rho (up, down):  0.000E+00 8.779E-04

     total cpu time spent up to now is    64191.5 secs

     total energy              =   -2126.04392939 Ry
     estimated scf accuracy    <       0.00002477 Ry

     total magnetization       =    19.00 Bohr mag/cell
     absolute magnetization    =    19.05 Bohr mag/cell

     iteration # 21     ecut=   100.00 Ry     beta= 0.40
     Davidson diagonalization with overlap
     ethr =  5.03E-09,  avg # of iterations =  1.0

     negative rho (up, down):  0.000E+00 8.785E-04

     total cpu time spent up to now is    66896.3 secs

     total energy              =   -2126.04393024 Ry
     estimated scf accuracy    <       0.00000185 Ry

     total magnetization       =    19.00 Bohr mag/cell
     absolute magnetization    =    19.05 Bohr mag/cell

     iteration # 22     ecut=   100.00 Ry     beta= 0.40
     Davidson diagonalization with overlap
     ethr =  9.79E-10,  avg # of iterations =  4.0

     negative rho (up, down):  0.000E+00 8.790E-04

     total cpu time spent up to now is    70301.6 secs

     total energy              =   -2126.04393074 Ry
     estimated scf accuracy    <       0.00000065 Ry

     total magnetization       =    19.00 Bohr mag/cell
     absolute magnetization    =    19.05 Bohr mag/cell

     iteration # 23     ecut=   100.00 Ry     beta= 0.40
     Davidson diagonalization with overlap
     ethr =  3.43E-10,  avg # of iterations =  2.7

     negative rho (up, down):  0.000E+00 8.792E-04

     total cpu time spent up to now is    73350.0 secs

     total energy              =   -2126.04393087 Ry
     estimated scf accuracy    <       0.00000019 Ry

     total magnetization       =    19.00 Bohr mag/cell
     absolute magnetization    =    19.05 Bohr mag/cell

     iteration # 24     ecut=   100.00 Ry     beta= 0.40
     Davidson diagonalization with overlap
     ethr =  9.85E-11,  avg # of iterations =  2.8

     negative rho (up, down):  0.000E+00 8.794E-04

     total cpu time spent up to now is    76548.2 secs

     total energy              =   -2126.04393094 Ry
     estimated scf accuracy    <       0.00000014 Ry

     total magnetization       =    19.00 Bohr mag/cell
     absolute magnetization    =    19.05 Bohr mag/cell

     iteration # 25     ecut=   100.00 Ry     beta= 0.40
     Davidson diagonalization with overlap
     ethr =  7.56E-11,  avg # of iterations =  1.4

     negative rho (up, down):  0.000E+00 8.794E-04

     total cpu time spent up to now is    79292.3 secs

     total energy              =   -2126.04393096 Ry
     estimated scf accuracy    <       0.00000005 Ry

     total magnetization       =    19.00 Bohr mag/cell
     absolute magnetization    =    19.05 Bohr mag/cell

     iteration # 26     ecut=   100.00 Ry     beta= 0.40
     Davidson diagonalization with overlap
     ethr =  2.53E-11,  avg # of iterations =  2.3

     negative rho (up, down):  0.000E+00 8.791E-04

     total cpu time spent up to now is    82200.3 secs

     total energy              =   -2126.04393097 Ry
     estimated scf accuracy    <       0.00000001 Ry

     total magnetization       =    19.00 Bohr mag/cell
     absolute magnetization    =    19.05 Bohr mag/cell

     iteration # 27     ecut=   100.00 Ry     beta= 0.40
     Davidson diagonalization with overlap
     ethr =  5.73E-12,  avg # of iterations =  3.2

     negative rho (up, down):  0.000E+00 8.791E-04

     total cpu time spent up to now is    85624.6 secs

     total energy              =   -2126.04393098 Ry
     estimated scf accuracy    <       0.00000002 Ry

     total magnetization       =    19.00 Bohr mag/cell
     absolute magnetization    =    19.05 Bohr mag/cell

     iteration # 28     ecut=   100.00 Ry     beta= 0.40
     Davidson diagonalization with overlap
     ethr =  5.73E-12,  avg # of iterations =  2.0

     negative rho (up, down):  0.000E+00 8.791E-04

     total cpu time spent up to now is    88489.6 secs

     total energy              =   -2126.04393098 Ry
     estimated scf accuracy    <       0.00000002 Ry

     total magnetization       =    19.00 Bohr mag/cell
     absolute magnetization    =    19.05 Bohr mag/cell

     iteration # 29     ecut=   100.00 Ry     beta= 0.40
     Davidson diagonalization with overlap
     ethr =  5.73E-12,  avg # of iterations =  1.1

     negative rho (up, down):  0.000E+00 8.791E-04

     total cpu time spent up to now is    91199.6 secs

     total energy              =   -2126.04393098 Ry
     estimated scf accuracy    <          2.6E-09 Ry

     total magnetization       =    19.00 Bohr mag/cell
     absolute magnetization    =    19.05 Bohr mag/cell

     iteration # 30     ecut=   100.00 Ry     beta= 0.40
     Davidson diagonalization with overlap
     ethr =  1.38E-12,  avg # of iterations =  2.0

     negative rho (up, down):  0.000E+00 8.791E-04

     total cpu time spent up to now is    94051.9 secs

     total energy              =   -2126.04393098 Ry
     estimated scf accuracy    <       0.00000002 Ry

     total magnetization       =    19.00 Bohr mag/cell
     absolute magnetization    =    19.05 Bohr mag/cell

     iteration # 31     ecut=   100.00 Ry     beta= 0.40
     Davidson diagonalization with overlap
     ethr =  1.38E-12,  avg # of iterations =  2.0

     negative rho (up, down):  0.000E+00 8.791E-04

     total cpu time spent up to now is    96926.2 secs

     total energy              =   -2126.04393098 Ry
     estimated scf accuracy    <          2.0E-09 Ry

     total magnetization       =    19.00 Bohr mag/cell
     absolute magnetization    =    19.05 Bohr mag/cell

     iteration # 32     ecut=   100.00 Ry     beta= 0.40
     Davidson diagonalization with overlap
     ethr =  1.03E-12,  avg # of iterations =  1.9

     negative rho (up, down):  0.000E+00 8.791E-04

     total cpu time spent up to now is    99738.8 secs

     total energy              =   -2126.04393099 Ry
     estimated scf accuracy    <          1.7E-09 Ry

     total magnetization       =    19.00 Bohr mag/cell
     absolute magnetization    =    19.05 Bohr mag/cell

     iteration # 33     ecut=   100.00 Ry     beta= 0.40
     Davidson diagonalization with overlap
     ethr =  8.75E-13,  avg # of iterations =  1.0

     negative rho (up, down):  0.000E+00 8.791E-04

     total cpu time spent up to now is   102444.6 secs

     total energy              =   -2126.04393099 Ry
     estimated scf accuracy    <          2.5E-10 Ry

     total magnetization       =    19.00 Bohr mag/cell
     absolute magnetization    =    19.05 Bohr mag/cell

     iteration # 34     ecut=   100.00 Ry     beta= 0.40
     Davidson diagonalization with overlap
     ethr =  1.34E-13,  avg # of iterations =  3.3

     negative rho (up, down):  0.000E+00 8.791E-04

     Magnetic moment per site:
     atom:    1    charge:    7.9681    magn:    0.0015    constr:    0.0000
     atom:    2    charge:   12.9779    magn:    3.6431    constr:    0.0000
     atom:    3    charge:   12.9715    magn:    3.6610    constr:    0.0000
     atom:    4    charge:   12.9659    magn:    3.6839    constr:    0.0000
     atom:    5    charge:   12.9843    magn:    3.6175    constr:    0.0000
     atom:    6    charge:    0.8264    magn:    0.0086    constr:    0.0000
     atom:    7    charge:    0.8237    magn:    0.0108    constr:    0.0000
     atom:    8    charge:    0.8312    magn:    0.0105    constr:    0.0000
     atom:    9    charge:    0.8227    magn:    0.0110    constr:    0.0000
     atom:   10    charge:    4.2403    magn:    0.1568    constr:    0.0000
     atom:   11    charge:    4.2594    magn:    0.1118    constr:    0.0000
     atom:   12    charge:    4.2712    magn:    0.1087    constr:    0.0000
     atom:   13    charge:    4.2642    magn:    0.1090    constr:    0.0000
     atom:   14    charge:    4.2239    magn:    0.1194    constr:    0.0000
     atom:   15    charge:    4.2180    magn:    0.1047    constr:    0.0000
     atom:   16    charge:    4.2295    magn:    0.1266    constr:    0.0000
     atom:   17    charge:    4.2284    magn:    0.0897    constr:    0.0000
     atom:   18    charge:    4.2467    magn:    0.1263    constr:    0.0000
     atom:   19    charge:    4.2247    magn:    0.1418    constr:    0.0000
     atom:   20    charge:    4.2253    magn:    0.1146    constr:    0.0000
     atom:   21    charge:    4.2231    magn:    0.1505    constr:    0.0000
     atom:   22    charge:    4.2458    magn:    0.1301    constr:    0.0000
     atom:   23    charge:    4.2273    magn:    0.1441    constr:    0.0000
     atom:   24    charge:    4.2269    magn:    0.1185    constr:    0.0000
     atom:   25    charge:    4.2359    magn:    0.1579    constr:    0.0000

     total cpu time spent up to now is   105530.2 secs

     End of self-consistent calculation

 ------ SPIN UP ------------


          k = 0.0000 0.0000 0.0000 ( 38991 PWs)   bands (ev):

   -86.1122 -86.0470 -85.8815 -85.7156 -52.1889 -52.1608 -52.1054 -52.1005
   -52.0188 -51.9961 -51.9480 -51.9192 -51.8527 -51.6864 -51.6698 -51.5345
   -45.2167 -17.2556 -17.1897 -17.1739 -16.5538 -16.3726 -16.3053 -16.1732
   -14.3578 -14.2386 -14.1847 -14.0570 -14.0321 -14.0144 -13.9903 -13.9142
   -13.8969 -13.8159 -13.8111 -13.7034  -4.9319  -4.5041  -4.2849  -4.0891
    -2.7567  -2.6202  -2.3901  -2.3040  -1.9613  -1.8806  -1.7319  -1.7160
    -1.6381  -1.6054  -1.4928  -1.3827  -0.7246  -0.6255  -0.4617  -0.2312
    -0.2277  -0.1642  -0.0288   0.0580   0.0751   0.1185   0.1997   0.2382
     0.4521   0.6887   0.7244   0.7647   0.9086   1.0155   1.1053   1.2427
     1.3355   1.3856   1.4157   1.4378   1.5861   1.6657   1.7178   1.7853
     1.8517   1.9975   2.0467   2.1099   2.2374   2.2700   2.4102   2.4906
     2.6453   2.7002   2.8239   2.8549   2.9512   2.9945   3.1108   3.1673
     3.2319   3.2537   3.3713   3.4642   3.4987   3.5526   3.8296   4.1147
     7.8950   9.7924  10.1682  10.6239  11.0934  11.8129  11.9749  12.1362
    12.2367  12.2434

     occupation numbers 
     1.0000   1.0000   1.0000   1.0000   1.0000   1.0000   1.0000   1.0000
     1.0000   1.0000   1.0000   1.0000   1.0000   1.0000   1.0000   1.0000
     1.0000   1.0000   1.0000   1.0000   1.0000   1.0000   1.0000   1.0000
     1.0000   1.0000   1.0000   1.0000   1.0000   1.0000   1.0000   1.0000
     1.0000   1.0000   1.0000   1.0000   1.0000   1.0000   1.0000   1.0000
     1.0000   1.0000   1.0000   1.0000   1.0000   1.0000   1.0000   1.0000
     1.0000   1.0000   1.0000   1.0000   1.0000   1.0000   1.0000   1.0000
     1.0000   1.0000   1.0000   1.0000   1.0000   1.0000   1.0000   1.0000
     1.0000   1.0000   1.0000   1.0000   1.0000   1.0000   1.0000   1.0000
     1.0000   1.0000   1.0000   1.0000   1.0000   1.0000   1.0000   1.0000
     1.0000   1.0000   1.0000   1.0000   1.0000   1.0000   1.0000   1.0000
     1.0000   1.0000   1.0000   1.0000   1.0000   1.0000   1.0000   1.0000
     1.0000   1.0000   1.0000   1.0000   1.0000   1.0000   1.0000   1.0000
     0.0000   0.0000   0.0000   0.0000   0.0000   0.0000   0.0000   0.0000
     0.0000   0.0000

          k = 0.0000 0.0000 0.2415 ( 38977 PWs)   bands (ev):

   -86.1122 -86.0470 -85.8815 -85.7156 -52.1889 -52.1608 -52.1054 -52.1005
   -52.0188 -51.9961 -51.9480 -51.9192 -51.8527 -51.6865 -51.6698 -51.5345
   -45.2167 -17.2564 -17.1914 -17.1742 -16.5393 -16.3660 -16.2954 -16.1697
   -14.3742 -14.2428 -14.2034 -14.0657 -14.0409 -14.0166 -13.9841 -13.9160
   -13.8988 -13.8180 -13.8072 -13.7045  -4.9021  -4.4892  -4.2803  -4.0776
    -2.7419  -2.6107  -2.3971  -2.2725  -1.9635  -1.8783  -1.7419  -1.7066
    -1.6315  -1.5876  -1.5260  -1.3564  -0.7092  -0.6102  -0.4665  -0.2530
    -0.2293  -0.1341  -0.0573   0.0065   0.1006   0.1431   0.1974   0.2496
     0.4286   0.6611   0.7227   0.7884   0.9008   1.0049   1.1264   1.2394
     1.3146   1.3736   1.4188   1.4688   1.5341   1.6459   1.6937   1.8191
     1.8405   1.9901   2.0495   2.1105   2.2144   2.2349   2.4154   2.5010
     2.6205   2.7129   2.8033   2.8688   2.9231   2.9898   3.1065   3.1470
     3.2394   3.2755   3.3590   3.4646   3.5005   3.5562   3.8309   4.1090
     8.0356   9.8575  10.2094  10.6552  11.1245  11.7652  11.9093  12.0982
    12.1647  12.2316

     occupation numbers 
     1.0000   1.0000   1.0000   1.0000   1.0000   1.0000   1.0000   1.0000
     1.0000   1.0000   1.0000   1.0000   1.0000   1.0000   1.0000   1.0000
     1.0000   1.0000   1.0000   1.0000   1.0000   1.0000   1.0000   1.0000
     1.0000   1.0000   1.0000   1.0000   1.0000   1.0000   1.0000   1.0000
     1.0000   1.0000   1.0000   1.0000   1.0000   1.0000   1.0000   1.0000
     1.0000   1.0000   1.0000   1.0000   1.0000   1.0000   1.0000   1.0000
     1.0000   1.0000   1.0000   1.0000   1.0000   1.0000   1.0000   1.0000
     1.0000   1.0000   1.0000   1.0000   1.0000   1.0000   1.0000   1.0000
     1.0000   1.0000   1.0000   1.0000   1.0000   1.0000   1.0000   1.0000
     1.0000   1.0000   1.0000   1.0000   1.0000   1.0000   1.0000   1.0000
     1.0000   1.0000   1.0000   1.0000   1.0000   1.0000   1.0000   1.0000
     1.0000   1.0000   1.0000   1.0000   1.0000   1.0000   1.0000   1.0000
     1.0000   1.0000   1.0000   1.0000   1.0000   1.0000   1.0000   1.0000
     0.0000   0.0000   0.0000   0.0000   0.0000   0.0000   0.0000   0.0000
     0.0000   0.0000

          k = 0.0000 0.0000 0.4830 ( 38986 PWs)   bands (ev):

   -86.1122 -86.0470 -85.8815 -85.7156 -52.1889 -52.1608 -52.1054 -52.1005
   -52.0188 -51.9961 -51.9480 -51.9192 -51.8527 -51.6865 -51.6698 -51.5345
   -45.2167 -17.2590 -17.1951 -17.1744 -16.5007 -16.3501 -16.2685 -16.1624
   -14.4152 -14.2668 -14.2369 -14.0992 -14.0695 -14.0018 -13.9738 -13.9219
   -13.8962 -13.8214 -13.8035 -13.7087  -4.8233  -4.4489  -4.2674  -4.0606
    -2.7151  -2.5784  -2.3733  -2.2306  -1.9727  -1.8769  -1.7553  -1.6942
    -1.6144  -1.5769  -1.5195  -1.3346  -0.6846  -0.5646  -0.4507  -0.2914
    -0.2275  -0.1253  -0.0732  -0.0045   0.0886   0.1677   0.2069   0.2921
     0.3903   0.6287   0.6783   0.8082   0.8927   0.9842   1.1098   1.2203
     1.2764   1.3302   1.3962   1.4562   1.4997   1.6272   1.6871   1.7967
     1.8540   1.9702   2.0300   2.0550   2.1232   2.2233   2.4371   2.5048
     2.5900   2.7192   2.7955   2.8650   2.9235   2.9572   3.1186   3.1317
     3.2292   3.3080   3.3572   3.4577   3.5147   3.5529   3.8360   4.0960
     8.4126  10.0191  10.2999  10.7434  11.2036  11.5358  11.8039  11.9867
    12.1066  12.1940

     occupation numbers 
     1.0000   1.0000   1.0000   1.0000   1.0000   1.0000   1.0000   1.0000
     1.0000   1.0000   1.0000   1.0000   1.0000   1.0000   1.0000   1.0000
     1.0000   1.0000   1.0000   1.0000   1.0000   1.0000   1.0000   1.0000
     1.0000   1.0000   1.0000   1.0000   1.0000   1.0000   1.0000   1.0000
     1.0000   1.0000   1.0000   1.0000   1.0000   1.0000   1.0000   1.0000
     1.0000   1.0000   1.0000   1.0000   1.0000   1.0000   1.0000   1.0000
     1.0000   1.0000   1.0000   1.0000   1.0000   1.0000   1.0000   1.0000
     1.0000   1.0000   1.0000   1.0000   1.0000   1.0000   1.0000   1.0000
     1.0000   1.0000   1.0000   1.0000   1.0000   1.0000   1.0000   1.0000
     1.0000   1.0000   1.0000   1.0000   1.0000   1.0000   1.0000   1.0000
     1.0000   1.0000   1.0000   1.0000   1.0000   1.0000   1.0000   1.0000
     1.0000   1.0000   1.0000   1.0000   1.0000   1.0000   1.0000   1.0000
     1.0000   1.0000   1.0000   1.0000   1.0000   1.0000   1.0000   1.0000
     0.0000   0.0000   0.0000   0.0000   0.0000   0.0000   0.0000   0.0000
     0.0000   0.0000

          k = 0.0000 0.0000 0.7246 ( 39012 PWs)   bands (ev):

   -86.1122 -86.0470 -85.8815 -85.7156 -52.1889 -52.1608 -52.1054 -52.1005
   -52.0188 -51.9961 -51.9480 -51.9192 -51.8527 -51.6865 -51.6698 -51.5345
   -45.2167 -17.2629 -17.1984 -17.1742 -16.4516 -16.3350 -16.2329 -16.1587
   -14.4609 -14.3178 -14.2533 -14.1470 -14.0930 -13.9867 -13.9647 -13.9189
   -13.8913 -13.8269 -13.8034 -13.7159  -4.7262  -4.3970  -4.2525  -4.0641
    -2.7003  -2.5288  -2.3105  -2.2120  -1.9886  -1.8748  -1.7824  -1.6982
    -1.5905  -1.5368  -1.4715  -1.3467  -0.6820  -0.5006  -0.3752  -0.3267
    -0.2112  -0.1286  -0.0622   0.0216   0.1100   0.2034   0.2321   0.2985
     0.3829   0.5714   0.6280   0.7838   0.8615   0.9395   1.0349   1.1002
     1.1820   1.2766   1.4308   1.4797   1.5138   1.5932   1.6146   1.7744
     1.8446   1.9118   1.9217   2.0397   2.0856   2.2656   2.4487   2.4830
     2.5832   2.7325   2.7698   2.8346   2.9551   2.9901   3.1104   3.1607
     3.2254   3.3032   3.3951   3.4486   3.5249   3.5439   3.8434   4.0822
     8.9304  10.1445  10.4057  10.8471  11.0721  11.4633  11.6933  11.8582
    12.0117  12.1002

     occupation numbers 
     1.0000   1.0000   1.0000   1.0000   1.0000   1.0000   1.0000   1.0000
     1.0000   1.0000   1.0000   1.0000   1.0000   1.0000   1.0000   1.0000
     1.0000   1.0000   1.0000   1.0000   1.0000   1.0000   1.0000   1.0000
     1.0000   1.0000   1.0000   1.0000   1.0000   1.0000   1.0000   1.0000
     1.0000   1.0000   1.0000   1.0000   1.0000   1.0000   1.0000   1.0000
     1.0000   1.0000   1.0000   1.0000   1.0000   1.0000   1.0000   1.0000
     1.0000   1.0000   1.0000   1.0000   1.0000   1.0000   1.0000   1.0000
     1.0000   1.0000   1.0000   1.0000   1.0000   1.0000   1.0000   1.0000
     1.0000   1.0000   1.0000   1.0000   1.0000   1.0000   1.0000   1.0000
     1.0000   1.0000   1.0000   1.0000   1.0000   1.0000   1.0000   1.0000
     1.0000   1.0000   1.0000   1.0000   1.0000   1.0000   1.0000   1.0000
     1.0000   1.0000   1.0000   1.0000   1.0000   1.0000   1.0000   1.0000
     1.0000   1.0000   1.0000   1.0000   1.0000   1.0000   1.0000   1.0000
     0.0000   0.0000   0.0000   0.0000   0.0000   0.0000   0.0000   0.0000
     0.0000   0.0000

          k = 0.0000 0.0000 0.9661 ( 38942 PWs)   bands (ev):

   -86.1122 -86.0470 -85.8815 -85.7156 -52.1889 -52.1608 -52.1054 -52.1005
   -52.0188 -51.9961 -51.9480 -51.9192 -51.8527 -51.6865 -51.6698 -51.5345
   -45.2167 -17.2660 -17.2000 -17.1740 -16.4142 -16.3289 -16.2016 -16.1643
   -14.4899 -14.3537 -14.2636 -14.1805 -14.1051 -13.9801 -13.9601 -13.9096
   -13.8855 -13.8333 -13.8053 -13.7220  -4.6561  -4.3586  -4.2405  -4.0845
    -2.6942  -2.4943  -2.2545  -2.2103  -1.9985  -1.8781  -1.8108  -1.6915
    -1.5545  -1.5032  -1.4569  -1.3639  -0.6858  -0.4449  -0.3567  -0.2976
    -0.1805  -0.1241  -0.0016   0.0748   0.1377   0.2100   0.2681   0.3027
     0.4016   0.4758   0.5288   0.7425   0.8003   0.8483   1.0020   1.0893
     1.1431   1.2036   1.3987   1.4802   1.5310   1.5627   1.5763   1.7547
     1.7959   1.8690   1.9359   2.0172   2.0894   2.3026   2.4273   2.4649
     2.6007   2.6980   2.7792   2.8458   2.9664   3.0296   3.0941   3.1693
     3.2410   3.3160   3.4042   3.4634   3.5212   3.5374   3.8493   4.0721
     9.4852   9.9778  10.5459  10.7456  10.9942  11.5148  11.6926  11.8196
    11.9154  11.9754

     occupation numbers 
     1.0000   1.0000   1.0000   1.0000   1.0000   1.0000   1.0000   1.0000
     1.0000   1.0000   1.0000   1.0000   1.0000   1.0000   1.0000   1.0000
     1.0000   1.0000   1.0000   1.0000   1.0000   1.0000   1.0000   1.0000
     1.0000   1.0000   1.0000   1.0000   1.0000   1.0000   1.0000   1.0000
     1.0000   1.0000   1.0000   1.0000   1.0000   1.0000   1.0000   1.0000
     1.0000   1.0000   1.0000   1.0000   1.0000   1.0000   1.0000   1.0000
     1.0000   1.0000   1.0000   1.0000   1.0000   1.0000   1.0000   1.0000
     1.0000   1.0000   1.0000   1.0000   1.0000   1.0000   1.0000   1.0000
     1.0000   1.0000   1.0000   1.0000   1.0000   1.0000   1.0000   1.0000
     1.0000   1.0000   1.0000   1.0000   1.0000   1.0000   1.0000   1.0000
     1.0000   1.0000   1.0000   1.0000   1.0000   1.0000   1.0000   1.0000
     1.0000   1.0000   1.0000   1.0000   1.0000   1.0000   1.0000   1.0000
     1.0000   1.0000   1.0000   1.0000   1.0000   1.0000   1.0000   1.0000
     0.0000   0.0000   0.0000   0.0000   0.0000   0.0000   0.0000   0.0000
     0.0000   0.0000

          k = 0.0000 0.2391 0.0000 ( 38987 PWs)   bands (ev):

   -86.1122 -86.0470 -85.8815 -85.7156 -52.1889 -52.1608 -52.1054 -52.1005
   -52.0188 -51.9961 -51.9480 -51.9192 -51.8527 -51.6864 -51.6698 -51.5345
   -45.2167 -17.2568 -17.1921 -17.1750 -16.5386 -16.3680 -16.3010 -16.1850
   -14.3601 -14.2410 -14.1833 -14.0653 -14.0567 -14.0205 -13.9769 -13.9102
   -13.8937 -13.8225 -13.8001 -13.7015  -4.9016  -4.4792  -4.2979  -4.0909
    -2.7309  -2.5848  -2.3925  -2.2891  -1.9658  -1.8876  -1.7288  -1.7020
    -1.6576  -1.5747  -1.4864  -1.3774  -0.7348  -0.6326  -0.4802  -0.3026
    -0.2351  -0.1377  -0.0950  -0.0193   0.0671   0.1525   0.2347   0.3335
     0.4603   0.6529   0.7088   0.7847   0.9190   1.0080   1.0662   1.2143
     1.2635   1.3574   1.3964   1.4571   1.5546   1.6516   1.6830   1.8240
     1.8984   1.9827   2.0331   2.1036   2.2155   2.2726   2.4024   2.4997
     2.6312   2.7369   2.7713   2.8437   2.9401   2.9932   3.1268   3.1571
     3.2360   3.2636   3.3462   3.4424   3.5374   3.6557   3.8715   4.1186
     8.0455   9.8719  10.2547  10.5298  11.1044  11.7470  11.9324  12.1056
    12.1526  12.2306

     occupation numbers 
     1.0000   1.0000   1.0000   1.0000   1.0000   1.0000   1.0000   1.0000
     1.0000   1.0000   1.0000   1.0000   1.0000   1.0000   1.0000   1.0000
     1.0000   1.0000   1.0000   1.0000   1.0000   1.0000   1.0000   1.0000
     1.0000   1.0000   1.0000   1.0000   1.0000   1.0000   1.0000   1.0000
     1.0000   1.0000   1.0000   1.0000   1.0000   1.0000   1.0000   1.0000
     1.0000   1.0000   1.0000   1.0000   1.0000   1.0000   1.0000   1.0000
     1.0000   1.0000   1.0000   1.0000   1.0000   1.0000   1.0000   1.0000
     1.0000   1.0000   1.0000   1.0000   1.0000   1.0000   1.0000   1.0000
     1.0000   1.0000   1.0000   1.0000   1.0000   1.0000   1.0000   1.0000
     1.0000   1.0000   1.0000   1.0000   1.0000   1.0000   1.0000   1.0000
     1.0000   1.0000   1.0000   1.0000   1.0000   1.0000   1.0000   1.0000
     1.0000   1.0000   1.0000   1.0000   1.0000   1.0000   1.0000   1.0000
     1.0000   1.0000   1.0000   1.0000   1.0000   1.0000   1.0000   1.0000
     0.0000   0.0000   0.0000   0.0000   0.0000   0.0000   0.0000   0.0000
     0.0000   0.0000

          k = 0.0000 0.2391 0.2415 ( 38961 PWs)   bands (ev):

   -86.1122 -86.0470 -85.8815 -85.7156 -52.1889 -52.1608 -52.1054 -52.1005
   -52.0188 -51.9961 -51.9480 -51.9192 -51.8527 -51.6864 -51.6698 -51.5345
   -45.2167 -17.2564 -17.1948 -17.1750 -16.5280 -16.3600 -16.2932 -16.1763
   -14.3798 -14.2437 -14.2020 -14.0808 -14.0577 -14.0206 -13.9761 -13.9085
   -13.8923 -13.8275 -13.7965 -13.7034  -4.8787  -4.4665  -4.2868  -4.0712
    -2.7156  -2.5732  -2.4104  -2.2545  -1.9554  -1.8622  -1.7494  -1.6995
    -1.6425  -1.5985  -1.5219  -1.3337  -0.7189  -0.6202  -0.4819  -0.2960
    -0.2235  -0.1382  -0.0764  -0.0120   0.0550   0.1096   0.2288   0.3378
     0.4238   0.6170   0.6569   0.8110   0.9005   0.9980   1.0616   1.2083
     1.3071   1.3676   1.3897   1.4822   1.5456   1.6743   1.6977   1.8064
     1.8939   1.9886   2.0232   2.0863   2.1694   2.2511   2.4040   2.4800
     2.6136   2.7099   2.7747   2.8537   2.9430   2.9765   3.1179   3.1420
     3.2476   3.2681   3.3401   3.4798   3.5195   3.6655   3.8758   4.1107
     8.1754   9.9485  10.2881  10.5648  11.1470  11.7219  11.8367  12.0440
    12.1848  12.2430

     occupation numbers 
     1.0000   1.0000   1.0000   1.0000   1.0000   1.0000   1.0000   1.0000
     1.0000   1.0000   1.0000   1.0000   1.0000   1.0000   1.0000   1.0000
     1.0000   1.0000   1.0000   1.0000   1.0000   1.0000   1.0000   1.0000
     1.0000   1.0000   1.0000   1.0000   1.0000   1.0000   1.0000   1.0000
     1.0000   1.0000   1.0000   1.0000   1.0000   1.0000   1.0000   1.0000
     1.0000   1.0000   1.0000   1.0000   1.0000   1.0000   1.0000   1.0000
     1.0000   1.0000   1.0000   1.0000   1.0000   1.0000   1.0000   1.0000
     1.0000   1.0000   1.0000   1.0000   1.0000   1.0000   1.0000   1.0000
     1.0000   1.0000   1.0000   1.0000   1.0000   1.0000   1.0000   1.0000
     1.0000   1.0000   1.0000   1.0000   1.0000   1.0000   1.0000   1.0000
     1.0000   1.0000   1.0000   1.0000   1.0000   1.0000   1.0000   1.0000
     1.0000   1.0000   1.0000   1.0000   1.0000   1.0000   1.0000   1.0000
     1.0000   1.0000   1.0000   1.0000   1.0000   1.0000   1.0000   1.0000
     0.0000   0.0000   0.0000   0.0000   0.0000   0.0000   0.0000   0.0000
     0.0000   0.0000

          k = 0.0000 0.2391 0.4830 ( 38996 PWs)   bands (ev):

   -86.1122 -86.0470 -85.8815 -85.7156 -52.1889 -52.1608 -52.1054 -52.1005
   -52.0188 -51.9961 -51.9480 -51.9192 -51.8527 -51.6865 -51.6698 -51.5345
   -45.2167 -17.2578 -17.1991 -17.1752 -16.4935 -16.3430 -16.2684 -16.1632
   -14.4203 -14.2646 -14.2419 -14.1193 -14.0721 -14.0112 -13.9678 -13.9108
   -13.8940 -13.8288 -13.7938 -13.7082  -4.8064  -4.4293  -4.2676  -4.0402
    -2.6928  -2.5558  -2.3778  -2.2150  -1.9586  -1.8229  -1.7869  -1.6875
    -1.6237  -1.5917  -1.5393  -1.3018  -0.7128  -0.5778  -0.4557  -0.2978
    -0.2223  -0.1358  -0.0685  -0.0311   0.0379   0.1223   0.2352   0.3542
     0.3783   0.5568   0.6248   0.8250   0.8827   0.9722   1.0331   1.1931
     1.2889   1.3358   1.4135   1.4736   1.5310   1.6730   1.6894   1.8010
     1.8519   1.9657   2.0064   2.0510   2.1159   2.1736   2.4334   2.4571
     2.6025   2.6668   2.7483   2.8852   2.9070   2.9918   3.1151   3.1527
     3.2417   3.2654   3.3686   3.4982   3.5224   3.6658   3.8727   4.1013
     8.5330  10.1260  10.3598  10.6631  11.2253  11.5824  11.7453  11.9115
    12.0760  12.2031

     occupation numbers 
     1.0000   1.0000   1.0000   1.0000   1.0000   1.0000   1.0000   1.0000
     1.0000   1.0000   1.0000   1.0000   1.0000   1.0000   1.0000   1.0000
     1.0000   1.0000   1.0000   1.0000   1.0000   1.0000   1.0000   1.0000
     1.0000   1.0000   1.0000   1.0000   1.0000   1.0000   1.0000   1.0000
     1.0000   1.0000   1.0000   1.0000   1.0000   1.0000   1.0000   1.0000
     1.0000   1.0000   1.0000   1.0000   1.0000   1.0000   1.0000   1.0000
     1.0000   1.0000   1.0000   1.0000   1.0000   1.0000   1.0000   1.0000
     1.0000   1.0000   1.0000   1.0000   1.0000   1.0000   1.0000   1.0000
     1.0000   1.0000   1.0000   1.0000   1.0000   1.0000   1.0000   1.0000
     1.0000   1.0000   1.0000   1.0000   1.0000   1.0000   1.0000   1.0000
     1.0000   1.0000   1.0000   1.0000   1.0000   1.0000   1.0000   1.0000
     1.0000   1.0000   1.0000   1.0000   1.0000   1.0000   1.0000   1.0000
     1.0000   1.0000   1.0000   1.0000   1.0000   1.0000   1.0000   1.0000
     0.0000   0.0000   0.0000   0.0000   0.0000   0.0000   0.0000   0.0000
     0.0000   0.0000

          k = 0.0000 0.2391 0.7246 ( 38953 PWs)   bands (ev):

   -86.1122 -86.0470 -85.8815 -85.7156 -52.1889 -52.1608 -52.1054 -52.1005
   -52.0188 -51.9961 -51.9480 -51.9192 -51.8527 -51.6865 -51.6698 -51.5345
   -45.2167 -17.2614 -17.2022 -17.1752 -16.4473 -16.3274 -16.2343 -16.1550
   -14.4640 -14.3118 -14.2671 -14.1653 -14.0913 -14.0011 -13.9504 -13.9170
   -13.8895 -13.8320 -13.7937 -13.7156  -4.7121  -4.3793  -4.2528  -4.0281
    -2.6855  -2.5179  -2.3082  -2.1961  -1.9726  -1.8302  -1.7958  -1.6957
    -1.6061  -1.5422  -1.4996  -1.3127  -0.7180  -0.5352  -0.3840  -0.3090
    -0.2012  -0.1345  -0.0934  -0.0046   0.0755   0.1494   0.2654   0.3357
     0.4027   0.5028   0.5907   0.7896   0.8721   0.9088   0.9898   1.1179
     1.2034   1.2915   1.3588   1.4847   1.5393   1.5958   1.6589   1.7851
     1.8314   1.8979   1.9699   2.0232   2.0781   2.1831   2.4238   2.4897
     2.5856   2.6515   2.7260   2.8668   2.9313   3.0037   3.1277   3.1824
     3.2319   3.2735   3.4069   3.4772   3.5453   3.6653   3.8687   4.0940
     9.0293  10.2914  10.4238  10.7779  11.1141  11.4869  11.7192  11.8225
    11.9546  12.1030

     occupation numbers 
     1.0000   1.0000   1.0000   1.0000   1.0000   1.0000   1.0000   1.0000
[...]
     atom    5 type  1   force =     0.02015527    0.13860037   -0.14660251
     atom    6 type  4   force =    -0.02766297    0.03211349    0.01097821
     atom    7 type  4   force =     0.01727437    0.01138256   -0.08665237
     atom    8 type  4   force =     0.06568415   -0.04073984    0.00536118
     atom    9 type  4   force =    -0.00478098   -0.01994700    0.09534735
     atom   10 type  3   force =    -0.49943568   -0.08119420   -1.18088050
     atom   11 type  3   force =     0.05766896    0.22725580   -1.44524913
     atom   12 type  3   force =     0.37763955    0.11241354    1.21610235
     atom   13 type  3   force =     0.03271750   -0.19137936    1.46058522
     atom   14 type  3   force =     1.39683309   -0.12377015   -0.57959081
     atom   15 type  3   force =    -1.19770950    0.71303683   -0.21393083
     atom   16 type  3   force =    -1.34175209    0.17128737    0.55665613
     atom   17 type  3   force =     1.23373183   -0.70137722    0.08957175
     atom   18 type  3   force =    -0.37186994   -1.31313015    0.67528268
     atom   19 type  3   force =     0.60001713    0.75013790    0.98008601
     atom   20 type  3   force =    -0.12090875   -1.46793904   -1.01673695
     atom   21 type  3   force =    -0.27884537    1.03503805   -0.62083807
     atom   22 type  3   force =     0.43081600    1.39893711   -0.62167650
     atom   23 type  3   force =    -0.54427788   -0.81344821   -0.93099503
     atom   24 type  3   force =     0.08745003    1.45464222    0.96362916
     atom   25 type  3   force =     0.09784414   -1.07602161    0.60654863
     The ionic contribution  to forces
     atom    1 type  2   force =     1.75697098   -3.80759907   -1.96843636
     atom    2 type  1   force =    10.96149467    3.98985135   -2.83688885
     atom    3 type  1   force =     6.18974603   -7.68154688   -0.96867453
     atom    4 type  1   force =   -13.90666791    0.08876648    0.96386748
     atom    5 type  1   force =    -2.60450493    6.30584398    2.86388631
     atom    6 type  4   force =    -1.98950271    2.41978664   -0.91534461
     atom    7 type  4   force =     4.53955191   -0.78106926    0.82723531
     atom    8 type  4   force =     0.76354786   -1.03218135    0.98314335
     atom    9 type  4   force =    -4.34072440    0.07410113   -0.57274913
     atom   10 type  3   force =    -1.78224303    6.19665722    1.40679437
     atom   11 type  3   force =     8.23961305   -3.46136146    2.18487644
     atom   12 type  3   force =     0.64640117   -1.49763626    0.87077964
     atom   13 type  3   force =    -8.16808986    2.17014847   -2.17550472
     atom   14 type  3   force =     0.99484691    0.61979204    6.72164330
     atom   15 type  3   force =    -0.15087477   -6.07887291    3.37369663
     atom   16 type  3   force =    -1.63534728   -0.55438133   -6.31771621
     atom   17 type  3   force =     0.47021045    3.70390186   -2.24530782
     atom   18 type  3   force =    -2.36380812    5.97941231    1.28766764
     atom   19 type  3   force =     3.80889187   -1.34884009   -4.23801606
     atom   20 type  3   force =     3.91680464    3.92496327    8.08037556
     atom   21 type  3   force =    -7.81289381   -1.66283647    0.71297201
     atom   22 type  3   force =     1.03254667   -7.82402841   -3.58301484
     atom   23 type  3   force =    -4.91301955    1.02365944    3.78341369
     atom   24 type  3   force =    -3.25487352   -1.90605898   -8.08911638
     atom   25 type  3   force =     9.60192368    1.13952829   -0.14958220
     The local contribution  to forces
     atom    1 type  2   force =    -1.83224245    3.80075444    1.93556115
     atom    2 type  1   force =   -11.02471447   -3.87135149    3.01941555
     atom    3 type  1   force =    -6.17325767    7.83683874    0.89185186
     atom    4 type  1   force =    13.98497155   -0.23321057   -1.03183786
     atom    5 type  1   force =     2.58906774   -6.44918749   -2.71659252
     atom    6 type  4   force =     1.99373520   -2.45285001    0.89663498
     atom    7 type  4   force =    -4.52993023    0.76716454   -0.77503546
     atom    8 type  4   force =    -0.81298635    1.08670921   -0.97470118
     atom    9 type  4   force =     4.32195266   -0.05322734    0.51333720
     atom   10 type  3   force =     2.27362821   -6.12648460   -0.24425496
     atom   11 type  3   force =    -8.30348628    3.24068088   -0.75245802
     atom   12 type  3   force =    -1.01674131    1.38517190   -2.07660677
     atom   13 type  3   force =     8.14271882   -1.98396845    0.73016718
     atom   14 type  3   force =    -2.32022557   -0.50220106   -6.15993675
     atom   15 type  3   force =     1.28751265    5.39023748   -3.16133144
     atom   16 type  3   force =     2.90841328    0.39111961    5.77991863
     atom   17 type  3   force =    -1.63553587   -3.02949667    2.15168698
     atom   18 type  3   force =     2.71879196   -4.71065220   -1.94291522
     atom   19 type  3   force =    -4.38515066    0.63156622    3.28977326
     atom   20 type  3   force =    -3.79684407   -2.52856596   -7.09910645
     atom   21 type  3   force =     8.08397101    0.67187512   -0.10654132
     atom   22 type  3   force =    -1.44693904    6.47085655    4.18440865
     atom   23 type  3   force =     5.43639241   -0.24340226   -2.88004300
     atom   24 type  3   force =     3.16995379    0.51729803    7.16115472
     atom   25 type  3   force =    -9.69891920   -0.10890290   -0.44178798
     The core correction contribution to forces
     atom    1 type  2   force =     0.00000000    0.00000000    0.00000000
     atom    2 type  1   force =    -0.00257032    0.00052521    0.00099559
     atom    3 type  1   force =     0.00145390   -0.00069537    0.00046625
     atom    4 type  1   force =     0.00250188   -0.00159447   -0.00049035
     atom    5 type  1   force =    -0.00086380   -0.00125873    0.00126149
     atom    6 type  4   force =     0.00415906   -0.00185787   -0.00005206
     atom    7 type  4   force =    -0.00226076   -0.00055874    0.00674251
     atom    8 type  4   force =    -0.00683747    0.00171845   -0.00186731
     atom    9 type  4   force =     0.00141956    0.00168388   -0.00779756
     atom   10 type  3   force =     0.00415655    0.00067155    0.01051313
     atom   11 type  3   force =     0.00028947   -0.00237506    0.01263081
     atom   12 type  3   force =    -0.00279383   -0.00093110   -0.01059736
     atom   13 type  3   force =    -0.00109953    0.00192960   -0.01278801
     atom   14 type  3   force =    -0.01292159    0.00122175    0.00598996
     atom   15 type  3   force =     0.01106111   -0.00722178    0.00240880
     atom   16 type  3   force =     0.01238320   -0.00170134   -0.00574883
     atom   17 type  3   force =    -0.01129858    0.00695693   -0.00128750
     atom   18 type  3   force =     0.00298444    0.01258188   -0.00594303
     atom   19 type  3   force =    -0.00558143   -0.00661217   -0.00932712
     atom   20 type  3   force =     0.00138843    0.01367667    0.00997508
     atom   21 type  3   force =     0.00258069   -0.00952949    0.00590439
     atom   22 type  3   force =    -0.00354460   -0.01339391    0.00542317
     atom   23 type  3   force =     0.00506953    0.00723374    0.00886703
     atom   24 type  3   force =    -0.00100853   -0.01355542   -0.00937782
     atom   25 type  3   force =    -0.00076014    0.00993310   -0.00573490
     The Hubbard contrib.    to forces
     atom    1 type  2   force =     0.00000000    0.00000000    0.00000000
     atom    2 type  1   force =     0.00000000    0.00000000    0.00000000
     atom    3 type  1   force =     0.00000000    0.00000000    0.00000000
     atom    4 type  1   force =     0.00000000    0.00000000    0.00000000
     atom    5 type  1   force =     0.00000000    0.00000000    0.00000000
     atom    6 type  4   force =     0.00000000    0.00000000    0.00000000
     atom    7 type  4   force =     0.00000000    0.00000000    0.00000000
     atom    8 type  4   force =     0.00000000    0.00000000    0.00000000
     atom    9 type  4   force =     0.00000000    0.00000000    0.00000000
     atom   10 type  3   force =     0.00000000    0.00000000    0.00000000
     atom   11 type  3   force =     0.00000000    0.00000000    0.00000000
     atom   12 type  3   force =     0.00000000    0.00000000    0.00000000
     atom   13 type  3   force =     0.00000000    0.00000000    0.00000000
     atom   14 type  3   force =     0.00000000    0.00000000    0.00000000
     atom   15 type  3   force =     0.00000000    0.00000000    0.00000000
     atom   16 type  3   force =     0.00000000    0.00000000    0.00000000
     atom   17 type  3   force =     0.00000000    0.00000000    0.00000000
     atom   18 type  3   force =     0.00000000    0.00000000    0.00000000
     atom   19 type  3   force =     0.00000000    0.00000000    0.00000000
     atom   20 type  3   force =     0.00000000    0.00000000    0.00000000
     atom   21 type  3   force =     0.00000000    0.00000000    0.00000000
     atom   22 type  3   force =     0.00000000    0.00000000    0.00000000
     atom   23 type  3   force =     0.00000000    0.00000000    0.00000000
     atom   24 type  3   force =     0.00000000    0.00000000    0.00000000
     atom   25 type  3   force =     0.00000000    0.00000000    0.00000000
     The SCF correction term to forces
     atom    1 type  2   force =    -0.00000211    0.00000027    0.00000026
     atom    2 type  1   force =    -0.00000084    0.00000062    0.00000094
     atom    3 type  1   force =    -0.00000299    0.00000182   -0.00000102
     atom    4 type  1   force =     0.00000226   -0.00000075   -0.00000073
     atom    5 type  1   force =     0.00000072   -0.00000164   -0.00000005
     atom    6 type  4   force =    -0.00000141   -0.00000026    0.00000014
     atom    7 type  4   force =     0.00000061    0.00000002    0.00000008
     atom    8 type  4   force =    -0.00000038    0.00000025   -0.00000008
     atom    9 type  4   force =     0.00000112    0.00000013    0.00000003
     atom   10 type  3   force =    -0.00000176   -0.00000061   -0.00000042
     atom   11 type  3   force =     0.00000056   -0.00000007    0.00000012
     atom   12 type  3   force =    -0.00000028    0.00000036   -0.00000025
     atom   13 type  3   force =     0.00000147    0.00000001   -0.00000048
     atom   14 type  3   force =     0.00000250   -0.00000006    0.00000060
     atom   15 type  3   force =    -0.00000143    0.00000029   -0.00000006
     atom   16 type  3   force =     0.00000204    0.00000005   -0.00000012
     atom   17 type  3   force =    -0.00000149   -0.00000003    0.00000023
     atom   18 type  3   force =    -0.00000225    0.00000069    0.00000073
     atom   19 type  3   force =     0.00000005    0.00000134   -0.00000026
     atom   20 type  3   force =    -0.00000102   -0.00000044   -0.00000067
     atom   21 type  3   force =     0.00000175   -0.00000002    0.00000072
     atom   22 type  3   force =    -0.00000042   -0.00000020    0.00000020
     atom   23 type  3   force =     0.00000126   -0.00000004    0.00000045
     atom   24 type  3   force =    -0.00000129   -0.00000061    0.00000015
     atom   25 type  3   force =     0.00000033   -0.00000078   -0.00000048

     Total force =     0.183271     Total SCF correction =     0.000009


     Computing stress (Cartesian axis) and pressure


     negative rho (up, down):  0.000E+00 8.791E-04
          total   stress  (Ry/bohr**3)                   (kbar)     P=      -78.31
  -0.00096904   0.00012547  -0.00001632         -142.55       18.46       -2.40
   0.00012547  -0.00047785  -0.00009331           18.46      -70.29      -13.73
  -0.00001632  -0.00009331  -0.00015010           -2.40      -13.73      -22.08

     kinetic stress (kbar)  24585.41     70.32    -46.04
                               70.32  24748.08     -8.38
                              -46.04     -8.38  24786.95

     local   stress (kbar)  -8340.41   3223.22  -6467.71
                             3223.22 -13664.52    538.65
                            -6467.71    538.65  -5891.92

     nonloc. stress (kbar)  -6280.43      8.72      0.42
                                8.72  -6242.10     -4.83
                                0.42     -4.83  -6244.26

     hartree stress (kbar)  13632.76  -1228.43   2724.10
                            -1228.43  16622.71   -166.58
                             2724.10   -166.58  13108.27

     exc-cor stress (kbar)  -2608.69     -2.72      2.87
                               -2.72  -2613.50     -0.98
                                2.87     -0.98  -2613.32

     corecor stress (kbar)  -2914.45     -0.05     -0.70
                               -0.05  -2915.92      0.78
                               -0.70      0.78  -2916.97

     ewald   stress (kbar) -18216.75  -2052.60   3784.66
                            -2052.60 -16005.04   -372.38
                             3784.66   -372.38 -20250.82

     hubbard stress (kbar)      0.00      0.00      0.00
                                0.00      0.00      0.00
                                0.00      0.00      0.00

     DFT-D   stress (kbar)      0.00      0.00      0.00
                                0.00      0.00      0.00
                                0.00      0.00      0.00

     XDM     stress (kbar)      0.00      0.00      0.00
                                0.00      0.00      0.00
                                0.00      0.00      0.00

     dft-nl  stress (kbar)      0.00      0.00      0.00
                                0.00      0.00      0.00
                                0.00      0.00      0.00

     TS-vdW  stress (kbar)      0.00      0.00      0.00
                                0.00      0.00      0.00
                                0.00      0.00      0.00



     init_run     :   1159.79s CPU   1322.34s WALL (       1 calls)
     electrons    :  90698.87s CPU 104181.67s WALL (       1 calls)
     forces       :    144.19s CPU    169.95s WALL (       1 calls)
     stress       :    691.30s CPU    796.13s WALL (       1 calls)

     Called by init_run:
     wfcinit      :   1143.40s CPU   1304.03s WALL (       1 calls)
     wfcinit:atom :      0.64s CPU      0.71s WALL (     316 calls)
     wfcinit:wfcr :   1138.18s CPU   1297.73s WALL (     316 calls)
     potinit      :      6.30s CPU      6.85s WALL (       1 calls)
     hinit0       :      6.60s CPU      7.41s WALL (       1 calls)

     Called by electrons:
     c_bands      :  75340.60s CPU  86576.04s WALL (      34 calls)
     sum_band     :  15105.53s CPU  17315.73s WALL (      34 calls)
     v_of_rho     :     89.14s CPU    101.45s WALL (      35 calls)
     v_h          :      8.25s CPU      9.36s WALL (      35 calls)
     v_xc         :     85.84s CPU     97.77s WALL (      37 calls)
     newd         :     59.01s CPU     69.41s WALL (      35 calls)
     PAW_pot      :     21.46s CPU     23.73s WALL (      35 calls)
     mix_rho      :     70.39s CPU     79.76s WALL (      34 calls)

     Called by c_bands:
     init_us_2    :     63.51s CPU     68.80s WALL (   22436 calls)
     cegterg      :  74502.30s CPU  85561.53s WALL (   10744 calls)

     Called by sum_band:
     sum_band:wei :      0.60s CPU      0.80s WALL (      34 calls)
     sum_band:loo :  15003.42s CPU  17195.90s WALL (      34 calls)
     sum_band:buf :     15.17s CPU     15.93s WALL (   10744 calls)
     sum_band:ini :     25.14s CPU     26.09s WALL (   10744 calls)
     sum_band:cal :   1030.00s CPU   1190.45s WALL (   10744 calls)
     sum_band:bec :      2.41s CPU      2.42s WALL (   10744 calls)
     addusdens    :     80.49s CPU     95.89s WALL (      34 calls)
     addusd:skk   :      0.70s CPU      0.83s WALL (     102 calls)
     addusd:dgemm :      6.25s CPU      9.81s WALL (     204 calls)
     addusd:qvan2 :     72.84s CPU     84.31s WALL (     204 calls)

     Called by *egterg:
     cdiaghg      :   1291.22s CPU   1512.50s WALL (   39417 calls)
     cegterg:over :   4238.15s CPU   4861.19s WALL (   28673 calls)
     cegterg:upda :    179.09s CPU    196.24s WALL (   28673 calls)
     cegterg:last :    362.36s CPU    410.38s WALL (   18182 calls)
     h_psi        :  65671.87s CPU  75421.28s WALL (   39733 calls)
     s_psi        :    372.71s CPU    437.52s WALL (   39733 calls)
     g_psi        :     19.52s CPU     25.05s WALL (   28673 calls)

     Called by h_psi:
     h_psi:calbec :   3216.12s CPU   3714.97s WALL (   39733 calls)
     vloc_psi     :  62019.68s CPU  71199.35s WALL (   39733 calls)
     add_vuspsi   :    393.16s CPU    460.68s WALL (   39733 calls)

     General routines
     calbec       :   4506.90s CPU   5205.13s WALL (   52057 calls)
     fft          :    140.89s CPU    159.15s WALL (     913 calls)
     ffts         :      2.22s CPU      2.56s WALL (     138 calls)
     fftw         :  75149.81s CPU  86348.60s WALL ( 6703578 calls)
     interpolate  :     10.78s CPU     12.55s WALL (      70 calls)

     Parallel routines
     fft_scatt_xy :    340.95s CPU    346.06s WALL ( 6704629 calls)
     fft_scatt_yz :  73628.23s CPU  84821.32s WALL ( 6704629 calls)

     PAW routines
     PAW_pot      :     21.46s CPU     23.73s WALL (      35 calls)

     PWSCF        :   1d 1h45m CPU   1d 5h34m WALL


   This run was terminated on:  17:25:12   4Jan2023            

=------------------------------------------------------------------------------=
   JOB DONE.
=------------------------------------------------------------------------------=
Note: The following floating-point exceptions are signalling: IEEE_UNDERFLOW_FLAG IEEE_DENORMAL
Note: The following floating-point exceptions are signalling: IEEE_DENORMAL
Note: The following floating-point exceptions are signalling: IEEE_INVALID_FLAG IEEE_DENORMAL
Note: The following floating-point exceptions are signalling: IEEE_DENORMAL
Note: The following floating-point exceptions are signalling: IEEE_DENORMAL
Note: The following floating-point exceptions are signalling: IEEE_DENORMAL
Note: The following floating-point exceptions are signalling: IEEE_INVALID_FLAG IEEE_DENORMAL
Note: The following floating-point exceptions are signalling: IEEE_DENORMAL
Note: The following floating-point exceptions are signalling: IEEE_DENORMAL
Note: The following floating-point exceptions are signalling: IEEE_DENORMAL
Note: The following floating-point exceptions are signalling: IEEE_DENORMAL
Note: The following floating-point exceptions are signalling: IEEE_DENORMAL
Note: The following floating-point exceptions are signalling: IEEE_DENORMAL
Note: The following floating-point exceptions are signalling: IEEE_DENORMAL
Note: The following floating-point exceptions are signalling: IEEE_DENORMAL
Note: The following floating-point exceptions are signalling: IEEE_INVALID_FLAG IEEE_DENORMAL
Note: The following floating-point exceptions are signalling: IEEE_DENORMAL
Note: The following floating-point exceptions are signalling: IEEE_DENORMAL
Note: The following floating-point exceptions are signalling: IEEE_INVALID_FLAG IEEE_DENORMAL
Note: The following floating-point exceptions are signalling: IEEE_DENORMAL
Note: The following floating-point exceptions are signalling: IEEE_DENORMAL
Note: The following floating-point exceptions are signalling: IEEE_DENORMAL
Note: The following floating-point exceptions are signalling: IEEE_INVALID_FLAG IEEE_DENORMAL
Note: The following floating-point exceptions are signalling: IEEE_INVALID_FLAG IEEE_DENORMAL
Note: The following floating-point exceptions are signalling: IEEE_DENORMAL
Note: The following floating-point exceptions are signalling: IEEE_DENORMAL
Note: The following floating-point exceptions are signalling: IEEE_DENORMAL
Note: The following floating-point exceptions are signalling: IEEE_DENORMAL
Note: The following floating-point exceptions are signalling: IEEE_DENORMAL
Note: The following floating-point exceptions are signalling: IEEE_DENORMAL
