
     Program PWSCF v.6.7MaX starts on  6Jan2023 at  9:35:50 

     This program is part of the open-source Quantum ESPRESSO suite
     for quantum simulation of materials; please cite
         "P. Giannozzi et al., J. Phys.:Condens. Matter 21 395502 (2009);
         "P. Giannozzi et al., J. Phys.:Condens. Matter 29 465901 (2017);
          URL http://www.quantum-espresso.org", 
     in publications or presentations arising from this work. More details at
     http://www.quantum-espresso.org/quote

     Parallel version (MPI), running on    32 processors

     MPI processes distributed on     2 nodes
     R & G space division:  proc/nbgrp/npool/nimage =      32
     Reading input from scale_3d-03.in

     Current dimensions of program PWSCF are:
     Max number of different atomic species (ntypx) = 10
     Max number of k-points (npk) =  40000
     Max angular momentum in pseudopotentials (lmaxx) =  3
     Message from routine read_pp_mesh:
     mesh size missing, using the one in header
     file Fe.pbe-spn-kjpaw_psl.0.2.1.UPF: wavefunction(s)  3D renormalized
     file O.pbe-n-kjpaw_psl.0.1.UPF: wavefunction(s)  2P renormalized

     Subspace diagonalization in iterative solution of the eigenvalue problem:
     a serial algorithm will be used


     Parallelization info
     --------------------
     sticks:   dense  smooth     PW     G-vecs:    dense   smooth      PW
     Min         641     237     63                42525     9585    1344
     Max         642     238     65                42528     9588    1348
     Sum       20521    7599   2049              1360823   306739   43063



     bravais-lattice index     =            0
     lattice parameter (alat)  =      19.9928  a.u.
     unit-cell volume          =    2270.1860 (a.u.)^3
     number of atoms/cell      =           25
     number of atomic types    =            4
     number of electrons       =       189.00
     number of Kohn-Sham states=          114
     kinetic-energy cutoff     =     100.0000  Ry
     charge density cutoff     =    1080.0000  Ry
     scf convergence threshold =      2.0E-10
     mixing beta               =       0.4000
     number of iterations used =            8  plain     mixing
     Exchange-correlation= PBE
                           (   1   4   3   4   0   0   0)

     celldm(1)=  19.992808  celldm(2)=   0.000000  celldm(3)=   0.000000
     celldm(4)=   0.000000  celldm(5)=   0.000000  celldm(6)=   0.000000

     crystal axes: (cart. coord. in units of alat)
               a(1) = (   1.000000   0.000000   0.000000 )  
               a(2) = (   0.000000   0.597590   0.000000 )  
               a(3) = (   0.000000   0.000000   0.475375 )  

     reciprocal axes: (cart. coord. in units 2 pi/alat)
               b(1) = (  1.000000  0.000000  0.000000 )  
               b(2) = (  0.000000  1.673388  0.000000 )  
               b(3) = (  0.000000  0.000000  2.103600 )  


     PseudoPot. # 1 for Fe read from file:
     /opt/QEpot/SSSP_precision_pseudos/Fe.pbe-spn-kjpaw_psl.0.2.1.UPF
     MD5 check sum: e86618425769142926afa95317d90200
     Pseudo is Projector augmented-wave + core cor, Zval = 16.0
     Generated using "atomic" code by A. Dal Corso  v.5.0.99 svn rev. 10869
     Shape of augmentation charge: PSQ
     Using radial grid of 1191 points,  6 beta functions with: 
                l(1) =   0
                l(2) =   0
                l(3) =   1
                l(4) =   1
                l(5) =   2
                l(6) =   2
     Q(r) pseudized with 0 coefficients 


     PseudoPot. # 2 for Na read from file:
     /opt/QEpot/SSSP_precision_pseudos/Na_ONCV_PBE-1.0.oncvpsp.upf
     MD5 check sum: 24a298df0a6742ae313db96548fdb2a4
     Pseudo is Norm-conserving, Zval =  9.0
     Generated using ONCVPSP code by D. R. Hamann
     Using radial grid of 1992 points,  4 beta functions with: 
                l(1) =   0
                l(2) =   0
                l(3) =   1
                l(4) =   1

     PseudoPot. # 3 for O  read from file:
     /opt/QEpot/SSSP_precision_pseudos/O.pbe-n-kjpaw_psl.0.1.UPF
     MD5 check sum: 0234752ac141de4415c5fc33072bef88
     Pseudo is Projector augmented-wave + core cor, Zval =  6.0
     Generated using "atomic" code by A. Dal Corso  v.5.0.99 svn rev. 10869
     Shape of augmentation charge: BESSEL
     Using radial grid of 1095 points,  4 beta functions with: 
                l(1) =   0
                l(2) =   0
                l(3) =   1
                l(4) =   1
     Q(r) pseudized with 0 coefficients 


     PseudoPot. # 4 for P  read from file:
     /opt/QEpot/SSSP_precision_pseudos/P.pbe-n-rrkjus_psl.1.0.0.UPF
     MD5 check sum: 8b930f418f0a4573dca56cd030ffe088
     Pseudo is Ultrasoft + core correction, Zval =  5.0
     Generated using "atomic" code by A. Dal Corso  v.5.1
     Using radial grid of 1147 points,  6 beta functions with: 
                l(1) =   0
                l(2) =   0
                l(3) =   1
                l(4) =   1
                l(5) =   2
                l(6) =   2
     Q(r) pseudized with 0 coefficients 


     atomic species   valence    mass     pseudopotential
        Fe            16.00    55.84500     Fe( 1.00)
        Na             9.00    22.98977     Na( 1.00)
        O              6.00    15.99940     O ( 1.00)
        P              5.00    30.97376     P ( 1.00)

     Starting magnetic structure 
     atomic species   magnetization
        Fe           0.312
        Na           0.000
        O            0.000
        P            0.000

     No symmetry found


                                    s                        frac. trans.

      isym =  1     identity                                     

 cryst.   s( 1) = (     1          0          0      )
                  (     0          1          0      )
                  (     0          0          1      )

 cart.    s( 1) = (  1.0000000  0.0000000  0.0000000 )
                  (  0.0000000  1.0000000  0.0000000 )
                  (  0.0000000  0.0000000  1.0000000 )


   Cartesian axes

     site n.     atom                  positions (alat units)
         1           Na  tau(   1) = (   0.0091640   0.0619545   0.0842170  )
         2           Fe  tau(   2) = (   0.3006930   0.4598938   0.4183238  )
         3           Fe  tau(   3) = (   0.2172790   0.1994152   0.2522181  )
         4           Fe  tau(   4) = (   0.7013420   0.1375293   0.0676878  )
         5           Fe  tau(   5) = (   0.7823920   0.4166068   0.2462897  )
         6           P   tau(   6) = (   0.0916690   0.4042624   0.1489442  )
         7           P   tau(   7) = (   0.3922300   0.1495791   0.4588705  )
         8           P   tau(   8) = (   0.9035730   0.1787421   0.3282382  )
         9           P   tau(   9) = (   0.6068380   0.4472656   0.0379739  )
        10           O   tau(  10) = (   0.1716030   0.3997691   0.2776274  )
        11           O   tau(  11) = (   0.3459220   0.1497710   0.1236956  )
        12           O   tau(  12) = (   0.8394910   0.1630620   0.1947899  )
        13           O   tau(  13) = (   0.6484430   0.4495185   0.3717047  )
        14           O   tau(  14) = (   0.4599470   0.4563693   0.0500570  )
        15           O   tau(  15) = (   0.0476720   0.1360599   0.3218530  )
        16           O   tau(  16) = (   0.5389440   0.1383008   0.4482491  )
        17           O   tau(  17) = (   0.9533530   0.4560513   0.1648621  )
        18           O   tau(  18) = (   0.1614450   0.5005252   0.0578247  )
        19           O   tau(  19) = (   0.3222970   0.0448922   0.3739351  )
        20           O   tau(  20) = (   0.8832040   0.3185244   0.3742398  )
        21           O   tau(  21) = (   0.6645330   0.3263283   0.1122247  )
        22           O   tau(  22) = (   0.8349710   0.0852785   0.4231793  )
        23           O   tau(  23) = (   0.6757630   0.5543232   0.1211685  )
        24           O   tau(  24) = (   0.1041630   0.2643248   0.1001939  )
        25           O   tau(  25) = (   0.3431370   0.2727687   0.3837464  )

   Crystallographic axes

     site n.     atom                  positions (cryst. coord.)
         1           Na  tau(   1) = (  0.0091640  0.1036740  0.1771590  )
         2           Fe  tau(   2) = (  0.3006930  0.7695810  0.8799860  )
         3           Fe  tau(   3) = (  0.2172790  0.3336990  0.5305660  )
         4           Fe  tau(   4) = (  0.7013420  0.2301400  0.1423880  )
         5           Fe  tau(   5) = (  0.7823920  0.6971450  0.5180950  )
         6           P   tau(   6) = (  0.0916690  0.6764880  0.3133190  )
         7           P   tau(   7) = (  0.3922300  0.2503040  0.9652800  )
         8           P   tau(   8) = (  0.9035730  0.2991050  0.6904820  )
         9           P   tau(   9) = (  0.6068380  0.7484490  0.0798820  )
        10           O   tau(  10) = (  0.1716030  0.6689690  0.5840170  )
        11           O   tau(  11) = (  0.3459220  0.2506250  0.2602060  )
        12           O   tau(  12) = (  0.8394910  0.2728660  0.4097600  )
        13           O   tau(  13) = (  0.6484430  0.7522190  0.7819180  )
        14           O   tau(  14) = (  0.4599470  0.7636830  0.1053000  )
        15           O   tau(  15) = (  0.0476720  0.2276810  0.6770500  )
        16           O   tau(  16) = (  0.5389440  0.2314310  0.9429370  )
        17           O   tau(  17) = (  0.9533530  0.7631510  0.3468040  )
        18           O   tau(  18) = (  0.1614450  0.8375730  0.1216400  )
        19           O   tau(  19) = (  0.3222970  0.0751220  0.7866100  )
        20           O   tau(  20) = (  0.8832040  0.5330150  0.7872510  )
        21           O   tau(  21) = (  0.6645330  0.5460740  0.2360760  )
        22           O   tau(  22) = (  0.8349710  0.1427040  0.8902000  )
        23           O   tau(  23) = (  0.6757630  0.9275980  0.2548900  )
        24           O   tau(  24) = (  0.1041630  0.4423180  0.2107680  )
        25           O   tau(  25) = (  0.3431370  0.4564480  0.8072490  )

     number of k points=   158  Marzari-Vanderbilt smearing, width (Ry)=  0.0073
                       cart. coord. in units 2pi/alat
        k(    1) = (   0.0000000   0.0000000   0.0000000), wk =   0.0031746
        k(    2) = (   0.0000000   0.0000000   0.2337334), wk =   0.0063492
        k(    3) = (   0.0000000   0.0000000   0.4674667), wk =   0.0063492
        k(    4) = (   0.0000000   0.0000000   0.7012001), wk =   0.0063492
        k(    5) = (   0.0000000   0.0000000   0.9349334), wk =   0.0063492
        k(    6) = (   0.0000000   0.2390555   0.0000000), wk =   0.0063492
        k(    7) = (   0.0000000   0.2390555   0.2337334), wk =   0.0063492
        k(    8) = (   0.0000000   0.2390555   0.4674667), wk =   0.0063492
        k(    9) = (   0.0000000   0.2390555   0.7012001), wk =   0.0063492
        k(   10) = (   0.0000000   0.2390555   0.9349334), wk =   0.0063492
        k(   11) = (   0.0000000   0.4781110   0.0000000), wk =   0.0063492
        k(   12) = (   0.0000000   0.4781110   0.2337334), wk =   0.0063492
        k(   13) = (   0.0000000   0.4781110   0.4674667), wk =   0.0063492
        k(   14) = (   0.0000000   0.4781110   0.7012001), wk =   0.0063492
        k(   15) = (   0.0000000   0.4781110   0.9349334), wk =   0.0063492
        k(   16) = (   0.0000000   0.7171664   0.0000000), wk =   0.0063492
        k(   17) = (   0.0000000   0.7171664   0.2337334), wk =   0.0063492
        k(   18) = (   0.0000000   0.7171664   0.4674667), wk =   0.0063492
        k(   19) = (   0.0000000   0.7171664   0.7012001), wk =   0.0063492
        k(   20) = (   0.0000000   0.7171664   0.9349334), wk =   0.0063492
        k(   21) = (   0.2000000   0.0000000   0.0000000), wk =   0.0063492
        k(   22) = (   0.2000000   0.0000000   0.2337334), wk =   0.0063492
        k(   23) = (   0.2000000   0.0000000   0.4674667), wk =   0.0063492
        k(   24) = (   0.2000000   0.0000000   0.7012001), wk =   0.0063492
        k(   25) = (   0.2000000   0.0000000   0.9349334), wk =   0.0063492
        k(   26) = (   0.2000000   0.2390555   0.0000000), wk =   0.0063492
        k(   27) = (   0.2000000   0.2390555   0.2337334), wk =   0.0063492
        k(   28) = (   0.2000000   0.2390555   0.4674667), wk =   0.0063492
        k(   29) = (   0.2000000   0.2390555   0.7012001), wk =   0.0063492
        k(   30) = (   0.2000000   0.2390555   0.9349334), wk =   0.0063492
        k(   31) = (   0.2000000   0.4781110   0.0000000), wk =   0.0063492
        k(   32) = (   0.2000000   0.4781110   0.2337334), wk =   0.0063492
        k(   33) = (   0.2000000   0.4781110   0.4674667), wk =   0.0063492
        k(   34) = (   0.2000000   0.4781110   0.7012001), wk =   0.0063492
        k(   35) = (   0.2000000   0.4781110   0.9349334), wk =   0.0063492
        k(   36) = (   0.2000000   0.7171664   0.0000000), wk =   0.0063492
        k(   37) = (   0.2000000   0.7171664   0.2337334), wk =   0.0063492
        k(   38) = (   0.2000000   0.7171664   0.4674667), wk =   0.0063492
        k(   39) = (   0.2000000   0.7171664   0.7012001), wk =   0.0063492
        k(   40) = (   0.2000000   0.7171664   0.9349334), wk =   0.0063492
        k(   41) = (   0.4000000   0.0000000   0.0000000), wk =   0.0063492
        k(   42) = (   0.4000000   0.0000000   0.2337334), wk =   0.0063492
        k(   43) = (   0.4000000   0.0000000   0.4674667), wk =   0.0063492
        k(   44) = (   0.4000000   0.0000000   0.7012001), wk =   0.0063492
        k(   45) = (   0.4000000   0.0000000   0.9349334), wk =   0.0063492
        k(   46) = (   0.4000000   0.2390555   0.0000000), wk =   0.0063492
        k(   47) = (   0.4000000   0.2390555   0.2337334), wk =   0.0063492
        k(   48) = (   0.4000000   0.2390555   0.4674667), wk =   0.0063492
        k(   49) = (   0.4000000   0.2390555   0.7012001), wk =   0.0063492
        k(   50) = (   0.4000000   0.2390555   0.9349334), wk =   0.0063492
        k(   51) = (   0.4000000   0.4781110   0.0000000), wk =   0.0063492
        k(   52) = (   0.4000000   0.4781110   0.2337334), wk =   0.0063492
        k(   53) = (   0.4000000   0.4781110   0.4674667), wk =   0.0063492
        k(   54) = (   0.4000000   0.4781110   0.7012001), wk =   0.0063492
        k(   55) = (   0.4000000   0.4781110   0.9349334), wk =   0.0063492
        k(   56) = (   0.4000000   0.7171664   0.0000000), wk =   0.0063492
        k(   57) = (   0.4000000   0.7171664   0.2337334), wk =   0.0063492
        k(   58) = (   0.4000000   0.7171664   0.4674667), wk =   0.0063492
        k(   59) = (   0.4000000   0.7171664   0.7012001), wk =   0.0063492
        k(   60) = (   0.4000000   0.7171664   0.9349334), wk =   0.0063492
        k(   61) = (   0.0000000  -0.2390555   0.2337334), wk =   0.0063492
        k(   62) = (   0.0000000  -0.2390555   0.4674667), wk =   0.0063492
        k(   63) = (   0.0000000  -0.2390555   0.7012001), wk =   0.0063492
        k(   64) = (   0.0000000  -0.2390555   0.9349334), wk =   0.0063492
        k(   65) = (   0.0000000  -0.4781110   0.2337334), wk =   0.0063492
        k(   66) = (   0.0000000  -0.4781110   0.4674667), wk =   0.0063492
        k(   67) = (   0.0000000  -0.4781110   0.7012001), wk =   0.0063492
        k(   68) = (   0.0000000  -0.4781110   0.9349334), wk =   0.0063492
        k(   69) = (   0.0000000  -0.7171664   0.2337334), wk =   0.0063492
        k(   70) = (   0.0000000  -0.7171664   0.4674667), wk =   0.0063492
        k(   71) = (   0.0000000  -0.7171664   0.7012001), wk =   0.0063492
        k(   72) = (   0.0000000  -0.7171664   0.9349334), wk =   0.0063492
        k(   73) = (  -0.2000000   0.0000000   0.2337334), wk =   0.0063492
        k(   74) = (  -0.2000000   0.0000000   0.4674667), wk =   0.0063492
        k(   75) = (  -0.2000000   0.0000000   0.7012001), wk =   0.0063492
        k(   76) = (  -0.2000000   0.0000000   0.9349334), wk =   0.0063492
        k(   77) = (  -0.2000000   0.2390555   0.0000000), wk =   0.0063492
        k(   78) = (  -0.2000000  -0.2390555   0.2337334), wk =   0.0063492
        k(   79) = (  -0.2000000   0.2390555  -0.2337334), wk =   0.0063492
        k(   80) = (   0.2000000  -0.2390555  -0.2337334), wk =   0.0063492
        k(   81) = (  -0.2000000  -0.2390555   0.4674667), wk =   0.0063492
        k(   82) = (  -0.2000000   0.2390555  -0.4674667), wk =   0.0063492
        k(   83) = (   0.2000000  -0.2390555  -0.4674667), wk =   0.0063492
        k(   84) = (  -0.2000000  -0.2390555   0.7012001), wk =   0.0063492
        k(   85) = (  -0.2000000   0.2390555  -0.7012001), wk =   0.0063492
        k(   86) = (   0.2000000  -0.2390555  -0.7012001), wk =   0.0063492
        k(   87) = (  -0.2000000  -0.2390555   0.9349334), wk =   0.0063492
        k(   88) = (  -0.2000000   0.2390555  -0.9349334), wk =   0.0063492
        k(   89) = (   0.2000000  -0.2390555  -0.9349334), wk =   0.0063492
        k(   90) = (  -0.2000000   0.4781110   0.0000000), wk =   0.0063492
        k(   91) = (  -0.2000000  -0.4781110   0.2337334), wk =   0.0063492
        k(   92) = (  -0.2000000   0.4781110  -0.2337334), wk =   0.0063492
        k(   93) = (   0.2000000  -0.4781110  -0.2337334), wk =   0.0063492
        k(   94) = (  -0.2000000  -0.4781110   0.4674667), wk =   0.0063492
        k(   95) = (  -0.2000000   0.4781110  -0.4674667), wk =   0.0063492
        k(   96) = (   0.2000000  -0.4781110  -0.4674667), wk =   0.0063492
        k(   97) = (  -0.2000000  -0.4781110   0.7012001), wk =   0.0063492
        k(   98) = (  -0.2000000   0.4781110  -0.7012001), wk =   0.0063492
        k(   99) = (   0.2000000  -0.4781110  -0.7012001), wk =   0.0063492
        k(  100) = (  -0.2000000  -0.4781110   0.9349334), wk =   0.0063492
        k(  101) = (  -0.2000000   0.4781110  -0.9349334), wk =   0.0063492
        k(  102) = (   0.2000000  -0.4781110  -0.9349334), wk =   0.0063492
        k(  103) = (  -0.2000000   0.7171664   0.0000000), wk =   0.0063492
        k(  104) = (  -0.2000000  -0.7171664   0.2337334), wk =   0.0063492
        k(  105) = (  -0.2000000   0.7171664  -0.2337334), wk =   0.0063492
        k(  106) = (   0.2000000  -0.7171664  -0.2337334), wk =   0.0063492
        k(  107) = (  -0.2000000  -0.7171664   0.4674667), wk =   0.0063492
        k(  108) = (  -0.2000000   0.7171664  -0.4674667), wk =   0.0063492
        k(  109) = (   0.2000000  -0.7171664  -0.4674667), wk =   0.0063492
        k(  110) = (  -0.2000000  -0.7171664   0.7012001), wk =   0.0063492
        k(  111) = (  -0.2000000   0.7171664  -0.7012001), wk =   0.0063492
        k(  112) = (   0.2000000  -0.7171664  -0.7012001), wk =   0.0063492
        k(  113) = (  -0.2000000  -0.7171664   0.9349334), wk =   0.0063492
        k(  114) = (  -0.2000000   0.7171664  -0.9349334), wk =   0.0063492
        k(  115) = (   0.2000000  -0.7171664  -0.9349334), wk =   0.0063492
        k(  116) = (  -0.4000000   0.0000000   0.2337334), wk =   0.0063492
        k(  117) = (  -0.4000000   0.0000000   0.4674667), wk =   0.0063492
        k(  118) = (  -0.4000000   0.0000000   0.7012001), wk =   0.0063492
        k(  119) = (  -0.4000000   0.0000000   0.9349334), wk =   0.0063492
        k(  120) = (  -0.4000000   0.2390555   0.0000000), wk =   0.0063492
        k(  121) = (  -0.4000000  -0.2390555   0.2337334), wk =   0.0063492
        k(  122) = (  -0.4000000   0.2390555  -0.2337334), wk =   0.0063492
        k(  123) = (   0.4000000  -0.2390555  -0.2337334), wk =   0.0063492
        k(  124) = (  -0.4000000  -0.2390555   0.4674667), wk =   0.0063492
        k(  125) = (  -0.4000000   0.2390555  -0.4674667), wk =   0.0063492
        k(  126) = (   0.4000000  -0.2390555  -0.4674667), wk =   0.0063492
        k(  127) = (  -0.4000000  -0.2390555   0.7012001), wk =   0.0063492
        k(  128) = (  -0.4000000   0.2390555  -0.7012001), wk =   0.0063492
        k(  129) = (   0.4000000  -0.2390555  -0.7012001), wk =   0.0063492
        k(  130) = (  -0.4000000  -0.2390555   0.9349334), wk =   0.0063492
        k(  131) = (  -0.4000000   0.2390555  -0.9349334), wk =   0.0063492
        k(  132) = (   0.4000000  -0.2390555  -0.9349334), wk =   0.0063492
        k(  133) = (  -0.4000000   0.4781110   0.0000000), wk =   0.0063492
        k(  134) = (  -0.4000000  -0.4781110   0.2337334), wk =   0.0063492
        k(  135) = (  -0.4000000   0.4781110  -0.2337334), wk =   0.0063492
        k(  136) = (   0.4000000  -0.4781110  -0.2337334), wk =   0.0063492
        k(  137) = (  -0.4000000  -0.4781110   0.4674667), wk =   0.0063492
        k(  138) = (  -0.4000000   0.4781110  -0.4674667), wk =   0.0063492
        k(  139) = (   0.4000000  -0.4781110  -0.4674667), wk =   0.0063492
        k(  140) = (  -0.4000000  -0.4781110   0.7012001), wk =   0.0063492
        k(  141) = (  -0.4000000   0.4781110  -0.7012001), wk =   0.0063492
        k(  142) = (   0.4000000  -0.4781110  -0.7012001), wk =   0.0063492
        k(  143) = (  -0.4000000  -0.4781110   0.9349334), wk =   0.0063492
        k(  144) = (  -0.4000000   0.4781110  -0.9349334), wk =   0.0063492
        k(  145) = (   0.4000000  -0.4781110  -0.9349334), wk =   0.0063492
        k(  146) = (  -0.4000000   0.7171664   0.0000000), wk =   0.0063492
        k(  147) = (  -0.4000000  -0.7171664   0.2337334), wk =   0.0063492
        k(  148) = (  -0.4000000   0.7171664  -0.2337334), wk =   0.0063492
        k(  149) = (   0.4000000  -0.7171664  -0.2337334), wk =   0.0063492
        k(  150) = (  -0.4000000  -0.7171664   0.4674667), wk =   0.0063492
        k(  151) = (  -0.4000000   0.7171664  -0.4674667), wk =   0.0063492
        k(  152) = (   0.4000000  -0.7171664  -0.4674667), wk =   0.0063492
        k(  153) = (  -0.4000000  -0.7171664   0.7012001), wk =   0.0063492
        k(  154) = (  -0.4000000   0.7171664  -0.7012001), wk =   0.0063492
        k(  155) = (   0.4000000  -0.7171664  -0.7012001), wk =   0.0063492
        k(  156) = (  -0.4000000  -0.7171664   0.9349334), wk =   0.0063492
        k(  157) = (  -0.4000000   0.7171664  -0.9349334), wk =   0.0063492
        k(  158) = (   0.4000000  -0.7171664  -0.9349334), wk =   0.0063492

                       cryst. coord.
        k(    1) = (   0.0000000   0.0000000   0.0000000), wk =   0.0031746
        k(    2) = (   0.0000000   0.0000000   0.1111111), wk =   0.0063492
        k(    3) = (   0.0000000   0.0000000   0.2222222), wk =   0.0063492
        k(    4) = (   0.0000000   0.0000000   0.3333333), wk =   0.0063492
        k(    5) = (   0.0000000   0.0000000   0.4444444), wk =   0.0063492
        k(    6) = (   0.0000000   0.1428571   0.0000000), wk =   0.0063492
        k(    7) = (   0.0000000   0.1428571   0.1111111), wk =   0.0063492
        k(    8) = (   0.0000000   0.1428571   0.2222222), wk =   0.0063492
        k(    9) = (   0.0000000   0.1428571   0.3333333), wk =   0.0063492
        k(   10) = (   0.0000000   0.1428571   0.4444444), wk =   0.0063492
        k(   11) = (   0.0000000   0.2857143   0.0000000), wk =   0.0063492
        k(   12) = (   0.0000000   0.2857143   0.1111111), wk =   0.0063492
        k(   13) = (   0.0000000   0.2857143   0.2222222), wk =   0.0063492
        k(   14) = (   0.0000000   0.2857143   0.3333333), wk =   0.0063492
        k(   15) = (   0.0000000   0.2857143   0.4444444), wk =   0.0063492
        k(   16) = (   0.0000000   0.4285714   0.0000000), wk =   0.0063492
        k(   17) = (   0.0000000   0.4285714   0.1111111), wk =   0.0063492
        k(   18) = (   0.0000000   0.4285714   0.2222222), wk =   0.0063492
        k(   19) = (   0.0000000   0.4285714   0.3333333), wk =   0.0063492
        k(   20) = (   0.0000000   0.4285714   0.4444444), wk =   0.0063492
        k(   21) = (   0.2000000   0.0000000   0.0000000), wk =   0.0063492
        k(   22) = (   0.2000000   0.0000000   0.1111111), wk =   0.0063492
        k(   23) = (   0.2000000   0.0000000   0.2222222), wk =   0.0063492
        k(   24) = (   0.2000000   0.0000000   0.3333333), wk =   0.0063492
        k(   25) = (   0.2000000   0.0000000   0.4444444), wk =   0.0063492
        k(   26) = (   0.2000000   0.1428571   0.0000000), wk =   0.0063492
        k(   27) = (   0.2000000   0.1428571   0.1111111), wk =   0.0063492
        k(   28) = (   0.2000000   0.1428571   0.2222222), wk =   0.0063492
        k(   29) = (   0.2000000   0.1428571   0.3333333), wk =   0.0063492
        k(   30) = (   0.2000000   0.1428571   0.4444444), wk =   0.0063492
        k(   31) = (   0.2000000   0.2857143   0.0000000), wk =   0.0063492
        k(   32) = (   0.2000000   0.2857143   0.1111111), wk =   0.0063492
        k(   33) = (   0.2000000   0.2857143   0.2222222), wk =   0.0063492
        k(   34) = (   0.2000000   0.2857143   0.3333333), wk =   0.0063492
        k(   35) = (   0.2000000   0.2857143   0.4444444), wk =   0.0063492
        k(   36) = (   0.2000000   0.4285714   0.0000000), wk =   0.0063492
        k(   37) = (   0.2000000   0.4285714   0.1111111), wk =   0.0063492
        k(   38) = (   0.2000000   0.4285714   0.2222222), wk =   0.0063492
        k(   39) = (   0.2000000   0.4285714   0.3333333), wk =   0.0063492
        k(   40) = (   0.2000000   0.4285714   0.4444444), wk =   0.0063492
        k(   41) = (   0.4000000   0.0000000   0.0000000), wk =   0.0063492
        k(   42) = (   0.4000000   0.0000000   0.1111111), wk =   0.0063492
        k(   43) = (   0.4000000   0.0000000   0.2222222), wk =   0.0063492
        k(   44) = (   0.4000000   0.0000000   0.3333333), wk =   0.0063492
        k(   45) = (   0.4000000   0.0000000   0.4444444), wk =   0.0063492
        k(   46) = (   0.4000000   0.1428571   0.0000000), wk =   0.0063492
        k(   47) = (   0.4000000   0.1428571   0.1111111), wk =   0.0063492
        k(   48) = (   0.4000000   0.1428571   0.2222222), wk =   0.0063492
        k(   49) = (   0.4000000   0.1428571   0.3333333), wk =   0.0063492
        k(   50) = (   0.4000000   0.1428571   0.4444444), wk =   0.0063492
        k(   51) = (   0.4000000   0.2857143   0.0000000), wk =   0.0063492
        k(   52) = (   0.4000000   0.2857143   0.1111111), wk =   0.0063492
        k(   53) = (   0.4000000   0.2857143   0.2222222), wk =   0.0063492
        k(   54) = (   0.4000000   0.2857143   0.3333333), wk =   0.0063492
        k(   55) = (   0.4000000   0.2857143   0.4444444), wk =   0.0063492
        k(   56) = (   0.4000000   0.4285714   0.0000000), wk =   0.0063492
        k(   57) = (   0.4000000   0.4285714   0.1111111), wk =   0.0063492
        k(   58) = (   0.4000000   0.4285714   0.2222222), wk =   0.0063492
        k(   59) = (   0.4000000   0.4285714   0.3333333), wk =   0.0063492
        k(   60) = (   0.4000000   0.4285714   0.4444444), wk =   0.0063492
        k(   61) = (   0.0000000  -0.1428571   0.1111111), wk =   0.0063492
        k(   62) = (   0.0000000  -0.1428571   0.2222222), wk =   0.0063492
        k(   63) = (   0.0000000  -0.1428571   0.3333333), wk =   0.0063492
        k(   64) = (   0.0000000  -0.1428571   0.4444444), wk =   0.0063492
        k(   65) = (   0.0000000  -0.2857143   0.1111111), wk =   0.0063492
        k(   66) = (   0.0000000  -0.2857143   0.2222222), wk =   0.0063492
        k(   67) = (   0.0000000  -0.2857143   0.3333333), wk =   0.0063492
        k(   68) = (   0.0000000  -0.2857143   0.4444444), wk =   0.0063492
        k(   69) = (   0.0000000  -0.4285714   0.1111111), wk =   0.0063492
        k(   70) = (   0.0000000  -0.4285714   0.2222222), wk =   0.0063492
        k(   71) = (   0.0000000  -0.4285714   0.3333333), wk =   0.0063492
        k(   72) = (   0.0000000  -0.4285714   0.4444444), wk =   0.0063492
        k(   73) = (  -0.2000000   0.0000000   0.1111111), wk =   0.0063492
        k(   74) = (  -0.2000000   0.0000000   0.2222222), wk =   0.0063492
        k(   75) = (  -0.2000000   0.0000000   0.3333333), wk =   0.0063492
        k(   76) = (  -0.2000000   0.0000000   0.4444444), wk =   0.0063492
        k(   77) = (  -0.2000000   0.1428571   0.0000000), wk =   0.0063492
        k(   78) = (  -0.2000000  -0.1428571   0.1111111), wk =   0.0063492
        k(   79) = (  -0.2000000   0.1428571  -0.1111111), wk =   0.0063492
        k(   80) = (   0.2000000  -0.1428571  -0.1111111), wk =   0.0063492
        k(   81) = (  -0.2000000  -0.1428571   0.2222222), wk =   0.0063492
        k(   82) = (  -0.2000000   0.1428571  -0.2222222), wk =   0.0063492
        k(   83) = (   0.2000000  -0.1428571  -0.2222222), wk =   0.0063492
        k(   84) = (  -0.2000000  -0.1428571   0.3333333), wk =   0.0063492
        k(   85) = (  -0.2000000   0.1428571  -0.3333333), wk =   0.0063492
        k(   86) = (   0.2000000  -0.1428571  -0.3333333), wk =   0.0063492
        k(   87) = (  -0.2000000  -0.1428571   0.4444444), wk =   0.0063492
        k(   88) = (  -0.2000000   0.1428571  -0.4444444), wk =   0.0063492
        k(   89) = (   0.2000000  -0.1428571  -0.4444444), wk =   0.0063492
        k(   90) = (  -0.2000000   0.2857143   0.0000000), wk =   0.0063492
        k(   91) = (  -0.2000000  -0.2857143   0.1111111), wk =   0.0063492
        k(   92) = (  -0.2000000   0.2857143  -0.1111111), wk =   0.0063492
        k(   93) = (   0.2000000  -0.2857143  -0.1111111), wk =   0.0063492
        k(   94) = (  -0.2000000  -0.2857143   0.2222222), wk =   0.0063492
        k(   95) = (  -0.2000000   0.2857143  -0.2222222), wk =   0.0063492
        k(   96) = (   0.2000000  -0.2857143  -0.2222222), wk =   0.0063492
        k(   97) = (  -0.2000000  -0.2857143   0.3333333), wk =   0.0063492
        k(   98) = (  -0.2000000   0.2857143  -0.3333333), wk =   0.0063492
        k(   99) = (   0.2000000  -0.2857143  -0.3333333), wk =   0.0063492
        k(  100) = (  -0.2000000  -0.2857143   0.4444444), wk =   0.0063492
        k(  101) = (  -0.2000000   0.2857143  -0.4444444), wk =   0.0063492
        k(  102) = (   0.2000000  -0.2857143  -0.4444444), wk =   0.0063492
        k(  103) = (  -0.2000000   0.4285714   0.0000000), wk =   0.0063492
        k(  104) = (  -0.2000000  -0.4285714   0.1111111), wk =   0.0063492
        k(  105) = (  -0.2000000   0.4285714  -0.1111111), wk =   0.0063492
        k(  106) = (   0.2000000  -0.4285714  -0.1111111), wk =   0.0063492
        k(  107) = (  -0.2000000  -0.4285714   0.2222222), wk =   0.0063492
        k(  108) = (  -0.2000000   0.4285714  -0.2222222), wk =   0.0063492
        k(  109) = (   0.2000000  -0.4285714  -0.2222222), wk =   0.0063492
        k(  110) = (  -0.2000000  -0.4285714   0.3333333), wk =   0.0063492
        k(  111) = (  -0.2000000   0.4285714  -0.3333333), wk =   0.0063492
        k(  112) = (   0.2000000  -0.4285714  -0.3333333), wk =   0.0063492
        k(  113) = (  -0.2000000  -0.4285714   0.4444444), wk =   0.0063492
        k(  114) = (  -0.2000000   0.4285714  -0.4444444), wk =   0.0063492
        k(  115) = (   0.2000000  -0.4285714  -0.4444444), wk =   0.0063492
        k(  116) = (  -0.4000000   0.0000000   0.1111111), wk =   0.0063492
        k(  117) = (  -0.4000000   0.0000000   0.2222222), wk =   0.0063492
        k(  118) = (  -0.4000000   0.0000000   0.3333333), wk =   0.0063492
        k(  119) = (  -0.4000000   0.0000000   0.4444444), wk =   0.0063492
        k(  120) = (  -0.4000000   0.1428571   0.0000000), wk =   0.0063492
        k(  121) = (  -0.4000000  -0.1428571   0.1111111), wk =   0.0063492
        k(  122) = (  -0.4000000   0.1428571  -0.1111111), wk =   0.0063492
        k(  123) = (   0.4000000  -0.1428571  -0.1111111), wk =   0.0063492
        k(  124) = (  -0.4000000  -0.1428571   0.2222222), wk =   0.0063492
        k(  125) = (  -0.4000000   0.1428571  -0.2222222), wk =   0.0063492
        k(  126) = (   0.4000000  -0.1428571  -0.2222222), wk =   0.0063492
        k(  127) = (  -0.4000000  -0.1428571   0.3333333), wk =   0.0063492
        k(  128) = (  -0.4000000   0.1428571  -0.3333333), wk =   0.0063492
        k(  129) = (   0.4000000  -0.1428571  -0.3333333), wk =   0.0063492
        k(  130) = (  -0.4000000  -0.1428571   0.4444444), wk =   0.0063492
        k(  131) = (  -0.4000000   0.1428571  -0.4444444), wk =   0.0063492
        k(  132) = (   0.4000000  -0.1428571  -0.4444444), wk =   0.0063492
        k(  133) = (  -0.4000000   0.2857143   0.0000000), wk =   0.0063492
        k(  134) = (  -0.4000000  -0.2857143   0.1111111), wk =   0.0063492
        k(  135) = (  -0.4000000   0.2857143  -0.1111111), wk =   0.0063492
        k(  136) = (   0.4000000  -0.2857143  -0.1111111), wk =   0.0063492
        k(  137) = (  -0.4000000  -0.2857143   0.2222222), wk =   0.0063492
        k(  138) = (  -0.4000000   0.2857143  -0.2222222), wk =   0.0063492
        k(  139) = (   0.4000000  -0.2857143  -0.2222222), wk =   0.0063492
        k(  140) = (  -0.4000000  -0.2857143   0.3333333), wk =   0.0063492
        k(  141) = (  -0.4000000   0.2857143  -0.3333333), wk =   0.0063492
        k(  142) = (   0.4000000  -0.2857143  -0.3333333), wk =   0.0063492
        k(  143) = (  -0.4000000  -0.2857143   0.4444444), wk =   0.0063492
        k(  144) = (  -0.4000000   0.2857143  -0.4444444), wk =   0.0063492
        k(  145) = (   0.4000000  -0.2857143  -0.4444444), wk =   0.0063492
        k(  146) = (  -0.4000000   0.4285714   0.0000000), wk =   0.0063492
        k(  147) = (  -0.4000000  -0.4285714   0.1111111), wk =   0.0063492
        k(  148) = (  -0.4000000   0.4285714  -0.1111111), wk =   0.0063492
        k(  149) = (   0.4000000  -0.4285714  -0.1111111), wk =   0.0063492
        k(  150) = (  -0.4000000  -0.4285714   0.2222222), wk =   0.0063492
        k(  151) = (  -0.4000000   0.4285714  -0.2222222), wk =   0.0063492
        k(  152) = (   0.4000000  -0.4285714  -0.2222222), wk =   0.0063492
        k(  153) = (  -0.4000000  -0.4285714   0.3333333), wk =   0.0063492
        k(  154) = (  -0.4000000   0.4285714  -0.3333333), wk =   0.0063492
        k(  155) = (   0.4000000  -0.4285714  -0.3333333), wk =   0.0063492
        k(  156) = (  -0.4000000  -0.4285714   0.4444444), wk =   0.0063492
        k(  157) = (  -0.4000000   0.4285714  -0.4444444), wk =   0.0063492
        k(  158) = (   0.4000000  -0.4285714  -0.4444444), wk =   0.0063492

     Dense  grid:  1360823 G-vectors     FFT dimensions: ( 216, 125, 100)

     Smooth grid:   306739 G-vectors     FFT dimensions: ( 128,  80,  64)

     Dynamical RAM for                 wfc:       2.08 MB

     Dynamical RAM for     wfc (w. buffer):     660.60 MB

     Dynamical RAM for           str. fact:       2.60 MB

     Dynamical RAM for           local pot:       0.00 MB

     Dynamical RAM for          nlocal pot:       5.12 MB

     Dynamical RAM for                qrad:      10.54 MB

     Dynamical RAM for          rho,v,vnew:       8.84 MB

     Dynamical RAM for               rhoin:       2.95 MB

     Dynamical RAM for            rho*nmix:      20.77 MB

     Dynamical RAM for           G-vectors:       2.51 MB

     Dynamical RAM for          h,s,v(r/c):       2.38 MB

     Dynamical RAM for          <psi|beta>:       0.49 MB

     Dynamical RAM for                 psi:       4.17 MB

     Dynamical RAM for                hpsi:       4.17 MB

     Dynamical RAM for                spsi:       4.17 MB

     Dynamical RAM for      wfcinit/wfcrot:       5.44 MB

     Dynamical RAM for           addusdens:     131.73 MB

     Dynamical RAM for          addusforce:     151.32 MB

     Dynamical RAM for         addusstress:     131.40 MB

     Estimated static dynamical RAM per process >     722.10 MB

     Estimated max dynamical RAM per process >     873.42 MB

     Estimated total dynamical RAM >      27.29 GB

     Check: negative core charge=   -0.000003
     Generating pointlists ...
     new r_m :   0.0763 (alat units)  1.5260 (a.u.) for type    1
     new r_m :   0.0915 (alat units)  1.8288 (a.u.) for type    2
     new r_m :   0.0609 (alat units)  1.2167 (a.u.) for type    3
     new r_m :   0.0609 (alat units)  1.2167 (a.u.) for type    4

     Initial potential from superposition of free atoms

     starting charge  188.99132, renormalised to  189.00000
     Starting wfcs are  137 randomized atomic wfcs
     Checking if some PAW data can be deallocated... 
       PAW data deallocated on   24 nodes for type:  1
       PAW data deallocated on   16 nodes for type:  3

     total cpu time spent up to now is     1345.9 secs

     Self-consistent Calculation

     iteration #  1     ecut=   100.00 Ry     beta= 0.40
     Davidson diagonalization with overlap
     ethr =  1.00E-02,  avg # of iterations =  3.0

     negative rho (up, down):  0.000E+00 1.226E-04

     total cpu time spent up to now is     4976.1 secs

     total energy              =   -2123.86494155 Ry
     estimated scf accuracy    <       6.97633114 Ry

     total magnetization       =    19.00 Bohr mag/cell
     absolute magnetization    =    19.00 Bohr mag/cell

     iteration #  2     ecut=   100.00 Ry     beta= 0.40
     Davidson diagonalization with overlap
     ethr =  3.69E-03,  avg # of iterations =  2.0

     negative rho (up, down):  0.000E+00 7.822E-05

     total cpu time spent up to now is     8425.9 secs

     total energy              =   -2121.50626398 Ry
     estimated scf accuracy    <      29.07203989 Ry

     total magnetization       =     8.09 Bohr mag/cell
     absolute magnetization    =     9.96 Bohr mag/cell

     iteration #  3     ecut=   100.00 Ry     beta= 0.40
     Davidson diagonalization with overlap
     ethr =  3.69E-03,  avg # of iterations =  2.1

     negative rho (up, down):  0.000E+00 6.908E-05

     total cpu time spent up to now is    11363.6 secs

     total energy              =   -2124.47645280 Ry
     estimated scf accuracy    <      33.71057539 Ry

     total magnetization       =    10.26 Bohr mag/cell
     absolute magnetization    =    11.44 Bohr mag/cell

     iteration #  4     ecut=   100.00 Ry     beta= 0.40
     Davidson diagonalization with overlap
     ethr =  3.69E-03,  avg # of iterations =  2.0

     negative rho (up, down):  0.000E+00 1.323E-04

     total cpu time spent up to now is    14206.2 secs

     total energy              =   -2125.65147657 Ry
     estimated scf accuracy    <       6.73497248 Ry

     total magnetization       =    16.32 Bohr mag/cell
     absolute magnetization    =    16.44 Bohr mag/cell

     iteration #  5     ecut=   100.00 Ry     beta= 0.40
     Davidson diagonalization with overlap
     ethr =  3.56E-03,  avg # of iterations =  1.5

     negative rho (up, down):  0.000E+00 1.667E-04

     total cpu time spent up to now is    16968.5 secs

     total energy              =   -2125.72364557 Ry
     estimated scf accuracy    <       7.88620821 Ry

     total magnetization       =    15.73 Bohr mag/cell
     absolute magnetization    =    15.89 Bohr mag/cell

     iteration #  6     ecut=   100.00 Ry     beta= 0.40
     Davidson diagonalization with overlap
     ethr =  3.56E-03,  avg # of iterations =  1.0

     negative rho (up, down):  0.000E+00 1.903E-04

     total cpu time spent up to now is    19674.2 secs

     total energy              =   -2125.93644240 Ry
     estimated scf accuracy    <       2.12666318 Ry

     total magnetization       =    18.41 Bohr mag/cell
     absolute magnetization    =    18.41 Bohr mag/cell

     iteration #  7     ecut=   100.00 Ry     beta= 0.40
     Davidson diagonalization with overlap
     ethr =  1.13E-03,  avg # of iterations =  1.0

     negative rho (up, down):  0.000E+00 3.088E-04

     total cpu time spent up to now is    22377.4 secs

     total energy              =   -2126.07036372 Ry
     estimated scf accuracy    <       0.72300845 Ry

     total magnetization       =    19.00 Bohr mag/cell
     absolute magnetization    =    19.00 Bohr mag/cell

     iteration #  8     ecut=   100.00 Ry     beta= 0.40
     Davidson diagonalization with overlap
     ethr =  3.83E-04,  avg # of iterations =  1.1

     negative rho (up, down):  0.000E+00 4.969E-04

     total cpu time spent up to now is    25086.0 secs

     total energy              =   -2126.05651443 Ry
     estimated scf accuracy    <       0.25775208 Ry

     total magnetization       =    19.00 Bohr mag/cell
     absolute magnetization    =    19.00 Bohr mag/cell

     iteration #  9     ecut=   100.00 Ry     beta= 0.40
     Davidson diagonalization with overlap
     c_bands:  2 eigenvalues not converged
     c_bands:  1 eigenvalues not converged
     c_bands:  1 eigenvalues not converged
     ethr =  1.36E-04,  avg # of iterations =  7.8

     negative rho (up, down):  0.000E+00 7.895E-04

     total cpu time spent up to now is    28455.9 secs

     total energy              =   -2126.06208640 Ry
     estimated scf accuracy    <       0.15338824 Ry

     total magnetization       =    19.00 Bohr mag/cell
     absolute magnetization    =    19.01 Bohr mag/cell

     iteration # 10     ecut=   100.00 Ry     beta= 0.40
     Davidson diagonalization with overlap
     c_bands:  1 eigenvalues not converged
     c_bands:  2 eigenvalues not converged
     c_bands:  1 eigenvalues not converged
     c_bands:  1 eigenvalues not converged
     c_bands:  1 eigenvalues not converged
     c_bands:  1 eigenvalues not converged
     ethr =  8.12E-05,  avg # of iterations =  7.5

     negative rho (up, down):  0.000E+00 8.757E-04

     total cpu time spent up to now is    31828.6 secs

     total energy              =   -2126.06754078 Ry
     estimated scf accuracy    <       0.50182844 Ry

     total magnetization       =    19.00 Bohr mag/cell
     absolute magnetization    =    19.02 Bohr mag/cell

     iteration # 11     ecut=   100.00 Ry     beta= 0.40
     Davidson diagonalization with overlap
     ethr =  8.12E-05,  avg # of iterations =  1.1

     negative rho (up, down):  0.000E+00 8.788E-04

     total cpu time spent up to now is    34547.7 secs

     total energy              =   -2126.07838412 Ry
     estimated scf accuracy    <       0.09735264 Ry

     total magnetization       =    19.00 Bohr mag/cell
     absolute magnetization    =    19.03 Bohr mag/cell

     iteration # 12     ecut=   100.00 Ry     beta= 0.40
     Davidson diagonalization with overlap
     ethr =  5.15E-05,  avg # of iterations =  1.3

     negative rho (up, down):  0.000E+00 8.896E-04

     total cpu time spent up to now is    37288.3 secs

     total energy              =   -2126.07747346 Ry
     estimated scf accuracy    <       0.08729784 Ry

     total magnetization       =    19.00 Bohr mag/cell
     absolute magnetization    =    19.03 Bohr mag/cell

     iteration # 13     ecut=   100.00 Ry     beta= 0.40
     Davidson diagonalization with overlap
     c_bands:  1 eigenvalues not converged
     ethr =  4.62E-05,  avg # of iterations =  1.5

     negative rho (up, down):  0.000E+00 8.988E-04

     total cpu time spent up to now is    40045.4 secs

     total energy              =   -2126.07799507 Ry
     estimated scf accuracy    <       0.03582970 Ry

     total magnetization       =    19.00 Bohr mag/cell
     absolute magnetization    =    19.04 Bohr mag/cell

     iteration # 14     ecut=   100.00 Ry     beta= 0.40
     Davidson diagonalization with overlap
     c_bands:  1 eigenvalues not converged
     c_bands:  1 eigenvalues not converged
     c_bands:  1 eigenvalues not converged
     c_bands:  1 eigenvalues not converged
     c_bands:  1 eigenvalues not converged
     c_bands:  1 eigenvalues not converged
     c_bands:  1 eigenvalues not converged
     c_bands:  2 eigenvalues not converged
     c_bands:  1 eigenvalues not converged
     c_bands:  1 eigenvalues not converged
     c_bands:  1 eigenvalues not converged
     c_bands:  1 eigenvalues not converged
     c_bands:  1 eigenvalues not converged
     c_bands:  1 eigenvalues not converged
     c_bands:  1 eigenvalues not converged
     c_bands:  1 eigenvalues not converged
     c_bands:  1 eigenvalues not converged
     c_bands:  2 eigenvalues not converged
     c_bands:  1 eigenvalues not converged
     c_bands:  1 eigenvalues not converged
     c_bands:  1 eigenvalues not converged
     c_bands:  1 eigenvalues not converged
     ethr =  1.90E-05,  avg # of iterations =  7.8

     negative rho (up, down):  0.000E+00 9.073E-04

     total cpu time spent up to now is    43448.9 secs

     total energy              =   -2126.07894322 Ry
     estimated scf accuracy    <       0.00864928 Ry

     total magnetization       =    19.00 Bohr mag/cell
     absolute magnetization    =    19.04 Bohr mag/cell

     iteration # 15     ecut=   100.00 Ry     beta= 0.40
     Davidson diagonalization with overlap
     c_bands:  1 eigenvalues not converged
     c_bands:  1 eigenvalues not converged
     c_bands:  1 eigenvalues not converged
     c_bands:  1 eigenvalues not converged
     c_bands:  1 eigenvalues not converged
     c_bands:  1 eigenvalues not converged
     c_bands:  1 eigenvalues not converged
     c_bands:  2 eigenvalues not converged
     c_bands:  1 eigenvalues not converged
     c_bands:  1 eigenvalues not converged
     c_bands:  1 eigenvalues not converged
     c_bands:  1 eigenvalues not converged
     c_bands:  1 eigenvalues not converged
     c_bands:  1 eigenvalues not converged
     c_bands:  1 eigenvalues not converged
     c_bands:  1 eigenvalues not converged
     c_bands:  1 eigenvalues not converged
     c_bands:  1 eigenvalues not converged
     c_bands:  1 eigenvalues not converged
     ethr =  4.58E-06,  avg # of iterations = 11.3

     negative rho (up, down):  0.000E+00 9.134E-04

     total cpu time spent up to now is    47352.4 secs

     total energy              =   -2126.07935425 Ry
     estimated scf accuracy    <       0.00401522 Ry

     total magnetization       =    19.00 Bohr mag/cell
     absolute magnetization    =    19.04 Bohr mag/cell

     iteration # 16     ecut=   100.00 Ry     beta= 0.40
     Davidson diagonalization with overlap
     c_bands:  1 eigenvalues not converged
     ethr =  2.12E-06,  avg # of iterations =  2.8

     negative rho (up, down):  0.000E+00 9.089E-04

     total cpu time spent up to now is    50281.4 secs

     total energy              =   -2126.07958537 Ry
     estimated scf accuracy    <       0.00266752 Ry

     total magnetization       =    19.00 Bohr mag/cell
     absolute magnetization    =    19.04 Bohr mag/cell

     iteration # 17     ecut=   100.00 Ry     beta= 0.40
     Davidson diagonalization with overlap
     c_bands:  1 eigenvalues not converged
     ethr =  1.41E-06,  avg # of iterations =  1.2

     negative rho (up, down):  0.000E+00 9.035E-04

     total cpu time spent up to now is    53004.8 secs

     total energy              =   -2126.07970857 Ry
     estimated scf accuracy    <       0.00009869 Ry

     total magnetization       =    19.00 Bohr mag/cell
     absolute magnetization    =    19.05 Bohr mag/cell

     iteration # 18     ecut=   100.00 Ry     beta= 0.40
     Davidson diagonalization with overlap
     ethr =  5.22E-08,  avg # of iterations =  7.4

     negative rho (up, down):  0.000E+00 9.010E-04

     total cpu time spent up to now is    59736.1 secs

     total energy              =   -2126.07985737 Ry
     estimated scf accuracy    <       0.00010596 Ry

     total magnetization       =    19.00 Bohr mag/cell
     absolute magnetization    =    19.05 Bohr mag/cell

     iteration # 19     ecut=   100.00 Ry     beta= 0.40
     Davidson diagonalization with overlap
     ethr =  5.22E-08,  avg # of iterations =  1.0

     negative rho (up, down):  0.000E+00 8.974E-04

     total cpu time spent up to now is    62438.9 secs

     total energy              =   -2126.07986183 Ry
     estimated scf accuracy    <       0.00002632 Ry

     total magnetization       =    19.00 Bohr mag/cell
     absolute magnetization    =    19.05 Bohr mag/cell

     iteration # 20     ecut=   100.00 Ry     beta= 0.40
     Davidson diagonalization with overlap
     ethr =  1.39E-08,  avg # of iterations =  1.0

     negative rho (up, down):  0.000E+00 8.927E-04

     total cpu time spent up to now is    65143.2 secs

     total energy              =   -2126.07986237 Ry
     estimated scf accuracy    <       0.00005497 Ry

     total magnetization       =    19.00 Bohr mag/cell
     absolute magnetization    =    19.05 Bohr mag/cell

     iteration # 21     ecut=   100.00 Ry     beta= 0.40
     Davidson diagonalization with overlap
     ethr =  1.39E-08,  avg # of iterations =  1.0

     negative rho (up, down):  0.000E+00 8.919E-04

     total cpu time spent up to now is    67847.3 secs

     total energy              =   -2126.07986476 Ry
     estimated scf accuracy    <       0.00002894 Ry

     total magnetization       =    19.00 Bohr mag/cell
     absolute magnetization    =    19.05 Bohr mag/cell

     iteration # 22     ecut=   100.00 Ry     beta= 0.40
     Davidson diagonalization with overlap
     ethr =  1.39E-08,  avg # of iterations =  1.0

     negative rho (up, down):  0.000E+00 8.920E-04

     total cpu time spent up to now is    70550.8 secs

     total energy              =   -2126.07986540 Ry
     estimated scf accuracy    <       0.00000656 Ry

     total magnetization       =    19.00 Bohr mag/cell
     absolute magnetization    =    19.05 Bohr mag/cell

     iteration # 23     ecut=   100.00 Ry     beta= 0.40
     Davidson diagonalization with overlap
     ethr =  3.47E-09,  avg # of iterations =  1.0

     negative rho (up, down):  0.000E+00 8.925E-04

     total cpu time spent up to now is    73263.0 secs

     total energy              =   -2126.07986566 Ry
     estimated scf accuracy    <       0.00000117 Ry

     total magnetization       =    19.00 Bohr mag/cell
     absolute magnetization    =    19.05 Bohr mag/cell

     iteration # 24     ecut=   100.00 Ry     beta= 0.40
     Davidson diagonalization with overlap
     ethr =  6.18E-10,  avg # of iterations =  3.3

     negative rho (up, down):  0.000E+00 8.927E-04

     total cpu time spent up to now is    76496.4 secs

     total energy              =   -2126.07986611 Ry
     estimated scf accuracy    <       0.00000040 Ry

     total magnetization       =    19.00 Bohr mag/cell
     absolute magnetization    =    19.05 Bohr mag/cell

     iteration # 25     ecut=   100.00 Ry     beta= 0.40
     Davidson diagonalization with overlap
     ethr =  2.13E-10,  avg # of iterations =  3.6

     negative rho (up, down):  0.000E+00 8.931E-04

     total cpu time spent up to now is    79726.7 secs

     total energy              =   -2126.07986622 Ry
     estimated scf accuracy    <       0.00000013 Ry

     total magnetization       =    19.00 Bohr mag/cell
     absolute magnetization    =    19.05 Bohr mag/cell

     iteration # 26     ecut=   100.00 Ry     beta= 0.40
     Davidson diagonalization with overlap
     ethr =  6.97E-11,  avg # of iterations =  2.8

     negative rho (up, down):  0.000E+00 8.930E-04

     total cpu time spent up to now is    82848.6 secs

     total energy              =   -2126.07986625 Ry
     estimated scf accuracy    <       0.00000027 Ry

     total magnetization       =    19.00 Bohr mag/cell
     absolute magnetization    =    19.05 Bohr mag/cell

     iteration # 27     ecut=   100.00 Ry     beta= 0.40
     Davidson diagonalization with overlap
     ethr =  6.97E-11,  avg # of iterations =  2.0

     negative rho (up, down):  0.000E+00 8.932E-04

     total cpu time spent up to now is    85681.9 secs

     total energy              =   -2126.07986628 Ry
     estimated scf accuracy    <       0.00000018 Ry

     total magnetization       =    19.00 Bohr mag/cell
     absolute magnetization    =    19.05 Bohr mag/cell

     iteration # 28     ecut=   100.00 Ry     beta= 0.40
     Davidson diagonalization with overlap
     ethr =  6.97E-11,  avg # of iterations =  1.4

     negative rho (up, down):  0.000E+00 8.930E-04

     total cpu time spent up to now is    88421.0 secs

     total energy              =   -2126.07986629 Ry
     estimated scf accuracy    <       0.00000003 Ry

     total magnetization       =    19.00 Bohr mag/cell
     absolute magnetization    =    19.05 Bohr mag/cell

     iteration # 29     ecut=   100.00 Ry     beta= 0.40
     Davidson diagonalization with overlap
     ethr =  1.74E-11,  avg # of iterations =  2.1

     negative rho (up, down):  0.000E+00 8.930E-04

     total cpu time spent up to now is    91302.9 secs

     total energy              =   -2126.07986630 Ry
     estimated scf accuracy    <       0.00000002 Ry

     total magnetization       =    19.00 Bohr mag/cell
     absolute magnetization    =    19.05 Bohr mag/cell

     iteration # 30     ecut=   100.00 Ry     beta= 0.40
     Davidson diagonalization with overlap
     ethr =  1.31E-11,  avg # of iterations =  2.0

     negative rho (up, down):  0.000E+00 8.929E-04

     total cpu time spent up to now is    94132.3 secs

     total energy              =   -2126.07986630 Ry
     estimated scf accuracy    <          8.0E-09 Ry

     total magnetization       =    19.00 Bohr mag/cell
     absolute magnetization    =    19.05 Bohr mag/cell

     iteration # 31     ecut=   100.00 Ry     beta= 0.40
     Davidson diagonalization with overlap
     ethr =  4.23E-12,  avg # of iterations =  2.5

     negative rho (up, down):  0.000E+00 8.929E-04

     total cpu time spent up to now is    97103.2 secs

     total energy              =   -2126.07986630 Ry
     estimated scf accuracy    <          3.5E-09 Ry

     total magnetization       =    19.00 Bohr mag/cell
     absolute magnetization    =    19.05 Bohr mag/cell

     iteration # 32     ecut=   100.00 Ry     beta= 0.40
     Davidson diagonalization with overlap
     ethr =  1.83E-12,  avg # of iterations =  2.1

     negative rho (up, down):  0.000E+00 8.929E-04

     total cpu time spent up to now is    99952.1 secs

     total energy              =   -2126.07986631 Ry
     estimated scf accuracy    <          2.0E-09 Ry

     total magnetization       =    19.00 Bohr mag/cell
     absolute magnetization    =    19.05 Bohr mag/cell

     iteration # 33     ecut=   100.00 Ry     beta= 0.40
     Davidson diagonalization with overlap
     ethr =  1.04E-12,  avg # of iterations =  2.0

     negative rho (up, down):  0.000E+00 8.929E-04

     total cpu time spent up to now is   102793.0 secs

     total energy              =   -2126.07986631 Ry
     estimated scf accuracy    <          3.6E-09 Ry

     total magnetization       =    19.00 Bohr mag/cell
     absolute magnetization    =    19.05 Bohr mag/cell

     iteration # 34     ecut=   100.00 Ry     beta= 0.40
     Davidson diagonalization with overlap
     ethr =  1.04E-12,  avg # of iterations =  1.1

     negative rho (up, down):  0.000E+00 8.929E-04

     total cpu time spent up to now is   105509.0 secs

     total energy              =   -2126.07986631 Ry
     estimated scf accuracy    <          5.8E-10 Ry

     total magnetization       =    19.00 Bohr mag/cell
     absolute magnetization    =    19.05 Bohr mag/cell

     iteration # 35     ecut=   100.00 Ry     beta= 0.40
     Davidson diagonalization with overlap
     ethr =  3.05E-13,  avg # of iterations =  2.8

     negative rho (up, down):  0.000E+00 8.929E-04

     Magnetic moment per site:
     atom:    1    charge:    7.9641    magn:    0.0015    constr:    0.0000
     atom:    2    charge:   12.9633    magn:    3.6429    constr:    0.0000
     atom:    3    charge:   12.9575    magn:    3.6542    constr:    0.0000
     atom:    4    charge:   12.9505    magn:    3.6868    constr:    0.0000
     atom:    5    charge:   12.9706    magn:    3.6074    constr:    0.0000
     atom:    6    charge:    0.8785    magn:    0.0093    constr:    0.0000
     atom:    7    charge:    0.8710    magn:    0.0117    constr:    0.0000
     atom:    8    charge:    0.8809    magn:    0.0113    constr:    0.0000
     atom:    9    charge:    0.8698    magn:    0.0118    constr:    0.0000
     atom:   10    charge:    4.3061    magn:    0.1634    constr:    0.0000
     atom:   11    charge:    4.3163    magn:    0.1147    constr:    0.0000
     atom:   12    charge:    4.3333    magn:    0.1149    constr:    0.0000
     atom:   13    charge:    4.3207    magn:    0.1126    constr:    0.0000
     atom:   14    charge:    4.3131    magn:    0.1179    constr:    0.0000
     atom:   15    charge:    4.3057    magn:    0.1071    constr:    0.0000
     atom:   16    charge:    4.3189    magn:    0.1255    constr:    0.0000
     atom:   17    charge:    4.3190    magn:    0.0894    constr:    0.0000
     atom:   18    charge:    4.3250    magn:    0.1269    constr:    0.0000
     atom:   19    charge:    4.3056    magn:    0.1443    constr:    0.0000
     atom:   20    charge:    4.3099    magn:    0.1132    constr:    0.0000
     atom:   21    charge:    4.3051    magn:    0.1508    constr:    0.0000
     atom:   22    charge:    4.3210    magn:    0.1326    constr:    0.0000
     atom:   23    charge:    4.3085    magn:    0.1474    constr:    0.0000
     atom:   24    charge:    4.3110    magn:    0.1147    constr:    0.0000
     atom:   25    charge:    4.3188    magn:    0.1585    constr:    0.0000

     total cpu time spent up to now is   108486.6 secs

     End of self-consistent calculation

 ------ SPIN UP ------------


          k = 0.0000 0.0000 0.0000 ( 38251 PWs)   bands (ev):

   -85.8870 -85.8630 -85.6853 -85.4790 -51.9823 -51.9683 -51.9280 -51.8712
   -51.8060 -51.7980 -51.7664 -51.6858 -51.6326 -51.4816 -51.4606 -51.2899
   -45.0170 -17.0734 -16.9986 -16.9822 -16.5069 -16.3107 -16.2298 -16.0751
   -14.2926 -14.1440 -14.0778 -14.0019 -13.9624 -13.8979 -13.8879 -13.8477
   -13.8030 -13.7337 -13.7030 -13.6563  -4.8185  -4.3831  -4.1280  -3.9329
    -2.6524  -2.5253  -2.2820  -2.2197  -1.8961  -1.7619  -1.6510  -1.6144
    -1.5227  -1.5121  -1.3939  -1.2723  -0.6251  -0.5275  -0.3281  -0.1161
    -0.1064  -0.0129   0.0877   0.2093   0.2168   0.2586   0.3156   0.3938
     0.6037   0.8104   0.8459   0.9435   1.0871   1.1945   1.2455   1.3957
     1.4743   1.5332   1.5696   1.5899   1.7551   1.8245   1.8493   1.9455
     2.0320   2.1468   2.2151   2.3091   2.4032   2.4631   2.5443   2.6543
     2.8128   2.8977   2.9660   3.0351   3.1148   3.1408   3.3074   3.3307
     3.3834   3.4297   3.5503   3.6616   3.6709   3.7664   4.0355   4.3291
     8.2116  10.0694  10.5415  10.9698  11.3026  12.1856  12.3720  12.4128
    12.4973  12.5579

     occupation numbers 
     1.0000   1.0000   1.0000   1.0000   1.0000   1.0000   1.0000   1.0000
     1.0000   1.0000   1.0000   1.0000   1.0000   1.0000   1.0000   1.0000
     1.0000   1.0000   1.0000   1.0000   1.0000   1.0000   1.0000   1.0000
     1.0000   1.0000   1.0000   1.0000   1.0000   1.0000   1.0000   1.0000
     1.0000   1.0000   1.0000   1.0000   1.0000   1.0000   1.0000   1.0000
     1.0000   1.0000   1.0000   1.0000   1.0000   1.0000   1.0000   1.0000
     1.0000   1.0000   1.0000   1.0000   1.0000   1.0000   1.0000   1.0000
     1.0000   1.0000   1.0000   1.0000   1.0000   1.0000   1.0000   1.0000
     1.0000   1.0000   1.0000   1.0000   1.0000   1.0000   1.0000   1.0000
     1.0000   1.0000   1.0000   1.0000   1.0000   1.0000   1.0000   1.0000
     1.0000   1.0000   1.0000   1.0000   1.0000   1.0000   1.0000   1.0000
     1.0000   1.0000   1.0000   1.0000   1.0000   1.0000   1.0000   1.0000
     1.0000   1.0000   1.0000   1.0000   1.0000   1.0000   1.0000   1.0000
     0.0000   0.0000   0.0000   0.0000   0.0000   0.0000   0.0000   0.0000
     0.0000   0.0000

          k = 0.0000 0.0000 0.2337 ( 38277 PWs)   bands (ev):

   -85.8870 -85.8630 -85.6853 -85.4790 -51.9823 -51.9683 -51.9280 -51.8712
   -51.8060 -51.7980 -51.7664 -51.6858 -51.6326 -51.4816 -51.4606 -51.2899
   -45.0170 -17.0743 -17.0006 -16.9826 -16.4938 -16.3054 -16.2210 -16.0736
   -14.3029 -14.1473 -14.0903 -14.0027 -13.9572 -13.9103 -13.8863 -13.8487
   -13.8166 -13.7333 -13.7056 -13.6538  -4.7895  -4.3684  -4.1251  -3.9215
    -2.6418  -2.5155  -2.2886  -2.1894  -1.8979  -1.7650  -1.6472  -1.6082
    -1.5200  -1.4899  -1.4269  -1.2482  -0.6132  -0.5140  -0.3304  -0.1326
    -0.1108   0.0085   0.0698   0.1402   0.2409   0.2899   0.3240   0.3990
     0.5867   0.7858   0.8687   0.9552   1.0717   1.1839   1.2653   1.3852
     1.4625   1.5263   1.5647   1.6114   1.6942   1.8115   1.8373   1.9740
     2.0136   2.1429   2.2183   2.2902   2.3904   2.4164   2.5543   2.6640
     2.7904   2.8975   2.9710   3.0402   3.0938   3.1369   3.2895   3.3181
     3.3982   3.4541   3.5410   3.6505   3.6829   3.7691   4.0345   4.3232
     8.3533  10.1399  10.5867  11.0007  11.3382  12.1443  12.2886  12.3753
    12.4469  12.5090

     occupation numbers 
     1.0000   1.0000   1.0000   1.0000   1.0000   1.0000   1.0000   1.0000
     1.0000   1.0000   1.0000   1.0000   1.0000   1.0000   1.0000   1.0000
     1.0000   1.0000   1.0000   1.0000   1.0000   1.0000   1.0000   1.0000
     1.0000   1.0000   1.0000   1.0000   1.0000   1.0000   1.0000   1.0000
     1.0000   1.0000   1.0000   1.0000   1.0000   1.0000   1.0000   1.0000
     1.0000   1.0000   1.0000   1.0000   1.0000   1.0000   1.0000   1.0000
     1.0000   1.0000   1.0000   1.0000   1.0000   1.0000   1.0000   1.0000
     1.0000   1.0000   1.0000   1.0000   1.0000   1.0000   1.0000   1.0000
     1.0000   1.0000   1.0000   1.0000   1.0000   1.0000   1.0000   1.0000
     1.0000   1.0000   1.0000   1.0000   1.0000   1.0000   1.0000   1.0000
     1.0000   1.0000   1.0000   1.0000   1.0000   1.0000   1.0000   1.0000
     1.0000   1.0000   1.0000   1.0000   1.0000   1.0000   1.0000   1.0000
     1.0000   1.0000   1.0000   1.0000   1.0000   1.0000   1.0000   1.0000
     0.0000   0.0000   0.0000   0.0000   0.0000   0.0000   0.0000   0.0000
     0.0000   0.0000

          k = 0.0000 0.0000 0.4675 ( 38350 PWs)   bands (ev):

   -85.8870 -85.8630 -85.6853 -85.4790 -51.9823 -51.9683 -51.9280 -51.8712
   -51.8060 -51.7980 -51.7664 -51.6858 -51.6326 -51.4816 -51.4606 -51.2899
   -45.0170 -17.0770 -17.0054 -16.9829 -16.4594 -16.2921 -16.1977 -16.0713
   -14.3295 -14.1620 -14.1136 -14.0094 -13.9486 -13.9332 -13.8930 -13.8526
   -13.8337 -13.7385 -13.7106 -13.6499  -4.7133  -4.3288  -4.1151  -3.9057
    -2.6295  -2.4745  -2.2645  -2.1512  -1.9038  -1.7722  -1.6531  -1.5946
    -1.4975  -1.4692  -1.4288  -1.2277  -0.5954  -0.4731  -0.3140  -0.1707
    -0.1131   0.0088   0.0597   0.1302   0.2202   0.3133   0.3453   0.4371
     0.5600   0.7634   0.8475   0.9690   1.0532   1.1568   1.2645   1.3472
     1.4281   1.4849   1.5377   1.6002   1.6469   1.7943   1.8355   1.9451
     2.0158   2.1302   2.1818   2.2211   2.2842   2.4192   2.5911   2.6697
     2.7530   2.9064   2.9779   3.0216   3.0996   3.1270   3.2843   3.3155
     3.3904   3.4852   3.5453   3.6361   3.7019   3.7670   4.0345   4.3095
     8.7348  10.3218  10.6769  11.0909  11.4389  11.9011  12.1477  12.2613
    12.3853  12.4579

     occupation numbers 
     1.0000   1.0000   1.0000   1.0000   1.0000   1.0000   1.0000   1.0000
     1.0000   1.0000   1.0000   1.0000   1.0000   1.0000   1.0000   1.0000
     1.0000   1.0000   1.0000   1.0000   1.0000   1.0000   1.0000   1.0000
     1.0000   1.0000   1.0000   1.0000   1.0000   1.0000   1.0000   1.0000
     1.0000   1.0000   1.0000   1.0000   1.0000   1.0000   1.0000   1.0000
     1.0000   1.0000   1.0000   1.0000   1.0000   1.0000   1.0000   1.0000
     1.0000   1.0000   1.0000   1.0000   1.0000   1.0000   1.0000   1.0000
     1.0000   1.0000   1.0000   1.0000   1.0000   1.0000   1.0000   1.0000
     1.0000   1.0000   1.0000   1.0000   1.0000   1.0000   1.0000   1.0000
     1.0000   1.0000   1.0000   1.0000   1.0000   1.0000   1.0000   1.0000
     1.0000   1.0000   1.0000   1.0000   1.0000   1.0000   1.0000   1.0000
     1.0000   1.0000   1.0000   1.0000   1.0000   1.0000   1.0000   1.0000
     1.0000   1.0000   1.0000   1.0000   1.0000   1.0000   1.0000   1.0000
     0.0000   0.0000   0.0000   0.0000   0.0000   0.0000   0.0000   0.0000
     0.0000   0.0000

          k = 0.0000 0.0000 0.7012 ( 38330 PWs)   bands (ev):

   -85.8870 -85.8630 -85.6853 -85.4790 -51.9823 -51.9683 -51.9280 -51.8712
   -51.8060 -51.7980 -51.7664 -51.6858 -51.6326 -51.4816 -51.4606 -51.2899
   -45.0170 -17.0809 -17.0098 -16.9827 -16.4177 -16.2774 -16.1683 -16.0727
   -14.3599 -14.1930 -14.1256 -14.0212 -13.9754 -13.9311 -13.9010 -13.8591
   -13.8343 -13.7440 -13.7175 -13.6498  -4.6203  -4.2774  -4.1014  -3.9112
    -2.6286  -2.4147  -2.2039  -2.1330  -1.9137  -1.7758  -1.6864  -1.5877
    -1.4769  -1.4255  -1.3776  -1.2397  -0.5925  -0.4174  -0.2482  -0.2124
    -0.0940   0.0071   0.0653   0.1600   0.2420   0.3398   0.3696   0.4480
     0.5561   0.7280   0.7799   0.9517   1.0253   1.1146   1.1820   1.2362
     1.3325   1.4261   1.5553   1.6264   1.6633   1.7468   1.7810   1.9305
     2.0097   2.0594   2.0785   2.1802   2.2509   2.4610   2.6173   2.6548
     2.7494   2.9210   2.9425   3.0027   3.1428   3.1615   3.2808   3.3364
     3.3757   3.4797   3.5756   3.6352   3.7141   3.7588   4.0381   4.2941
     9.2623  10.5049  10.7439  11.1868  11.3946  11.7830  12.0016  12.1112
    12.2547  12.4261

     occupation numbers 
     1.0000   1.0000   1.0000   1.0000   1.0000   1.0000   1.0000   1.0000
     1.0000   1.0000   1.0000   1.0000   1.0000   1.0000   1.0000   1.0000
     1.0000   1.0000   1.0000   1.0000   1.0000   1.0000   1.0000   1.0000
     1.0000   1.0000   1.0000   1.0000   1.0000   1.0000   1.0000   1.0000
     1.0000   1.0000   1.0000   1.0000   1.0000   1.0000   1.0000   1.0000
     1.0000   1.0000   1.0000   1.0000   1.0000   1.0000   1.0000   1.0000
     1.0000   1.0000   1.0000   1.0000   1.0000   1.0000   1.0000   1.0000
     1.0000   1.0000   1.0000   1.0000   1.0000   1.0000   1.0000   1.0000
     1.0000   1.0000   1.0000   1.0000   1.0000   1.0000   1.0000   1.0000
     1.0000   1.0000   1.0000   1.0000   1.0000   1.0000   1.0000   1.0000
     1.0000   1.0000   1.0000   1.0000   1.0000   1.0000   1.0000   1.0000
     1.0000   1.0000   1.0000   1.0000   1.0000   1.0000   1.0000   1.0000
     1.0000   1.0000   1.0000   1.0000   1.0000   1.0000   1.0000   1.0000
     0.0000   0.0000   0.0000   0.0000   0.0000   0.0000   0.0000   0.0000
     0.0000   0.0000

          k = 0.0000 0.0000 0.9349 ( 38332 PWs)   bands (ev):

   -85.8870 -85.8630 -85.6853 -85.4790 -51.9823 -51.9683 -51.9280 -51.8712
   -51.8060 -51.7980 -51.7664 -51.6858 -51.6326 -51.4816 -51.4606 -51.2899
   -45.0170 -17.0840 -17.0120 -16.9824 -16.3881 -16.2684 -16.1452 -16.0784
   -14.3795 -14.2182 -14.1292 -14.0301 -14.0011 -13.9287 -13.9023 -13.8620
   -13.8310 -13.7434 -13.7252 -13.6519  -4.5544  -4.2383  -4.0900  -3.9325
    -2.6288  -2.3769  -2.1499  -2.1278  -1.9207  -1.7748  -1.7258  -1.5738
    -1.4443  -1.3926  -1.3552  -1.2598  -0.5936  -0.3704  -0.2462  -0.1843
    -0.0623   0.0183   0.1247   0.2082   0.2687   0.3509   0.3921   0.4545
     0.5700   0.6319   0.6829   0.9122   0.9668   1.0246   1.1500   1.2460
     1.2750   1.3556   1.5180   1.6022   1.6999   1.7373   1.7458   1.9290
     1.9662   2.0195   2.0735   2.1372   2.2565   2.4935   2.6010   2.6416
     2.7869   2.8753   2.9568   3.0148   3.1459   3.2171   3.2820   3.3237
     3.3817   3.4819   3.5822   3.6597   3.7108   3.7526   4.0428   4.2825
     9.8304  10.3690  10.8540  11.0489  11.3706  11.8837  11.9376  12.0917
    12.1753  12.2658

     occupation numbers 
     1.0000   1.0000   1.0000   1.0000   1.0000   1.0000   1.0000   1.0000
     1.0000   1.0000   1.0000   1.0000   1.0000   1.0000   1.0000   1.0000
     1.0000   1.0000   1.0000   1.0000   1.0000   1.0000   1.0000   1.0000
     1.0000   1.0000   1.0000   1.0000   1.0000   1.0000   1.0000   1.0000
     1.0000   1.0000   1.0000   1.0000   1.0000   1.0000   1.0000   1.0000
     1.0000   1.0000   1.0000   1.0000   1.0000   1.0000   1.0000   1.0000
     1.0000   1.0000   1.0000   1.0000   1.0000   1.0000   1.0000   1.0000
     1.0000   1.0000   1.0000   1.0000   1.0000   1.0000   1.0000   1.0000
     1.0000   1.0000   1.0000   1.0000   1.0000   1.0000   1.0000   1.0000
     1.0000   1.0000   1.0000   1.0000   1.0000   1.0000   1.0000   1.0000
     1.0000   1.0000   1.0000   1.0000   1.0000   1.0000   1.0000   1.0000
     1.0000   1.0000   1.0000   1.0000   1.0000   1.0000   1.0000   1.0000
     1.0000   1.0000   1.0000   1.0000   1.0000   1.0000   1.0000   1.0000
     0.0000   0.0000   0.0000   0.0000   0.0000   0.0000   0.0000   0.0000
     0.0000   0.0000

          k = 0.0000 0.2391 0.0000 ( 38300 PWs)   bands (ev):

   -85.8870 -85.8630 -85.6853 -85.4790 -51.9823 -51.9683 -51.9280 -51.8712
   -51.8060 -51.7980 -51.7664 -51.6858 -51.6326 -51.4816 -51.4606 -51.2899
   -45.0170 -17.0760 -17.0027 -16.9832 -16.4893 -16.3028 -16.2255 -16.0873
   -14.2996 -14.1490 -14.0758 -14.0215 -13.9674 -13.8954 -13.8798 -13.8475
   -13.8036 -13.7345 -13.6992 -13.6544  -4.7866  -4.3570  -4.1398  -3.9337
    -2.6260  -2.4887  -2.2861  -2.2022  -1.8955  -1.7770  -1.6401  -1.6031
    -1.5502  -1.4692  -1.3847  -1.2643  -0.6366  -0.5361  -0.3493  -0.1842
    -0.1179   0.0079   0.0306   0.1241   0.2169   0.2835   0.3786   0.4738
     0.6054   0.7771   0.8355   0.9624   1.0958   1.1650   1.2279   1.3512
     1.4056   1.5052   1.5534   1.6174   1.7116   1.8131   1.8355   1.9792
     2.0548   2.1370   2.2069   2.2834   2.4078   2.4328   2.5499   2.6515
     2.7979   2.9217   2.9397   3.0097   3.1116   3.1377   3.2985   3.3283
     3.3857   3.4378   3.5260   3.6283   3.7320   3.8642   4.0944   4.3346
     8.3642  10.1450  10.6302  10.8841  11.3085  12.1213  12.2490  12.3781
    12.4610  12.5772

     occupation numbers 
     1.0000   1.0000   1.0000   1.0000   1.0000   1.0000   1.0000   1.0000
     1.0000   1.0000   1.0000   1.0000   1.0000   1.0000   1.0000   1.0000
     1.0000   1.0000   1.0000   1.0000   1.0000   1.0000   1.0000   1.0000
     1.0000   1.0000   1.0000   1.0000   1.0000   1.0000   1.0000   1.0000
     1.0000   1.0000   1.0000   1.0000   1.0000   1.0000   1.0000   1.0000
     1.0000   1.0000   1.0000   1.0000   1.0000   1.0000   1.0000   1.0000
     1.0000   1.0000   1.0000   1.0000   1.0000   1.0000   1.0000   1.0000
     1.0000   1.0000   1.0000   1.0000   1.0000   1.0000   1.0000   1.0000
     1.0000   1.0000   1.0000   1.0000   1.0000   1.0000   1.0000   1.0000
     1.0000   1.0000   1.0000   1.0000   1.0000   1.0000   1.0000   1.0000
     1.0000   1.0000   1.0000   1.0000   1.0000   1.0000   1.0000   1.0000
     1.0000   1.0000   1.0000   1.0000   1.0000   1.0000   1.0000   1.0000
     1.0000   1.0000   1.0000   1.0000   1.0000   1.0000   1.0000   1.0000
     0.0000   0.0000   0.0000   0.0000   0.0000   0.0000   0.0000   0.0000
     0.0000   0.0000

          k = 0.0000 0.2391 0.2337 ( 38294 PWs)   bands (ev):

   -85.8870 -85.8630 -85.6853 -85.4790 -51.9823 -51.9683 -51.9280 -51.8712
   -51.8060 -51.7980 -51.7664 -51.6858 -51.6326 -51.4816 -51.4606 -51.2899
   -45.0170 -17.0747 -17.0065 -16.9832 -16.4804 -16.2964 -16.2194 -16.0797
   -14.3114 -14.1539 -14.0903 -14.0165 -13.9650 -13.9158 -13.8775 -13.8487
   -13.8042 -13.7380 -13.6997 -13.6550  -4.7643  -4.3439  -4.1297  -3.9160
    -2.6156  -2.4790  -2.3007  -2.1672  -1.8853  -1.7515  -1.6697  -1.5783
    -1.5420  -1.4914  -1.4216  -1.2242  -0.6228  -0.5248  -0.3519  -0.1794
    -0.1005   0.0051   0.0477   0.1308   0.1926   0.2560   0.3726   0.4700
     0.5802   0.7460   0.7928   0.9789   1.0654   1.1686   1.2120   1.3672
     1.4434   1.5100   1.5379   1.6423   1.7028   1.8282   1.8469   1.9706
     2.0494   2.1481   2.1886   2.2702   2.3603   2.4039   2.5497   2.6330
     2.7818   2.8847   2.9453   3.0230   3.0849   3.1536   3.2770   3.3266
     3.4066   3.4413   3.5254   3.6642   3.7144   3.8744   4.0954   4.3260
     8.4964  10.2233  10.6745  10.9134  11.3504  12.1234  12.1803  12.3109
    12.4780  12.5423

     occupation numbers 
     1.0000   1.0000   1.0000   1.0000   1.0000   1.0000   1.0000   1.0000
     1.0000   1.0000   1.0000   1.0000   1.0000   1.0000   1.0000   1.0000
     1.0000   1.0000   1.0000   1.0000   1.0000   1.0000   1.0000   1.0000
     1.0000   1.0000   1.0000   1.0000   1.0000   1.0000   1.0000   1.0000
     1.0000   1.0000   1.0000   1.0000   1.0000   1.0000   1.0000   1.0000
     1.0000   1.0000   1.0000   1.0000   1.0000   1.0000   1.0000   1.0000
     1.0000   1.0000   1.0000   1.0000   1.0000   1.0000   1.0000   1.0000
     1.0000   1.0000   1.0000   1.0000   1.0000   1.0000   1.0000   1.0000
     1.0000   1.0000   1.0000   1.0000   1.0000   1.0000   1.0000   1.0000
     1.0000   1.0000   1.0000   1.0000   1.0000   1.0000   1.0000   1.0000
     1.0000   1.0000   1.0000   1.0000   1.0000   1.0000   1.0000   1.0000
     1.0000   1.0000   1.0000   1.0000   1.0000   1.0000   1.0000   1.0000
     1.0000   1.0000   1.0000   1.0000   1.0000   1.0000   1.0000   1.0000
     0.0000   0.0000   0.0000   0.0000   0.0000   0.0000   0.0000   0.0000
     0.0000   0.0000

          k = 0.0000 0.2391 0.4675 ( 38323 PWs)   bands (ev):

   -85.8870 -85.8630 -85.6853 -85.4790 -51.9823 -51.9683 -51.9280 -51.8712
   -51.8060 -51.7980 -51.7664 -51.6858 -51.6326 -51.4816 -51.4606 -51.2899
   -45.0170 -17.0755 -17.0122 -16.9835 -16.4503 -16.2825 -16.1984 -16.0709
   -14.3380 -14.1658 -14.1202 -14.0184 -13.9675 -13.9372 -13.8817 -13.8484
   -13.8216 -13.7429 -13.7027 -13.6526  -4.6939  -4.3065  -4.1142  -3.8871
    -2.6077  -2.4525  -2.2674  -2.1299  -1.8876  -1.7149  -1.7002  -1.5703
    -1.5073  -1.4892  -1.4423  -1.1951  -0.6198  -0.4866  -0.3262  -0.1819
    -0.1000  -0.0065   0.0595   0.1087   0.1774   0.2771   0.3774   0.4900
     0.5409   0.6940   0.7779   0.9714   1.0511   1.1436   1.1937   1.3456
     1.4332   1.4780   1.5512   1.6278   1.6746   1.7969   1.8606   1.9708
     2.0050   2.1222   2.1755   2.2285   2.2854   2.3456   2.5755   2.6114
     2.7711   2.8298   2.9368   3.0276   3.0819   3.1662   3.2867   3.3265
     3.4117   3.4446   3.5573   3.6738   3.7212   3.8771   4.0853   4.3158
     8.8597  10.4122  10.7550  11.0100  11.4576  11.9419  12.1226  12.1764
    12.3412  12.4838

     occupation numbers 
     1.0000   1.0000   1.0000   1.0000   1.0000   1.0000   1.0000   1.0000
     1.0000   1.0000   1.0000   1.0000   1.0000   1.0000   1.0000   1.0000
     1.0000   1.0000   1.0000   1.0000   1.0000   1.0000   1.0000   1.0000
     1.0000   1.0000   1.0000   1.0000   1.0000   1.0000   1.0000   1.0000
     1.0000   1.0000   1.0000   1.0000   1.0000   1.0000   1.0000   1.0000
     1.0000   1.0000   1.0000   1.0000   1.0000   1.0000   1.0000   1.0000
     1.0000   1.0000   1.0000   1.0000   1.0000   1.0000   1.0000   1.0000
     1.0000   1.0000   1.0000   1.0000   1.0000   1.0000   1.0000   1.0000
     1.0000   1.0000   1.0000   1.0000   1.0000   1.0000   1.0000   1.0000
     1.0000   1.0000   1.0000   1.0000   1.0000   1.0000   1.0000   1.0000
     1.0000   1.0000   1.0000   1.0000   1.0000   1.0000   1.0000   1.0000
     1.0000   1.0000   1.0000   1.0000   1.0000   1.0000   1.0000   1.0000
     1.0000   1.0000   1.0000   1.0000   1.0000   1.0000   1.0000   1.0000
     0.0000   0.0000   0.0000   0.0000   0.0000   0.0000   0.0000   0.0000
     0.0000   0.0000

          k = 0.0000 0.2391 0.7012 ( 38349 PWs)   bands (ev):

   -85.8870 -85.8630 -85.6853 -85.4790 -51.9823 -51.9683 -51.9280 -51.8712
   -51.8060 -51.7980 -51.7664 -51.6858 -51.6326 -51.4816 -51.4606 -51.2899
   -45.0170 -17.0788 -17.0164 -16.9835 -16.4110 -16.2682 -16.1703 -16.0676
   -14.3673 -14.1905 -14.1420 -14.0288 -13.9934 -13.9363 -13.8890 -13.8464
   -13.8339 -13.7483 -13.7081 -13.6516  -4.6027  -4.2566  -4.1019  -3.8771
    -2.6134  -2.4040  -2.2017  -2.1097  -1.8990  -1.7322  -1.7005  -1.5819
    -1.4863  -1.4335  -1.4054  -1.2057  -0.6260  -0.4465  -0.2604  -0.1979
    -0.0831  -0.0082   0.0343   0.1328   0.2206   0.3030   0.4012   0.4943
     0.5538   0.6549   0.7380   0.9252   1.0611   1.0694   1.1469   1.2632
     1.3552   1.4325   1.4943   1.6205   1.6744   1.7527   1.8258   1.9601
     1.9916   2.0474   2.1279   2.1722   2.2427   2.3729   2.5796   2.6499
     2.7452   2.8139   2.9089   3.0405   3.1047   3.1731   3.3042   3.3383
     3.4152   3.4492   3.5958   3.6564   3.7407   3.8781   4.0761   4.3070
     9.3666  10.6239  10.7874  11.1267  11.4281  11.8234  11.9963  12.1056
    12.1972  12.4317

     occupation numbers 
     1.0000   1.0000   1.0000   1.0000   1.0000   1.0000   1.0000   1.0000
     1.0000   1.0000   1.0000   1.0000   1.0000   1.0000   1.0000   1.0000
     1.0000   1.0000   1.0000   1.0000   1.0000   1.0000   1.0000   1.0000
     1.0000   1.0000   1.0000   1.0000   1.0000   1.0000   1.0000   1.0000
     1.0000   1.0000   1.0000   1.0000   1.0000   1.0000   1.0000   1.0000
     1.0000   1.0000   1.0000   1.0000   1.0000   1.0000   1.0000   1.0000
     1.0000   1.0000   1.0000   1.0000   1.0000   1.0000   1.0000   1.0000
     1.0000   1.0000   1.0000   1.0000   1.0000   1.0000   1.0000   1.0000
     1.0000   1.0000   1.0000   1.0000   1.0000   1.0000   1.0000   1.0000
     1.0000   1.0000   1.0000   1.0000   1.0000   1.0000   1.0000   1.0000
     1.0000   1.0000   1.0000   1.0000   1.0000   1.0000   1.0000   1.0000
     1.0000   1.0000   1.0000   1.0000   1.0000   1.0000   1.0000   1.0000
     1.0000   1.0000   1.0000   1.0000   1.0000   1.0000   1.0000   1.0000
     0.0000   0.0000   0.0000   0.0000   0.0000   0.0000   0.0000   0.0000
     0.0000   0.0000

          k = 0.0000 0.2391 0.9349 ( 38302 PWs)   bands (ev):

   -85.8870 -85.8630 -85.6853 -85.4790 -51.9823 -51.9683 -51.9280 -51.8712
   -51.8060 -51.7980 -51.7664 -51.6858 -51.6326 -51.4816 -51.4606 -51.2899
   -45.0170 -17.0827 -17.0174 -16.9835 -16.3807 -16.2592 -16.1477 -16.0736
   -14.3850 -14.2162 -14.1451 -14.0391 -14.0135 -13.9340 -13.8978 -13.8479
   -13.8325 -13.7479 -13.7155 -13.6514  -4.5306  -4.2150  -4.0952  -3.9011
    -2.6126  -2.3685  -2.1491  -2.1040  -1.9089  -1.7607  -1.7168  -1.5766
    -1.4525  -1.3899  -1.3591  -1.2418  -0.6340  -0.4136  -0.2434  -0.1831
    -0.0716  -0.0157   0.0727   0.1830   0.2797   0.3431   0.4005   0.5004
     0.5912   0.6185   0.6599   0.8898   0.9645   1.0303   1.1259   1.2059
     1.3175   1.3560   1.5002   1.5454   1.6897   1.7369   1.7810   1.9296
     1.9730   2.0125   2.0768   2.1433   2.2398   2.4385   2.5859   2.6720
     2.7277   2.8054   2.9194   3.0283   3.1196   3.1954   3.3046   3.3607
     3.4093   3.4742   3.5865   3.6691   3.7413   3.8704   4.0836   4.2968
     9.9115  10.4969  10.8702  11.1148  11.3471  11.8520  11.9250  12.1218
    12.1903  12.2890

     occupation numbers 
     1.0000   1.0000   1.0000   1.0000   1.0000   1.0000   1.0000   1.0000
     1.0000   1.0000   1.0000   1.0000   1.0000   1.0000   1.0000   1.0000
     1.0000   1.0000   1.0000   1.0000   1.0000   1.0000   1.0000   1.0000
     1.0000   1.0000   1.0000   1.0000   1.0000   1.0000   1.0000   1.0000
     1.0000   1.0000   1.0000   1.0000   1.0000   1.0000   1.0000   1.0000
     1.0000   1.0000   1.0000   1.0000   1.0000   1.0000   1.0000   1.0000
     1.0000   1.0000   1.0000   1.0000   1.0000   1.0000   1.0000   1.0000
     1.0000   1.0000   1.0000   1.0000   1.0000   1.0000   1.0000   1.0000
     1.0000   1.0000   1.0000   1.0000   1.0000   1.0000   1.0000   1.0000
     1.0000   1.0000   1.0000   1.0000   1.0000   1.0000   1.0000   1.0000
     1.0000   1.0000   1.0000   1.0000   1.0000   1.0000   1.0000   1.0000
     1.0000   1.0000   1.0000   1.0000   1.0000   1.0000   1.0000   1.0000
     1.0000   1.0000   1.0000   1.0000   1.0000   1.0000   1.0000   1.0000
     0.0000   0.0000   0.0000   0.0000   0.0000   0.0000   0.0000   0.0000
     0.0000   0.0000

          k = 0.0000 0.4781 0.0000 ( 38338 PWs)   bands (ev):

   -85.8870 -85.8630 -85.6853 -85.4790 -51.9823 -51.9683 -51.9280 -51.8712
   -51.8060 -51.7980 -51.7664 -51.6858 -51.6326 -51.4816 -51.4606 -51.2899
   -45.0170 -17.0828 -17.0112 -16.9840 -16.4473 -16.2834 -16.2156 -16.1202
   -14.3138 -14.1587 -14.0896 -14.0472 -13.9628 -13.9077 -13.8614 -13.8477
[...]
     atom    2 type  1   force =     0.05616912   -0.11145111   -0.17198108
     atom    3 type  1   force =    -0.01026179   -0.13963946    0.06671708
     atom    4 type  1   force =    -0.06955697    0.13322287    0.05717196
     atom    5 type  1   force =     0.00856955    0.12387480   -0.15152160
     atom    6 type  4   force =    -0.00038267    0.04175109    0.02925513
     atom    7 type  4   force =    -0.01592291    0.00999099   -0.04924337
     atom    8 type  4   force =     0.03677766   -0.05839569   -0.02012157
     atom    9 type  4   force =     0.02714621   -0.01848113    0.05536217
     atom   10 type  3   force =    -0.46501649   -0.10328293   -1.20028361
     atom   11 type  3   force =     0.03052454    0.22098417   -1.43703859
     atom   12 type  3   force =     0.34876515    0.10396324    1.21517124
     atom   13 type  3   force =     0.05437193   -0.18539739    1.44757634
     atom   14 type  3   force =     1.41328133   -0.12110261   -0.59597062
     atom   15 type  3   force =    -1.19920050    0.71734517   -0.22931538
     atom   16 type  3   force =    -1.35560067    0.16659600    0.57471739
     atom   17 type  3   force =     1.23730313   -0.69606742    0.09491660
     atom   18 type  3   force =    -0.36088200   -1.28682526    0.70619035
     atom   19 type  3   force =     0.58235073    0.71007980    1.01504281
     atom   20 type  3   force =    -0.10044149   -1.47084105   -1.05228766
     atom   21 type  3   force =    -0.28283991    0.99813501   -0.66949444
     atom   22 type  3   force =     0.41590476    1.37481006   -0.64784141
     atom   23 type  3   force =    -0.53233377   -0.77390893   -0.97029358
     atom   24 type  3   force =     0.06260155    1.45606472    0.99468235
     atom   25 type  3   force =     0.10229874   -1.03307155    0.65348733
     The ionic contribution  to forces
     atom    1 type  2   force =     1.75341948   -3.48868702   -2.19098287
     atom    2 type  1   force =    10.24438030    3.77526835   -2.95904640
     atom    3 type  1   force =     6.83604499   -7.78018004   -1.36196343
     atom    4 type  1   force =   -13.19063183    0.21735147    0.92921690
     atom    5 type  1   force =    -3.35364190    6.28016657    3.35545484
     atom    6 type  4   force =    -1.51730469    2.48197300   -0.79967485
     atom    7 type  4   force =     4.02519462   -0.72369582    1.22491206
     atom    8 type  4   force =     0.36308200   -1.29837792    0.83397667
     atom    9 type  4   force =    -3.84636886    0.04127916   -0.98251493
     atom   10 type  3   force =    -1.75827596    6.57743896    1.29530170
     atom   11 type  3   force =     8.16596050   -3.39805139    2.05028047
     atom   12 type  3   force =     0.60633016   -1.60531563    1.20805329
     atom   13 type  3   force =    -8.03683105    2.13676811   -2.01838696
     atom   14 type  3   force =     0.69087550    0.59222018    7.06539190
     atom   15 type  3   force =    -0.17795174   -6.28631262    3.59103664
     atom   16 type  3   force =    -1.39439722   -0.53802366   -6.67042963
     atom   17 type  3   force =     0.36043565    3.71800949   -2.34173233
     atom   18 type  3   force =    -2.18459905    5.77880447    1.32345270
     atom   19 type  3   force =     3.77788436   -1.04233093   -4.51006984
     atom   20 type  3   force =     3.75866100    4.19180400    8.33776378
     atom   21 type  3   force =    -7.66690011   -1.35458469    0.91173554
     atom   22 type  3   force =     0.99819150   -7.72514424   -3.74061126
     atom   23 type  3   force =    -4.91209561    0.73210169    4.05360534
     atom   24 type  3   force =    -2.96571783   -2.10600176   -8.27608101
     atom   25 type  3   force =     9.42425579    0.82352027   -0.32868831
     The local contribution  to forces
     atom    1 type  2   force =    -1.82874761    3.48902342    2.15631459
     atom    2 type  1   force =   -10.30009507   -3.66248260    3.13684084
     atom    3 type  1   force =    -6.82822137    7.93074515    1.29341780
     atom    4 type  1   force =    13.26187015   -0.35247173   -0.98838537
     atom    5 type  1   force =     3.34391649   -6.40613785   -3.20009644
     atom    6 type  4   force =     1.51748243   -2.52094766    0.77293751
     atom    7 type  4   force =    -4.00972374    0.71331592   -1.17555133
     atom    8 type  4   force =    -0.40371859    1.35632226   -0.81818523
     atom    9 type  4   force =     3.82120803   -0.02357273    0.92732772
     atom   10 type  3   force =     2.21004193   -6.48295073   -0.12857995
     atom   11 type  3   force =    -8.19460782    3.18196588   -0.65409116
     atom   12 type  3   force =    -0.94243225    1.50176614   -2.39214203
     atom   13 type  3   force =     7.98197528   -1.95574738    0.61532248
     atom   14 type  3   force =    -2.05904169   -0.47554748   -6.48518329
     atom   15 type  3   force =     1.34091839    5.58502725   -3.36632703
     atom   16 type  3   force =     2.70707075    0.37676802    6.11250890
     atom   17 type  3   force =    -1.55552956   -3.03888723    2.24715514
     atom   18 type  3   force =     2.53393984   -4.52886330   -2.00792038
     atom   19 type  3   force =    -4.34258259    0.35548296    3.52464143
     atom   20 type  3   force =    -3.66017231   -2.76878796   -7.31848918
     atom   21 type  3   force =     7.94445527    0.38678220   -0.25757296
     atom   22 type  3   force =    -1.40287630    6.38804041    4.36685478
     atom   23 type  3   force =     5.42874294    0.01961900   -3.10920372
     atom   24 type  3   force =     2.90604610    0.69517889    7.31520169
     atom   25 type  3   force =    -9.52680438    0.17760209   -0.30860217
     The core correction contribution to forces
     atom    1 type  2   force =     0.00000000    0.00000000    0.00000000
     atom    2 type  1   force =    -0.00236650    0.00063668    0.00131862
     atom    3 type  1   force =     0.00121764   -0.00069955    0.00088838
     atom    4 type  1   force =     0.00220989   -0.00162504   -0.00072733
     atom    5 type  1   force =    -0.00048615   -0.00119279    0.00091382
     atom    6 type  4   force =     0.00128781   -0.00271964   -0.00200240
     atom    7 type  4   force =     0.00096400   -0.00039421    0.00284247
     atom    8 type  4   force =    -0.00380474    0.00335876    0.00078607
     atom    9 type  4   force =    -0.00165655    0.00150095   -0.00367629
     atom   10 type  3   force =     0.00390454    0.00085787    0.01090809
     atom   11 type  3   force =     0.00045179   -0.00230880    0.01299833
     atom   12 type  3   force =    -0.00262153   -0.00086748   -0.01089375
     atom   13 type  3   force =    -0.00121053    0.00187250   -0.01313166
     atom   14 type  3   force =    -0.01259002    0.00115185    0.00606764
     atom   15 type  3   force =     0.01066027   -0.00705984    0.00257691
     atom   16 type  3   force =     0.01203911   -0.00159626   -0.00584032
     atom   17 type  3   force =    -0.01089290    0.00668445   -0.00138460
     atom   18 type  3   force =     0.00279000    0.01221606   -0.00621630
     atom   19 type  3   force =    -0.00530057   -0.00610717   -0.00955960
     atom   20 type  3   force =     0.00119121    0.01328637    0.01019602
     atom   21 type  3   force =     0.00255023   -0.00897584    0.00631618
     atom   22 type  3   force =    -0.00333233   -0.01305559    0.00566805
     atom   23 type  3   force =     0.00485789    0.00671583    0.00915057
     atom   24 type  3   force =    -0.00076722   -0.01318856   -0.00956886
     atom   25 type  3   force =    -0.00075879    0.00931585   -0.00612817
     The Hubbard contrib.    to forces
     atom    1 type  2   force =     0.00000000    0.00000000    0.00000000
     atom    2 type  1   force =     0.00000000    0.00000000    0.00000000
     atom    3 type  1   force =     0.00000000    0.00000000    0.00000000
     atom    4 type  1   force =     0.00000000    0.00000000    0.00000000
     atom    5 type  1   force =     0.00000000    0.00000000    0.00000000
     atom    6 type  4   force =     0.00000000    0.00000000    0.00000000
     atom    7 type  4   force =     0.00000000    0.00000000    0.00000000
     atom    8 type  4   force =     0.00000000    0.00000000    0.00000000
     atom    9 type  4   force =     0.00000000    0.00000000    0.00000000
     atom   10 type  3   force =     0.00000000    0.00000000    0.00000000
     atom   11 type  3   force =     0.00000000    0.00000000    0.00000000
     atom   12 type  3   force =     0.00000000    0.00000000    0.00000000
     atom   13 type  3   force =     0.00000000    0.00000000    0.00000000
     atom   14 type  3   force =     0.00000000    0.00000000    0.00000000
     atom   15 type  3   force =     0.00000000    0.00000000    0.00000000
     atom   16 type  3   force =     0.00000000    0.00000000    0.00000000
     atom   17 type  3   force =     0.00000000    0.00000000    0.00000000
     atom   18 type  3   force =     0.00000000    0.00000000    0.00000000
     atom   19 type  3   force =     0.00000000    0.00000000    0.00000000
     atom   20 type  3   force =     0.00000000    0.00000000    0.00000000
     atom   21 type  3   force =     0.00000000    0.00000000    0.00000000
     atom   22 type  3   force =     0.00000000    0.00000000    0.00000000
     atom   23 type  3   force =     0.00000000    0.00000000    0.00000000
     atom   24 type  3   force =     0.00000000    0.00000000    0.00000000
     atom   25 type  3   force =     0.00000000    0.00000000    0.00000000
     The SCF correction term to forces
     atom    1 type  2   force =    -0.00000776   -0.00000227   -0.00000053
     atom    2 type  1   force =     0.00000605    0.00000097   -0.00000043
     atom    3 type  1   force =    -0.00000103   -0.00000208    0.00000140
     atom    4 type  1   force =     0.00000373    0.00000182    0.00000289
     atom    5 type  1   force =    -0.00000244    0.00000152   -0.00000015
     atom    6 type  4   force =    -0.00000475    0.00000143   -0.00000020
     atom    7 type  4   force =     0.00000381   -0.00000025    0.00000009
     atom    8 type  4   force =    -0.00000422    0.00000126   -0.00000057
     atom    9 type  4   force =     0.00000375   -0.00000038    0.00000056
     atom   10 type  3   force =    -0.00000367    0.00000290    0.00000019
     atom   11 type  3   force =     0.00000525   -0.00000124   -0.00000205
     atom   12 type  3   force =    -0.00000276    0.00000221    0.00000019
     atom   13 type  3   force =     0.00000724   -0.00000118   -0.00000435
     atom   14 type  3   force =     0.00000535   -0.00000015    0.00000059
     atom   15 type  3   force =    -0.00000621   -0.00000131    0.00000145
     atom   16 type  3   force =     0.00000255    0.00000023   -0.00000052
     atom   17 type  3   force =    -0.00000951   -0.00000094    0.00000223
     atom   18 type  3   force =    -0.00000345    0.00000092    0.00000031
     atom   19 type  3   force =     0.00000333   -0.00000086    0.00000107
     atom   20 type  3   force =    -0.00000656    0.00000514   -0.00000368
     atom   21 type  3   force =     0.00000521    0.00000337    0.00000376
     atom   22 type  3   force =    -0.00000189   -0.00000184   -0.00000029
     atom   23 type  3   force =     0.00000408   -0.00000418    0.00000278
     atom   24 type  3   force =    -0.00000585    0.00000135   -0.00000200
     atom   25 type  3   force =     0.00000536    0.00000046    0.00000171

     Total force =     0.123659     Total SCF correction =     0.000029


     Computing stress (Cartesian axis) and pressure


     negative rho (up, down):  0.000E+00 8.929E-04
          total   stress  (Ry/bohr**3)                   (kbar)     P=      -58.36
  -0.00067860   0.00008705   0.00000724          -99.83       12.81        1.06
   0.00008705  -0.00023348  -0.00009679           12.81      -34.35      -14.24
   0.00000724  -0.00009679  -0.00027804            1.06      -14.24      -40.90

     kinetic stress (kbar)  25065.39     71.96    -42.88
                               71.96  25221.18     -8.98
                              -42.88     -8.98  25192.72

     local   stress (kbar)  -8161.46   3372.41  -6837.19
                             3372.41 -14303.53    592.09
                            -6837.19    592.09  -5578.34

     nonloc. stress (kbar)  -6397.93      7.34      2.30
                                7.34  -6369.52     -4.06
                                2.30     -4.06  -6375.70

     hartree stress (kbar)  13760.11  -1276.78   2889.79
                            -1276.78  17061.11   -185.43
                             2889.79   -185.43  13150.20

     exc-cor stress (kbar)  -2655.65     -2.90      2.90
                               -2.90  -2659.95     -1.00
                                2.90     -1.00  -2659.92

     corecor stress (kbar)  -2962.50      0.03     -0.83
                                0.03  -2963.57      0.77
                               -0.83      0.77  -2963.65

     ewald   stress (kbar) -18747.77  -2159.26   3986.99
                            -2159.26 -16020.07   -407.63
                             3986.99   -407.63 -20806.20

     hubbard stress (kbar)      0.00      0.00      0.00
                                0.00      0.00      0.00
                                0.00      0.00      0.00

     DFT-D   stress (kbar)      0.00      0.00      0.00
                                0.00      0.00      0.00
                                0.00      0.00      0.00

     XDM     stress (kbar)      0.00      0.00      0.00
                                0.00      0.00      0.00
                                0.00      0.00      0.00

     dft-nl  stress (kbar)      0.00      0.00      0.00
                                0.00      0.00      0.00
                                0.00      0.00      0.00

     TS-vdW  stress (kbar)      0.00      0.00      0.00
                                0.00      0.00      0.00
                                0.00      0.00      0.00



     init_run     :   1134.59s CPU   1319.76s WALL (       1 calls)
     electrons    :  93515.21s CPU 107140.72s WALL (       1 calls)
     forces       :    143.57s CPU    168.83s WALL (       1 calls)
     stress       :    702.59s CPU    813.64s WALL (       1 calls)

     Called by init_run:
     wfcinit      :   1118.37s CPU   1301.55s WALL (       1 calls)
     wfcinit:atom :      0.67s CPU      0.85s WALL (     316 calls)
     wfcinit:wfcr :   1113.02s CPU   1295.12s WALL (     316 calls)
     potinit      :      6.65s CPU      7.50s WALL (       1 calls)
     hinit0       :      5.34s CPU      5.97s WALL (       1 calls)

     Called by electrons:
     c_bands      :  77683.15s CPU  88988.99s WALL (      35 calls)
     sum_band     :  15559.75s CPU  17837.41s WALL (      35 calls)
     v_of_rho     :     90.99s CPU    104.93s WALL (      36 calls)
     v_h          :      8.77s CPU      9.94s WALL (      36 calls)
     v_xc         :     86.82s CPU    100.10s WALL (      38 calls)
     newd         :     75.01s CPU     89.49s WALL (      36 calls)
     PAW_pot      :     20.02s CPU     22.92s WALL (      36 calls)
     mix_rho      :     72.64s CPU     80.88s WALL (      35 calls)

     Called by c_bands:
     init_us_2    :     69.72s CPU     75.57s WALL (   23068 calls)
     cegterg      :  76821.39s CPU  87955.75s WALL (   11060 calls)

     Called by sum_band:
     sum_band:wei :      0.62s CPU      0.73s WALL (      35 calls)
     sum_band:loo :  15425.62s CPU  17681.15s WALL (      35 calls)
     sum_band:buf :     16.85s CPU     17.51s WALL (   11060 calls)
     sum_band:ini :     27.30s CPU     28.57s WALL (   11060 calls)
     sum_band:cal :   1088.21s CPU   1261.33s WALL (   11060 calls)
     sum_band:bec :      2.64s CPU      2.66s WALL (   11060 calls)
     addusdens    :     85.69s CPU    101.85s WALL (      35 calls)
     addusd:skk   :      0.66s CPU      0.81s WALL (     105 calls)
     addusd:dgemm :      7.03s CPU     11.07s WALL (     210 calls)
     addusd:qvan2 :     77.29s CPU     89.11s WALL (     210 calls)

     Called by *egterg:
     cdiaghg      :   1323.76s CPU   1543.04s WALL (   41416 calls)
     cegterg:over :   4423.79s CPU   5058.26s WALL (   30356 calls)
     cegterg:upda :    187.06s CPU    206.13s WALL (   30356 calls)
     cegterg:last :    392.37s CPU    443.27s WALL (   18997 calls)
     h_psi        :  67502.78s CPU  77309.80s WALL (   41732 calls)
     s_psi        :    396.21s CPU    463.00s WALL (   41732 calls)
     g_psi        :     21.21s CPU     26.42s WALL (   30356 calls)

     Called by h_psi:
     h_psi:calbec :   3438.31s CPU   3966.16s WALL (   41732 calls)
     vloc_psi     :  63598.50s CPU  72804.79s WALL (   41732 calls)
     add_vuspsi   :    419.41s CPU    488.67s WALL (   41732 calls)

     General routines
     calbec       :   4780.29s CPU   5523.61s WALL (   54372 calls)
     fft          :    168.99s CPU    192.49s WALL (     938 calls)
     ffts         :      2.28s CPU      2.57s WALL (     142 calls)
     fftw         :  77110.48s CPU  88387.14s WALL ( 6879210 calls)
     interpolate  :     12.25s CPU     14.05s WALL (      72 calls)

     Parallel routines
     fft_scatt_xy :    372.61s CPU    378.76s WALL ( 6880290 calls)
     fft_scatt_yz :  75852.90s CPU  87133.25s WALL ( 6880290 calls)

     PAW routines
     PAW_pot      :     20.02s CPU     22.92s WALL (      36 calls)

     PWSCF        :   1d 2h31m CPU   1d 6h24m WALL


   This run was terminated on:  16: 0:20   7Jan2023            

=------------------------------------------------------------------------------=
   JOB DONE.
=------------------------------------------------------------------------------=
Note: The following floating-point exceptions are signalling: IEEE_UNDERFLOW_FLAG IEEE_DENORMAL
Note: The following floating-point exceptions are signalling: IEEE_DENORMAL
Note: The following floating-point exceptions are signalling: IEEE_INVALID_FLAG IEEE_DENORMAL
Note: The following floating-point exceptions are signalling: IEEE_DENORMAL
Note: The following floating-point exceptions are signalling: IEEE_DENORMAL
Note: The following floating-point exceptions are signalling: IEEE_DENORMAL
Note: The following floating-point exceptions are signalling: IEEE_DENORMAL
Note: The following floating-point exceptions are signalling: IEEE_DENORMAL
Note: The following floating-point exceptions are signalling: IEEE_DENORMAL
Note: The following floating-point exceptions are signalling: IEEE_DENORMAL
Note: The following floating-point exceptions are signalling: IEEE_DENORMAL
Note: The following floating-point exceptions are signalling: IEEE_DENORMAL
Note: The following floating-point exceptions are signalling: IEEE_DENORMAL
Note: The following floating-point exceptions are signalling: IEEE_DENORMAL
Note: The following floating-point exceptions are signalling: IEEE_DENORMAL
Note: The following floating-point exceptions are signalling: IEEE_DENORMAL
Note: The following floating-point exceptions are signalling: IEEE_DENORMAL
Note: The following floating-point exceptions are signalling: IEEE_DENORMAL
Note: The following floating-point exceptions are signalling: IEEE_DENORMAL
Note: The following floating-point exceptions are signalling: IEEE_DENORMAL
Note: The following floating-point exceptions are signalling: IEEE_DENORMAL
Note: The following floating-point exceptions are signalling: IEEE_DENORMAL
Note: The following floating-point exceptions are signalling: IEEE_DENORMAL
Note: The following floating-point exceptions are signalling: IEEE_DENORMAL
Note: The following floating-point exceptions are signalling: IEEE_DENORMAL
Note: The following floating-point exceptions are signalling: IEEE_DENORMAL
Note: The following floating-point exceptions are signalling: IEEE_DENORMAL
Note: The following floating-point exceptions are signalling: IEEE_DENORMAL
