
     Program PWSCF v.6.7MaX starts on  6Jan2023 at 21:41:34 

     This program is part of the open-source Quantum ESPRESSO suite
     for quantum simulation of materials; please cite
         "P. Giannozzi et al., J. Phys.:Condens. Matter 21 395502 (2009);
         "P. Giannozzi et al., J. Phys.:Condens. Matter 29 465901 (2017);
          URL http://www.quantum-espresso.org", 
     in publications or presentations arising from this work. More details at
     http://www.quantum-espresso.org/quote

     Parallel version (MPI), running on    32 processors

     MPI processes distributed on     2 nodes
     R & G space division:  proc/nbgrp/npool/nimage =      32
     Reading input from scale_3d-04.in

     Current dimensions of program PWSCF are:
     Max number of different atomic species (ntypx) = 10
     Max number of k-points (npk) =  40000
     Max angular momentum in pseudopotentials (lmaxx) =  3
     Message from routine read_pp_mesh:
     mesh size missing, using the one in header
     file Fe.pbe-spn-kjpaw_psl.0.2.1.UPF: wavefunction(s)  3D renormalized
     file O.pbe-n-kjpaw_psl.0.1.UPF: wavefunction(s)  2P renormalized

     Subspace diagonalization in iterative solution of the eigenvalue problem:
     a serial algorithm will be used


     Parallelization info
     --------------------
     sticks:   dense  smooth     PW     G-vecs:    dense   smooth      PW
     Min         662     245     66                44648    10067    1406
     Max         663     246     67                44651    10072    1408
     Sum       21211    7849   2119              1428783   322201   45025



     bravais-lattice index     =            0
     lattice parameter (alat)  =      20.3206  a.u.
     unit-cell volume          =    2383.6748 (a.u.)^3
     number of atoms/cell      =           25
     number of atomic types    =            4
     number of electrons       =       189.00
     number of Kohn-Sham states=          114
     kinetic-energy cutoff     =     100.0000  Ry
     charge density cutoff     =    1080.0000  Ry
     scf convergence threshold =      2.0E-10
     mixing beta               =       0.4000
     number of iterations used =            8  plain     mixing
     Exchange-correlation= PBE
                           (   1   4   3   4   0   0   0)

     celldm(1)=  20.320559  celldm(2)=   0.000000  celldm(3)=   0.000000
     celldm(4)=   0.000000  celldm(5)=   0.000000  celldm(6)=   0.000000

     crystal axes: (cart. coord. in units of alat)
               a(1) = (   1.000000   0.000000   0.000000 )  
               a(2) = (   0.000000   0.597590   0.000000 )  
               a(3) = (   0.000000   0.000000   0.475375 )  

     reciprocal axes: (cart. coord. in units 2 pi/alat)
               b(1) = (  1.000000  0.000000  0.000000 )  
               b(2) = (  0.000000  1.673388  0.000000 )  
               b(3) = (  0.000000  0.000000  2.103600 )  


     PseudoPot. # 1 for Fe read from file:
     /opt/QEpot/SSSP_precision_pseudos/Fe.pbe-spn-kjpaw_psl.0.2.1.UPF
     MD5 check sum: e86618425769142926afa95317d90200
     Pseudo is Projector augmented-wave + core cor, Zval = 16.0
     Generated using "atomic" code by A. Dal Corso  v.5.0.99 svn rev. 10869
     Shape of augmentation charge: PSQ
     Using radial grid of 1191 points,  6 beta functions with: 
                l(1) =   0
                l(2) =   0
                l(3) =   1
                l(4) =   1
                l(5) =   2
                l(6) =   2
     Q(r) pseudized with 0 coefficients 


     PseudoPot. # 2 for Na read from file:
     /opt/QEpot/SSSP_precision_pseudos/Na_ONCV_PBE-1.0.oncvpsp.upf
     MD5 check sum: 24a298df0a6742ae313db96548fdb2a4
     Pseudo is Norm-conserving, Zval =  9.0
     Generated using ONCVPSP code by D. R. Hamann
     Using radial grid of 1992 points,  4 beta functions with: 
                l(1) =   0
                l(2) =   0
                l(3) =   1
                l(4) =   1

     PseudoPot. # 3 for O  read from file:
     /opt/QEpot/SSSP_precision_pseudos/O.pbe-n-kjpaw_psl.0.1.UPF
     MD5 check sum: 0234752ac141de4415c5fc33072bef88
     Pseudo is Projector augmented-wave + core cor, Zval =  6.0
     Generated using "atomic" code by A. Dal Corso  v.5.0.99 svn rev. 10869
     Shape of augmentation charge: BESSEL
     Using radial grid of 1095 points,  4 beta functions with: 
                l(1) =   0
                l(2) =   0
                l(3) =   1
                l(4) =   1
     Q(r) pseudized with 0 coefficients 


     PseudoPot. # 4 for P  read from file:
     /opt/QEpot/SSSP_precision_pseudos/P.pbe-n-rrkjus_psl.1.0.0.UPF
     MD5 check sum: 8b930f418f0a4573dca56cd030ffe088
     Pseudo is Ultrasoft + core correction, Zval =  5.0
     Generated using "atomic" code by A. Dal Corso  v.5.1
     Using radial grid of 1147 points,  6 beta functions with: 
                l(1) =   0
                l(2) =   0
                l(3) =   1
                l(4) =   1
                l(5) =   2
                l(6) =   2
     Q(r) pseudized with 0 coefficients 


     atomic species   valence    mass     pseudopotential
        Fe            16.00    55.84500     Fe( 1.00)
        Na             9.00    22.98977     Na( 1.00)
        O              6.00    15.99940     O ( 1.00)
        P              5.00    30.97376     P ( 1.00)

     Starting magnetic structure 
     atomic species   magnetization
        Fe           0.312
        Na           0.000
        O            0.000
        P            0.000

     No symmetry found


                                    s                        frac. trans.

      isym =  1     identity                                     

 cryst.   s( 1) = (     1          0          0      )
                  (     0          1          0      )
                  (     0          0          1      )

 cart.    s( 1) = (  1.0000000  0.0000000  0.0000000 )
                  (  0.0000000  1.0000000  0.0000000 )
                  (  0.0000000  0.0000000  1.0000000 )


   Cartesian axes

     site n.     atom                  positions (alat units)
         1           Na  tau(   1) = (   0.0091640   0.0619545   0.0842170  )
         2           Fe  tau(   2) = (   0.3006930   0.4598938   0.4183238  )
         3           Fe  tau(   3) = (   0.2172790   0.1994152   0.2522181  )
         4           Fe  tau(   4) = (   0.7013420   0.1375293   0.0676878  )
         5           Fe  tau(   5) = (   0.7823920   0.4166068   0.2462897  )
         6           P   tau(   6) = (   0.0916690   0.4042624   0.1489442  )
         7           P   tau(   7) = (   0.3922300   0.1495791   0.4588705  )
         8           P   tau(   8) = (   0.9035730   0.1787421   0.3282382  )
         9           P   tau(   9) = (   0.6068380   0.4472656   0.0379739  )
        10           O   tau(  10) = (   0.1716030   0.3997691   0.2776274  )
        11           O   tau(  11) = (   0.3459220   0.1497710   0.1236956  )
        12           O   tau(  12) = (   0.8394910   0.1630620   0.1947899  )
        13           O   tau(  13) = (   0.6484430   0.4495185   0.3717047  )
        14           O   tau(  14) = (   0.4599470   0.4563693   0.0500570  )
        15           O   tau(  15) = (   0.0476720   0.1360599   0.3218530  )
        16           O   tau(  16) = (   0.5389440   0.1383008   0.4482491  )
        17           O   tau(  17) = (   0.9533530   0.4560513   0.1648621  )
        18           O   tau(  18) = (   0.1614450   0.5005252   0.0578247  )
        19           O   tau(  19) = (   0.3222970   0.0448922   0.3739351  )
        20           O   tau(  20) = (   0.8832040   0.3185244   0.3742398  )
        21           O   tau(  21) = (   0.6645330   0.3263283   0.1122247  )
        22           O   tau(  22) = (   0.8349710   0.0852785   0.4231793  )
        23           O   tau(  23) = (   0.6757630   0.5543232   0.1211685  )
        24           O   tau(  24) = (   0.1041630   0.2643248   0.1001939  )
        25           O   tau(  25) = (   0.3431370   0.2727687   0.3837464  )

   Crystallographic axes

     site n.     atom                  positions (cryst. coord.)
         1           Na  tau(   1) = (  0.0091640  0.1036740  0.1771590  )
         2           Fe  tau(   2) = (  0.3006930  0.7695810  0.8799860  )
         3           Fe  tau(   3) = (  0.2172790  0.3336990  0.5305660  )
         4           Fe  tau(   4) = (  0.7013420  0.2301400  0.1423880  )
         5           Fe  tau(   5) = (  0.7823920  0.6971450  0.5180950  )
         6           P   tau(   6) = (  0.0916690  0.6764880  0.3133190  )
         7           P   tau(   7) = (  0.3922300  0.2503040  0.9652800  )
         8           P   tau(   8) = (  0.9035730  0.2991050  0.6904820  )
         9           P   tau(   9) = (  0.6068380  0.7484490  0.0798820  )
        10           O   tau(  10) = (  0.1716030  0.6689690  0.5840170  )
        11           O   tau(  11) = (  0.3459220  0.2506250  0.2602060  )
        12           O   tau(  12) = (  0.8394910  0.2728660  0.4097600  )
        13           O   tau(  13) = (  0.6484430  0.7522190  0.7819180  )
        14           O   tau(  14) = (  0.4599470  0.7636830  0.1053000  )
        15           O   tau(  15) = (  0.0476720  0.2276810  0.6770500  )
        16           O   tau(  16) = (  0.5389440  0.2314310  0.9429370  )
        17           O   tau(  17) = (  0.9533530  0.7631510  0.3468040  )
        18           O   tau(  18) = (  0.1614450  0.8375730  0.1216400  )
        19           O   tau(  19) = (  0.3222970  0.0751220  0.7866100  )
        20           O   tau(  20) = (  0.8832040  0.5330150  0.7872510  )
        21           O   tau(  21) = (  0.6645330  0.5460740  0.2360760  )
        22           O   tau(  22) = (  0.8349710  0.1427040  0.8902000  )
        23           O   tau(  23) = (  0.6757630  0.9275980  0.2548900  )
        24           O   tau(  24) = (  0.1041630  0.4423180  0.2107680  )
        25           O   tau(  25) = (  0.3431370  0.4564480  0.8072490  )

     number of k points=   158  Marzari-Vanderbilt smearing, width (Ry)=  0.0073
                       cart. coord. in units 2pi/alat
        k(    1) = (   0.0000000   0.0000000   0.0000000), wk =   0.0031746
        k(    2) = (   0.0000000   0.0000000   0.2337334), wk =   0.0063492
        k(    3) = (   0.0000000   0.0000000   0.4674667), wk =   0.0063492
        k(    4) = (   0.0000000   0.0000000   0.7012001), wk =   0.0063492
        k(    5) = (   0.0000000   0.0000000   0.9349334), wk =   0.0063492
        k(    6) = (   0.0000000   0.2390555   0.0000000), wk =   0.0063492
        k(    7) = (   0.0000000   0.2390555   0.2337334), wk =   0.0063492
        k(    8) = (   0.0000000   0.2390555   0.4674667), wk =   0.0063492
        k(    9) = (   0.0000000   0.2390555   0.7012001), wk =   0.0063492
        k(   10) = (   0.0000000   0.2390555   0.9349334), wk =   0.0063492
        k(   11) = (   0.0000000   0.4781110   0.0000000), wk =   0.0063492
        k(   12) = (   0.0000000   0.4781110   0.2337334), wk =   0.0063492
        k(   13) = (   0.0000000   0.4781110   0.4674667), wk =   0.0063492
        k(   14) = (   0.0000000   0.4781110   0.7012001), wk =   0.0063492
        k(   15) = (   0.0000000   0.4781110   0.9349334), wk =   0.0063492
        k(   16) = (   0.0000000   0.7171664   0.0000000), wk =   0.0063492
        k(   17) = (   0.0000000   0.7171664   0.2337334), wk =   0.0063492
        k(   18) = (   0.0000000   0.7171664   0.4674667), wk =   0.0063492
        k(   19) = (   0.0000000   0.7171664   0.7012001), wk =   0.0063492
        k(   20) = (   0.0000000   0.7171664   0.9349334), wk =   0.0063492
        k(   21) = (   0.2000000   0.0000000   0.0000000), wk =   0.0063492
        k(   22) = (   0.2000000   0.0000000   0.2337334), wk =   0.0063492
        k(   23) = (   0.2000000   0.0000000   0.4674667), wk =   0.0063492
        k(   24) = (   0.2000000   0.0000000   0.7012001), wk =   0.0063492
        k(   25) = (   0.2000000   0.0000000   0.9349334), wk =   0.0063492
        k(   26) = (   0.2000000   0.2390555   0.0000000), wk =   0.0063492
        k(   27) = (   0.2000000   0.2390555   0.2337334), wk =   0.0063492
        k(   28) = (   0.2000000   0.2390555   0.4674667), wk =   0.0063492
        k(   29) = (   0.2000000   0.2390555   0.7012001), wk =   0.0063492
        k(   30) = (   0.2000000   0.2390555   0.9349334), wk =   0.0063492
        k(   31) = (   0.2000000   0.4781110   0.0000000), wk =   0.0063492
        k(   32) = (   0.2000000   0.4781110   0.2337334), wk =   0.0063492
        k(   33) = (   0.2000000   0.4781110   0.4674667), wk =   0.0063492
        k(   34) = (   0.2000000   0.4781110   0.7012001), wk =   0.0063492
        k(   35) = (   0.2000000   0.4781110   0.9349334), wk =   0.0063492
        k(   36) = (   0.2000000   0.7171664   0.0000000), wk =   0.0063492
        k(   37) = (   0.2000000   0.7171664   0.2337334), wk =   0.0063492
        k(   38) = (   0.2000000   0.7171664   0.4674667), wk =   0.0063492
        k(   39) = (   0.2000000   0.7171664   0.7012001), wk =   0.0063492
        k(   40) = (   0.2000000   0.7171664   0.9349334), wk =   0.0063492
        k(   41) = (   0.4000000   0.0000000   0.0000000), wk =   0.0063492
        k(   42) = (   0.4000000   0.0000000   0.2337334), wk =   0.0063492
        k(   43) = (   0.4000000   0.0000000   0.4674667), wk =   0.0063492
        k(   44) = (   0.4000000   0.0000000   0.7012001), wk =   0.0063492
        k(   45) = (   0.4000000   0.0000000   0.9349334), wk =   0.0063492
        k(   46) = (   0.4000000   0.2390555   0.0000000), wk =   0.0063492
        k(   47) = (   0.4000000   0.2390555   0.2337334), wk =   0.0063492
        k(   48) = (   0.4000000   0.2390555   0.4674667), wk =   0.0063492
        k(   49) = (   0.4000000   0.2390555   0.7012001), wk =   0.0063492
        k(   50) = (   0.4000000   0.2390555   0.9349334), wk =   0.0063492
        k(   51) = (   0.4000000   0.4781110   0.0000000), wk =   0.0063492
        k(   52) = (   0.4000000   0.4781110   0.2337334), wk =   0.0063492
        k(   53) = (   0.4000000   0.4781110   0.4674667), wk =   0.0063492
        k(   54) = (   0.4000000   0.4781110   0.7012001), wk =   0.0063492
        k(   55) = (   0.4000000   0.4781110   0.9349334), wk =   0.0063492
        k(   56) = (   0.4000000   0.7171664   0.0000000), wk =   0.0063492
        k(   57) = (   0.4000000   0.7171664   0.2337334), wk =   0.0063492
        k(   58) = (   0.4000000   0.7171664   0.4674667), wk =   0.0063492
        k(   59) = (   0.4000000   0.7171664   0.7012001), wk =   0.0063492
        k(   60) = (   0.4000000   0.7171664   0.9349334), wk =   0.0063492
        k(   61) = (   0.0000000  -0.2390555   0.2337334), wk =   0.0063492
        k(   62) = (   0.0000000  -0.2390555   0.4674667), wk =   0.0063492
        k(   63) = (   0.0000000  -0.2390555   0.7012001), wk =   0.0063492
        k(   64) = (   0.0000000  -0.2390555   0.9349334), wk =   0.0063492
        k(   65) = (   0.0000000  -0.4781110   0.2337334), wk =   0.0063492
        k(   66) = (   0.0000000  -0.4781110   0.4674667), wk =   0.0063492
        k(   67) = (   0.0000000  -0.4781110   0.7012001), wk =   0.0063492
        k(   68) = (   0.0000000  -0.4781110   0.9349334), wk =   0.0063492
        k(   69) = (   0.0000000  -0.7171664   0.2337334), wk =   0.0063492
        k(   70) = (   0.0000000  -0.7171664   0.4674667), wk =   0.0063492
        k(   71) = (   0.0000000  -0.7171664   0.7012001), wk =   0.0063492
        k(   72) = (   0.0000000  -0.7171664   0.9349334), wk =   0.0063492
        k(   73) = (  -0.2000000   0.0000000   0.2337334), wk =   0.0063492
        k(   74) = (  -0.2000000   0.0000000   0.4674667), wk =   0.0063492
        k(   75) = (  -0.2000000   0.0000000   0.7012001), wk =   0.0063492
        k(   76) = (  -0.2000000   0.0000000   0.9349334), wk =   0.0063492
        k(   77) = (  -0.2000000   0.2390555   0.0000000), wk =   0.0063492
        k(   78) = (  -0.2000000  -0.2390555   0.2337334), wk =   0.0063492
        k(   79) = (  -0.2000000   0.2390555  -0.2337334), wk =   0.0063492
        k(   80) = (   0.2000000  -0.2390555  -0.2337334), wk =   0.0063492
        k(   81) = (  -0.2000000  -0.2390555   0.4674667), wk =   0.0063492
        k(   82) = (  -0.2000000   0.2390555  -0.4674667), wk =   0.0063492
        k(   83) = (   0.2000000  -0.2390555  -0.4674667), wk =   0.0063492
        k(   84) = (  -0.2000000  -0.2390555   0.7012001), wk =   0.0063492
        k(   85) = (  -0.2000000   0.2390555  -0.7012001), wk =   0.0063492
        k(   86) = (   0.2000000  -0.2390555  -0.7012001), wk =   0.0063492
        k(   87) = (  -0.2000000  -0.2390555   0.9349334), wk =   0.0063492
        k(   88) = (  -0.2000000   0.2390555  -0.9349334), wk =   0.0063492
        k(   89) = (   0.2000000  -0.2390555  -0.9349334), wk =   0.0063492
        k(   90) = (  -0.2000000   0.4781110   0.0000000), wk =   0.0063492
        k(   91) = (  -0.2000000  -0.4781110   0.2337334), wk =   0.0063492
        k(   92) = (  -0.2000000   0.4781110  -0.2337334), wk =   0.0063492
        k(   93) = (   0.2000000  -0.4781110  -0.2337334), wk =   0.0063492
        k(   94) = (  -0.2000000  -0.4781110   0.4674667), wk =   0.0063492
        k(   95) = (  -0.2000000   0.4781110  -0.4674667), wk =   0.0063492
        k(   96) = (   0.2000000  -0.4781110  -0.4674667), wk =   0.0063492
        k(   97) = (  -0.2000000  -0.4781110   0.7012001), wk =   0.0063492
        k(   98) = (  -0.2000000   0.4781110  -0.7012001), wk =   0.0063492
        k(   99) = (   0.2000000  -0.4781110  -0.7012001), wk =   0.0063492
        k(  100) = (  -0.2000000  -0.4781110   0.9349334), wk =   0.0063492
        k(  101) = (  -0.2000000   0.4781110  -0.9349334), wk =   0.0063492
        k(  102) = (   0.2000000  -0.4781110  -0.9349334), wk =   0.0063492
        k(  103) = (  -0.2000000   0.7171664   0.0000000), wk =   0.0063492
        k(  104) = (  -0.2000000  -0.7171664   0.2337334), wk =   0.0063492
        k(  105) = (  -0.2000000   0.7171664  -0.2337334), wk =   0.0063492
        k(  106) = (   0.2000000  -0.7171664  -0.2337334), wk =   0.0063492
        k(  107) = (  -0.2000000  -0.7171664   0.4674667), wk =   0.0063492
        k(  108) = (  -0.2000000   0.7171664  -0.4674667), wk =   0.0063492
        k(  109) = (   0.2000000  -0.7171664  -0.4674667), wk =   0.0063492
        k(  110) = (  -0.2000000  -0.7171664   0.7012001), wk =   0.0063492
        k(  111) = (  -0.2000000   0.7171664  -0.7012001), wk =   0.0063492
        k(  112) = (   0.2000000  -0.7171664  -0.7012001), wk =   0.0063492
        k(  113) = (  -0.2000000  -0.7171664   0.9349334), wk =   0.0063492
        k(  114) = (  -0.2000000   0.7171664  -0.9349334), wk =   0.0063492
        k(  115) = (   0.2000000  -0.7171664  -0.9349334), wk =   0.0063492
        k(  116) = (  -0.4000000   0.0000000   0.2337334), wk =   0.0063492
        k(  117) = (  -0.4000000   0.0000000   0.4674667), wk =   0.0063492
        k(  118) = (  -0.4000000   0.0000000   0.7012001), wk =   0.0063492
        k(  119) = (  -0.4000000   0.0000000   0.9349334), wk =   0.0063492
        k(  120) = (  -0.4000000   0.2390555   0.0000000), wk =   0.0063492
        k(  121) = (  -0.4000000  -0.2390555   0.2337334), wk =   0.0063492
        k(  122) = (  -0.4000000   0.2390555  -0.2337334), wk =   0.0063492
        k(  123) = (   0.4000000  -0.2390555  -0.2337334), wk =   0.0063492
        k(  124) = (  -0.4000000  -0.2390555   0.4674667), wk =   0.0063492
        k(  125) = (  -0.4000000   0.2390555  -0.4674667), wk =   0.0063492
        k(  126) = (   0.4000000  -0.2390555  -0.4674667), wk =   0.0063492
        k(  127) = (  -0.4000000  -0.2390555   0.7012001), wk =   0.0063492
        k(  128) = (  -0.4000000   0.2390555  -0.7012001), wk =   0.0063492
        k(  129) = (   0.4000000  -0.2390555  -0.7012001), wk =   0.0063492
        k(  130) = (  -0.4000000  -0.2390555   0.9349334), wk =   0.0063492
        k(  131) = (  -0.4000000   0.2390555  -0.9349334), wk =   0.0063492
        k(  132) = (   0.4000000  -0.2390555  -0.9349334), wk =   0.0063492
        k(  133) = (  -0.4000000   0.4781110   0.0000000), wk =   0.0063492
        k(  134) = (  -0.4000000  -0.4781110   0.2337334), wk =   0.0063492
        k(  135) = (  -0.4000000   0.4781110  -0.2337334), wk =   0.0063492
        k(  136) = (   0.4000000  -0.4781110  -0.2337334), wk =   0.0063492
        k(  137) = (  -0.4000000  -0.4781110   0.4674667), wk =   0.0063492
        k(  138) = (  -0.4000000   0.4781110  -0.4674667), wk =   0.0063492
        k(  139) = (   0.4000000  -0.4781110  -0.4674667), wk =   0.0063492
        k(  140) = (  -0.4000000  -0.4781110   0.7012001), wk =   0.0063492
        k(  141) = (  -0.4000000   0.4781110  -0.7012001), wk =   0.0063492
        k(  142) = (   0.4000000  -0.4781110  -0.7012001), wk =   0.0063492
        k(  143) = (  -0.4000000  -0.4781110   0.9349334), wk =   0.0063492
        k(  144) = (  -0.4000000   0.4781110  -0.9349334), wk =   0.0063492
        k(  145) = (   0.4000000  -0.4781110  -0.9349334), wk =   0.0063492
        k(  146) = (  -0.4000000   0.7171664   0.0000000), wk =   0.0063492
        k(  147) = (  -0.4000000  -0.7171664   0.2337334), wk =   0.0063492
        k(  148) = (  -0.4000000   0.7171664  -0.2337334), wk =   0.0063492
        k(  149) = (   0.4000000  -0.7171664  -0.2337334), wk =   0.0063492
        k(  150) = (  -0.4000000  -0.7171664   0.4674667), wk =   0.0063492
        k(  151) = (  -0.4000000   0.7171664  -0.4674667), wk =   0.0063492
        k(  152) = (   0.4000000  -0.7171664  -0.4674667), wk =   0.0063492
        k(  153) = (  -0.4000000  -0.7171664   0.7012001), wk =   0.0063492
        k(  154) = (  -0.4000000   0.7171664  -0.7012001), wk =   0.0063492
        k(  155) = (   0.4000000  -0.7171664  -0.7012001), wk =   0.0063492
        k(  156) = (  -0.4000000  -0.7171664   0.9349334), wk =   0.0063492
        k(  157) = (  -0.4000000   0.7171664  -0.9349334), wk =   0.0063492
        k(  158) = (   0.4000000  -0.7171664  -0.9349334), wk =   0.0063492

                       cryst. coord.
        k(    1) = (   0.0000000   0.0000000   0.0000000), wk =   0.0031746
        k(    2) = (   0.0000000   0.0000000   0.1111111), wk =   0.0063492
        k(    3) = (   0.0000000   0.0000000   0.2222222), wk =   0.0063492
        k(    4) = (   0.0000000   0.0000000   0.3333333), wk =   0.0063492
        k(    5) = (   0.0000000   0.0000000   0.4444444), wk =   0.0063492
        k(    6) = (   0.0000000   0.1428571   0.0000000), wk =   0.0063492
        k(    7) = (   0.0000000   0.1428571   0.1111111), wk =   0.0063492
        k(    8) = (   0.0000000   0.1428571   0.2222222), wk =   0.0063492
        k(    9) = (   0.0000000   0.1428571   0.3333333), wk =   0.0063492
        k(   10) = (   0.0000000   0.1428571   0.4444444), wk =   0.0063492
        k(   11) = (   0.0000000   0.2857143   0.0000000), wk =   0.0063492
        k(   12) = (   0.0000000   0.2857143   0.1111111), wk =   0.0063492
        k(   13) = (   0.0000000   0.2857143   0.2222222), wk =   0.0063492
        k(   14) = (   0.0000000   0.2857143   0.3333333), wk =   0.0063492
        k(   15) = (   0.0000000   0.2857143   0.4444444), wk =   0.0063492
        k(   16) = (   0.0000000   0.4285714   0.0000000), wk =   0.0063492
        k(   17) = (   0.0000000   0.4285714   0.1111111), wk =   0.0063492
        k(   18) = (   0.0000000   0.4285714   0.2222222), wk =   0.0063492
        k(   19) = (   0.0000000   0.4285714   0.3333333), wk =   0.0063492
        k(   20) = (   0.0000000   0.4285714   0.4444444), wk =   0.0063492
        k(   21) = (   0.2000000   0.0000000   0.0000000), wk =   0.0063492
        k(   22) = (   0.2000000   0.0000000   0.1111111), wk =   0.0063492
        k(   23) = (   0.2000000   0.0000000   0.2222222), wk =   0.0063492
        k(   24) = (   0.2000000   0.0000000   0.3333333), wk =   0.0063492
        k(   25) = (   0.2000000   0.0000000   0.4444444), wk =   0.0063492
        k(   26) = (   0.2000000   0.1428571   0.0000000), wk =   0.0063492
        k(   27) = (   0.2000000   0.1428571   0.1111111), wk =   0.0063492
        k(   28) = (   0.2000000   0.1428571   0.2222222), wk =   0.0063492
        k(   29) = (   0.2000000   0.1428571   0.3333333), wk =   0.0063492
        k(   30) = (   0.2000000   0.1428571   0.4444444), wk =   0.0063492
        k(   31) = (   0.2000000   0.2857143   0.0000000), wk =   0.0063492
        k(   32) = (   0.2000000   0.2857143   0.1111111), wk =   0.0063492
        k(   33) = (   0.2000000   0.2857143   0.2222222), wk =   0.0063492
        k(   34) = (   0.2000000   0.2857143   0.3333333), wk =   0.0063492
        k(   35) = (   0.2000000   0.2857143   0.4444444), wk =   0.0063492
        k(   36) = (   0.2000000   0.4285714   0.0000000), wk =   0.0063492
        k(   37) = (   0.2000000   0.4285714   0.1111111), wk =   0.0063492
        k(   38) = (   0.2000000   0.4285714   0.2222222), wk =   0.0063492
        k(   39) = (   0.2000000   0.4285714   0.3333333), wk =   0.0063492
        k(   40) = (   0.2000000   0.4285714   0.4444444), wk =   0.0063492
        k(   41) = (   0.4000000   0.0000000   0.0000000), wk =   0.0063492
        k(   42) = (   0.4000000   0.0000000   0.1111111), wk =   0.0063492
        k(   43) = (   0.4000000   0.0000000   0.2222222), wk =   0.0063492
        k(   44) = (   0.4000000   0.0000000   0.3333333), wk =   0.0063492
        k(   45) = (   0.4000000   0.0000000   0.4444444), wk =   0.0063492
        k(   46) = (   0.4000000   0.1428571   0.0000000), wk =   0.0063492
        k(   47) = (   0.4000000   0.1428571   0.1111111), wk =   0.0063492
        k(   48) = (   0.4000000   0.1428571   0.2222222), wk =   0.0063492
        k(   49) = (   0.4000000   0.1428571   0.3333333), wk =   0.0063492
        k(   50) = (   0.4000000   0.1428571   0.4444444), wk =   0.0063492
        k(   51) = (   0.4000000   0.2857143   0.0000000), wk =   0.0063492
        k(   52) = (   0.4000000   0.2857143   0.1111111), wk =   0.0063492
        k(   53) = (   0.4000000   0.2857143   0.2222222), wk =   0.0063492
        k(   54) = (   0.4000000   0.2857143   0.3333333), wk =   0.0063492
        k(   55) = (   0.4000000   0.2857143   0.4444444), wk =   0.0063492
        k(   56) = (   0.4000000   0.4285714   0.0000000), wk =   0.0063492
        k(   57) = (   0.4000000   0.4285714   0.1111111), wk =   0.0063492
        k(   58) = (   0.4000000   0.4285714   0.2222222), wk =   0.0063492
        k(   59) = (   0.4000000   0.4285714   0.3333333), wk =   0.0063492
        k(   60) = (   0.4000000   0.4285714   0.4444444), wk =   0.0063492
        k(   61) = (   0.0000000  -0.1428571   0.1111111), wk =   0.0063492
        k(   62) = (   0.0000000  -0.1428571   0.2222222), wk =   0.0063492
        k(   63) = (   0.0000000  -0.1428571   0.3333333), wk =   0.0063492
        k(   64) = (   0.0000000  -0.1428571   0.4444444), wk =   0.0063492
        k(   65) = (   0.0000000  -0.2857143   0.1111111), wk =   0.0063492
        k(   66) = (   0.0000000  -0.2857143   0.2222222), wk =   0.0063492
        k(   67) = (   0.0000000  -0.2857143   0.3333333), wk =   0.0063492
        k(   68) = (   0.0000000  -0.2857143   0.4444444), wk =   0.0063492
        k(   69) = (   0.0000000  -0.4285714   0.1111111), wk =   0.0063492
        k(   70) = (   0.0000000  -0.4285714   0.2222222), wk =   0.0063492
        k(   71) = (   0.0000000  -0.4285714   0.3333333), wk =   0.0063492
        k(   72) = (   0.0000000  -0.4285714   0.4444444), wk =   0.0063492
        k(   73) = (  -0.2000000   0.0000000   0.1111111), wk =   0.0063492
        k(   74) = (  -0.2000000   0.0000000   0.2222222), wk =   0.0063492
        k(   75) = (  -0.2000000   0.0000000   0.3333333), wk =   0.0063492
        k(   76) = (  -0.2000000   0.0000000   0.4444444), wk =   0.0063492
        k(   77) = (  -0.2000000   0.1428571   0.0000000), wk =   0.0063492
        k(   78) = (  -0.2000000  -0.1428571   0.1111111), wk =   0.0063492
        k(   79) = (  -0.2000000   0.1428571  -0.1111111), wk =   0.0063492
        k(   80) = (   0.2000000  -0.1428571  -0.1111111), wk =   0.0063492
        k(   81) = (  -0.2000000  -0.1428571   0.2222222), wk =   0.0063492
        k(   82) = (  -0.2000000   0.1428571  -0.2222222), wk =   0.0063492
        k(   83) = (   0.2000000  -0.1428571  -0.2222222), wk =   0.0063492
        k(   84) = (  -0.2000000  -0.1428571   0.3333333), wk =   0.0063492
        k(   85) = (  -0.2000000   0.1428571  -0.3333333), wk =   0.0063492
        k(   86) = (   0.2000000  -0.1428571  -0.3333333), wk =   0.0063492
        k(   87) = (  -0.2000000  -0.1428571   0.4444444), wk =   0.0063492
        k(   88) = (  -0.2000000   0.1428571  -0.4444444), wk =   0.0063492
        k(   89) = (   0.2000000  -0.1428571  -0.4444444), wk =   0.0063492
        k(   90) = (  -0.2000000   0.2857143   0.0000000), wk =   0.0063492
        k(   91) = (  -0.2000000  -0.2857143   0.1111111), wk =   0.0063492
        k(   92) = (  -0.2000000   0.2857143  -0.1111111), wk =   0.0063492
        k(   93) = (   0.2000000  -0.2857143  -0.1111111), wk =   0.0063492
        k(   94) = (  -0.2000000  -0.2857143   0.2222222), wk =   0.0063492
        k(   95) = (  -0.2000000   0.2857143  -0.2222222), wk =   0.0063492
        k(   96) = (   0.2000000  -0.2857143  -0.2222222), wk =   0.0063492
        k(   97) = (  -0.2000000  -0.2857143   0.3333333), wk =   0.0063492
        k(   98) = (  -0.2000000   0.2857143  -0.3333333), wk =   0.0063492
        k(   99) = (   0.2000000  -0.2857143  -0.3333333), wk =   0.0063492
        k(  100) = (  -0.2000000  -0.2857143   0.4444444), wk =   0.0063492
        k(  101) = (  -0.2000000   0.2857143  -0.4444444), wk =   0.0063492
        k(  102) = (   0.2000000  -0.2857143  -0.4444444), wk =   0.0063492
        k(  103) = (  -0.2000000   0.4285714   0.0000000), wk =   0.0063492
        k(  104) = (  -0.2000000  -0.4285714   0.1111111), wk =   0.0063492
        k(  105) = (  -0.2000000   0.4285714  -0.1111111), wk =   0.0063492
        k(  106) = (   0.2000000  -0.4285714  -0.1111111), wk =   0.0063492
        k(  107) = (  -0.2000000  -0.4285714   0.2222222), wk =   0.0063492
        k(  108) = (  -0.2000000   0.4285714  -0.2222222), wk =   0.0063492
        k(  109) = (   0.2000000  -0.4285714  -0.2222222), wk =   0.0063492
        k(  110) = (  -0.2000000  -0.4285714   0.3333333), wk =   0.0063492
        k(  111) = (  -0.2000000   0.4285714  -0.3333333), wk =   0.0063492
        k(  112) = (   0.2000000  -0.4285714  -0.3333333), wk =   0.0063492
        k(  113) = (  -0.2000000  -0.4285714   0.4444444), wk =   0.0063492
        k(  114) = (  -0.2000000   0.4285714  -0.4444444), wk =   0.0063492
        k(  115) = (   0.2000000  -0.4285714  -0.4444444), wk =   0.0063492
        k(  116) = (  -0.4000000   0.0000000   0.1111111), wk =   0.0063492
        k(  117) = (  -0.4000000   0.0000000   0.2222222), wk =   0.0063492
        k(  118) = (  -0.4000000   0.0000000   0.3333333), wk =   0.0063492
        k(  119) = (  -0.4000000   0.0000000   0.4444444), wk =   0.0063492
        k(  120) = (  -0.4000000   0.1428571   0.0000000), wk =   0.0063492
        k(  121) = (  -0.4000000  -0.1428571   0.1111111), wk =   0.0063492
        k(  122) = (  -0.4000000   0.1428571  -0.1111111), wk =   0.0063492
        k(  123) = (   0.4000000  -0.1428571  -0.1111111), wk =   0.0063492
        k(  124) = (  -0.4000000  -0.1428571   0.2222222), wk =   0.0063492
        k(  125) = (  -0.4000000   0.1428571  -0.2222222), wk =   0.0063492
        k(  126) = (   0.4000000  -0.1428571  -0.2222222), wk =   0.0063492
        k(  127) = (  -0.4000000  -0.1428571   0.3333333), wk =   0.0063492
        k(  128) = (  -0.4000000   0.1428571  -0.3333333), wk =   0.0063492
        k(  129) = (   0.4000000  -0.1428571  -0.3333333), wk =   0.0063492
        k(  130) = (  -0.4000000  -0.1428571   0.4444444), wk =   0.0063492
        k(  131) = (  -0.4000000   0.1428571  -0.4444444), wk =   0.0063492
        k(  132) = (   0.4000000  -0.1428571  -0.4444444), wk =   0.0063492
        k(  133) = (  -0.4000000   0.2857143   0.0000000), wk =   0.0063492
        k(  134) = (  -0.4000000  -0.2857143   0.1111111), wk =   0.0063492
        k(  135) = (  -0.4000000   0.2857143  -0.1111111), wk =   0.0063492
        k(  136) = (   0.4000000  -0.2857143  -0.1111111), wk =   0.0063492
        k(  137) = (  -0.4000000  -0.2857143   0.2222222), wk =   0.0063492
        k(  138) = (  -0.4000000   0.2857143  -0.2222222), wk =   0.0063492
        k(  139) = (   0.4000000  -0.2857143  -0.2222222), wk =   0.0063492
        k(  140) = (  -0.4000000  -0.2857143   0.3333333), wk =   0.0063492
        k(  141) = (  -0.4000000   0.2857143  -0.3333333), wk =   0.0063492
        k(  142) = (   0.4000000  -0.2857143  -0.3333333), wk =   0.0063492
        k(  143) = (  -0.4000000  -0.2857143   0.4444444), wk =   0.0063492
        k(  144) = (  -0.4000000   0.2857143  -0.4444444), wk =   0.0063492
        k(  145) = (   0.4000000  -0.2857143  -0.4444444), wk =   0.0063492
        k(  146) = (  -0.4000000   0.4285714   0.0000000), wk =   0.0063492
        k(  147) = (  -0.4000000  -0.4285714   0.1111111), wk =   0.0063492
        k(  148) = (  -0.4000000   0.4285714  -0.1111111), wk =   0.0063492
        k(  149) = (   0.4000000  -0.4285714  -0.1111111), wk =   0.0063492
        k(  150) = (  -0.4000000  -0.4285714   0.2222222), wk =   0.0063492
        k(  151) = (  -0.4000000   0.4285714  -0.2222222), wk =   0.0063492
        k(  152) = (   0.4000000  -0.4285714  -0.2222222), wk =   0.0063492
        k(  153) = (  -0.4000000  -0.4285714   0.3333333), wk =   0.0063492
        k(  154) = (  -0.4000000   0.4285714  -0.3333333), wk =   0.0063492
        k(  155) = (   0.4000000  -0.4285714  -0.3333333), wk =   0.0063492
        k(  156) = (  -0.4000000  -0.4285714   0.4444444), wk =   0.0063492
        k(  157) = (  -0.4000000   0.4285714  -0.4444444), wk =   0.0063492
        k(  158) = (   0.4000000  -0.4285714  -0.4444444), wk =   0.0063492

     Dense  grid:  1428783 G-vectors     FFT dimensions: ( 216, 128, 108)

     Smooth grid:   322201 G-vectors     FFT dimensions: ( 135,  80,  64)

     Dynamical RAM for                 wfc:       2.19 MB

     Dynamical RAM for     wfc (w. buffer):     693.14 MB

     Dynamical RAM for           str. fact:       2.73 MB

     Dynamical RAM for           local pot:       0.00 MB

     Dynamical RAM for          nlocal pot:       5.37 MB

     Dynamical RAM for                qrad:      10.54 MB

     Dynamical RAM for          rho,v,vnew:       9.15 MB

     Dynamical RAM for               rhoin:       3.05 MB

     Dynamical RAM for            rho*nmix:      21.80 MB

     Dynamical RAM for           G-vectors:       2.63 MB

     Dynamical RAM for          h,s,v(r/c):       2.38 MB

     Dynamical RAM for          <psi|beta>:       0.49 MB

     Dynamical RAM for                 psi:       4.37 MB

     Dynamical RAM for                hpsi:       4.37 MB

     Dynamical RAM for                spsi:       4.37 MB

     Dynamical RAM for      wfcinit/wfcrot:       5.69 MB

     Dynamical RAM for           addusdens:     138.31 MB

     Dynamical RAM for          addusforce:     158.87 MB

     Dynamical RAM for         addusstress:     137.97 MB

     Estimated static dynamical RAM per process >     756.88 MB

     Estimated max dynamical RAM per process >     915.75 MB

     Estimated total dynamical RAM >      28.62 GB

     Check: negative core charge=   -0.000003
     Generating pointlists ...
     new r_m :   0.0763 (alat units)  1.5510 (a.u.) for type    1
     new r_m :   0.0915 (alat units)  1.8588 (a.u.) for type    2
     new r_m :   0.0609 (alat units)  1.2366 (a.u.) for type    3
     new r_m :   0.0609 (alat units)  1.2366 (a.u.) for type    4

     Initial potential from superposition of free atoms

     starting charge  188.99132, renormalised to  189.00000
     Starting wfcs are  137 randomized atomic wfcs
     Checking if some PAW data can be deallocated... 
       PAW data deallocated on   24 nodes for type:  1
       PAW data deallocated on   16 nodes for type:  3

     total cpu time spent up to now is     1346.4 secs

     Self-consistent Calculation

     iteration #  1     ecut=   100.00 Ry     beta= 0.40
     Davidson diagonalization with overlap
     ethr =  1.00E-02,  avg # of iterations =  2.9

     negative rho (up, down):  0.000E+00 9.294E-05

     total cpu time spent up to now is     4933.2 secs

     total energy              =   -2123.73075046 Ry
     estimated scf accuracy    <       7.08472456 Ry

     total magnetization       =    19.00 Bohr mag/cell
     absolute magnetization    =    19.00 Bohr mag/cell

     iteration #  2     ecut=   100.00 Ry     beta= 0.40
     Davidson diagonalization with overlap
     ethr =  3.75E-03,  avg # of iterations =  2.0

     negative rho (up, down):  0.000E+00 4.242E-05

     total cpu time spent up to now is     8389.7 secs

     total energy              =   -2121.14517703 Ry
     estimated scf accuracy    <      32.53826482 Ry

     total magnetization       =     7.46 Bohr mag/cell
     absolute magnetization    =     9.18 Bohr mag/cell

     iteration #  3     ecut=   100.00 Ry     beta= 0.40
     Davidson diagonalization with overlap
     ethr =  3.75E-03,  avg # of iterations =  2.0

     negative rho (up, down):  0.000E+00 4.012E-05

     total cpu time spent up to now is    11331.3 secs

     total energy              =   -2124.46342284 Ry
     estimated scf accuracy    <      30.82499765 Ry

     total magnetization       =    11.00 Bohr mag/cell
     absolute magnetization    =    12.24 Bohr mag/cell

     iteration #  4     ecut=   100.00 Ry     beta= 0.40
     Davidson diagonalization with overlap
     ethr =  3.75E-03,  avg # of iterations =  2.0

     negative rho (up, down):  0.000E+00 8.755E-05

     total cpu time spent up to now is    14165.8 secs

     total energy              =   -2125.56963112 Ry
     estimated scf accuracy    <       7.96255082 Ry

     total magnetization       =    16.07 Bohr mag/cell
     absolute magnetization    =    16.19 Bohr mag/cell

     iteration #  5     ecut=   100.00 Ry     beta= 0.40
     Davidson diagonalization with overlap
     ethr =  3.75E-03,  avg # of iterations =  1.0

     negative rho (up, down):  0.000E+00 1.152E-04

     total cpu time spent up to now is    16881.4 secs

     total energy              =   -2125.63608071 Ry
     estimated scf accuracy    <       7.33494839 Ry

     total magnetization       =    15.84 Bohr mag/cell
     absolute magnetization    =    16.02 Bohr mag/cell

     iteration #  6     ecut=   100.00 Ry     beta= 0.40
     Davidson diagonalization with overlap
     ethr =  3.75E-03,  avg # of iterations =  1.0

     negative rho (up, down):  0.000E+00 1.320E-04

     total cpu time spent up to now is    19591.9 secs

     total energy              =   -2125.89732900 Ry
     estimated scf accuracy    <       2.03327544 Ry

     total magnetization       =    18.38 Bohr mag/cell
     absolute magnetization    =    18.39 Bohr mag/cell

     iteration #  7     ecut=   100.00 Ry     beta= 0.40
     Davidson diagonalization with overlap
     ethr =  1.08E-03,  avg # of iterations =  1.0

     negative rho (up, down):  0.000E+00 2.557E-04

     total cpu time spent up to now is    22303.0 secs

     total energy              =   -2126.01644558 Ry
     estimated scf accuracy    <       1.21626354 Ry

     total magnetization       =    19.00 Bohr mag/cell
     absolute magnetization    =    19.00 Bohr mag/cell

     iteration #  8     ecut=   100.00 Ry     beta= 0.40
     Davidson diagonalization with overlap
     ethr =  6.44E-04,  avg # of iterations =  1.0

     negative rho (up, down):  0.000E+00 4.380E-04

     total cpu time spent up to now is    25015.0 secs

     total energy              =   -2125.98922266 Ry
     estimated scf accuracy    <       0.43353180 Ry

     total magnetization       =    19.00 Bohr mag/cell
     absolute magnetization    =    19.00 Bohr mag/cell

     iteration #  9     ecut=   100.00 Ry     beta= 0.40
     Davidson diagonalization with overlap
     ethr =  2.29E-04,  avg # of iterations =  2.6

     negative rho (up, down):  0.000E+00 7.083E-04

     total cpu time spent up to now is    27878.2 secs

     total energy              =   -2125.98826068 Ry
     estimated scf accuracy    <       0.45000449 Ry

     total magnetization       =    19.00 Bohr mag/cell
     absolute magnetization    =    19.01 Bohr mag/cell

     iteration # 10     ecut=   100.00 Ry     beta= 0.40
     Davidson diagonalization with overlap
     ethr =  2.29E-04,  avg # of iterations =  1.1

     negative rho (up, down):  0.000E+00 8.410E-04

     total cpu time spent up to now is    30594.2 secs

     total energy              =   -2126.00618054 Ry
     estimated scf accuracy    <       0.20193748 Ry

     total magnetization       =    19.00 Bohr mag/cell
     absolute magnetization    =    19.02 Bohr mag/cell

     iteration # 11     ecut=   100.00 Ry     beta= 0.40
     Davidson diagonalization with overlap
     c_bands:  1 eigenvalues not converged
     c_bands:  1 eigenvalues not converged
     c_bands:  1 eigenvalues not converged
     c_bands:  1 eigenvalues not converged
     c_bands:  1 eigenvalues not converged
     ethr =  1.07E-04,  avg # of iterations =  4.7

     negative rho (up, down):  0.000E+00 9.054E-04

     total cpu time spent up to now is    33657.2 secs

     total energy              =   -2126.00528981 Ry
     estimated scf accuracy    <       0.09943599 Ry

     total magnetization       =    19.00 Bohr mag/cell
     absolute magnetization    =    19.03 Bohr mag/cell

     iteration # 12     ecut=   100.00 Ry     beta= 0.40
     Davidson diagonalization with overlap
     c_bands:  1 eigenvalues not converged
     c_bands:  1 eigenvalues not converged
     c_bands:  2 eigenvalues not converged
     c_bands:  1 eigenvalues not converged
     c_bands:  1 eigenvalues not converged
     c_bands:  1 eigenvalues not converged
     c_bands:  1 eigenvalues not converged
     c_bands:  1 eigenvalues not converged
     c_bands:  1 eigenvalues not converged
     c_bands:  1 eigenvalues not converged
     c_bands:  1 eigenvalues not converged
     c_bands:  1 eigenvalues not converged
     ethr =  5.26E-05,  avg # of iterations = 10.1

     negative rho (up, down):  0.000E+00 9.407E-04

     total cpu time spent up to now is    37282.0 secs

     total energy              =   -2126.00919977 Ry
     estimated scf accuracy    <       0.07228928 Ry

     total magnetization       =    19.00 Bohr mag/cell
     absolute magnetization    =    19.03 Bohr mag/cell

     iteration # 13     ecut=   100.00 Ry     beta= 0.40
     Davidson diagonalization with overlap
     c_bands:  1 eigenvalues not converged
     c_bands:  1 eigenvalues not converged
     c_bands:  1 eigenvalues not converged
     c_bands:  1 eigenvalues not converged
     ethr =  3.82E-05,  avg # of iterations =  2.9

     negative rho (up, down):  0.000E+00 9.807E-04

     total cpu time spent up to now is    40178.5 secs

     total energy              =   -2126.01107501 Ry
     estimated scf accuracy    <       0.00413118 Ry

     total magnetization       =    19.00 Bohr mag/cell
     absolute magnetization    =    19.04 Bohr mag/cell

     iteration # 14     ecut=   100.00 Ry     beta= 0.40
     Davidson diagonalization with overlap
     c_bands:  1 eigenvalues not converged
     c_bands:  1 eigenvalues not converged
     c_bands:  1 eigenvalues not converged
     c_bands:  1 eigenvalues not converged
     c_bands:  1 eigenvalues not converged
     c_bands:  1 eigenvalues not converged
     c_bands:  1 eigenvalues not converged
     c_bands:  1 eigenvalues not converged
     c_bands:  1 eigenvalues not converged
     c_bands:  1 eigenvalues not converged
     c_bands:  1 eigenvalues not converged
     c_bands:  1 eigenvalues not converged
     c_bands:  1 eigenvalues not converged
     c_bands:  1 eigenvalues not converged
     c_bands:  1 eigenvalues not converged
     c_bands:  1 eigenvalues not converged
     c_bands:  1 eigenvalues not converged
     c_bands:  1 eigenvalues not converged
     c_bands:  1 eigenvalues not converged
     c_bands:  1 eigenvalues not converged
     c_bands:  1 eigenvalues not converged
     c_bands:  1 eigenvalues not converged
     ethr =  2.19E-06,  avg # of iterations = 14.5

     negative rho (up, down):  0.000E+00 9.653E-04

     total cpu time spent up to now is    45378.3 secs

     total energy              =   -2126.01217290 Ry
     estimated scf accuracy    <       0.00073326 Ry

     total magnetization       =    19.00 Bohr mag/cell
     absolute magnetization    =    19.05 Bohr mag/cell

     iteration # 15     ecut=   100.00 Ry     beta= 0.40
     Davidson diagonalization with overlap
     ethr =  3.88E-07,  avg # of iterations =  2.6

     negative rho (up, down):  0.000E+00 9.627E-04

     total cpu time spent up to now is    48798.3 secs

     total energy              =   -2126.01232224 Ry
     estimated scf accuracy    <       0.00095292 Ry

     total magnetization       =    19.00 Bohr mag/cell
     absolute magnetization    =    19.05 Bohr mag/cell

     iteration # 16     ecut=   100.00 Ry     beta= 0.40
     Davidson diagonalization with overlap
     ethr =  3.88E-07,  avg # of iterations =  1.0

     negative rho (up, down):  0.000E+00 9.545E-04

     total cpu time spent up to now is    51502.6 secs

     total energy              =   -2126.01235149 Ry
     estimated scf accuracy    <       0.00010022 Ry

     total magnetization       =    19.00 Bohr mag/cell
     absolute magnetization    =    19.05 Bohr mag/cell

     iteration # 17     ecut=   100.00 Ry     beta= 0.40
     Davidson diagonalization with overlap
     ethr =  5.30E-08,  avg # of iterations =  1.9

     negative rho (up, down):  0.000E+00 9.504E-04

     total cpu time spent up to now is    54361.9 secs

     total energy              =   -2126.01236596 Ry
     estimated scf accuracy    <       0.00005029 Ry

     total magnetization       =    19.00 Bohr mag/cell
     absolute magnetization    =    19.05 Bohr mag/cell

     iteration # 18     ecut=   100.00 Ry     beta= 0.40
     Davidson diagonalization with overlap
     ethr =  2.66E-08,  avg # of iterations =  1.6

     negative rho (up, down):  0.000E+00 9.464E-04

     total cpu time spent up to now is    57148.4 secs

     total energy              =   -2126.01236969 Ry
     estimated scf accuracy    <       0.00005867 Ry

     total magnetization       =    19.00 Bohr mag/cell
     absolute magnetization    =    19.05 Bohr mag/cell

     iteration # 19     ecut=   100.00 Ry     beta= 0.40
     Davidson diagonalization with overlap
     ethr =  2.66E-08,  avg # of iterations =  1.0

     negative rho (up, down):  0.000E+00 9.456E-04

     total cpu time spent up to now is    59860.5 secs

     total energy              =   -2126.01237329 Ry
     estimated scf accuracy    <       0.00000891 Ry

     total magnetization       =    19.00 Bohr mag/cell
     absolute magnetization    =    19.05 Bohr mag/cell

     iteration # 20     ecut=   100.00 Ry     beta= 0.40
     Davidson diagonalization with overlap
     ethr =  4.72E-09,  avg # of iterations =  4.5

     negative rho (up, down):  0.000E+00 9.450E-04

     total cpu time spent up to now is    63701.8 secs

     total energy              =   -2126.01237661 Ry
     estimated scf accuracy    <       0.00000250 Ry

     total magnetization       =    19.00 Bohr mag/cell
     absolute magnetization    =    19.05 Bohr mag/cell

     iteration # 21     ecut=   100.00 Ry     beta= 0.40
     Davidson diagonalization with overlap
     ethr =  1.33E-09,  avg # of iterations =  2.3

     negative rho (up, down):  0.000E+00 9.454E-04

     total cpu time spent up to now is    66741.0 secs

     total energy              =   -2126.01237717 Ry
     estimated scf accuracy    <       0.00000050 Ry

     total magnetization       =    19.00 Bohr mag/cell
     absolute magnetization    =    19.05 Bohr mag/cell

     iteration # 22     ecut=   100.00 Ry     beta= 0.40
     Davidson diagonalization with overlap
     ethr =  2.65E-10,  avg # of iterations =  2.5

     negative rho (up, down):  0.000E+00 9.462E-04

     total cpu time spent up to now is    70065.1 secs

     total energy              =   -2126.01237757 Ry
     estimated scf accuracy    <       0.00000176 Ry

     total magnetization       =    19.00 Bohr mag/cell
     absolute magnetization    =    19.05 Bohr mag/cell

     iteration # 23     ecut=   100.00 Ry     beta= 0.40
     Davidson diagonalization with overlap
     ethr =  2.65E-10,  avg # of iterations =  2.0

     negative rho (up, down):  0.000E+00 9.462E-04

     total cpu time spent up to now is    72885.3 secs

     total energy              =   -2126.01237768 Ry
     estimated scf accuracy    <       0.00000071 Ry

     total magnetization       =    19.00 Bohr mag/cell
     absolute magnetization    =    19.05 Bohr mag/cell

     iteration # 24     ecut=   100.00 Ry     beta= 0.40
     Davidson diagonalization with overlap
     ethr =  2.65E-10,  avg # of iterations =  1.0

     negative rho (up, down):  0.000E+00 9.464E-04

     total cpu time spent up to now is    75596.4 secs

     total energy              =   -2126.01237773 Ry
     estimated scf accuracy    <       0.00000028 Ry

     total magnetization       =    19.00 Bohr mag/cell
     absolute magnetization    =    19.05 Bohr mag/cell

     iteration # 25     ecut=   100.00 Ry     beta= 0.40
     Davidson diagonalization with overlap
     ethr =  1.46E-10,  avg # of iterations =  1.0

     negative rho (up, down):  0.000E+00 9.463E-04

     total cpu time spent up to now is    78306.1 secs

     total energy              =   -2126.01237775 Ry
     estimated scf accuracy    <       0.00000016 Ry

     total magnetization       =    19.00 Bohr mag/cell
     absolute magnetization    =    19.05 Bohr mag/cell

     iteration # 26     ecut=   100.00 Ry     beta= 0.40
     Davidson diagonalization with overlap
     ethr =  8.66E-11,  avg # of iterations =  2.0

     negative rho (up, down):  0.000E+00 9.463E-04

     total cpu time spent up to now is    81168.2 secs

     total energy              =   -2126.01237778 Ry
     estimated scf accuracy    <       0.00000007 Ry

     total magnetization       =    19.00 Bohr mag/cell
     absolute magnetization    =    19.05 Bohr mag/cell

     iteration # 27     ecut=   100.00 Ry     beta= 0.40
     Davidson diagonalization with overlap
     ethr =  3.64E-11,  avg # of iterations =  2.0

     negative rho (up, down):  0.000E+00 9.462E-04

     total cpu time spent up to now is    84019.3 secs

     total energy              =   -2126.01237779 Ry
     estimated scf accuracy    <       0.00000003 Ry

     total magnetization       =    19.00 Bohr mag/cell
     absolute magnetization    =    19.05 Bohr mag/cell

     iteration # 28     ecut=   100.00 Ry     beta= 0.40
     Davidson diagonalization with overlap
     ethr =  1.63E-11,  avg # of iterations =  1.3

     negative rho (up, down):  0.000E+00 9.461E-04

     total cpu time spent up to now is    86766.5 secs

     total energy              =   -2126.01237780 Ry
     estimated scf accuracy    <       0.00000002 Ry

     total magnetization       =    19.00 Bohr mag/cell
     absolute magnetization    =    19.05 Bohr mag/cell

     iteration # 29     ecut=   100.00 Ry     beta= 0.40
     Davidson diagonalization with overlap
     ethr =  1.26E-11,  avg # of iterations =  2.0

     negative rho (up, down):  0.000E+00 9.461E-04

     total cpu time spent up to now is    89646.0 secs

     total energy              =   -2126.01237780 Ry
     estimated scf accuracy    <          7.8E-09 Ry

     total magnetization       =    19.00 Bohr mag/cell
     absolute magnetization    =    19.05 Bohr mag/cell

     iteration # 30     ecut=   100.00 Ry     beta= 0.40
     Davidson diagonalization with overlap
     ethr =  4.14E-12,  avg # of iterations =  1.9

     negative rho (up, down):  0.000E+00 9.461E-04

     total cpu time spent up to now is    92495.4 secs

     total energy              =   -2126.01237780 Ry
     estimated scf accuracy    <          1.5E-09 Ry

     total magnetization       =    19.00 Bohr mag/cell
     absolute magnetization    =    19.05 Bohr mag/cell

     iteration # 31     ecut=   100.00 Ry     beta= 0.40
     Davidson diagonalization with overlap
     ethr =  8.07E-13,  avg # of iterations =  4.6

     negative rho (up, down):  0.000E+00 9.461E-04

     total cpu time spent up to now is    96229.3 secs

     total energy              =   -2126.01237781 Ry
     estimated scf accuracy    <          9.0E-10 Ry

     total magnetization       =    19.00 Bohr mag/cell
     absolute magnetization    =    19.05 Bohr mag/cell

     iteration # 32     ecut=   100.00 Ry     beta= 0.40
     Davidson diagonalization with overlap
     ethr =  4.78E-13,  avg # of iterations =  1.7

     negative rho (up, down):  0.000E+00 9.461E-04

     total cpu time spent up to now is    99046.3 secs

     total energy              =   -2126.01237781 Ry
     estimated scf accuracy    <          3.6E-10 Ry

     total magnetization       =    19.00 Bohr mag/cell
     absolute magnetization    =    19.05 Bohr mag/cell

     iteration # 33     ecut=   100.00 Ry     beta= 0.40
     Davidson diagonalization with overlap
     ethr =  1.90E-13,  avg # of iterations =  2.7

     negative rho (up, down):  0.000E+00 9.462E-04

     Magnetic moment per site:
     atom:    1    charge:    7.9726    magn:    0.0014    constr:    0.0000
     atom:    2    charge:   13.0292    magn:    3.6632    constr:    0.0000
     atom:    3    charge:   13.0221    magn:    3.6763    constr:    0.0000
     atom:    4    charge:   13.0157    magn:    3.7070    constr:    0.0000
     atom:    5    charge:   13.0358    magn:    3.6310    constr:    0.0000
     atom:    6    charge:    0.9089    magn:    0.0088    constr:    0.0000
     atom:    7    charge:    0.9016    magn:    0.0111    constr:    0.0000
     atom:    8    charge:    0.9117    magn:    0.0108    constr:    0.0000
     atom:    9    charge:    0.9007    magn:    0.0112    constr:    0.0000
     atom:   10    charge:    4.3670    magn:    0.1658    constr:    0.0000
     atom:   11    charge:    4.3777    magn:    0.1181    constr:    0.0000
     atom:   12    charge:    4.3950    magn:    0.1166    constr:    0.0000
     atom:   13    charge:    4.3820    magn:    0.1157    constr:    0.0000
     atom:   14    charge:    4.3738    magn:    0.1206    constr:    0.0000
     atom:   15    charge:    4.3674    magn:    0.1093    constr:    0.0000
     atom:   16    charge:    4.3798    magn:    0.1284    constr:    0.0000
     atom:   17    charge:    4.3806    magn:    0.0908    constr:    0.0000
     atom:   18    charge:    4.3861    magn:    0.1281    constr:    0.0000
     atom:   19    charge:    4.3664    magn:    0.1444    constr:    0.0000
     atom:   20    charge:    4.3704    magn:    0.1160    constr:    0.0000
     atom:   21    charge:    4.3663    magn:    0.1515    constr:    0.0000
     atom:   22    charge:    4.3823    magn:    0.1343    constr:    0.0000
     atom:   23    charge:    4.3697    magn:    0.1475    constr:    0.0000
     atom:   24    charge:    4.3718    magn:    0.1182    constr:    0.0000
     atom:   25    charge:    4.3793    magn:    0.1590    constr:    0.0000

     total cpu time spent up to now is   101991.9 secs

     End of self-consistent calculation

 ------ SPIN UP ------------


          k = 0.0000 0.0000 0.0000 ( 40357 PWs)   bands (ev):

   -86.4895 -86.4658 -86.2834 -86.0965 -52.5830 -52.5599 -52.5200 -52.4743
   -52.4048 -52.4006 -52.3654 -52.2989 -52.2401 -52.0741 -52.0676 -51.9061
   -45.5839 -17.6019 -17.5447 -17.5353 -16.6663 -16.4854 -16.4128 -16.2824
   -14.5843 -14.4449 -14.3776 -14.3127 -14.2726 -14.2155 -14.2046 -14.1644
   -14.1291 -14.0574 -14.0276 -13.9831  -5.2091  -4.8147  -4.5716  -4.4061
    -2.9464  -2.8261  -2.6006  -2.5302  -2.2072  -2.0885  -1.9861  -1.9521
    -1.8685  -1.8576  -1.7468  -1.6261  -0.9883  -0.8952  -0.7029  -0.5235
    -0.4967  -0.4359  -0.3272  -0.2214  -0.1997  -0.1819  -0.0905  -0.0294
     0.1039   0.3720   0.4133   0.4793   0.5889   0.7059   0.8086   0.8936
     0.9808   1.0301   1.0583   1.1370   1.2555   1.3689   1.3887   1.5059
     1.5186   1.6452   1.6944   1.7754   1.9211   1.9682   2.0640   2.1378
     2.2686   2.3749   2.4505   2.5191   2.5922   2.6277   2.7508   2.7922
     2.8734   2.8929   2.9998   3.1105   3.1251   3.1594   3.4161   3.6778
     7.3637   9.1712   9.7164  10.0519  10.4543  11.2736  11.3526  11.5920
    11.6573  11.7381

     occupation numbers 
     1.0000   1.0000   1.0000   1.0000   1.0000   1.0000   1.0000   1.0000
     1.0000   1.0000   1.0000   1.0000   1.0000   1.0000   1.0000   1.0000
     1.0000   1.0000   1.0000   1.0000   1.0000   1.0000   1.0000   1.0000
     1.0000   1.0000   1.0000   1.0000   1.0000   1.0000   1.0000   1.0000
     1.0000   1.0000   1.0000   1.0000   1.0000   1.0000   1.0000   1.0000
     1.0000   1.0000   1.0000   1.0000   1.0000   1.0000   1.0000   1.0000
     1.0000   1.0000   1.0000   1.0000   1.0000   1.0000   1.0000   1.0000
     1.0000   1.0000   1.0000   1.0000   1.0000   1.0000   1.0000   1.0000
     1.0000   1.0000   1.0000   1.0000   1.0000   1.0000   1.0000   1.0000
     1.0000   1.0000   1.0000   1.0000   1.0000   1.0000   1.0000   1.0000
     1.0000   1.0000   1.0000   1.0000   1.0000   1.0000   1.0000   1.0000
     1.0000   1.0000   1.0000   1.0000   1.0000   1.0000   1.0000   1.0000
     1.0000   1.0000   1.0000   1.0000   1.0000   1.0000   1.0000   1.0000
     0.0000   0.0000   0.0000   0.0000   0.0000   0.0000   0.0000   0.0000
     0.0000   0.0000

          k = 0.0000 0.0000 0.2337 ( 40255 PWs)   bands (ev):

   -86.4895 -86.4658 -86.2834 -86.0965 -52.5830 -52.5599 -52.5200 -52.4743
   -52.4048 -52.4006 -52.3654 -52.2989 -52.2401 -52.0741 -52.0676 -51.9061
   -45.5839 -17.6028 -17.5452 -17.5356 -16.6549 -16.4811 -16.4047 -16.2807
   -14.5936 -14.4475 -14.3896 -14.3141 -14.2677 -14.2273 -14.2029 -14.1662
   -14.1397 -14.0572 -14.0298 -13.9811  -5.1825  -4.8008  -4.5688  -4.3957
    -2.9380  -2.8164  -2.6043  -2.5040  -2.2093  -2.0913  -1.9805  -1.9475
    -1.8674  -1.8362  -1.7757  -1.6046  -0.9762  -0.8824  -0.7041  -0.5298
    -0.5128  -0.4116  -0.3348  -0.2817  -0.1889  -0.1425  -0.0980  -0.0238
     0.0938   0.3502   0.4128   0.4979   0.5828   0.7019   0.8130   0.8897
     0.9688   1.0264   1.0633   1.1455   1.2032   1.3444   1.3832   1.5007
     1.5333   1.6388   1.6975   1.7773   1.8933   1.9162   2.0711   2.1536
     2.2507   2.3673   2.4519   2.5218   2.5685   2.6293   2.7583   2.7693
     2.8758   2.9171   2.9923   3.0988   3.1286   3.1705   3.4159   3.6731
     7.5031   9.2421   9.7545  10.0818  10.4832  11.2403  11.3173  11.5156
    11.6193  11.7209

     occupation numbers 
     1.0000   1.0000   1.0000   1.0000   1.0000   1.0000   1.0000   1.0000
     1.0000   1.0000   1.0000   1.0000   1.0000   1.0000   1.0000   1.0000
     1.0000   1.0000   1.0000   1.0000   1.0000   1.0000   1.0000   1.0000
     1.0000   1.0000   1.0000   1.0000   1.0000   1.0000   1.0000   1.0000
     1.0000   1.0000   1.0000   1.0000   1.0000   1.0000   1.0000   1.0000
     1.0000   1.0000   1.0000   1.0000   1.0000   1.0000   1.0000   1.0000
     1.0000   1.0000   1.0000   1.0000   1.0000   1.0000   1.0000   1.0000
     1.0000   1.0000   1.0000   1.0000   1.0000   1.0000   1.0000   1.0000
     1.0000   1.0000   1.0000   1.0000   1.0000   1.0000   1.0000   1.0000
     1.0000   1.0000   1.0000   1.0000   1.0000   1.0000   1.0000   1.0000
     1.0000   1.0000   1.0000   1.0000   1.0000   1.0000   1.0000   1.0000
     1.0000   1.0000   1.0000   1.0000   1.0000   1.0000   1.0000   1.0000
     1.0000   1.0000   1.0000   1.0000   1.0000   1.0000   1.0000   1.0000
     0.0000   0.0000   0.0000   0.0000   0.0000   0.0000   0.0000   0.0000
     0.0000   0.0000

          k = 0.0000 0.0000 0.4675 ( 40285 PWs)   bands (ev):

   -86.4895 -86.4658 -86.2834 -86.0965 -52.5830 -52.5599 -52.5200 -52.4743
   -52.4048 -52.4006 -52.3654 -52.2989 -52.2401 -52.0741 -52.0676 -51.9061
   -45.5839 -17.6053 -17.5466 -17.5360 -16.6246 -16.4707 -16.3827 -16.2780
   -14.6176 -14.4586 -14.4137 -14.3213 -14.2629 -14.2459 -14.2082 -14.1727
   -14.1510 -14.0616 -14.0342 -13.9781  -5.1122  -4.7634  -4.5595  -4.3800
    -2.9276  -2.7803  -2.5806  -2.4688  -2.2154  -2.0971  -1.9808  -1.9401
    -1.8419  -1.8186  -1.7794  -1.5855  -0.9549  -0.8433  -0.6869  -0.5590
    -0.5195  -0.3880  -0.3609  -0.2854  -0.2123  -0.1133  -0.0938   0.0035
     0.0782   0.3198   0.3830   0.5114   0.5709   0.6879   0.7869   0.8748
     0.9342   0.9877   1.0744   1.0957   1.1617   1.3245   1.3777   1.4746
     1.5395   1.6193   1.6968   1.7161   1.7829   1.8885   2.0871   2.1571
     2.2352   2.3555   2.4531   2.4969   2.5891   2.6197   2.7496   2.7850
     2.8671   2.9466   2.9957   3.0803   3.1409   3.1756   3.4184   3.6621
     7.8770   9.4260   9.8235  10.1652  10.5706  11.0347  11.2406  11.3890
    11.5580  11.6473

     occupation numbers 
     1.0000   1.0000   1.0000   1.0000   1.0000   1.0000   1.0000   1.0000
     1.0000   1.0000   1.0000   1.0000   1.0000   1.0000   1.0000   1.0000
     1.0000   1.0000   1.0000   1.0000   1.0000   1.0000   1.0000   1.0000
     1.0000   1.0000   1.0000   1.0000   1.0000   1.0000   1.0000   1.0000
     1.0000   1.0000   1.0000   1.0000   1.0000   1.0000   1.0000   1.0000
     1.0000   1.0000   1.0000   1.0000   1.0000   1.0000   1.0000   1.0000
     1.0000   1.0000   1.0000   1.0000   1.0000   1.0000   1.0000   1.0000
     1.0000   1.0000   1.0000   1.0000   1.0000   1.0000   1.0000   1.0000
     1.0000   1.0000   1.0000   1.0000   1.0000   1.0000   1.0000   1.0000
     1.0000   1.0000   1.0000   1.0000   1.0000   1.0000   1.0000   1.0000
     1.0000   1.0000   1.0000   1.0000   1.0000   1.0000   1.0000   1.0000
     1.0000   1.0000   1.0000   1.0000   1.0000   1.0000   1.0000   1.0000
     1.0000   1.0000   1.0000   1.0000   1.0000   1.0000   1.0000   1.0000
     0.0000   0.0000   0.0000   0.0000   0.0000   0.0000   0.0000   0.0000
     0.0000   0.0000

          k = 0.0000 0.0000 0.7012 ( 40253 PWs)   bands (ev):

   -86.4894 -86.4658 -86.2834 -86.0965 -52.5830 -52.5599 -52.5200 -52.4743
   -52.4048 -52.4006 -52.3654 -52.2989 -52.2401 -52.0741 -52.0676 -51.9061
   -45.5839 -17.6085 -17.5479 -17.5361 -16.5867 -16.4604 -16.3541 -16.2790
   -14.6452 -14.4844 -14.4272 -14.3331 -14.2895 -14.2417 -14.2154 -14.1796
   -14.1502 -14.0666 -14.0403 -13.9778  -5.0263  -4.7152  -4.5478  -4.3811
    -2.9254  -2.7297  -2.5247  -2.4522  -2.2246  -2.0992  -2.0072  -1.9369
    -1.8213  -1.7798  -1.7322  -1.5973  -0.9450  -0.7888  -0.6234  -0.5960
    -0.5038  -0.3862  -0.3570  -0.2582  -0.2006  -0.0895  -0.0719   0.0102
     0.0820   0.2679   0.3289   0.4871   0.5525   0.6502   0.7079   0.7691
     0.8608   0.9452   1.0713   1.1222   1.1878   1.2883   1.3107   1.4566
     1.5090   1.5587   1.6003   1.7081   1.7363   1.9229   2.0769   2.1284
     2.2464   2.3727   2.4247   2.4667   2.6180   2.6569   2.7627   2.8119
     2.8651   2.9385   3.0269   3.0738   3.1468   3.1702   3.4243   3.6497
     8.3919   9.6028   9.8701  10.2643  10.5364  10.8926  11.1475  11.2729
    11.4260  11.6039

     occupation numbers 
     1.0000   1.0000   1.0000   1.0000   1.0000   1.0000   1.0000   1.0000
     1.0000   1.0000   1.0000   1.0000   1.0000   1.0000   1.0000   1.0000
     1.0000   1.0000   1.0000   1.0000   1.0000   1.0000   1.0000   1.0000
     1.0000   1.0000   1.0000   1.0000   1.0000   1.0000   1.0000   1.0000
     1.0000   1.0000   1.0000   1.0000   1.0000   1.0000   1.0000   1.0000
     1.0000   1.0000   1.0000   1.0000   1.0000   1.0000   1.0000   1.0000
     1.0000   1.0000   1.0000   1.0000   1.0000   1.0000   1.0000   1.0000
     1.0000   1.0000   1.0000   1.0000   1.0000   1.0000   1.0000   1.0000
     1.0000   1.0000   1.0000   1.0000   1.0000   1.0000   1.0000   1.0000
     1.0000   1.0000   1.0000   1.0000   1.0000   1.0000   1.0000   1.0000
     1.0000   1.0000   1.0000   1.0000   1.0000   1.0000   1.0000   1.0000
     1.0000   1.0000   1.0000   1.0000   1.0000   1.0000   1.0000   1.0000
     1.0000   1.0000   1.0000   1.0000   1.0000   1.0000   1.0000   1.0000
     0.0000   0.0000   0.0000   0.0000   0.0000   0.0000   0.0000   0.0000
     0.0000   0.0000

          k = 0.0000 0.0000 0.9349 ( 40286 PWs)   bands (ev):

   -86.4895 -86.4658 -86.2834 -86.0965 -52.5830 -52.5599 -52.5200 -52.4743
   -52.4048 -52.4006 -52.3654 -52.2989 -52.2401 -52.0741 -52.0676 -51.9061
   -45.5839 -17.6107 -17.5487 -17.5361 -16.5589 -16.4554 -16.3301 -16.2855
   -14.6631 -14.5067 -14.4308 -14.3421 -14.3125 -14.2394 -14.2169 -14.1821
   -14.1471 -14.0669 -14.0467 -13.9793  -4.9653  -4.6784  -4.5400  -4.3957
    -2.9246  -2.6973  -2.4739  -2.4500  -2.2309  -2.0980  -2.0412  -1.9258
    -1.7911  -1.7500  -1.7069  -1.6195  -0.9417  -0.7423  -0.6216  -0.5607
    -0.4863  -0.3881  -0.3000  -0.2269  -0.1575  -0.0870  -0.0217   0.0064
     0.0987   0.1626   0.2401   0.4360   0.5206   0.5466   0.6843   0.7833
     0.8079   0.8953   1.0494   1.1400   1.2019   1.2253   1.2836   1.4128
     1.4814   1.5379   1.5889   1.6842   1.7445   1.9568   2.0469   2.1012
     2.2779   2.3479   2.4209   2.4738   2.6311   2.6896   2.7730   2.8090
     2.8777   2.9552   3.0227   3.0988   3.1420   3.1617   3.4291   3.6405
     8.9484   9.4351  10.0175  10.2159  10.4239  10.9141  11.1240  11.2796
    11.3541  11.4449

     occupation numbers 
     1.0000   1.0000   1.0000   1.0000   1.0000   1.0000   1.0000   1.0000
     1.0000   1.0000   1.0000   1.0000   1.0000   1.0000   1.0000   1.0000
     1.0000   1.0000   1.0000   1.0000   1.0000   1.0000   1.0000   1.0000
     1.0000   1.0000   1.0000   1.0000   1.0000   1.0000   1.0000   1.0000
     1.0000   1.0000   1.0000   1.0000   1.0000   1.0000   1.0000   1.0000
     1.0000   1.0000   1.0000   1.0000   1.0000   1.0000   1.0000   1.0000
     1.0000   1.0000   1.0000   1.0000   1.0000   1.0000   1.0000   1.0000
     1.0000   1.0000   1.0000   1.0000   1.0000   1.0000   1.0000   1.0000
     1.0000   1.0000   1.0000   1.0000   1.0000   1.0000   1.0000   1.0000
     1.0000   1.0000   1.0000   1.0000   1.0000   1.0000   1.0000   1.0000
     1.0000   1.0000   1.0000   1.0000   1.0000   1.0000   1.0000   1.0000
     1.0000   1.0000   1.0000   1.0000   1.0000   1.0000   1.0000   1.0000
     1.0000   1.0000   1.0000   1.0000   1.0000   1.0000   1.0000   1.0000
     0.0000   0.0000   0.0000   0.0000   0.0000   0.0000   0.0000   0.0000
     0.0000   0.0000

          k = 0.0000 0.2391 0.0000 ( 40305 PWs)   bands (ev):

   -86.4895 -86.4658 -86.2834 -86.0965 -52.5830 -52.5599 -52.5200 -52.4743
   -52.4048 -52.4006 -52.3654 -52.2989 -52.2401 -52.0741 -52.0676 -51.9061
   -45.5839 -17.6024 -17.5471 -17.5355 -16.6525 -16.4808 -16.4090 -16.2930
   -14.5901 -14.4486 -14.3766 -14.3297 -14.2768 -14.2125 -14.1988 -14.1649
   -14.1292 -14.0575 -14.0245 -13.9812  -5.1803  -4.7915  -4.5821  -4.4079
    -2.9197  -2.7915  -2.6034  -2.5152  -2.2083  -2.1037  -1.9754  -1.9398
    -1.8961  -1.8167  -1.7391  -1.6197  -0.9993  -0.9021  -0.7273  -0.5835
    -0.5086  -0.4148  -0.3689  -0.2905  -0.2117  -0.1500  -0.0592   0.0557
     0.1120   0.3477   0.3833   0.4958   0.5988   0.6915   0.7620   0.8656
     0.9326   1.0133   1.0501   1.1364   1.2420   1.3220   1.3583   1.5147
     1.5642   1.6286   1.6911   1.7903   1.9103   1.9447   2.0584   2.1620
     2.2560   2.3889   2.4263   2.4854   2.5830   2.6339   2.7520   2.7894
     2.8771   2.9023   2.9843   3.0752   3.1665   3.2556   3.4642   3.6825
     7.5135   9.2452   9.7981   9.9623  10.4552  11.2038  11.3537  11.5223
    11.6504  11.7101

     occupation numbers 
     1.0000   1.0000   1.0000   1.0000   1.0000   1.0000   1.0000   1.0000
     1.0000   1.0000   1.0000   1.0000   1.0000   1.0000   1.0000   1.0000
     1.0000   1.0000   1.0000   1.0000   1.0000   1.0000   1.0000   1.0000
     1.0000   1.0000   1.0000   1.0000   1.0000   1.0000   1.0000   1.0000
     1.0000   1.0000   1.0000   1.0000   1.0000   1.0000   1.0000   1.0000
     1.0000   1.0000   1.0000   1.0000   1.0000   1.0000   1.0000   1.0000
     1.0000   1.0000   1.0000   1.0000   1.0000   1.0000   1.0000   1.0000
     1.0000   1.0000   1.0000   1.0000   1.0000   1.0000   1.0000   1.0000
     1.0000   1.0000   1.0000   1.0000   1.0000   1.0000   1.0000   1.0000
     1.0000   1.0000   1.0000   1.0000   1.0000   1.0000   1.0000   1.0000
     1.0000   1.0000   1.0000   1.0000   1.0000   1.0000   1.0000   1.0000
     1.0000   1.0000   1.0000   1.0000   1.0000   1.0000   1.0000   1.0000
     1.0000   1.0000   1.0000   1.0000   1.0000   1.0000   1.0000   1.0000
     0.0000   0.0000   0.0000   0.0000   0.0000   0.0000   0.0000   0.0000
     0.0000   0.0000

          k = 0.0000 0.2391 0.2337 ( 40274 PWs)   bands (ev):

   -86.4895 -86.4658 -86.2834 -86.0965 -52.5830 -52.5599 -52.5200 -52.4743
   -52.4048 -52.4006 -52.3654 -52.2989 -52.2401 -52.0741 -52.0676 -51.9061
   -45.5839 -17.6027 -17.5481 -17.5357 -16.6443 -16.4753 -16.4028 -16.2865
   -14.6009 -14.4531 -14.3901 -14.3255 -14.2751 -14.2319 -14.1955 -14.1649
   -14.1299 -14.0608 -14.0249 -13.9817  -5.1599  -4.7790  -4.5732  -4.3917
    -2.9111  -2.7821  -2.6146  -2.4845  -2.1993  -2.0811  -2.0021  -1.9202
    -1.8842  -1.8358  -1.7728  -1.5840  -0.9851  -0.8908  -0.7275  -0.5757
    -0.5036  -0.4113  -0.3543  -0.2856  -0.2179  -0.1793  -0.0698   0.0534
     0.1023   0.2958   0.3470   0.5124   0.5825   0.6802   0.7437   0.8671
     0.9546   1.0192   1.0423   1.1754   1.2227   1.3418   1.3869   1.4932
     1.5632   1.6396   1.6847   1.7597   1.8664   1.9129   2.0623   2.1420
     2.2368   2.3419   2.4443   2.5080   2.5845   2.6126   2.7631   2.7683
     2.8890   2.9097   2.9814   3.1108   3.1447   3.2668   3.4662   3.6762
     7.6408   9.3234   9.8314  10.0021  10.4931  11.1728  11.3055  11.4761
    11.6767  11.6929

     occupation numbers 
     1.0000   1.0000   1.0000   1.0000   1.0000   1.0000   1.0000   1.0000
     1.0000   1.0000   1.0000   1.0000   1.0000   1.0000   1.0000   1.0000
     1.0000   1.0000   1.0000   1.0000   1.0000   1.0000   1.0000   1.0000
     1.0000   1.0000   1.0000   1.0000   1.0000   1.0000   1.0000   1.0000
     1.0000   1.0000   1.0000   1.0000   1.0000   1.0000   1.0000   1.0000
     1.0000   1.0000   1.0000   1.0000   1.0000   1.0000   1.0000   1.0000
     1.0000   1.0000   1.0000   1.0000   1.0000   1.0000   1.0000   1.0000
     1.0000   1.0000   1.0000   1.0000   1.0000   1.0000   1.0000   1.0000
     1.0000   1.0000   1.0000   1.0000   1.0000   1.0000   1.0000   1.0000
     1.0000   1.0000   1.0000   1.0000   1.0000   1.0000   1.0000   1.0000
     1.0000   1.0000   1.0000   1.0000   1.0000   1.0000   1.0000   1.0000
     1.0000   1.0000   1.0000   1.0000   1.0000   1.0000   1.0000   1.0000
     1.0000   1.0000   1.0000   1.0000   1.0000   1.0000   1.0000   1.0000
     0.0000   0.0000   0.0000   0.0000   0.0000   0.0000   0.0000   0.0000
     0.0000   0.0000

          k = 0.0000 0.2391 0.4675 ( 40259 PWs)   bands (ev):

   -86.4895 -86.4658 -86.2834 -86.0965 -52.5830 -52.5599 -52.5200 -52.4743
   -52.4048 -52.4006 -52.3654 -52.2989 -52.2401 -52.0741 -52.0676 -51.9061
   -45.5839 -17.6047 -17.5496 -17.5361 -16.6173 -16.4640 -16.3827 -16.2786
   -14.6250 -14.4631 -14.4188 -14.3281 -14.2804 -14.2487 -14.1993 -14.1647
   -14.1438 -14.0654 -14.0276 -13.9799  -5.0951  -4.7436  -4.5594  -4.3646
    -2.9045  -2.7580  -2.5832  -2.4502  -2.2016  -2.0478  -2.0295  -1.9116
    -1.8485  -1.8362  -1.7928  -1.5567  -0.9765  -0.8549  -0.7017  -0.5743
    -0.5101  -0.4130  -0.3354  -0.3072  -0.2416  -0.1561  -0.0663   0.0543
     0.0886   0.2349   0.3238   0.5100   0.5757   0.6594   0.7115   0.8417
     0.9449   1.0000   1.0669   1.1390   1.1895   1.3352   1.3969   1.4820
     1.5295   1.6274   1.6661   1.7330   1.7746   1.8388   2.0855   2.1095
     2.2282   2.2975   2.4243   2.5292   2.5685   2.6349   2.7632   2.7889
     2.8880   2.9119   3.0102   3.1183   3.1523   3.2664   3.4604   3.6689
     7.9946   9.5162   9.8893  10.1038  10.5862  11.0884  11.1684  11.3502
    11.5291  11.6759

     occupation numbers 
     1.0000   1.0000   1.0000   1.0000   1.0000   1.0000   1.0000   1.0000
     1.0000   1.0000   1.0000   1.0000   1.0000   1.0000   1.0000   1.0000
     1.0000   1.0000   1.0000   1.0000   1.0000   1.0000   1.0000   1.0000
     1.0000   1.0000   1.0000   1.0000   1.0000   1.0000   1.0000   1.0000
     1.0000   1.0000   1.0000   1.0000   1.0000   1.0000   1.0000   1.0000
     1.0000   1.0000   1.0000   1.0000   1.0000   1.0000   1.0000   1.0000
     1.0000   1.0000   1.0000   1.0000   1.0000   1.0000   1.0000   1.0000
     1.0000   1.0000   1.0000   1.0000   1.0000   1.0000   1.0000   1.0000
     1.0000   1.0000   1.0000   1.0000   1.0000   1.0000   1.0000   1.0000
     1.0000   1.0000   1.0000   1.0000   1.0000   1.0000   1.0000   1.0000
     1.0000   1.0000   1.0000   1.0000   1.0000   1.0000   1.0000   1.0000
     1.0000   1.0000   1.0000   1.0000   1.0000   1.0000   1.0000   1.0000
     1.0000   1.0000   1.0000   1.0000   1.0000   1.0000   1.0000   1.0000
     0.0000   0.0000   0.0000   0.0000   0.0000   0.0000   0.0000   0.0000
     0.0000   0.0000

          k = 0.0000 0.2391 0.7012 ( 40257 PWs)   bands (ev):

   -86.4895 -86.4658 -86.2834 -86.0965 -52.5830 -52.5599 -52.5200 -52.4743
   -52.4048 -52.4006 -52.3654 -52.2989 -52.2401 -52.0741 -52.0676 -51.9061
   -45.5839 -17.6077 -17.5508 -17.5365 -16.5814 -16.4534 -16.3557 -16.2755
   -14.6516 -14.4828 -14.4418 -14.3383 -14.3053 -14.2468 -14.2060 -14.1659
   -14.1509 -14.0703 -14.0326 -13.9789  -5.0112  -4.6966  -4.5491  -4.3525
    -2.9083  -2.7169  -2.5226  -2.4321  -2.2116  -2.0574  -2.0316  -1.9229
    -1.8297  -1.7877  -1.7578  -1.5655  -0.9754  -0.8147  -0.6401  -0.5857
    -0.4975  -0.4241  -0.3473  -0.2794  -0.2126  -0.1319  -0.0423   0.0365
     0.1124   0.1878   0.2943   0.4694   0.5809   0.5962   0.6704   0.7834
     0.8984   0.9321   1.0234   1.1192   1.2117   1.2570   1.3447   1.4654
     1.5147   1.5767   1.6266   1.6795   1.7577   1.8331   2.0713   2.1175
     2.2208   2.2957   2.3888   2.5156   2.5955   2.6553   2.7782   2.8295
     2.8849   2.9171   3.0440   3.0984   3.1758   3.2613   3.4557   3.6623
     8.4877   9.7293   9.9029  10.2224  10.5704  10.9151  11.1641  11.2364
    11.3821  11.5985

     occupation numbers 
     1.0000   1.0000   1.0000   1.0000   1.0000   1.0000   1.0000   1.0000
     1.0000   1.0000   1.0000   1.0000   1.0000   1.0000   1.0000   1.0000
     1.0000   1.0000   1.0000   1.0000   1.0000   1.0000   1.0000   1.0000
     1.0000   1.0000   1.0000   1.0000   1.0000   1.0000   1.0000   1.0000
     1.0000   1.0000   1.0000   1.0000   1.0000   1.0000   1.0000   1.0000
     1.0000   1.0000   1.0000   1.0000   1.0000   1.0000   1.0000   1.0000
     1.0000   1.0000   1.0000   1.0000   1.0000   1.0000   1.0000   1.0000
     1.0000   1.0000   1.0000   1.0000   1.0000   1.0000   1.0000   1.0000
     1.0000   1.0000   1.0000   1.0000   1.0000   1.0000   1.0000   1.0000
     1.0000   1.0000   1.0000   1.0000   1.0000   1.0000   1.0000   1.0000
     1.0000   1.0000   1.0000   1.0000   1.0000   1.0000   1.0000   1.0000
     1.0000   1.0000   1.0000   1.0000   1.0000   1.0000   1.0000   1.0000
     1.0000   1.0000   1.0000   1.0000   1.0000   1.0000   1.0000   1.0000
     0.0000   0.0000   0.0000   0.0000   0.0000   0.0000   0.0000   0.0000
     0.0000   0.0000

          k = 0.0000 0.2391 0.9349 ( 40230 PWs)   bands (ev):

   -86.4894 -86.4658 -86.2834 -86.0965 -52.5830 -52.5599 -52.5200 -52.4743
   -52.4048 -52.4006 -52.3654 -52.2989 -52.2401 -52.0741 -52.0676 -51.9061
   -45.5839 -17.6103 -17.5511 -17.5366 -16.5527 -16.4487 -16.3328 -16.2815
   -14.6679 -14.5049 -14.4454 -14.3487 -14.3235 -14.2447 -14.2137 -14.1686
   -14.1482 -14.0705 -14.0390 -13.9786  -4.9450  -4.6579  -4.5444  -4.3697
    -2.9072  -2.6870  -2.4736  -2.4285  -2.2212  -2.0840  -2.0395  -1.9223
    -1.7985  -1.7477  -1.7148  -1.5992  -0.9785  -0.7812  -0.6245  -0.5718
    -0.4911  -0.4194  -0.3283  -0.2404  -0.1383  -0.1075  -0.0371   0.0373
     0.1168   0.1734   0.2281   0.4240   0.5081   0.5598   0.6595   0.7566
     0.8264   0.8924   1.0212   1.0953   1.1638   1.2498   1.2899   1.4196
     1.4913   1.5401   1.5907   1.6813   1.7357   1.8993   2.0588   2.1312
     2.2003   2.3013   2.3897   2.4933   2.6091   2.6848   2.7922   2.8407
     2.8804   2.9542   3.0312   3.1173   3.1710   3.2531   3.4629   3.6538
     9.0211   9.5645  10.0392  10.2655  10.4281  10.8824  11.1007  11.3208
    11.3581  11.4368

     occupation numbers 
     1.0000   1.0000   1.0000   1.0000   1.0000   1.0000   1.0000   1.0000
     1.0000   1.0000   1.0000   1.0000   1.0000   1.0000   1.0000   1.0000
     1.0000   1.0000   1.0000   1.0000   1.0000   1.0000   1.0000   1.0000
     1.0000   1.0000   1.0000   1.0000   1.0000   1.0000   1.0000   1.0000
     1.0000   1.0000   1.0000   1.0000   1.0000   1.0000   1.0000   1.0000
     1.0000   1.0000   1.0000   1.0000   1.0000   1.0000   1.0000   1.0000
     1.0000   1.0000   1.0000   1.0000   1.0000   1.0000   1.0000   1.0000
     1.0000   1.0000   1.0000   1.0000   1.0000   1.0000   1.0000   1.0000
     1.0000   1.0000   1.0000   1.0000   1.0000   1.0000   1.0000   1.0000
     1.0000   1.0000   1.0000   1.0000   1.0000   1.0000   1.0000   1.0000
     1.0000   1.0000   1.0000   1.0000   1.0000   1.0000   1.0000   1.0000
     1.0000   1.0000   1.0000   1.0000   1.0000   1.0000   1.0000   1.0000
     1.0000   1.0000   1.0000   1.0000   1.0000   1.0000   1.0000   1.0000
     0.0000   0.0000   0.0000   0.0000   0.0000   0.0000   0.0000   0.0000
     0.0000   0.0000

          k = 0.0000 0.4781 0.0000 ( 40251 PWs)   bands (ev):

   -86.4894 -86.4658 -86.2834 -86.0965 -52.5830 -52.5599 -52.5200 -52.4743
   -52.4048 -52.4006 -52.3654 -52.2989 -52.2401 -52.0741 -52.0676 -51.9061
   -45.5839 -17.6037 -17.5526 -17.5357 -16.6180 -16.4701 -16.4000 -16.3209
   -14.6019 -14.4556 -14.3915 -14.3502 -14.2730 -14.2238 -14.1830 -14.1660
   -14.1321 -14.0558 -14.0181 -13.9770  -5.1115  -4.7413  -4.6018  -4.4188
    -2.8520  -2.7052  -2.5992  -2.4801  -2.2088  -2.1372  -1.9713  -1.9210
    -1.8809  -1.7719  -1.7193  -1.6171  -1.0454  -0.9153  -0.8041  -0.6642
    -0.5682  -0.4743  -0.3948  -0.3368  -0.2238  -0.1082   0.0049   0.1065
     0.1791   0.2646   0.3502   0.4863   0.6451   0.6605   0.7100   0.8159
     0.8821   0.9498   1.0357   1.1173   1.2261   1.2764   1.3620   1.5040
     1.5755   1.6083   1.6833   1.7777   1.8612   1.9517   2.0141   2.1094
     2.2718   2.3550   2.4233   2.4945   2.6052   2.6219   2.7220   2.8107
     2.8809   2.9254   2.9809   3.0418   3.2457   3.3523   3.5865   3.6953
     7.9150   9.3903   9.7139  10.0279  10.3860  11.0064  11.3489  11.5583
    11.6303  11.7489

     occupation numbers 
     1.0000   1.0000   1.0000   1.0000   1.0000   1.0000   1.0000   1.0000
     1.0000   1.0000   1.0000   1.0000   1.0000   1.0000   1.0000   1.0000
     1.0000   1.0000   1.0000   1.0000   1.0000   1.0000   1.0000   1.0000
     1.0000   1.0000   1.0000   1.0000   1.0000   1.0000   1.0000   1.0000
     1.0000   1.0000   1.0000   1.0000   1.0000   1.0000   1.0000   1.0000
     1.0000   1.0000   1.0000   1.0000   1.0000   1.0000   1.0000   1.0000
     1.0000   1.0000   1.0000   1.0000   1.0000   1.0000   1.0000   1.0000
     1.0000   1.0000   1.0000   1.0000   1.0000   1.0000   1.0000   1.0000
[...]
     The non-local contrib.  to forces
     atom    1 type  2   force =     0.07493752    0.00357685    0.02344244
     atom    2 type  1   force =     0.05699490   -0.10970180   -0.17497589
     atom    3 type  1   force =    -0.00790718   -0.15415919    0.06507933
     atom    4 type  1   force =    -0.07071236    0.13196684    0.05994712
     atom    5 type  1   force =     0.01013164    0.13529427   -0.14628891
     atom    6 type  4   force =     0.00037209    0.04136406    0.02785174
     atom    7 type  4   force =    -0.01351710    0.01026705   -0.04806713
     atom    8 type  4   force =     0.03359057   -0.05846733   -0.02100502
     atom    9 type  4   force =     0.02498151   -0.01693801    0.05277223
     atom   10 type  3   force =    -0.45867940   -0.10042239   -1.20331496
     atom   11 type  3   force =     0.02218242    0.22440810   -1.44459198
     atom   12 type  3   force =     0.34178134    0.09836886    1.22034311
     atom   13 type  3   force =     0.06579957   -0.18778165    1.45363874
     atom   14 type  3   force =     1.42160348   -0.12199368   -0.61056443
     atom   15 type  3   force =    -1.20527147    0.72617010   -0.23200206
     atom   16 type  3   force =    -1.36268580    0.16850303    0.58811968
     atom   17 type  3   force =     1.24366493   -0.70195012    0.09751192
     atom   18 type  3   force =    -0.36168217   -1.29456589    0.70381769
     atom   19 type  3   force =     0.58295225    0.70892469    1.02195927
     atom   20 type  3   force =    -0.10623521   -1.46899898   -1.06140573
     atom   21 type  3   force =    -0.27899054    1.00039462   -0.67166205
     atom   22 type  3   force =     0.41759377    1.38512358   -0.64267656
     atom   23 type  3   force =    -0.53083146   -0.77365616   -0.97542106
     atom   24 type  3   force =     0.06294807    1.45343624    1.00004123
     atom   25 type  3   force =     0.09674373   -1.03545403    0.65563381
     The ionic contribution  to forces
     atom    1 type  2   force =     1.69731371   -3.37705629   -2.12087598
     atom    2 type  1   force =     9.91658146    3.65446762   -2.86436308
     atom    3 type  1   force =     6.61730578   -7.53123047   -1.31838344
     atom    4 type  1   force =   -12.76855906    0.21039668    0.89948389
     atom    5 type  1   force =    -3.24633234    6.07921431    3.24808727
     atom    6 type  4   force =    -1.46875410    2.40255503   -0.77408692
     atom    7 type  4   force =     3.89639677   -0.70053906    1.18571742
     atom    8 type  4   force =     0.35146413   -1.25683253    0.80729115
     atom    9 type  4   force =    -3.72329306    0.03995831   -0.95107649
     atom   10 type  3   force =    -1.70201479    6.36697460    1.25385474
     atom   11 type  3   force =     7.90466676   -3.28932082    1.98467577
     atom   12 type  3   force =     0.58692885   -1.55394887    1.16939810
     atom   13 type  3   force =    -7.77966918    2.06839598   -1.95380278
     atom   14 type  3   force =     0.66876893    0.57327036    6.83931406
     atom   15 type  3   force =    -0.17225765   -6.08516370    3.47613094
     atom   16 type  3   force =    -1.34977941   -0.52080802   -6.45698976
     atom   17 type  3   force =     0.34890246    3.59904093   -2.26680177
     atom   18 type  3   force =    -2.11469643    5.59389476    1.28110497
     atom   19 type  3   force =     3.65699992   -1.00897851   -4.36575699
     atom   20 type  3   force =     3.63839167    4.05767499    8.07097269
     atom   21 type  3   force =    -7.42157526   -1.31124079    0.88256190
     atom   22 type  3   force =     0.96625145   -7.47795571   -3.62091948
     atom   23 type  3   force =    -4.75491878    0.70867595    3.92389840
     atom   24 type  3   force =    -2.87082104   -2.03861408   -8.01126364
     atom   25 type  3   force =     9.12269922    0.79716933   -0.31817097
     The local contribution  to forces
     atom    1 type  2   force =    -1.77416285    3.37614551    2.08898720
     atom    2 type  1   force =    -9.97478464   -3.54112357    3.05081921
     atom    3 type  1   force =    -6.61148892    7.70299030    1.24885618
     atom    4 type  1   force =    12.84353425   -0.34787541   -0.96317036
     atom    5 type  1   force =     3.23400277   -6.22237302   -3.09416195
     atom    6 type  4   force =     1.47102583   -2.44411383    0.74836807
     atom    7 type  4   force =    -3.88304450    0.69042927   -1.13521693
     atom    8 type  4   force =    -0.39352325    1.31745484   -0.79239447
     atom    9 type  4   force =     3.69979930   -0.02295207    0.89485713
     atom   10 type  3   force =     2.13839079   -6.28004924   -0.10516196
     atom   11 type  3   force =    -7.92106572    3.07212643   -0.60646020
     atom   12 type  3   force =    -0.90811407    1.45806572   -2.33700444
     atom   13 type  3   force =     7.71154155   -1.88717386    0.56981813
     atom   14 type  3   force =    -2.01735994   -0.45762565   -6.25300728
     atom   15 type  3   force =     1.31729226    5.38595211   -3.25006365
     atom   16 type  3   force =     2.64303961    0.36015432    5.89350355
     atom   17 type  3   force =    -1.52485704   -2.92530831    2.16823768
     atom   18 type  3   force =     2.45680070   -4.35774277   -1.95090472
     atom   19 type  3   force =    -4.21201918    0.33721837    3.39004091
     atom   20 type  3   force =    -3.53611537   -2.66250379   -7.06102540
     atom   21 type  3   force =     7.69163741    0.36022488   -0.23545003
     atom   22 type  3   force =    -1.36372339    6.15349934    4.23106319
     atom   23 type  3   force =     5.26127252    0.02785671   -2.99009632
     atom   24 type  3   force =     2.81294096    0.65783334    7.06303991
     atom   25 type  3   force =    -9.21923932    0.18738737   -0.31322612
     The core correction contribution to forces
     atom    1 type  2   force =     0.00000000    0.00000000    0.00000000
     atom    2 type  1   force =    -0.00214413    0.00050585    0.00116266
     atom    3 type  1   force =     0.00118396   -0.00077392    0.00093089
     atom    4 type  1   force =     0.00203655   -0.00141834   -0.00069699
     atom    5 type  1   force =    -0.00044582   -0.00108925    0.00078122
     atom    6 type  4   force =     0.00107704   -0.00268754   -0.00193740
     atom    7 type  4   force =     0.00089330   -0.00044684    0.00289877
     atom    8 type  4   force =    -0.00350166    0.00340757    0.00086627
     atom    9 type  4   force =    -0.00160264    0.00139522   -0.00361313
     atom   10 type  3   force =     0.00400598    0.00085645    0.01133162
     atom   11 type  3   force =     0.00049046   -0.00240182    0.01356343
     atom   12 type  3   force =    -0.00268098   -0.00083781   -0.01136083
     atom   13 type  3   force =    -0.00131700    0.00194938   -0.01367703
     atom   14 type  3   force =    -0.01317576    0.00119983    0.00639828
     atom   15 type  3   force =     0.01115138   -0.00737446    0.00264904
     atom   16 type  3   force =     0.01259070   -0.00166734   -0.00615261
     atom   17 type  3   force =    -0.01140338    0.00697110   -0.00141324
     atom   18 type  3   force =     0.00295086    0.01269639   -0.00642862
     atom   19 type  3   force =    -0.00550923   -0.00635152   -0.00995763
     atom   20 type  3   force =     0.00126626    0.01374077    0.01059817
     atom   21 type  3   force =     0.00260747   -0.00933828    0.00655145
     atom   22 type  3   force =    -0.00351817   -0.01358532    0.00583413
     atom   23 type  3   force =     0.00502251    0.00698789    0.00951053
     atom   24 type  3   force =    -0.00077259   -0.01363348   -0.00991244
     atom   25 type  3   force =    -0.00074771    0.00968604   -0.00636123
     The Hubbard contrib.    to forces
     atom    1 type  2   force =     0.00000000    0.00000000    0.00000000
     atom    2 type  1   force =     0.00000000    0.00000000    0.00000000
     atom    3 type  1   force =     0.00000000    0.00000000    0.00000000
     atom    4 type  1   force =     0.00000000    0.00000000    0.00000000
     atom    5 type  1   force =     0.00000000    0.00000000    0.00000000
     atom    6 type  4   force =     0.00000000    0.00000000    0.00000000
     atom    7 type  4   force =     0.00000000    0.00000000    0.00000000
     atom    8 type  4   force =     0.00000000    0.00000000    0.00000000
     atom    9 type  4   force =     0.00000000    0.00000000    0.00000000
     atom   10 type  3   force =     0.00000000    0.00000000    0.00000000
     atom   11 type  3   force =     0.00000000    0.00000000    0.00000000
     atom   12 type  3   force =     0.00000000    0.00000000    0.00000000
     atom   13 type  3   force =     0.00000000    0.00000000    0.00000000
     atom   14 type  3   force =     0.00000000    0.00000000    0.00000000
     atom   15 type  3   force =     0.00000000    0.00000000    0.00000000
     atom   16 type  3   force =     0.00000000    0.00000000    0.00000000
     atom   17 type  3   force =     0.00000000    0.00000000    0.00000000
     atom   18 type  3   force =     0.00000000    0.00000000    0.00000000
     atom   19 type  3   force =     0.00000000    0.00000000    0.00000000
     atom   20 type  3   force =     0.00000000    0.00000000    0.00000000
     atom   21 type  3   force =     0.00000000    0.00000000    0.00000000
     atom   22 type  3   force =     0.00000000    0.00000000    0.00000000
     atom   23 type  3   force =     0.00000000    0.00000000    0.00000000
     atom   24 type  3   force =     0.00000000    0.00000000    0.00000000
     atom   25 type  3   force =     0.00000000    0.00000000    0.00000000
     The SCF correction term to forces
     atom    1 type  2   force =    -0.00000414    0.00000031    0.00000043
     atom    2 type  1   force =    -0.00000237   -0.00000104   -0.00000077
     atom    3 type  1   force =    -0.00000537    0.00000119   -0.00000011
     atom    4 type  1   force =     0.00000678    0.00000003   -0.00000005
     atom    5 type  1   force =     0.00000208   -0.00000042   -0.00000017
     atom    6 type  4   force =    -0.00000245   -0.00000045    0.00000051
     atom    7 type  4   force =     0.00000081    0.00000046    0.00000004
     atom    8 type  4   force =    -0.00000099    0.00000011   -0.00000034
     atom    9 type  4   force =     0.00000280    0.00000002    0.00000005
     atom   10 type  3   force =    -0.00000420   -0.00000042   -0.00000140
     atom   11 type  3   force =     0.00000086    0.00000022    0.00000003
     atom   12 type  3   force =    -0.00000081    0.00000036   -0.00000001
     atom   13 type  3   force =     0.00000391   -0.00000016   -0.00000099
     atom   14 type  3   force =     0.00000405   -0.00000027    0.00000095
     atom   15 type  3   force =    -0.00000410    0.00000024    0.00000012
     atom   16 type  3   force =     0.00000397    0.00000039    0.00000025
     atom   17 type  3   force =    -0.00000271   -0.00000044    0.00000062
     atom   18 type  3   force =    -0.00000402    0.00000061    0.00000146
     atom   19 type  3   force =    -0.00000011    0.00000242   -0.00000061
     atom   20 type  3   force =    -0.00000188   -0.00000024   -0.00000145
     atom   21 type  3   force =     0.00000351   -0.00000006    0.00000092
     atom   22 type  3   force =    -0.00000065    0.00000041   -0.00000001
     atom   23 type  3   force =     0.00000320    0.00000007    0.00000068
     atom   24 type  3   force =    -0.00000319    0.00000020    0.00000031
     atom   25 type  3   force =     0.00000090   -0.00000162   -0.00000029

     Total force =     0.226891     Total SCF correction =     0.000017


     Computing stress (Cartesian axis) and pressure


     negative rho (up, down):  0.000E+00 9.462E-04
          total   stress  (Ry/bohr**3)                   (kbar)     P=     -114.37
  -0.00107925   0.00010769  -0.00000635         -158.76       15.84       -0.93
   0.00010769  -0.00059774  -0.00008522           15.84      -87.93      -12.54
  -0.00000635  -0.00008522  -0.00065538           -0.93      -12.54      -96.41

     kinetic stress (kbar)  23728.04     70.82    -42.84
                               70.82  23882.33     -8.70
                              -42.84     -8.70  23853.91

     local   stress (kbar)  -8235.84   3178.14  -6427.31
                             3178.14 -13976.87    560.94
                            -6427.31    560.94  -5782.21

     nonloc. stress (kbar)  -6034.34      6.43      1.89
                                6.43  -6009.64     -3.42
                                1.89     -3.42  -6015.77

     hartree stress (kbar)  13287.36  -1213.57   2729.49
                            -1213.57  16369.50   -179.19
                             2729.49   -179.19  12685.53

     exc-cor stress (kbar)  -2516.84     -2.67      2.65
                               -2.67  -2520.78     -0.92
                                2.65     -0.92  -2520.68

     corecor stress (kbar)  -2819.96     -0.02     -0.74
                               -0.02  -2821.21      0.72
                               -0.74      0.72  -2821.20

     ewald   stress (kbar) -17567.18  -2023.29   3735.93
                            -2023.29 -15011.25   -381.96
                             3735.93   -381.96 -19495.99

     hubbard stress (kbar)      0.00      0.00      0.00
                                0.00      0.00      0.00
                                0.00      0.00      0.00

     DFT-D   stress (kbar)      0.00      0.00      0.00
                                0.00      0.00      0.00
                                0.00      0.00      0.00

     XDM     stress (kbar)      0.00      0.00      0.00
                                0.00      0.00      0.00
                                0.00      0.00      0.00

     dft-nl  stress (kbar)      0.00      0.00      0.00
                                0.00      0.00      0.00
                                0.00      0.00      0.00

     TS-vdW  stress (kbar)      0.00      0.00      0.00
                                0.00      0.00      0.00
                                0.00      0.00      0.00



     init_run     :   1134.73s CPU   1321.18s WALL (       1 calls)
     electrons    :  87664.17s CPU 100645.64s WALL (       1 calls)
     forces       :    148.01s CPU    170.99s WALL (       1 calls)
     stress       :    717.34s CPU    828.83s WALL (       1 calls)

     Called by init_run:
     wfcinit      :   1118.88s CPU   1304.20s WALL (       1 calls)
     wfcinit:atom :      0.67s CPU      0.89s WALL (     316 calls)
     wfcinit:wfcr :   1113.43s CPU   1297.49s WALL (     316 calls)
     potinit      :      6.14s CPU      6.68s WALL (       1 calls)
     hinit0       :      5.76s CPU      6.05s WALL (       1 calls)

     Called by electrons:
     c_bands      :  72704.23s CPU  83507.54s WALL (      33 calls)
     sum_band     :  14718.67s CPU  16853.84s WALL (      33 calls)
     v_of_rho     :     85.65s CPU     99.68s WALL (      34 calls)
     v_h          :      7.81s CPU      9.26s WALL (      34 calls)
     v_xc         :     82.94s CPU     96.22s WALL (      36 calls)
     newd         :     59.12s CPU     69.13s WALL (      34 calls)
     PAW_pot      :     20.26s CPU     23.42s WALL (      34 calls)
     mix_rho      :     64.88s CPU     77.34s WALL (      33 calls)

     Called by c_bands:
     init_us_2    :     63.50s CPU     68.98s WALL (   21804 calls)
     cegterg      :  71890.93s CPU  82521.51s WALL (   10428 calls)

     Called by sum_band:
     sum_band:wei :      0.59s CPU      0.76s WALL (      33 calls)
     sum_band:loo :  14612.76s CPU  16731.82s WALL (      33 calls)
     sum_band:buf :     15.26s CPU     16.02s WALL (   10428 calls)
     sum_band:ini :     25.29s CPU     26.48s WALL (   10428 calls)
     sum_band:cal :   1031.34s CPU   1188.24s WALL (   10428 calls)
     sum_band:bec :      2.44s CPU      2.44s WALL (   10428 calls)
     addusdens    :     81.77s CPU     94.50s WALL (      33 calls)
     addusd:skk   :      0.59s CPU      0.71s WALL (      99 calls)
     addusd:dgemm :      6.29s CPU      9.52s WALL (     198 calls)
     addusd:qvan2 :     74.18s CPU     83.28s WALL (     198 calls)

     Called by *egterg:
     cdiaghg      :   1257.06s CPU   1471.75s WALL (   38352 calls)
     cegterg:over :   4123.58s CPU   4733.62s WALL (   27924 calls)
     cegterg:upda :    178.84s CPU    198.83s WALL (   27924 calls)
     cegterg:last :    358.89s CPU    406.78s WALL (   17431 calls)
     h_psi        :  63299.45s CPU  72655.45s WALL (   38668 calls)
     s_psi        :    376.98s CPU    444.49s WALL (   38668 calls)
     g_psi        :     19.29s CPU     24.64s WALL (   27924 calls)

     Called by h_psi:
     h_psi:calbec :   3145.50s CPU   3653.58s WALL (   38668 calls)
     vloc_psi     :  59716.58s CPU  68493.73s WALL (   38668 calls)
     add_vuspsi   :    394.69s CPU    462.47s WALL (   38668 calls)

     General routines
     calbec       :   4455.58s CPU   5157.55s WALL (   50676 calls)
     fft          :    136.35s CPU    159.38s WALL (     888 calls)
     ffts         :      2.08s CPU      2.31s WALL (     134 calls)
     fftw         :  72477.81s CPU  83198.14s WALL ( 6457654 calls)
     interpolate  :     10.58s CPU     12.13s WALL (      68 calls)

     Parallel routines
     fft_scatt_xy :    313.62s CPU    317.88s WALL ( 6458676 calls)
     fft_scatt_yz :  71067.17s CPU  81785.61s WALL ( 6458676 calls)

     PAW routines
     PAW_pot      :     20.26s CPU     23.42s WALL (      34 calls)

     PWSCF        :   1d 0h54m CPU   1d 4h36m WALL


   This run was terminated on:   2:18: 7   8Jan2023            

=------------------------------------------------------------------------------=
   JOB DONE.
=------------------------------------------------------------------------------=
Note: The following floating-point exceptions are signalling: IEEE_UNDERFLOW_FLAG IEEE_DENORMAL
Note: The following floating-point exceptions are signalling: IEEE_DENORMAL
Note: The following floating-point exceptions are signalling: IEEE_DENORMAL
Note: The following floating-point exceptions are signalling: IEEE_DENORMAL
Note: The following floating-point exceptions are signalling: IEEE_DENORMAL
Note: The following floating-point exceptions are signalling: IEEE_INVALID_FLAG IEEE_DENORMAL
Note: The following floating-point exceptions are signalling: IEEE_DENORMAL
Note: The following floating-point exceptions are signalling: IEEE_DENORMAL
Note: The following floating-point exceptions are signalling: IEEE_DENORMAL
Note: The following floating-point exceptions are signalling: IEEE_DENORMAL
Note: The following floating-point exceptions are signalling: IEEE_DENORMAL
Note: The following floating-point exceptions are signalling: IEEE_DENORMAL
Note: The following floating-point exceptions are signalling: IEEE_DENORMAL
Note: The following floating-point exceptions are signalling: IEEE_DENORMAL
Note: The following floating-point exceptions are signalling: IEEE_DENORMAL
Note: The following floating-point exceptions are signalling: IEEE_DENORMAL
Note: The following floating-point exceptions are signalling: IEEE_INVALID_FLAG IEEE_DENORMAL
Note: The following floating-point exceptions are signalling: IEEE_DENORMAL
Note: The following floating-point exceptions are signalling: IEEE_DENORMAL
Note: The following floating-point exceptions are signalling: IEEE_DENORMAL
Note: The following floating-point exceptions are signalling: IEEE_DENORMAL
Note: The following floating-point exceptions are signalling: IEEE_DENORMAL
Note: The following floating-point exceptions are signalling: IEEE_DENORMAL
Note: The following floating-point exceptions are signalling: IEEE_DENORMAL
Note: The following floating-point exceptions are signalling: IEEE_DENORMAL
Note: The following floating-point exceptions are signalling: IEEE_DENORMAL
