# /home/jsp1/perl4dpgen_20221025/initial/BN_mp-7991/BN_mp-7991.in

4 atoms
3 atom types

0.000000000000       2.511599650000  xlo xhi
0.000000000000       2.175109303119  ylo yhi
0.000000000000       8.267796000000  zlo zhi
-1.255799474983       0.000000000000       0.000000000000  xy xz yz

Masses

1 10.81  # B
2 15.999  # O
3 14.007  # N

Atoms  # atomic

1 1 -0.000001022455 1.450073593782 2.066949000000
2 1 1.255801197472 0.725035709336 6.200847000000
3 3 0.000000000000 0.000000000000 2.066949000000
4 3 0.000000000000 0.000000000000 6.200847000000
