ITEM: TIMESTEP
6000
ITEM: NUMBER OF ATOMS
4
ITEM: BOX BOUNDS xy xz yz pp pp pp
-1.1963053280490854e+00 2.4818591119219109e+00 -1.2268746761271851e+00
2.5409181669744818e-02 2.1504174265612637e+00 0.0000000000000000e+00
-4.1396653489144253e-01 8.1212315348913755e+00 0.0000000000000000e+00
ITEM: ATOMS id type x y z
4 2 1.24895 0.725612 2.61564
2 1 1.21698 0.745961 5.10895
1 1 0.024289 1.41485 2.6441
3 2 -0.0209325 1.46197 5.09788
