ITEM: TIMESTEP
5000
ITEM: NUMBER OF ATOMS
4
ITEM: BOX BOUNDS xy xz yz pp pp pp
-1.1951175725759378e+00 2.4816164268342407e+00 -1.2259296057417199e+00
2.6227636235714336e-02 2.1495989719952990e+00 0.0000000000000000e+00
-1.7133872923649491e+00 9.4206522923648777e+00 0.0000000000000000e+00
ITEM: ATOMS id type x y z
4 2 1.25405 0.721873 2.61686
2 1 1.20903 0.732359 5.11361
1 1 0.0260907 1.43331 2.64809
3 2 -0.0195988 1.46195 5.10265
