ITEM: TIMESTEP
4500
ITEM: NUMBER OF ATOMS
4
ITEM: BOX BOUNDS xy xz yz pp pp pp
-1.2191558546793140e+00 2.4959831914061059e+00 -1.2356011232732231e+00
1.7851860414857423e-02 2.1579747478161613e+00 0.0000000000000000e+00
-1.3859848448655727e+00 9.0932498448655359e+00 0.0000000000000000e+00
ITEM: ATOMS id type x y z
4 2 1.22106 0.735703 2.47002
2 1 1.24603 0.707528 5.26933
1 1 -0.0308958 1.4393 2.45241
3 2 0.0106066 1.46266 5.27714
