ITEM: TIMESTEP
1500
ITEM: NUMBER OF ATOMS
4
ITEM: BOX BOUNDS xy xz yz pp pp pp
-1.2009201657424817e+00 2.4850740794579473e+00 -1.2282745462845226e+00
2.4196859138344795e-02 2.1516297490926712e+00 0.0000000000000000e+00
-7.5320938489568601e-01 8.4604743848956776e+00 0.0000000000000000e+00
ITEM: ATOMS id type x y z
4 2 1.24947 0.732199 2.72428
2 1 1.21726 0.751965 4.94302
1 1 0.0285572 1.42031 2.77918
3 2 -0.0276969 1.44653 5.01636
