ITEM: TIMESTEP
2500
ITEM: NUMBER OF ATOMS
4
ITEM: BOX BOUNDS xy xz yz pp pp pp
-1.2019895439617618e+00 2.4849857587613817e+00 -1.2294322452003645e+00
2.3194262952628941e-02 2.1526323452783851e+00 0.0000000000000000e+00
-5.0969389569315027e-01 8.2169588956931374e+00 0.0000000000000000e+00
ITEM: ATOMS id type x y z
4 2 1.24045 0.713519 2.52056
2 1 1.19839 0.738693 5.23037
1 1 0.046114 1.42879 2.5286
3 2 -0.0196975 1.46891 5.18932
