
     Program PWSCF v.6.7MaX starts on 27Jan2023 at  3:47: 2 

     This program is part of the open-source Quantum ESPRESSO suite
     for quantum simulation of materials; please cite
         "P. Giannozzi et al., J. Phys.:Condens. Matter 21 395502 (2009);
         "P. Giannozzi et al., J. Phys.:Condens. Matter 29 465901 (2017);
          URL http://www.quantum-espresso.org", 
     in publications or presentations arising from this work. More details at
     http://www.quantum-espresso.org/quote

     Parallel version (MPI), running on    24 processors

     MPI processes distributed on     1 nodes
     R & G space division:  proc/nbgrp/npool/nimage =      24
     Reading input from scale_3d-05.in

     Current dimensions of program PWSCF are:
     Max number of different atomic species (ntypx) = 10
     Max number of k-points (npk) =  40000
     Max angular momentum in pseudopotentials (lmaxx) =  3
     Message from routine read_pp_mesh:
     mesh size missing, using the one in header
     file Fe.pbe-spn-kjpaw_psl.0.2.1.UPF: wavefunction(s)  3D renormalized
     file O.pbe-n-kjpaw_psl.0.1.UPF: wavefunction(s)  2P renormalized

     Subspace diagonalization in iterative solution of the eigenvalue problem:
     a serial algorithm will be used


     Parallelization info
     --------------------
     sticks:   dense  smooth     PW     G-vecs:    dense   smooth      PW
     Min         912     338     91                62459    14078    1965
     Max         914     339     92                62462    14080    1966
     Sum       21895    8121   2193              1499053   337887   47169



     bravais-lattice index     =            0
     lattice parameter (alat)  =      20.6483  a.u.
     unit-cell volume          =    2500.8842 (a.u.)^3
     number of atoms/cell      =           25
     number of atomic types    =            4
     number of electrons       =       189.00
     number of Kohn-Sham states=          114
     kinetic-energy cutoff     =     100.0000  Ry
     charge density cutoff     =    1080.0000  Ry
     scf convergence threshold =      2.0E-10
     mixing beta               =       0.4000
     number of iterations used =            8  plain     mixing
     Exchange-correlation= PBE
                           (   1   4   3   4   0   0   0)

     celldm(1)=  20.648310  celldm(2)=   0.000000  celldm(3)=   0.000000
     celldm(4)=   0.000000  celldm(5)=   0.000000  celldm(6)=   0.000000

     crystal axes: (cart. coord. in units of alat)
               a(1) = (   1.000000   0.000000   0.000000 )  
               a(2) = (   0.000000   0.597590   0.000000 )  
               a(3) = (   0.000000   0.000000   0.475375 )  

     reciprocal axes: (cart. coord. in units 2 pi/alat)
               b(1) = (  1.000000  0.000000  0.000000 )  
               b(2) = (  0.000000  1.673388  0.000000 )  
               b(3) = (  0.000000  0.000000  2.103600 )  


     PseudoPot. # 1 for Fe read from file:
     /opt/QEpot/SSSP_precision_pseudos/Fe.pbe-spn-kjpaw_psl.0.2.1.UPF
     MD5 check sum: e86618425769142926afa95317d90200
     Pseudo is Projector augmented-wave + core cor, Zval = 16.0
     Generated using "atomic" code by A. Dal Corso  v.5.0.99 svn rev. 10869
     Shape of augmentation charge: PSQ
     Using radial grid of 1191 points,  6 beta functions with: 
                l(1) =   0
                l(2) =   0
                l(3) =   1
                l(4) =   1
                l(5) =   2
                l(6) =   2
     Q(r) pseudized with 0 coefficients 


     PseudoPot. # 2 for Na read from file:
     /opt/QEpot/SSSP_precision_pseudos/Na_ONCV_PBE-1.0.oncvpsp.upf
     MD5 check sum: 24a298df0a6742ae313db96548fdb2a4
     Pseudo is Norm-conserving, Zval =  9.0
     Generated using ONCVPSP code by D. R. Hamann
     Using radial grid of 1992 points,  4 beta functions with: 
                l(1) =   0
                l(2) =   0
                l(3) =   1
                l(4) =   1

     PseudoPot. # 3 for O  read from file:
     /opt/QEpot/SSSP_precision_pseudos/O.pbe-n-kjpaw_psl.0.1.UPF
     MD5 check sum: 0234752ac141de4415c5fc33072bef88
     Pseudo is Projector augmented-wave + core cor, Zval =  6.0
     Generated using "atomic" code by A. Dal Corso  v.5.0.99 svn rev. 10869
     Shape of augmentation charge: BESSEL
     Using radial grid of 1095 points,  4 beta functions with: 
                l(1) =   0
                l(2) =   0
                l(3) =   1
                l(4) =   1
     Q(r) pseudized with 0 coefficients 


     PseudoPot. # 4 for P  read from file:
     /opt/QEpot/SSSP_precision_pseudos/P.pbe-n-rrkjus_psl.1.0.0.UPF
     MD5 check sum: 8b930f418f0a4573dca56cd030ffe088
     Pseudo is Ultrasoft + core correction, Zval =  5.0
     Generated using "atomic" code by A. Dal Corso  v.5.1
     Using radial grid of 1147 points,  6 beta functions with: 
                l(1) =   0
                l(2) =   0
                l(3) =   1
                l(4) =   1
                l(5) =   2
                l(6) =   2
     Q(r) pseudized with 0 coefficients 


     atomic species   valence    mass     pseudopotential
        Fe            16.00    55.84500     Fe( 1.00)
        Na             9.00    22.98977     Na( 1.00)
        O              6.00    15.99940     O ( 1.00)
        P              5.00    30.97376     P ( 1.00)

     Starting magnetic structure 
     atomic species   magnetization
        Fe           0.312
        Na           0.000
        O            0.000
        P            0.000

     No symmetry found


                                    s                        frac. trans.

      isym =  1     identity                                     

 cryst.   s( 1) = (     1          0          0      )
                  (     0          1          0      )
                  (     0          0          1      )

 cart.    s( 1) = (  1.0000000  0.0000000  0.0000000 )
                  (  0.0000000  1.0000000  0.0000000 )
                  (  0.0000000  0.0000000  1.0000000 )


   Cartesian axes

     site n.     atom                  positions (alat units)
         1           Na  tau(   1) = (   0.9884170   0.5519173   0.4336822  )
         2           Fe  tau(   2) = (   0.2939190   0.4594911   0.4294827  )
         3           Fe  tau(   3) = (   0.2177320   0.1644388   0.2273360  )
         4           Fe  tau(   4) = (   0.7086600   0.1410366   0.0319633  )
         5           Fe  tau(   5) = (   0.7798900   0.4274680   0.2267988  )
         6           P   tau(   6) = (   0.1012260   0.4335879   0.1752619  )
         7           P   tau(   7) = (   0.3924930   0.1530332   0.4368587  )
         8           P   tau(   8) = (   0.9016400   0.1713673   0.2862122  )
         9           P   tau(   9) = (   0.6079410   0.4475058   0.0194324  )
        10           O   tau(  10) = (   0.1416670   0.4473648   0.3172181  )
        11           O   tau(  11) = (   0.3552620   0.1488776   0.1042955  )
        12           O   tau(  12) = (   0.8585950   0.1609824   0.1446159  )
        13           O   tau(  13) = (   0.6446380   0.4498639   0.3520636  )
        14           O   tau(  14) = (   0.4614060   0.4495209   0.0374586  )
        15           O   tau(  15) = (   0.0448410   0.1302746   0.3033542  )
        16           O   tau(  16) = (   0.5395180   0.1519767   0.4214712  )
        17           O   tau(  17) = (   0.9559730   0.4694917   0.1591229  )
        18           O   tau(  18) = (   0.1791430   0.5315987   0.0905885  )
        19           O   tau(  19) = (   0.3275030   0.0391284   0.3590083  )
        20           O   tau(  20) = (   0.8731620   0.3072993   0.3415036  )
        21           O   tau(  21) = (   0.6721330   0.3295756   0.0926150  )
        22           O   tau(  22) = (   0.8183970   0.0746061   0.3678950  )
        23           O   tau(  23) = (   0.6754720   0.5598432   0.0969338  )
        24           O   tau(  24) = (   0.1341870   0.2984304   0.1227919  )
        25           O   tau(  25) = (   0.3262540   0.2700252   0.3640977  )

   Crystallographic axes

     site n.     atom                  positions (cryst. coord.)
         1           Na  tau(   1) = (  0.9884170  0.9235720  0.9122940  )
         2           Fe  tau(   2) = (  0.2939190  0.7689070  0.9034600  )
         3           Fe  tau(   3) = (  0.2177320  0.2751700  0.4782240  )
         4           Fe  tau(   4) = (  0.7086600  0.2360090  0.0672380  )
         5           Fe  tau(   5) = (  0.7798900  0.7153200  0.4770940  )
         6           P   tau(   6) = (  0.1012260  0.7255610  0.3686810  )
         7           P   tau(   7) = (  0.3924930  0.2560840  0.9189760  )
         8           P   tau(   8) = (  0.9016400  0.2867640  0.6020760  )
         9           P   tau(   9) = (  0.6079410  0.7488510  0.0408780  )
        10           O   tau(  10) = (  0.1416670  0.7486150  0.6673000  )
        11           O   tau(  11) = (  0.3552620  0.2491300  0.2193960  )
        12           O   tau(  12) = (  0.8585950  0.2693860  0.3042140  )
        13           O   tau(  13) = (  0.6446380  0.7527970  0.7406010  )
        14           O   tau(  14) = (  0.4614060  0.7522230  0.0787980  )
        15           O   tau(  15) = (  0.0448410  0.2180000  0.6381360  )
        16           O   tau(  16) = (  0.5395180  0.2543160  0.8866070  )
        17           O   tau(  17) = (  0.9559730  0.7856420  0.3347310  )
        18           O   tau(  18) = (  0.1791430  0.8895710  0.1905620  )
        19           O   tau(  19) = (  0.3275030  0.0654770  0.7552100  )
        20           O   tau(  20) = (  0.8731620  0.5142310  0.7183870  )
        21           O   tau(  21) = (  0.6721330  0.5515080  0.1948250  )
        22           O   tau(  22) = (  0.8183970  0.1248450  0.7739040  )
        23           O   tau(  23) = (  0.6754720  0.9368350  0.2039100  )
        24           O   tau(  24) = (  0.1341870  0.4993900  0.2583050  )
        25           O   tau(  25) = (  0.3262540  0.4518570  0.7659160  )

     number of k points=   158  Marzari-Vanderbilt smearing, width (Ry)=  0.0073
                       cart. coord. in units 2pi/alat
        k(    1) = (   0.0000000   0.0000000   0.0000000), wk =   0.0031746
        k(    2) = (   0.0000000   0.0000000   0.2337334), wk =   0.0063492
        k(    3) = (   0.0000000   0.0000000   0.4674667), wk =   0.0063492
        k(    4) = (   0.0000000   0.0000000   0.7012001), wk =   0.0063492
        k(    5) = (   0.0000000   0.0000000   0.9349334), wk =   0.0063492
        k(    6) = (   0.0000000   0.2390555   0.0000000), wk =   0.0063492
        k(    7) = (   0.0000000   0.2390555   0.2337334), wk =   0.0063492
        k(    8) = (   0.0000000   0.2390555   0.4674667), wk =   0.0063492
        k(    9) = (   0.0000000   0.2390555   0.7012001), wk =   0.0063492
        k(   10) = (   0.0000000   0.2390555   0.9349334), wk =   0.0063492
        k(   11) = (   0.0000000   0.4781110   0.0000000), wk =   0.0063492
        k(   12) = (   0.0000000   0.4781110   0.2337334), wk =   0.0063492
        k(   13) = (   0.0000000   0.4781110   0.4674667), wk =   0.0063492
        k(   14) = (   0.0000000   0.4781110   0.7012001), wk =   0.0063492
        k(   15) = (   0.0000000   0.4781110   0.9349334), wk =   0.0063492
        k(   16) = (   0.0000000   0.7171664   0.0000000), wk =   0.0063492
        k(   17) = (   0.0000000   0.7171664   0.2337334), wk =   0.0063492
        k(   18) = (   0.0000000   0.7171664   0.4674667), wk =   0.0063492
        k(   19) = (   0.0000000   0.7171664   0.7012001), wk =   0.0063492
        k(   20) = (   0.0000000   0.7171664   0.9349334), wk =   0.0063492
        k(   21) = (   0.2000000   0.0000000   0.0000000), wk =   0.0063492
        k(   22) = (   0.2000000   0.0000000   0.2337334), wk =   0.0063492
        k(   23) = (   0.2000000   0.0000000   0.4674667), wk =   0.0063492
        k(   24) = (   0.2000000   0.0000000   0.7012001), wk =   0.0063492
        k(   25) = (   0.2000000   0.0000000   0.9349334), wk =   0.0063492
        k(   26) = (   0.2000000   0.2390555   0.0000000), wk =   0.0063492
        k(   27) = (   0.2000000   0.2390555   0.2337334), wk =   0.0063492
        k(   28) = (   0.2000000   0.2390555   0.4674667), wk =   0.0063492
        k(   29) = (   0.2000000   0.2390555   0.7012001), wk =   0.0063492
        k(   30) = (   0.2000000   0.2390555   0.9349334), wk =   0.0063492
        k(   31) = (   0.2000000   0.4781110   0.0000000), wk =   0.0063492
        k(   32) = (   0.2000000   0.4781110   0.2337334), wk =   0.0063492
        k(   33) = (   0.2000000   0.4781110   0.4674667), wk =   0.0063492
        k(   34) = (   0.2000000   0.4781110   0.7012001), wk =   0.0063492
        k(   35) = (   0.2000000   0.4781110   0.9349334), wk =   0.0063492
        k(   36) = (   0.2000000   0.7171664   0.0000000), wk =   0.0063492
        k(   37) = (   0.2000000   0.7171664   0.2337334), wk =   0.0063492
        k(   38) = (   0.2000000   0.7171664   0.4674667), wk =   0.0063492
        k(   39) = (   0.2000000   0.7171664   0.7012001), wk =   0.0063492
        k(   40) = (   0.2000000   0.7171664   0.9349334), wk =   0.0063492
        k(   41) = (   0.4000000   0.0000000   0.0000000), wk =   0.0063492
        k(   42) = (   0.4000000   0.0000000   0.2337334), wk =   0.0063492
        k(   43) = (   0.4000000   0.0000000   0.4674667), wk =   0.0063492
        k(   44) = (   0.4000000   0.0000000   0.7012001), wk =   0.0063492
        k(   45) = (   0.4000000   0.0000000   0.9349334), wk =   0.0063492
        k(   46) = (   0.4000000   0.2390555   0.0000000), wk =   0.0063492
        k(   47) = (   0.4000000   0.2390555   0.2337334), wk =   0.0063492
        k(   48) = (   0.4000000   0.2390555   0.4674667), wk =   0.0063492
        k(   49) = (   0.4000000   0.2390555   0.7012001), wk =   0.0063492
        k(   50) = (   0.4000000   0.2390555   0.9349334), wk =   0.0063492
        k(   51) = (   0.4000000   0.4781110   0.0000000), wk =   0.0063492
        k(   52) = (   0.4000000   0.4781110   0.2337334), wk =   0.0063492
        k(   53) = (   0.4000000   0.4781110   0.4674667), wk =   0.0063492
        k(   54) = (   0.4000000   0.4781110   0.7012001), wk =   0.0063492
        k(   55) = (   0.4000000   0.4781110   0.9349334), wk =   0.0063492
        k(   56) = (   0.4000000   0.7171664   0.0000000), wk =   0.0063492
        k(   57) = (   0.4000000   0.7171664   0.2337334), wk =   0.0063492
        k(   58) = (   0.4000000   0.7171664   0.4674667), wk =   0.0063492
        k(   59) = (   0.4000000   0.7171664   0.7012001), wk =   0.0063492
        k(   60) = (   0.4000000   0.7171664   0.9349334), wk =   0.0063492
        k(   61) = (   0.0000000  -0.2390555   0.2337334), wk =   0.0063492
        k(   62) = (   0.0000000  -0.2390555   0.4674667), wk =   0.0063492
        k(   63) = (   0.0000000  -0.2390555   0.7012001), wk =   0.0063492
        k(   64) = (   0.0000000  -0.2390555   0.9349334), wk =   0.0063492
        k(   65) = (   0.0000000  -0.4781110   0.2337334), wk =   0.0063492
        k(   66) = (   0.0000000  -0.4781110   0.4674667), wk =   0.0063492
        k(   67) = (   0.0000000  -0.4781110   0.7012001), wk =   0.0063492
        k(   68) = (   0.0000000  -0.4781110   0.9349334), wk =   0.0063492
        k(   69) = (   0.0000000  -0.7171664   0.2337334), wk =   0.0063492
        k(   70) = (   0.0000000  -0.7171664   0.4674667), wk =   0.0063492
        k(   71) = (   0.0000000  -0.7171664   0.7012001), wk =   0.0063492
        k(   72) = (   0.0000000  -0.7171664   0.9349334), wk =   0.0063492
        k(   73) = (  -0.2000000   0.0000000   0.2337334), wk =   0.0063492
        k(   74) = (  -0.2000000   0.0000000   0.4674667), wk =   0.0063492
        k(   75) = (  -0.2000000   0.0000000   0.7012001), wk =   0.0063492
        k(   76) = (  -0.2000000   0.0000000   0.9349334), wk =   0.0063492
        k(   77) = (  -0.2000000   0.2390555   0.0000000), wk =   0.0063492
        k(   78) = (  -0.2000000  -0.2390555   0.2337334), wk =   0.0063492
        k(   79) = (  -0.2000000   0.2390555  -0.2337334), wk =   0.0063492
        k(   80) = (   0.2000000  -0.2390555  -0.2337334), wk =   0.0063492
        k(   81) = (  -0.2000000  -0.2390555   0.4674667), wk =   0.0063492
        k(   82) = (  -0.2000000   0.2390555  -0.4674667), wk =   0.0063492
        k(   83) = (   0.2000000  -0.2390555  -0.4674667), wk =   0.0063492
        k(   84) = (  -0.2000000  -0.2390555   0.7012001), wk =   0.0063492
        k(   85) = (  -0.2000000   0.2390555  -0.7012001), wk =   0.0063492
        k(   86) = (   0.2000000  -0.2390555  -0.7012001), wk =   0.0063492
        k(   87) = (  -0.2000000  -0.2390555   0.9349334), wk =   0.0063492
        k(   88) = (  -0.2000000   0.2390555  -0.9349334), wk =   0.0063492
        k(   89) = (   0.2000000  -0.2390555  -0.9349334), wk =   0.0063492
        k(   90) = (  -0.2000000   0.4781110   0.0000000), wk =   0.0063492
        k(   91) = (  -0.2000000  -0.4781110   0.2337334), wk =   0.0063492
        k(   92) = (  -0.2000000   0.4781110  -0.2337334), wk =   0.0063492
        k(   93) = (   0.2000000  -0.4781110  -0.2337334), wk =   0.0063492
        k(   94) = (  -0.2000000  -0.4781110   0.4674667), wk =   0.0063492
        k(   95) = (  -0.2000000   0.4781110  -0.4674667), wk =   0.0063492
        k(   96) = (   0.2000000  -0.4781110  -0.4674667), wk =   0.0063492
        k(   97) = (  -0.2000000  -0.4781110   0.7012001), wk =   0.0063492
        k(   98) = (  -0.2000000   0.4781110  -0.7012001), wk =   0.0063492
        k(   99) = (   0.2000000  -0.4781110  -0.7012001), wk =   0.0063492
        k(  100) = (  -0.2000000  -0.4781110   0.9349334), wk =   0.0063492
        k(  101) = (  -0.2000000   0.4781110  -0.9349334), wk =   0.0063492
        k(  102) = (   0.2000000  -0.4781110  -0.9349334), wk =   0.0063492
        k(  103) = (  -0.2000000   0.7171664   0.0000000), wk =   0.0063492
        k(  104) = (  -0.2000000  -0.7171664   0.2337334), wk =   0.0063492
        k(  105) = (  -0.2000000   0.7171664  -0.2337334), wk =   0.0063492
        k(  106) = (   0.2000000  -0.7171664  -0.2337334), wk =   0.0063492
        k(  107) = (  -0.2000000  -0.7171664   0.4674667), wk =   0.0063492
        k(  108) = (  -0.2000000   0.7171664  -0.4674667), wk =   0.0063492
        k(  109) = (   0.2000000  -0.7171664  -0.4674667), wk =   0.0063492
        k(  110) = (  -0.2000000  -0.7171664   0.7012001), wk =   0.0063492
        k(  111) = (  -0.2000000   0.7171664  -0.7012001), wk =   0.0063492
        k(  112) = (   0.2000000  -0.7171664  -0.7012001), wk =   0.0063492
        k(  113) = (  -0.2000000  -0.7171664   0.9349334), wk =   0.0063492
        k(  114) = (  -0.2000000   0.7171664  -0.9349334), wk =   0.0063492
        k(  115) = (   0.2000000  -0.7171664  -0.9349334), wk =   0.0063492
        k(  116) = (  -0.4000000   0.0000000   0.2337334), wk =   0.0063492
        k(  117) = (  -0.4000000   0.0000000   0.4674667), wk =   0.0063492
        k(  118) = (  -0.4000000   0.0000000   0.7012001), wk =   0.0063492
        k(  119) = (  -0.4000000   0.0000000   0.9349334), wk =   0.0063492
        k(  120) = (  -0.4000000   0.2390555   0.0000000), wk =   0.0063492
        k(  121) = (  -0.4000000  -0.2390555   0.2337334), wk =   0.0063492
        k(  122) = (  -0.4000000   0.2390555  -0.2337334), wk =   0.0063492
        k(  123) = (   0.4000000  -0.2390555  -0.2337334), wk =   0.0063492
        k(  124) = (  -0.4000000  -0.2390555   0.4674667), wk =   0.0063492
        k(  125) = (  -0.4000000   0.2390555  -0.4674667), wk =   0.0063492
        k(  126) = (   0.4000000  -0.2390555  -0.4674667), wk =   0.0063492
        k(  127) = (  -0.4000000  -0.2390555   0.7012001), wk =   0.0063492
        k(  128) = (  -0.4000000   0.2390555  -0.7012001), wk =   0.0063492
        k(  129) = (   0.4000000  -0.2390555  -0.7012001), wk =   0.0063492
        k(  130) = (  -0.4000000  -0.2390555   0.9349334), wk =   0.0063492
        k(  131) = (  -0.4000000   0.2390555  -0.9349334), wk =   0.0063492
        k(  132) = (   0.4000000  -0.2390555  -0.9349334), wk =   0.0063492
        k(  133) = (  -0.4000000   0.4781110   0.0000000), wk =   0.0063492
        k(  134) = (  -0.4000000  -0.4781110   0.2337334), wk =   0.0063492
        k(  135) = (  -0.4000000   0.4781110  -0.2337334), wk =   0.0063492
        k(  136) = (   0.4000000  -0.4781110  -0.2337334), wk =   0.0063492
        k(  137) = (  -0.4000000  -0.4781110   0.4674667), wk =   0.0063492
        k(  138) = (  -0.4000000   0.4781110  -0.4674667), wk =   0.0063492
        k(  139) = (   0.4000000  -0.4781110  -0.4674667), wk =   0.0063492
        k(  140) = (  -0.4000000  -0.4781110   0.7012001), wk =   0.0063492
        k(  141) = (  -0.4000000   0.4781110  -0.7012001), wk =   0.0063492
        k(  142) = (   0.4000000  -0.4781110  -0.7012001), wk =   0.0063492
        k(  143) = (  -0.4000000  -0.4781110   0.9349334), wk =   0.0063492
        k(  144) = (  -0.4000000   0.4781110  -0.9349334), wk =   0.0063492
        k(  145) = (   0.4000000  -0.4781110  -0.9349334), wk =   0.0063492
        k(  146) = (  -0.4000000   0.7171664   0.0000000), wk =   0.0063492
        k(  147) = (  -0.4000000  -0.7171664   0.2337334), wk =   0.0063492
        k(  148) = (  -0.4000000   0.7171664  -0.2337334), wk =   0.0063492
        k(  149) = (   0.4000000  -0.7171664  -0.2337334), wk =   0.0063492
        k(  150) = (  -0.4000000  -0.7171664   0.4674667), wk =   0.0063492
        k(  151) = (  -0.4000000   0.7171664  -0.4674667), wk =   0.0063492
        k(  152) = (   0.4000000  -0.7171664  -0.4674667), wk =   0.0063492
        k(  153) = (  -0.4000000  -0.7171664   0.7012001), wk =   0.0063492
        k(  154) = (  -0.4000000   0.7171664  -0.7012001), wk =   0.0063492
        k(  155) = (   0.4000000  -0.7171664  -0.7012001), wk =   0.0063492
        k(  156) = (  -0.4000000  -0.7171664   0.9349334), wk =   0.0063492
        k(  157) = (  -0.4000000   0.7171664  -0.9349334), wk =   0.0063492
        k(  158) = (   0.4000000  -0.7171664  -0.9349334), wk =   0.0063492

                       cryst. coord.
        k(    1) = (   0.0000000   0.0000000   0.0000000), wk =   0.0031746
        k(    2) = (   0.0000000   0.0000000   0.1111111), wk =   0.0063492
        k(    3) = (   0.0000000   0.0000000   0.2222222), wk =   0.0063492
        k(    4) = (   0.0000000   0.0000000   0.3333333), wk =   0.0063492
        k(    5) = (   0.0000000   0.0000000   0.4444444), wk =   0.0063492
        k(    6) = (   0.0000000   0.1428571   0.0000000), wk =   0.0063492
        k(    7) = (   0.0000000   0.1428571   0.1111111), wk =   0.0063492
        k(    8) = (   0.0000000   0.1428571   0.2222222), wk =   0.0063492
        k(    9) = (   0.0000000   0.1428571   0.3333333), wk =   0.0063492
        k(   10) = (   0.0000000   0.1428571   0.4444444), wk =   0.0063492
        k(   11) = (   0.0000000   0.2857143   0.0000000), wk =   0.0063492
        k(   12) = (   0.0000000   0.2857143   0.1111111), wk =   0.0063492
        k(   13) = (   0.0000000   0.2857143   0.2222222), wk =   0.0063492
        k(   14) = (   0.0000000   0.2857143   0.3333333), wk =   0.0063492
        k(   15) = (   0.0000000   0.2857143   0.4444444), wk =   0.0063492
        k(   16) = (   0.0000000   0.4285714   0.0000000), wk =   0.0063492
        k(   17) = (   0.0000000   0.4285714   0.1111111), wk =   0.0063492
        k(   18) = (   0.0000000   0.4285714   0.2222222), wk =   0.0063492
        k(   19) = (   0.0000000   0.4285714   0.3333333), wk =   0.0063492
        k(   20) = (   0.0000000   0.4285714   0.4444444), wk =   0.0063492
        k(   21) = (   0.2000000   0.0000000   0.0000000), wk =   0.0063492
        k(   22) = (   0.2000000   0.0000000   0.1111111), wk =   0.0063492
        k(   23) = (   0.2000000   0.0000000   0.2222222), wk =   0.0063492
        k(   24) = (   0.2000000   0.0000000   0.3333333), wk =   0.0063492
        k(   25) = (   0.2000000   0.0000000   0.4444444), wk =   0.0063492
        k(   26) = (   0.2000000   0.1428571   0.0000000), wk =   0.0063492
        k(   27) = (   0.2000000   0.1428571   0.1111111), wk =   0.0063492
        k(   28) = (   0.2000000   0.1428571   0.2222222), wk =   0.0063492
        k(   29) = (   0.2000000   0.1428571   0.3333333), wk =   0.0063492
        k(   30) = (   0.2000000   0.1428571   0.4444444), wk =   0.0063492
        k(   31) = (   0.2000000   0.2857143   0.0000000), wk =   0.0063492
        k(   32) = (   0.2000000   0.2857143   0.1111111), wk =   0.0063492
        k(   33) = (   0.2000000   0.2857143   0.2222222), wk =   0.0063492
        k(   34) = (   0.2000000   0.2857143   0.3333333), wk =   0.0063492
        k(   35) = (   0.2000000   0.2857143   0.4444444), wk =   0.0063492
        k(   36) = (   0.2000000   0.4285714   0.0000000), wk =   0.0063492
        k(   37) = (   0.2000000   0.4285714   0.1111111), wk =   0.0063492
        k(   38) = (   0.2000000   0.4285714   0.2222222), wk =   0.0063492
        k(   39) = (   0.2000000   0.4285714   0.3333333), wk =   0.0063492
        k(   40) = (   0.2000000   0.4285714   0.4444444), wk =   0.0063492
        k(   41) = (   0.4000000   0.0000000   0.0000000), wk =   0.0063492
        k(   42) = (   0.4000000   0.0000000   0.1111111), wk =   0.0063492
        k(   43) = (   0.4000000   0.0000000   0.2222222), wk =   0.0063492
        k(   44) = (   0.4000000   0.0000000   0.3333333), wk =   0.0063492
        k(   45) = (   0.4000000   0.0000000   0.4444444), wk =   0.0063492
        k(   46) = (   0.4000000   0.1428571   0.0000000), wk =   0.0063492
        k(   47) = (   0.4000000   0.1428571   0.1111111), wk =   0.0063492
        k(   48) = (   0.4000000   0.1428571   0.2222222), wk =   0.0063492
        k(   49) = (   0.4000000   0.1428571   0.3333333), wk =   0.0063492
        k(   50) = (   0.4000000   0.1428571   0.4444444), wk =   0.0063492
        k(   51) = (   0.4000000   0.2857143   0.0000000), wk =   0.0063492
        k(   52) = (   0.4000000   0.2857143   0.1111111), wk =   0.0063492
        k(   53) = (   0.4000000   0.2857143   0.2222222), wk =   0.0063492
        k(   54) = (   0.4000000   0.2857143   0.3333333), wk =   0.0063492
        k(   55) = (   0.4000000   0.2857143   0.4444444), wk =   0.0063492
        k(   56) = (   0.4000000   0.4285714   0.0000000), wk =   0.0063492
        k(   57) = (   0.4000000   0.4285714   0.1111111), wk =   0.0063492
        k(   58) = (   0.4000000   0.4285714   0.2222222), wk =   0.0063492
        k(   59) = (   0.4000000   0.4285714   0.3333333), wk =   0.0063492
        k(   60) = (   0.4000000   0.4285714   0.4444444), wk =   0.0063492
        k(   61) = (   0.0000000  -0.1428571   0.1111111), wk =   0.0063492
        k(   62) = (   0.0000000  -0.1428571   0.2222222), wk =   0.0063492
        k(   63) = (   0.0000000  -0.1428571   0.3333333), wk =   0.0063492
        k(   64) = (   0.0000000  -0.1428571   0.4444444), wk =   0.0063492
        k(   65) = (   0.0000000  -0.2857143   0.1111111), wk =   0.0063492
        k(   66) = (   0.0000000  -0.2857143   0.2222222), wk =   0.0063492
        k(   67) = (   0.0000000  -0.2857143   0.3333333), wk =   0.0063492
        k(   68) = (   0.0000000  -0.2857143   0.4444444), wk =   0.0063492
        k(   69) = (   0.0000000  -0.4285714   0.1111111), wk =   0.0063492
        k(   70) = (   0.0000000  -0.4285714   0.2222222), wk =   0.0063492
        k(   71) = (   0.0000000  -0.4285714   0.3333333), wk =   0.0063492
        k(   72) = (   0.0000000  -0.4285714   0.4444444), wk =   0.0063492
        k(   73) = (  -0.2000000   0.0000000   0.1111111), wk =   0.0063492
        k(   74) = (  -0.2000000   0.0000000   0.2222222), wk =   0.0063492
        k(   75) = (  -0.2000000   0.0000000   0.3333333), wk =   0.0063492
        k(   76) = (  -0.2000000   0.0000000   0.4444444), wk =   0.0063492
        k(   77) = (  -0.2000000   0.1428571   0.0000000), wk =   0.0063492
        k(   78) = (  -0.2000000  -0.1428571   0.1111111), wk =   0.0063492
        k(   79) = (  -0.2000000   0.1428571  -0.1111111), wk =   0.0063492
        k(   80) = (   0.2000000  -0.1428571  -0.1111111), wk =   0.0063492
        k(   81) = (  -0.2000000  -0.1428571   0.2222222), wk =   0.0063492
        k(   82) = (  -0.2000000   0.1428571  -0.2222222), wk =   0.0063492
        k(   83) = (   0.2000000  -0.1428571  -0.2222222), wk =   0.0063492
        k(   84) = (  -0.2000000  -0.1428571   0.3333333), wk =   0.0063492
        k(   85) = (  -0.2000000   0.1428571  -0.3333333), wk =   0.0063492
        k(   86) = (   0.2000000  -0.1428571  -0.3333333), wk =   0.0063492
        k(   87) = (  -0.2000000  -0.1428571   0.4444444), wk =   0.0063492
        k(   88) = (  -0.2000000   0.1428571  -0.4444444), wk =   0.0063492
        k(   89) = (   0.2000000  -0.1428571  -0.4444444), wk =   0.0063492
        k(   90) = (  -0.2000000   0.2857143   0.0000000), wk =   0.0063492
        k(   91) = (  -0.2000000  -0.2857143   0.1111111), wk =   0.0063492
        k(   92) = (  -0.2000000   0.2857143  -0.1111111), wk =   0.0063492
        k(   93) = (   0.2000000  -0.2857143  -0.1111111), wk =   0.0063492
        k(   94) = (  -0.2000000  -0.2857143   0.2222222), wk =   0.0063492
        k(   95) = (  -0.2000000   0.2857143  -0.2222222), wk =   0.0063492
        k(   96) = (   0.2000000  -0.2857143  -0.2222222), wk =   0.0063492
        k(   97) = (  -0.2000000  -0.2857143   0.3333333), wk =   0.0063492
        k(   98) = (  -0.2000000   0.2857143  -0.3333333), wk =   0.0063492
        k(   99) = (   0.2000000  -0.2857143  -0.3333333), wk =   0.0063492
        k(  100) = (  -0.2000000  -0.2857143   0.4444444), wk =   0.0063492
        k(  101) = (  -0.2000000   0.2857143  -0.4444444), wk =   0.0063492
        k(  102) = (   0.2000000  -0.2857143  -0.4444444), wk =   0.0063492
        k(  103) = (  -0.2000000   0.4285714   0.0000000), wk =   0.0063492
        k(  104) = (  -0.2000000  -0.4285714   0.1111111), wk =   0.0063492
        k(  105) = (  -0.2000000   0.4285714  -0.1111111), wk =   0.0063492
        k(  106) = (   0.2000000  -0.4285714  -0.1111111), wk =   0.0063492
        k(  107) = (  -0.2000000  -0.4285714   0.2222222), wk =   0.0063492
        k(  108) = (  -0.2000000   0.4285714  -0.2222222), wk =   0.0063492
        k(  109) = (   0.2000000  -0.4285714  -0.2222222), wk =   0.0063492
        k(  110) = (  -0.2000000  -0.4285714   0.3333333), wk =   0.0063492
        k(  111) = (  -0.2000000   0.4285714  -0.3333333), wk =   0.0063492
        k(  112) = (   0.2000000  -0.4285714  -0.3333333), wk =   0.0063492
        k(  113) = (  -0.2000000  -0.4285714   0.4444444), wk =   0.0063492
        k(  114) = (  -0.2000000   0.4285714  -0.4444444), wk =   0.0063492
        k(  115) = (   0.2000000  -0.4285714  -0.4444444), wk =   0.0063492
        k(  116) = (  -0.4000000   0.0000000   0.1111111), wk =   0.0063492
        k(  117) = (  -0.4000000   0.0000000   0.2222222), wk =   0.0063492
        k(  118) = (  -0.4000000   0.0000000   0.3333333), wk =   0.0063492
        k(  119) = (  -0.4000000   0.0000000   0.4444444), wk =   0.0063492
        k(  120) = (  -0.4000000   0.1428571   0.0000000), wk =   0.0063492
        k(  121) = (  -0.4000000  -0.1428571   0.1111111), wk =   0.0063492
        k(  122) = (  -0.4000000   0.1428571  -0.1111111), wk =   0.0063492
        k(  123) = (   0.4000000  -0.1428571  -0.1111111), wk =   0.0063492
        k(  124) = (  -0.4000000  -0.1428571   0.2222222), wk =   0.0063492
        k(  125) = (  -0.4000000   0.1428571  -0.2222222), wk =   0.0063492
        k(  126) = (   0.4000000  -0.1428571  -0.2222222), wk =   0.0063492
        k(  127) = (  -0.4000000  -0.1428571   0.3333333), wk =   0.0063492
        k(  128) = (  -0.4000000   0.1428571  -0.3333333), wk =   0.0063492
        k(  129) = (   0.4000000  -0.1428571  -0.3333333), wk =   0.0063492
        k(  130) = (  -0.4000000  -0.1428571   0.4444444), wk =   0.0063492
        k(  131) = (  -0.4000000   0.1428571  -0.4444444), wk =   0.0063492
        k(  132) = (   0.4000000  -0.1428571  -0.4444444), wk =   0.0063492
        k(  133) = (  -0.4000000   0.2857143   0.0000000), wk =   0.0063492
        k(  134) = (  -0.4000000  -0.2857143   0.1111111), wk =   0.0063492
        k(  135) = (  -0.4000000   0.2857143  -0.1111111), wk =   0.0063492
        k(  136) = (   0.4000000  -0.2857143  -0.1111111), wk =   0.0063492
        k(  137) = (  -0.4000000  -0.2857143   0.2222222), wk =   0.0063492
        k(  138) = (  -0.4000000   0.2857143  -0.2222222), wk =   0.0063492
        k(  139) = (   0.4000000  -0.2857143  -0.2222222), wk =   0.0063492
        k(  140) = (  -0.4000000  -0.2857143   0.3333333), wk =   0.0063492
        k(  141) = (  -0.4000000   0.2857143  -0.3333333), wk =   0.0063492
        k(  142) = (   0.4000000  -0.2857143  -0.3333333), wk =   0.0063492
        k(  143) = (  -0.4000000  -0.2857143   0.4444444), wk =   0.0063492
        k(  144) = (  -0.4000000   0.2857143  -0.4444444), wk =   0.0063492
        k(  145) = (   0.4000000  -0.2857143  -0.4444444), wk =   0.0063492
        k(  146) = (  -0.4000000   0.4285714   0.0000000), wk =   0.0063492
        k(  147) = (  -0.4000000  -0.4285714   0.1111111), wk =   0.0063492
        k(  148) = (  -0.4000000   0.4285714  -0.1111111), wk =   0.0063492
        k(  149) = (   0.4000000  -0.4285714  -0.1111111), wk =   0.0063492
        k(  150) = (  -0.4000000  -0.4285714   0.2222222), wk =   0.0063492
        k(  151) = (  -0.4000000   0.4285714  -0.2222222), wk =   0.0063492
        k(  152) = (   0.4000000  -0.4285714  -0.2222222), wk =   0.0063492
        k(  153) = (  -0.4000000  -0.4285714   0.3333333), wk =   0.0063492
        k(  154) = (  -0.4000000   0.4285714  -0.3333333), wk =   0.0063492
        k(  155) = (   0.4000000  -0.4285714  -0.3333333), wk =   0.0063492
        k(  156) = (  -0.4000000  -0.4285714   0.4444444), wk =   0.0063492
        k(  157) = (  -0.4000000   0.4285714  -0.4444444), wk =   0.0063492
        k(  158) = (   0.4000000  -0.4285714  -0.4444444), wk =   0.0063492

     Dense  grid:  1499053 G-vectors     FFT dimensions: ( 216, 135, 108)

     Smooth grid:   337887 G-vectors     FFT dimensions: ( 135,  80,  64)

     Dynamical RAM for                 wfc:       3.06 MB

     Dynamical RAM for     wfc (w. buffer):     969.95 MB

     Dynamical RAM for           str. fact:       3.81 MB

     Dynamical RAM for           local pot:       0.00 MB

     Dynamical RAM for          nlocal pot:       7.52 MB

     Dynamical RAM for                qrad:      10.54 MB

     Dynamical RAM for          rho,v,vnew:      12.39 MB

     Dynamical RAM for               rhoin:       4.13 MB

     Dynamical RAM for            rho*nmix:      30.50 MB

     Dynamical RAM for           G-vectors:       3.68 MB

     Dynamical RAM for          h,s,v(r/c):       2.38 MB

     Dynamical RAM for          <psi|beta>:       0.49 MB

     Dynamical RAM for                 psi:       6.12 MB

     Dynamical RAM for                hpsi:       6.12 MB

     Dynamical RAM for                spsi:       6.12 MB

     Dynamical RAM for      wfcinit/wfcrot:       7.78 MB

     Dynamical RAM for           addusdens:     193.47 MB

     Dynamical RAM for          addusforce:     222.19 MB

     Dynamical RAM for         addusstress:     193.00 MB

     Estimated static dynamical RAM per process >       1.03 GB

     Estimated max dynamical RAM per process >       1.25 GB

     Estimated total dynamical RAM >      29.91 GB

     Check: negative core charge=   -0.000003
     Generating pointlists ...
     new r_m :   0.0764 (alat units)  1.5773 (a.u.) for type    1
     new r_m :   0.0901 (alat units)  1.8603 (a.u.) for type    2
     new r_m :   0.0608 (alat units)  1.2555 (a.u.) for type    3
     new r_m :   0.0608 (alat units)  1.2555 (a.u.) for type    4

     Initial potential from superposition of free atoms

     starting charge  188.99132, renormalised to  189.00000
     Starting wfcs are  137 randomized atomic wfcs
     Checking if some PAW data can be deallocated... 
       PAW data deallocated on   20 nodes for type:  1
       PAW data deallocated on    8 nodes for type:  3

     total cpu time spent up to now is     1404.2 secs

     Self-consistent Calculation

     iteration #  1     ecut=   100.00 Ry     beta= 0.40
     Davidson diagonalization with overlap
     ethr =  1.00E-02,  avg # of iterations =  2.6

     negative rho (up, down):  0.000E+00 7.340E-05

     total cpu time spent up to now is     5181.9 secs

     total energy              =   -2123.55328612 Ry
     estimated scf accuracy    <       7.22279771 Ry

     total magnetization       =    19.00 Bohr mag/cell
     absolute magnetization    =    19.00 Bohr mag/cell

     iteration #  2     ecut=   100.00 Ry     beta= 0.40
     Davidson diagonalization with overlap
     ethr =  3.82E-03,  avg # of iterations =  2.0

     negative rho (up, down):  0.000E+00 3.016E-05

     total cpu time spent up to now is     8919.7 secs

     total energy              =   -2120.49980346 Ry
     estimated scf accuracy    <      40.28580670 Ry

     total magnetization       =     7.15 Bohr mag/cell
     absolute magnetization    =     8.45 Bohr mag/cell

     iteration #  3     ecut=   100.00 Ry     beta= 0.40
     Davidson diagonalization with overlap
     ethr =  3.82E-03,  avg # of iterations =  2.1

     negative rho (up, down):  0.000E+00 3.730E-05

     total cpu time spent up to now is    12101.4 secs

     total energy              =   -2124.27946617 Ry
     estimated scf accuracy    <      32.20222188 Ry

     total magnetization       =    10.11 Bohr mag/cell
     absolute magnetization    =    11.76 Bohr mag/cell

     iteration #  4     ecut=   100.00 Ry     beta= 0.40
     Davidson diagonalization with overlap
     ethr =  3.82E-03,  avg # of iterations =  1.5

     negative rho (up, down):  0.000E+00 8.409E-05

     total cpu time spent up to now is    15065.1 secs

     total energy              =   -2125.68653054 Ry
     estimated scf accuracy    <       4.44167083 Ry

     total magnetization       =    17.54 Bohr mag/cell
     absolute magnetization    =    17.57 Bohr mag/cell

     iteration #  5     ecut=   100.00 Ry     beta= 0.40
     Davidson diagonalization with overlap
     ethr =  2.35E-03,  avg # of iterations =  1.0

     negative rho (up, down):  0.000E+00 8.751E-05

     total cpu time spent up to now is    17947.1 secs

     total energy              =   -2125.74026171 Ry
     estimated scf accuracy    <       4.64005847 Ry

     total magnetization       =    17.04 Bohr mag/cell
     absolute magnetization    =    17.12 Bohr mag/cell

     iteration #  6     ecut=   100.00 Ry     beta= 0.40
     Davidson diagonalization with overlap
     ethr =  2.35E-03,  avg # of iterations =  1.0

     negative rho (up, down):  0.000E+00 1.288E-04

     total cpu time spent up to now is    20832.5 secs

     total energy              =   -2125.87418424 Ry
     estimated scf accuracy    <       1.05706940 Ry

     total magnetization       =    19.00 Bohr mag/cell
     absolute magnetization    =    19.00 Bohr mag/cell

     iteration #  7     ecut=   100.00 Ry     beta= 0.40
     Davidson diagonalization with overlap
     ethr =  5.59E-04,  avg # of iterations =  1.5

     negative rho (up, down):  0.000E+00 2.657E-04

     total cpu time spent up to now is    23806.5 secs

     total energy              =   -2125.92806733 Ry
     estimated scf accuracy    <       1.11454520 Ry

     total magnetization       =    19.06 Bohr mag/cell
     absolute magnetization    =    19.07 Bohr mag/cell

     iteration #  8     ecut=   100.00 Ry     beta= 0.40
     Davidson diagonalization with overlap
     ethr =  5.59E-04,  avg # of iterations =  1.0

     negative rho (up, down):  0.000E+00 5.907E-04

     total cpu time spent up to now is    26689.9 secs

     total energy              =   -2125.86216990 Ry
     estimated scf accuracy    <       0.72675540 Ry

     total magnetization       =    19.00 Bohr mag/cell
     absolute magnetization    =    19.01 Bohr mag/cell

     iteration #  9     ecut=   100.00 Ry     beta= 0.40
     Davidson diagonalization with overlap
     ethr =  3.85E-04,  avg # of iterations =  1.7

     negative rho (up, down):  0.000E+00 8.841E-04

     total cpu time spent up to now is    29686.3 secs

     total energy              =   -2125.85184313 Ry
     estimated scf accuracy    <       0.84736072 Ry

     total magnetization       =    19.00 Bohr mag/cell
     absolute magnetization    =    19.01 Bohr mag/cell

     iteration # 10     ecut=   100.00 Ry     beta= 0.40
     Davidson diagonalization with overlap
     ethr =  3.85E-04,  avg # of iterations =  1.8

     negative rho (up, down):  0.000E+00 8.651E-04

     total cpu time spent up to now is    32686.4 secs

     total energy              =   -2125.91060364 Ry
     estimated scf accuracy    <       0.52359030 Ry

     total magnetization       =    19.00 Bohr mag/cell
     absolute magnetization    =    19.02 Bohr mag/cell

     iteration # 11     ecut=   100.00 Ry     beta= 0.40
     Davidson diagonalization with overlap
     ethr =  2.77E-04,  avg # of iterations =  1.1

     negative rho (up, down):  0.000E+00 9.587E-04

     total cpu time spent up to now is    35573.9 secs

     total energy              =   -2125.90465825 Ry
     estimated scf accuracy    <       0.41145846 Ry

     total magnetization       =    19.00 Bohr mag/cell
     absolute magnetization    =    19.02 Bohr mag/cell

     iteration # 12     ecut=   100.00 Ry     beta= 0.40
     Davidson diagonalization with overlap
     ethr =  2.18E-04,  avg # of iterations =  1.3

     negative rho (up, down):  0.000E+00 8.899E-04

     total cpu time spent up to now is    38492.9 secs

     total energy              =   -2125.89455348 Ry
     estimated scf accuracy    <       0.32086123 Ry

     total magnetization       =    19.00 Bohr mag/cell
     absolute magnetization    =    19.03 Bohr mag/cell

     iteration # 13     ecut=   100.00 Ry     beta= 0.40
     Davidson diagonalization with overlap
     ethr =  1.70E-04,  avg # of iterations =  1.7

     negative rho (up, down):  0.000E+00 9.492E-04

     total cpu time spent up to now is    41453.1 secs

     total energy              =   -2125.90575358 Ry
     estimated scf accuracy    <       0.16309702 Ry

     total magnetization       =    19.00 Bohr mag/cell
     absolute magnetization    =    19.03 Bohr mag/cell

     iteration # 14     ecut=   100.00 Ry     beta= 0.40
     Davidson diagonalization with overlap
     ethr =  8.63E-05,  avg # of iterations =  4.0

     negative rho (up, down):  0.000E+00 9.873E-04

     total cpu time spent up to now is    44690.7 secs

     total energy              =   -2125.90463839 Ry
     estimated scf accuracy    <       0.12472627 Ry

     total magnetization       =    19.00 Bohr mag/cell
     absolute magnetization    =    19.04 Bohr mag/cell

     iteration # 15     ecut=   100.00 Ry     beta= 0.40
     Davidson diagonalization with overlap
     c_bands:  1 eigenvalues not converged
     ethr =  6.60E-05,  avg # of iterations =  3.3

     negative rho (up, down):  0.000E+00 1.042E-03

     total cpu time spent up to now is    47836.6 secs

     total energy              =   -2125.90574757 Ry
     estimated scf accuracy    <       0.02389448 Ry

     total magnetization       =    19.00 Bohr mag/cell
     absolute magnetization    =    19.04 Bohr mag/cell

     iteration # 16     ecut=   100.00 Ry     beta= 0.40
     Davidson diagonalization with overlap
     c_bands:  2 eigenvalues not converged
     c_bands:  1 eigenvalues not converged
     c_bands:  1 eigenvalues not converged
     c_bands:  1 eigenvalues not converged
     c_bands:  1 eigenvalues not converged
     c_bands:  1 eigenvalues not converged
     c_bands:  1 eigenvalues not converged
     c_bands:  1 eigenvalues not converged
     c_bands:  1 eigenvalues not converged
     c_bands:  1 eigenvalues not converged
     c_bands:  1 eigenvalues not converged
     c_bands:  1 eigenvalues not converged
     c_bands:  1 eigenvalues not converged
     c_bands:  1 eigenvalues not converged
     c_bands:  1 eigenvalues not converged
     c_bands:  1 eigenvalues not converged
     c_bands:  1 eigenvalues not converged
     c_bands:  1 eigenvalues not converged
     c_bands:  1 eigenvalues not converged
     c_bands:  1 eigenvalues not converged
     c_bands:  1 eigenvalues not converged
     c_bands:  1 eigenvalues not converged
     c_bands:  1 eigenvalues not converged
     c_bands:  1 eigenvalues not converged
     c_bands:  1 eigenvalues not converged
     c_bands:  1 eigenvalues not converged
     c_bands:  1 eigenvalues not converged
     c_bands:  1 eigenvalues not converged
     c_bands:  1 eigenvalues not converged
     c_bands:  1 eigenvalues not converged
     c_bands:  1 eigenvalues not converged
     c_bands:  1 eigenvalues not converged
     c_bands:  1 eigenvalues not converged
     c_bands:  1 eigenvalues not converged
     c_bands:  1 eigenvalues not converged
     c_bands:  1 eigenvalues not converged
     c_bands:  1 eigenvalues not converged
     c_bands:  1 eigenvalues not converged
     c_bands:  1 eigenvalues not converged
     c_bands:  1 eigenvalues not converged
     c_bands:  1 eigenvalues not converged
     c_bands:  1 eigenvalues not converged
     c_bands:  1 eigenvalues not converged
     ethr =  1.26E-05,  avg # of iterations = 15.2

     negative rho (up, down):  0.000E+00 1.033E-03

     total cpu time spent up to now is    52570.5 secs

     total energy              =   -2125.90632995 Ry
     estimated scf accuracy    <       0.20477814 Ry

     total magnetization       =    19.00 Bohr mag/cell
     absolute magnetization    =    19.05 Bohr mag/cell

     iteration # 17     ecut=   100.00 Ry     beta= 0.40
     Davidson diagonalization with overlap
     ethr =  1.26E-05,  avg # of iterations =  1.2

     negative rho (up, down):  0.000E+00 1.020E-03

     total cpu time spent up to now is    55474.2 secs

     total energy              =   -2125.90757242 Ry
     estimated scf accuracy    <       0.01276150 Ry

     total magnetization       =    19.00 Bohr mag/cell
     absolute magnetization    =    19.05 Bohr mag/cell

     iteration # 18     ecut=   100.00 Ry     beta= 0.40
     Davidson diagonalization with overlap
     ethr =  6.75E-06,  avg # of iterations =  1.0

     negative rho (up, down):  0.000E+00 1.017E-03

     total cpu time spent up to now is    58367.7 secs

     total energy              =   -2125.90782385 Ry
     estimated scf accuracy    <       0.00203632 Ry

     total magnetization       =    19.00 Bohr mag/cell
     absolute magnetization    =    19.05 Bohr mag/cell

     iteration # 19     ecut=   100.00 Ry     beta= 0.40
     Davidson diagonalization with overlap
     c_bands:  1 eigenvalues not converged
     c_bands:  1 eigenvalues not converged
     c_bands:  1 eigenvalues not converged
     c_bands:  1 eigenvalues not converged
     c_bands:  1 eigenvalues not converged
     c_bands:  1 eigenvalues not converged
     c_bands:  1 eigenvalues not converged
     c_bands:  1 eigenvalues not converged
     c_bands:  1 eigenvalues not converged
     c_bands:  1 eigenvalues not converged
     c_bands:  1 eigenvalues not converged
     c_bands:  1 eigenvalues not converged
     c_bands:  1 eigenvalues not converged
     c_bands:  1 eigenvalues not converged
     c_bands:  1 eigenvalues not converged
     c_bands:  1 eigenvalues not converged
     c_bands:  1 eigenvalues not converged
     ethr =  1.08E-06,  avg # of iterations =  5.4

     negative rho (up, down):  0.000E+00 1.008E-03

     total cpu time spent up to now is    61764.0 secs

     total energy              =   -2125.90761381 Ry
     estimated scf accuracy    <       0.00921078 Ry

     total magnetization       =    19.00 Bohr mag/cell
     absolute magnetization    =    19.05 Bohr mag/cell

     iteration # 20     ecut=   100.00 Ry     beta= 0.40
     Davidson diagonalization with overlap
     c_bands:  1 eigenvalues not converged
     c_bands:  1 eigenvalues not converged
     ethr =  1.08E-06,  avg # of iterations =  3.4

     negative rho (up, down):  0.000E+00 1.011E-03

     total cpu time spent up to now is    64962.5 secs

     total energy              =   -2125.90785253 Ry
     estimated scf accuracy    <       0.00328161 Ry

     total magnetization       =    19.00 Bohr mag/cell
     absolute magnetization    =    19.05 Bohr mag/cell

     iteration # 21     ecut=   100.00 Ry     beta= 0.40
     Davidson diagonalization with overlap
     ethr =  1.08E-06,  avg # of iterations =  1.0

     negative rho (up, down):  0.000E+00 1.010E-03

     total cpu time spent up to now is    67858.6 secs

     total energy              =   -2125.90790650 Ry
     estimated scf accuracy    <       0.00004884 Ry

     total magnetization       =    19.00 Bohr mag/cell
     absolute magnetization    =    19.05 Bohr mag/cell

     iteration # 22     ecut=   100.00 Ry     beta= 0.40
     Davidson diagonalization with overlap
     ethr =  2.58E-08,  avg # of iterations =  6.0

     negative rho (up, down):  0.000E+00 1.006E-03

     total cpu time spent up to now is    74010.3 secs

     total energy              =   -2125.90795624 Ry
     estimated scf accuracy    <       0.00000907 Ry

     total magnetization       =    19.00 Bohr mag/cell
     absolute magnetization    =    19.06 Bohr mag/cell

     iteration # 23     ecut=   100.00 Ry     beta= 0.40
     Davidson diagonalization with overlap
     ethr =  4.80E-09,  avg # of iterations =  2.0

     negative rho (up, down):  0.000E+00 1.006E-03

     total cpu time spent up to now is    77190.5 secs

     total energy              =   -2125.90795890 Ry
     estimated scf accuracy    <       0.00001255 Ry

     total magnetization       =    19.00 Bohr mag/cell
     absolute magnetization    =    19.06 Bohr mag/cell

     iteration # 24     ecut=   100.00 Ry     beta= 0.40
     Davidson diagonalization with overlap
     ethr =  4.80E-09,  avg # of iterations =  1.0

     negative rho (up, down):  0.000E+00 1.004E-03

     total cpu time spent up to now is    80074.9 secs

     total energy              =   -2125.90796041 Ry
     estimated scf accuracy    <       0.00001284 Ry

     total magnetization       =    19.00 Bohr mag/cell
     absolute magnetization    =    19.06 Bohr mag/cell

     iteration # 25     ecut=   100.00 Ry     beta= 0.40
     Davidson diagonalization with overlap
     ethr =  4.80E-09,  avg # of iterations =  2.0

     negative rho (up, down):  0.000E+00 1.005E-03

     total cpu time spent up to now is    83160.5 secs

     total energy              =   -2125.90796157 Ry
     estimated scf accuracy    <       0.00000706 Ry

     total magnetization       =    19.00 Bohr mag/cell
     absolute magnetization    =    19.06 Bohr mag/cell

     iteration # 26     ecut=   100.00 Ry     beta= 0.40
     Davidson diagonalization with overlap
     ethr =  3.73E-09,  avg # of iterations =  1.0

     negative rho (up, down):  0.000E+00 1.003E-03

     total cpu time spent up to now is    86056.6 secs

     total energy              =   -2125.90796196 Ry
     estimated scf accuracy    <       0.00000752 Ry

     total magnetization       =    19.00 Bohr mag/cell
     absolute magnetization    =    19.06 Bohr mag/cell

     iteration # 27     ecut=   100.00 Ry     beta= 0.40
     Davidson diagonalization with overlap
     ethr =  3.73E-09,  avg # of iterations =  2.0

     negative rho (up, down):  0.000E+00 1.004E-03

     total cpu time spent up to now is    89115.7 secs

     total energy              =   -2125.90796290 Ry
     estimated scf accuracy    <       0.00000121 Ry

     total magnetization       =    19.00 Bohr mag/cell
     absolute magnetization    =    19.06 Bohr mag/cell

     iteration # 28     ecut=   100.00 Ry     beta= 0.40
     Davidson diagonalization with overlap
     ethr =  6.40E-10,  avg # of iterations =  2.0

     negative rho (up, down):  0.000E+00 1.004E-03

     total cpu time spent up to now is    92311.3 secs

     total energy              =   -2125.90796348 Ry
     estimated scf accuracy    <       0.00000170 Ry

     total magnetization       =    19.00 Bohr mag/cell
     absolute magnetization    =    19.06 Bohr mag/cell

     iteration # 29     ecut=   100.00 Ry     beta= 0.40
     Davidson diagonalization with overlap
     ethr =  6.40E-10,  avg # of iterations =  2.0

     negative rho (up, down):  0.000E+00 1.004E-03

     total cpu time spent up to now is    95355.7 secs

     total energy              =   -2125.90796364 Ry
     estimated scf accuracy    <       0.00000115 Ry

     total magnetization       =    19.00 Bohr mag/cell
     absolute magnetization    =    19.06 Bohr mag/cell

     iteration # 30     ecut=   100.00 Ry     beta= 0.40
     Davidson diagonalization with overlap
     ethr =  6.07E-10,  avg # of iterations =  1.0

     negative rho (up, down):  0.000E+00 1.004E-03

     total cpu time spent up to now is    98245.6 secs

     total energy              =   -2125.90796373 Ry
     estimated scf accuracy    <       0.00000077 Ry

     total magnetization       =    19.00 Bohr mag/cell
     absolute magnetization    =    19.06 Bohr mag/cell

     iteration # 31     ecut=   100.00 Ry     beta= 0.40
     Davidson diagonalization with overlap
     ethr =  4.09E-10,  avg # of iterations =  1.0

     negative rho (up, down):  0.000E+00 1.004E-03

     total cpu time spent up to now is   101131.1 secs

     total energy              =   -2125.90796377 Ry
     estimated scf accuracy    <       0.00000015 Ry

     total magnetization       =    19.00 Bohr mag/cell
     absolute magnetization    =    19.06 Bohr mag/cell

     iteration # 32     ecut=   100.00 Ry     beta= 0.40
     Davidson diagonalization with overlap
     ethr =  7.77E-11,  avg # of iterations =  2.3

     negative rho (up, down):  0.000E+00 1.004E-03

     total cpu time spent up to now is   104263.4 secs

     total energy              =   -2125.90796380 Ry
     estimated scf accuracy    <       0.00000008 Ry

     total magnetization       =    19.00 Bohr mag/cell
     absolute magnetization    =    19.06 Bohr mag/cell

     iteration # 33     ecut=   100.00 Ry     beta= 0.40
     Davidson diagonalization with overlap
     ethr =  4.31E-11,  avg # of iterations =  2.3

     negative rho (up, down):  0.000E+00 1.004E-03

     total cpu time spent up to now is   107480.5 secs

     total energy              =   -2125.90796382 Ry
     estimated scf accuracy    <       0.00000002 Ry

     total magnetization       =    19.00 Bohr mag/cell
     absolute magnetization    =    19.06 Bohr mag/cell

     iteration # 34     ecut=   100.00 Ry     beta= 0.40
     Davidson diagonalization with overlap
     ethr =  8.34E-12,  avg # of iterations =  4.8

     negative rho (up, down):  0.000E+00 1.004E-03

     total cpu time spent up to now is   112319.6 secs

     total energy              =   -2125.90796385 Ry
     estimated scf accuracy    <       0.00000003 Ry

     total magnetization       =    19.00 Bohr mag/cell
     absolute magnetization    =    19.06 Bohr mag/cell

     iteration # 35     ecut=   100.00 Ry     beta= 0.40
     Davidson diagonalization with overlap
     ethr =  8.34E-12,  avg # of iterations =  1.2

     negative rho (up, down):  0.000E+00 1.004E-03

     total cpu time spent up to now is   115229.1 secs

     total energy              =   -2125.90796385 Ry
     estimated scf accuracy    <       0.00000007 Ry

     total magnetization       =    19.00 Bohr mag/cell
     absolute magnetization    =    19.06 Bohr mag/cell

     iteration # 36     ecut=   100.00 Ry     beta= 0.40
     Davidson diagonalization with overlap
     ethr =  8.34E-12,  avg # of iterations =  2.0

     negative rho (up, down):  0.000E+00 1.004E-03

     total cpu time spent up to now is   118273.1 secs

     total energy              =   -2125.90796385 Ry
     estimated scf accuracy    <       0.00000001 Ry

     total magnetization       =    19.00 Bohr mag/cell
     absolute magnetization    =    19.06 Bohr mag/cell

     iteration # 37     ecut=   100.00 Ry     beta= 0.40
     Davidson diagonalization with overlap
     ethr =  6.18E-12,  avg # of iterations =  1.5

     negative rho (up, down):  0.000E+00 1.004E-03

     total cpu time spent up to now is   121236.6 secs

     total energy              =   -2125.90796385 Ry
     estimated scf accuracy    <          1.2E-09 Ry

     total magnetization       =    19.00 Bohr mag/cell
     absolute magnetization    =    19.06 Bohr mag/cell

     iteration # 38     ecut=   100.00 Ry     beta= 0.40
     Davidson diagonalization with overlap
     ethr =  6.18E-13,  avg # of iterations =  2.2

     negative rho (up, down):  0.000E+00 1.004E-03

     total cpu time spent up to now is   124453.4 secs

     total energy              =   -2125.90796385 Ry
     estimated scf accuracy    <          3.6E-09 Ry

     total magnetization       =    19.00 Bohr mag/cell
     absolute magnetization    =    19.06 Bohr mag/cell

     iteration # 39     ecut=   100.00 Ry     beta= 0.40
     Davidson diagonalization with overlap
     ethr =  6.18E-13,  avg # of iterations =  2.0

     negative rho (up, down):  0.000E+00 1.004E-03

     total cpu time spent up to now is   127540.8 secs

     total energy              =   -2125.90796385 Ry
     estimated scf accuracy    <          2.6E-09 Ry

     total magnetization       =    19.00 Bohr mag/cell
     absolute magnetization    =    19.06 Bohr mag/cell

     iteration # 40     ecut=   100.00 Ry     beta= 0.40
     Davidson diagonalization with overlap
     ethr =  6.18E-13,  avg # of iterations =  2.0

     negative rho (up, down):  0.000E+00 1.004E-03

     total cpu time spent up to now is   130620.4 secs

     total energy              =   -2125.90796385 Ry
     estimated scf accuracy    <          1.7E-09 Ry

     total magnetization       =    19.00 Bohr mag/cell
     absolute magnetization    =    19.06 Bohr mag/cell

     iteration # 41     ecut=   100.00 Ry     beta= 0.40
     Davidson diagonalization with overlap
     ethr =  6.18E-13,  avg # of iterations =  1.0

     negative rho (up, down):  0.000E+00 1.004E-03

     total cpu time spent up to now is   133506.4 secs

     total energy              =   -2125.90796385 Ry
     estimated scf accuracy    <          5.2E-10 Ry

     total magnetization       =    19.00 Bohr mag/cell
     absolute magnetization    =    19.06 Bohr mag/cell

     iteration # 42     ecut=   100.00 Ry     beta= 0.40
     Davidson diagonalization with overlap
     ethr =  2.75E-13,  avg # of iterations =  1.0

     negative rho (up, down):  0.000E+00 1.004E-03

     Magnetic moment per site:
     atom:    1    charge:    7.9645    magn:    0.0012    constr:    0.0000
     atom:    2    charge:   13.0778    magn:    3.7205    constr:    0.0000
     atom:    3    charge:   13.0899    magn:    3.6837    constr:    0.0000
     atom:    4    charge:   13.0751    magn:    3.7295    constr:    0.0000
     atom:    5    charge:   13.1071    magn:    3.6442    constr:    0.0000
     atom:    6    charge:    0.9388    magn:    0.0093    constr:    0.0000
     atom:    7    charge:    0.9298    magn:    0.0104    constr:    0.0000
     atom:    8    charge:    0.9355    magn:    0.0094    constr:    0.0000
     atom:    9    charge:    0.9307    magn:    0.0113    constr:    0.0000
     atom:   10    charge:    4.4519    magn:    0.1043    constr:    0.0000
     atom:   11    charge:    4.4385    magn:    0.1279    constr:    0.0000
     atom:   12    charge:    4.4362    magn:    0.1287    constr:    0.0000
     atom:   13    charge:    4.4393    magn:    0.1197    constr:    0.0000
     atom:   14    charge:    4.4344    magn:    0.1326    constr:    0.0000
     atom:   15    charge:    4.4305    magn:    0.1075    constr:    0.0000
     atom:   16    charge:    4.4300    magn:    0.1305    constr:    0.0000
     atom:   17    charge:    4.4322    magn:    0.0981    constr:    0.0000
     atom:   18    charge:    4.4214    magn:    0.1326    constr:    0.0000
     atom:   19    charge:    4.4177    magn:    0.1520    constr:    0.0000
     atom:   20    charge:    4.4261    magn:    0.1175    constr:    0.0000
     atom:   21    charge:    4.4192    magn:    0.1525    constr:    0.0000
     atom:   22    charge:    4.4288    magn:    0.1345    constr:    0.0000
     atom:   23    charge:    4.4203    magn:    0.1449    constr:    0.0000
     atom:   24    charge:    4.4289    magn:    0.1260    constr:    0.0000
     atom:   25    charge:    4.4113    magn:    0.1535    constr:    0.0000

     total cpu time spent up to now is   136381.4 secs

     End of self-consistent calculation

 ------ SPIN UP ------------


          k = 0.0000 0.0000 0.0000 ( 42261 PWs)   bands (ev):

   -87.1058 -87.0931 -86.8533 -86.7027 -53.1786 -53.1578 -53.0583 -53.0438
   -53.0411 -53.0227 -53.0073 -52.9544 -52.8146 -52.6884 -52.6493 -52.4916
   -46.2357 -18.2263 -18.2045 -18.1592 -16.7591 -16.6072 -16.5301 -16.3963
   -14.8073 -14.6614 -14.5894 -14.5523 -14.5279 -14.5031 -14.4800 -14.4494
   -14.3940 -14.3795 -14.3570 -14.3209  -5.4759  -5.1693  -4.9863  -4.8056
    -3.1740  -3.0491  -2.9242  -2.7668  -2.5665  -2.3905  -2.3661  -2.2529
    -2.1233  -2.1015  -2.0722  -1.9348  -1.3166  -1.2652  -0.9803  -0.8881
    -0.8756  -0.8437  -0.8414  -0.6961  -0.6741  -0.6566  -0.5136  -0.4776
    -0.2547  -0.1574  -0.1366   0.0958   0.1952   0.2385   0.3117   0.3617
     0.4958   0.6111   0.6701   0.7596   0.8403   0.9428   0.9745   1.1035
     1.1501   1.1874   1.2408   1.2769   1.4054   1.4676   1.6707   1.7501
     1.8115   1.8387   1.9164   1.9284   2.0116   2.1463   2.1933   2.2740
     2.3615   2.4062   2.4869   2.5638   2.6282   2.6862   2.9606   3.0377
     6.5308   8.3329   8.8952   9.2128   9.6572  10.1986  10.3307  10.8138
    10.9976  11.0216

     occupation numbers 
     1.0000   1.0000   1.0000   1.0000   1.0000   1.0000   1.0000   1.0000
     1.0000   1.0000   1.0000   1.0000   1.0000   1.0000   1.0000   1.0000
     1.0000   1.0000   1.0000   1.0000   1.0000   1.0000   1.0000   1.0000
     1.0000   1.0000   1.0000   1.0000   1.0000   1.0000   1.0000   1.0000
     1.0000   1.0000   1.0000   1.0000   1.0000   1.0000   1.0000   1.0000
     1.0000   1.0000   1.0000   1.0000   1.0000   1.0000   1.0000   1.0000
     1.0000   1.0000   1.0000   1.0000   1.0000   1.0000   1.0000   1.0000
     1.0000   1.0000   1.0000   1.0000   1.0000   1.0000   1.0000   1.0000
     1.0000   1.0000   1.0000   1.0000   1.0000   1.0000   1.0000   1.0000
     1.0000   1.0000   1.0000   1.0000   1.0000   1.0000   1.0000   1.0000
     1.0000   1.0000   1.0000   1.0000   1.0000   1.0000   1.0000   1.0000
     1.0000   1.0000   1.0000   1.0000   1.0000   1.0000   1.0000   1.0000
     1.0000   1.0000   1.0000   1.0000   1.0000   1.0000   1.0000   1.0000
     0.0000   0.0000   0.0000   0.0000   0.0000   0.0000   0.0000   0.0000
     0.0000   0.0000

          k = 0.0000 0.0000 0.2337 ( 42279 PWs)   bands (ev):

   -87.1058 -87.0931 -86.8533 -86.7027 -53.1786 -53.1578 -53.0583 -53.0438
   -53.0411 -53.0227 -53.0073 -52.9544 -52.8146 -52.6884 -52.6493 -52.4916
   -46.2357 -18.2269 -18.2041 -18.1599 -16.7499 -16.5994 -16.5252 -16.3941
   -14.8137 -14.6724 -14.5891 -14.5576 -14.5351 -14.5039 -14.4819 -14.4508
   -14.3969 -14.3837 -14.3569 -14.3204  -5.4538  -5.1625  -4.9796  -4.8025
    -3.1486  -3.0407  -2.9164  -2.7559  -2.5622  -2.3912  -2.3621  -2.2253
    -2.1367  -2.0964  -2.0611  -1.9387  -1.3046  -1.2542  -0.9988  -0.8914
    -0.8686  -0.8544  -0.8140  -0.7054  -0.6686  -0.6440  -0.5322  -0.4736
    -0.2787  -0.1587  -0.1157   0.0901   0.1694   0.2175   0.2778   0.3823
     0.4916   0.5908   0.6824   0.7241   0.8000   0.9258   0.9879   1.0944
     1.1466   1.2029   1.2480   1.2933   1.3859   1.4384   1.6586   1.7135
     1.7878   1.8425   1.8946   1.9710   1.9999   2.1486   2.1994   2.2921
     2.3681   2.3984   2.4933   2.5571   2.6345   2.6815   2.9600   3.0317
     6.6669   8.4086   8.9248   9.2357   9.6848  10.1661  10.3026  10.7320
    10.9704  11.0020

     occupation numbers 
     1.0000   1.0000   1.0000   1.0000   1.0000   1.0000   1.0000   1.0000
     1.0000   1.0000   1.0000   1.0000   1.0000   1.0000   1.0000   1.0000
     1.0000   1.0000   1.0000   1.0000   1.0000   1.0000   1.0000   1.0000
     1.0000   1.0000   1.0000   1.0000   1.0000   1.0000   1.0000   1.0000
     1.0000   1.0000   1.0000   1.0000   1.0000   1.0000   1.0000   1.0000
     1.0000   1.0000   1.0000   1.0000   1.0000   1.0000   1.0000   1.0000
     1.0000   1.0000   1.0000   1.0000   1.0000   1.0000   1.0000   1.0000
     1.0000   1.0000   1.0000   1.0000   1.0000   1.0000   1.0000   1.0000
     1.0000   1.0000   1.0000   1.0000   1.0000   1.0000   1.0000   1.0000
     1.0000   1.0000   1.0000   1.0000   1.0000   1.0000   1.0000   1.0000
     1.0000   1.0000   1.0000   1.0000   1.0000   1.0000   1.0000   1.0000
     1.0000   1.0000   1.0000   1.0000   1.0000   1.0000   1.0000   1.0000
     1.0000   1.0000   1.0000   1.0000   1.0000   1.0000   1.0000   1.0000
     0.0000   0.0000   0.0000   0.0000   0.0000   0.0000   0.0000   0.0000
     0.0000   0.0000

          k = 0.0000 0.0000 0.4675 ( 42247 PWs)   bands (ev):

   -87.1058 -87.0931 -86.8533 -86.7027 -53.1786 -53.1578 -53.0583 -53.0438
   -53.0411 -53.0227 -53.0073 -52.9544 -52.8146 -52.6884 -52.6493 -52.4916
   -46.2357 -18.2286 -18.2033 -18.1616 -16.7262 -16.5781 -16.5134 -16.3890
   -14.8306 -14.7003 -14.5908 -14.5778 -14.5452 -14.5077 -14.4847 -14.4568
   -14.4070 -14.3877 -14.3561 -14.3204  -5.3943  -5.1451  -4.9624  -4.8016
    -3.0854  -3.0186  -2.8855  -2.7371  -2.5521  -2.3873  -2.3497  -2.1941
    -2.1449  -2.0717  -2.0281  -1.9482  -1.2737  -1.2212  -1.0174  -0.8924
    -0.8867  -0.8521  -0.7513  -0.7279  -0.6630  -0.6108  -0.5641  -0.4771
    -0.3063  -0.1668  -0.0903   0.0713   0.1140   0.1659   0.2155   0.3931
     0.4539   0.5216   0.6247   0.7268   0.7615   0.8966   0.9764   1.0579
     1.1215   1.1910   1.2710   1.3026   1.3403   1.3894   1.6139   1.6457
     1.7150   1.8216   1.9537   1.9753   2.0760   2.1446   2.2276   2.3067
     2.3722   2.4223   2.5103   2.5391   2.6484   2.6746   2.9449   3.0202
     7.0297   8.6109   8.9628   9.3072   9.7757  10.0950  10.1868  10.5737
    10.8444  10.8848

     occupation numbers 
     1.0000   1.0000   1.0000   1.0000   1.0000   1.0000   1.0000   1.0000
     1.0000   1.0000   1.0000   1.0000   1.0000   1.0000   1.0000   1.0000
     1.0000   1.0000   1.0000   1.0000   1.0000   1.0000   1.0000   1.0000
     1.0000   1.0000   1.0000   1.0000   1.0000   1.0000   1.0000   1.0000
     1.0000   1.0000   1.0000   1.0000   1.0000   1.0000   1.0000   1.0000
     1.0000   1.0000   1.0000   1.0000   1.0000   1.0000   1.0000   1.0000
     1.0000   1.0000   1.0000   1.0000   1.0000   1.0000   1.0000   1.0000
     1.0000   1.0000   1.0000   1.0000   1.0000   1.0000   1.0000   1.0000
     1.0000   1.0000   1.0000   1.0000   1.0000   1.0000   1.0000   1.0000
     1.0000   1.0000   1.0000   1.0000   1.0000   1.0000   1.0000   1.0000
     1.0000   1.0000   1.0000   1.0000   1.0000   1.0000   1.0000   1.0000
     1.0000   1.0000   1.0000   1.0000   1.0000   1.0000   1.0000   1.0000
     1.0000   1.0000   1.0000   1.0000   1.0000   1.0000   1.0000   1.0000
     0.0000   0.0000   0.0000   0.0000   0.0000   0.0000   0.0000   0.0000
     0.0000   0.0000

          k = 0.0000 0.0000 0.7012 ( 42239 PWs)   bands (ev):

   -87.1058 -87.0931 -86.8533 -86.7027 -53.1786 -53.1578 -53.0583 -53.0438
   -53.0411 -53.0227 -53.0073 -52.9544 -52.8146 -52.6884 -52.6493 -52.4916
   -46.2357 -18.2305 -18.2024 -18.1633 -16.6983 -16.5499 -16.5019 -16.3848
   -14.8504 -14.7321 -14.6169 -14.5827 -14.5529 -14.5154 -14.4871 -14.4671
   -14.4137 -14.3874 -14.3553 -14.3219  -5.3181  -5.1249  -4.9425  -4.8159
    -3.0415  -2.9647  -2.8351  -2.7261  -2.5365  -2.3791  -2.3350  -2.2433
    -2.0935  -2.0443  -1.9910  -1.9237  -1.2353  -1.1705  -1.0140  -0.9074
    -0.8739  -0.8320  -0.7902  -0.6688  -0.6362  -0.5815  -0.5645  -0.5002
    -0.3184  -0.1928  -0.1036   0.0039   0.0781   0.1022   0.1379   0.2991
     0.4141   0.4954   0.5725   0.7116   0.7717   0.8859   0.9187   0.9821
     1.0428   1.1863   1.2270   1.2644   1.3320   1.4130   1.5171   1.5843
     1.6770   1.8297   1.9507   2.0549   2.1198   2.2132   2.2704   2.3182
     2.3667   2.4843   2.5150   2.5331   2.6513   2.6783   2.9094   3.0055
     7.5244   8.7853   8.9882   9.4279   9.7868   9.9709  10.1448  10.4631
    10.6860  10.7518

     occupation numbers 
     1.0000   1.0000   1.0000   1.0000   1.0000   1.0000   1.0000   1.0000
     1.0000   1.0000   1.0000   1.0000   1.0000   1.0000   1.0000   1.0000
     1.0000   1.0000   1.0000   1.0000   1.0000   1.0000   1.0000   1.0000
     1.0000   1.0000   1.0000   1.0000   1.0000   1.0000   1.0000   1.0000
     1.0000   1.0000   1.0000   1.0000   1.0000   1.0000   1.0000   1.0000
     1.0000   1.0000   1.0000   1.0000   1.0000   1.0000   1.0000   1.0000
     1.0000   1.0000   1.0000   1.0000   1.0000   1.0000   1.0000   1.0000
     1.0000   1.0000   1.0000   1.0000   1.0000   1.0000   1.0000   1.0000
     1.0000   1.0000   1.0000   1.0000   1.0000   1.0000   1.0000   1.0000
     1.0000   1.0000   1.0000   1.0000   1.0000   1.0000   1.0000   1.0000
     1.0000   1.0000   1.0000   1.0000   1.0000   1.0000   1.0000   1.0000
     1.0000   1.0000   1.0000   1.0000   1.0000   1.0000   1.0000   1.0000
     1.0000   1.0000   1.0000   1.0000   1.0000   1.0000   1.0000   1.0000
     0.0000   0.0000   0.0000   0.0000   0.0000   0.0000   0.0000   0.0000
     0.0000   0.0000

          k = 0.0000 0.0000 0.9349 ( 42234 PWs)   bands (ev):

   -87.1058 -87.0931 -86.8533 -86.7027 -53.1786 -53.1578 -53.0583 -53.0438
   -53.0411 -53.0227 -53.0073 -52.9544 -52.8146 -52.6884 -52.6493 -52.4916
   -46.2357 -18.2319 -18.2019 -18.1643 -16.6795 -16.5258 -16.4984 -16.3833
   -14.8634 -14.7531 -14.6396 -14.5803 -14.5591 -14.5236 -14.4896 -14.4719
   -14.4153 -14.3857 -14.3552 -14.3237  -5.2608  -5.1105  -4.9288  -4.8383
    -3.0309  -2.9124  -2.7935  -2.7231  -2.5152  -2.3845  -2.3279  -2.2691
    -2.0911  -2.0314  -1.9600  -1.8720  -1.1970  -1.1322  -0.9976  -0.9195
    -0.8610  -0.8305  -0.8000  -0.6403  -0.5779  -0.5482  -0.5434  -0.4780
    -0.3596  -0.2689  -0.1890  -0.0780   0.0332   0.0697   0.1006   0.2815
     0.3758   0.5191   0.5626   0.7020   0.7527   0.7956   0.8943   0.9317
     1.0071   1.1824   1.2099   1.2614   1.3084   1.4135   1.4543   1.5529
     1.6693   1.8411   1.9774   2.0401   2.1448   2.2596   2.3305   2.3516
     2.3933   2.4897   2.5256   2.5452   2.6478   2.6821   2.8776   2.9881
     8.0557   8.5264   9.2598   9.5438   9.5870   9.7986  10.3708  10.4346
    10.5721  10.6214

     occupation numbers 
     1.0000   1.0000   1.0000   1.0000   1.0000   1.0000   1.0000   1.0000
     1.0000   1.0000   1.0000   1.0000   1.0000   1.0000   1.0000   1.0000
     1.0000   1.0000   1.0000   1.0000   1.0000   1.0000   1.0000   1.0000
     1.0000   1.0000   1.0000   1.0000   1.0000   1.0000   1.0000   1.0000
     1.0000   1.0000   1.0000   1.0000   1.0000   1.0000   1.0000   1.0000
     1.0000   1.0000   1.0000   1.0000   1.0000   1.0000   1.0000   1.0000
     1.0000   1.0000   1.0000   1.0000   1.0000   1.0000   1.0000   1.0000
     1.0000   1.0000   1.0000   1.0000   1.0000   1.0000   1.0000   1.0000
     1.0000   1.0000   1.0000   1.0000   1.0000   1.0000   1.0000   1.0000
     1.0000   1.0000   1.0000   1.0000   1.0000   1.0000   1.0000   1.0000
     1.0000   1.0000   1.0000   1.0000   1.0000   1.0000   1.0000   1.0000
     1.0000   1.0000   1.0000   1.0000   1.0000   1.0000   1.0000   1.0000
     1.0000   1.0000   1.0000   1.0000   1.0000   1.0000   1.0000   1.0000
     0.0000   0.0000   0.0000   0.0000   0.0000   0.0000   0.0000   0.0000
     0.0000   0.0000

          k = 0.0000 0.2391 0.0000 ( 42299 PWs)   bands (ev):

   -87.1058 -87.0931 -86.8533 -86.7027 -53.1786 -53.1578 -53.0583 -53.0438
   -53.0411 -53.0227 -53.0073 -52.9544 -52.8146 -52.6884 -52.6493 -52.4916
   -46.2357 -18.2263 -18.2047 -18.1592 -16.7482 -16.6039 -16.5297 -16.4069
   -14.8078 -14.6662 -14.5989 -14.5600 -14.5371 -14.4988 -14.4780 -14.4466
   -14.3905 -14.3757 -14.3537 -14.3176  -5.4562  -5.1666  -4.9861  -4.8087
    -3.1485  -3.0240  -2.9257  -2.7666  -2.5482  -2.3895  -2.3487  -2.2431
    -2.1491  -2.0895  -2.0543  -1.9262  -1.3197  -1.2689  -0.9969  -0.9547
    -0.8867  -0.8653  -0.8251  -0.7411  -0.6804  -0.6246  -0.4988  -0.3865
    -0.2745  -0.1779  -0.1074   0.0788   0.1417   0.1571   0.3151   0.3824
     0.5066   0.5618   0.6634   0.6998   0.8231   0.9107   0.9736   1.1258
     1.1711   1.2023   1.2514   1.3193   1.4059   1.4602   1.6763   1.7229
     1.7736   1.8285   1.8956   1.9845   2.0157   2.1314   2.1741   2.2862
     2.3631   2.3983   2.4819   2.5594   2.5768   2.7717   2.9799   3.0443
     6.6778   8.4050   8.9660   9.1027   9.6494  10.1824  10.3836  10.7700
    11.0243  11.0503

     occupation numbers 
     1.0000   1.0000   1.0000   1.0000   1.0000   1.0000   1.0000   1.0000
     1.0000   1.0000   1.0000   1.0000   1.0000   1.0000   1.0000   1.0000
     1.0000   1.0000   1.0000   1.0000   1.0000   1.0000   1.0000   1.0000
     1.0000   1.0000   1.0000   1.0000   1.0000   1.0000   1.0000   1.0000
     1.0000   1.0000   1.0000   1.0000   1.0000   1.0000   1.0000   1.0000
     1.0000   1.0000   1.0000   1.0000   1.0000   1.0000   1.0000   1.0000
     1.0000   1.0000   1.0000   1.0000   1.0000   1.0000   1.0000   1.0000
     1.0000   1.0000   1.0000   1.0000   1.0000   1.0000   1.0000   1.0000
     1.0000   1.0000   1.0000   1.0000   1.0000   1.0000   1.0000   1.0000
     1.0000   1.0000   1.0000   1.0000   1.0000   1.0000   1.0000   1.0000
     1.0000   1.0000   1.0000   1.0000   1.0000   1.0000   1.0000   1.0000
     1.0000   1.0000   1.0000   1.0000   1.0000   1.0000   1.0000   1.0000
     1.0000   1.0000   1.0000   1.0000   1.0000   1.0000   1.0000   1.0000
     0.0000   0.0000   0.0000   0.0000   0.0000   0.0000   0.0000   0.0000
     0.0000   0.0000

          k = 0.0000 0.2391 0.2337 ( 42264 PWs)   bands (ev):

   -87.1058 -87.0931 -86.8533 -86.7027 -53.1786 -53.1578 -53.0583 -53.0438
   -53.0411 -53.0227 -53.0073 -52.9544 -52.8146 -52.6884 -52.6493 -52.4916
   -46.2357 -18.2268 -18.2043 -18.1599 -16.7408 -16.5977 -16.5260 -16.3996
   -14.8136 -14.6761 -14.6038 -14.5673 -14.5460 -14.4990 -14.4687 -14.4472
   -14.3988 -14.3813 -14.3504 -14.3196  -5.4349  -5.1591  -4.9795  -4.8033
    -3.1262  -3.0172  -2.9246  -2.7504  -2.5396  -2.3820  -2.3290  -2.2231
    -2.1429  -2.0844  -2.0657  -1.9446  -1.3158  -1.2628  -1.0290  -0.9305
    -0.9039  -0.8316  -0.8240  -0.7227  -0.6923  -0.6406  -0.4816  -0.3957
    -0.3064  -0.1833  -0.0886   0.0638   0.1396   0.1579   0.2697   0.4243
     0.4732   0.5315   0.6463   0.7232   0.8286   0.9134   0.9664   1.1217
     1.1544   1.1945   1.2245   1.3112   1.3762   1.4536   1.6629   1.6973
     1.7756   1.7959   1.9099   1.9461   2.0169   2.1398   2.2047   2.2905
     2.3595   2.4053   2.4854   2.5784   2.5943   2.7706   2.9589   3.0513
     6.8059   8.4892   9.0004   9.1320   9.6651  10.1367  10.3752  10.7086
    10.9685  11.0313

     occupation numbers 
     1.0000   1.0000   1.0000   1.0000   1.0000   1.0000   1.0000   1.0000
     1.0000   1.0000   1.0000   1.0000   1.0000   1.0000   1.0000   1.0000
     1.0000   1.0000   1.0000   1.0000   1.0000   1.0000   1.0000   1.0000
     1.0000   1.0000   1.0000   1.0000   1.0000   1.0000   1.0000   1.0000
     1.0000   1.0000   1.0000   1.0000   1.0000   1.0000   1.0000   1.0000
     1.0000   1.0000   1.0000   1.0000   1.0000   1.0000   1.0000   1.0000
     1.0000   1.0000   1.0000   1.0000   1.0000   1.0000   1.0000   1.0000
     1.0000   1.0000   1.0000   1.0000   1.0000   1.0000   1.0000   1.0000
     1.0000   1.0000   1.0000   1.0000   1.0000   1.0000   1.0000   1.0000
     1.0000   1.0000   1.0000   1.0000   1.0000   1.0000   1.0000   1.0000
     1.0000   1.0000   1.0000   1.0000   1.0000   1.0000   1.0000   1.0000
     1.0000   1.0000   1.0000   1.0000   1.0000   1.0000   1.0000   1.0000
     1.0000   1.0000   1.0000   1.0000   1.0000   1.0000   1.0000   1.0000
     0.0000   0.0000   0.0000   0.0000   0.0000   0.0000   0.0000   0.0000
     0.0000   0.0000

          k = 0.0000 0.2391 0.4675 ( 42241 PWs)   bands (ev):

   -87.1058 -87.0931 -86.8533 -86.7027 -53.1786 -53.1578 -53.0583 -53.0438
   -53.0411 -53.0227 -53.0073 -52.9544 -52.8146 -52.6884 -52.6493 -52.4916
   -46.2357 -18.2283 -18.2035 -18.1615 -16.7189 -16.5783 -16.5150 -16.3894
   -14.8302 -14.7014 -14.6153 -14.5883 -14.5527 -14.5025 -14.4640 -14.4512
   -14.4136 -14.3875 -14.3490 -14.3194  -5.3768  -5.1403  -4.9642  -4.7972
    -3.0672  -3.0008  -2.8929  -2.7276  -2.5270  -2.3714  -2.3014  -2.1899
    -2.1585  -2.0749  -2.0395  -1.9516  -1.2945  -1.2402  -1.0498  -0.9234
    -0.9085  -0.8259  -0.7671  -0.7176  -0.7034  -0.6500  -0.4709  -0.4135
    -0.3293  -0.1902  -0.0842   0.0396   0.1030   0.1404   0.1965   0.3758
     0.4469   0.5462   0.6260   0.7176   0.7869   0.9009   0.9340   1.0521
     1.1240   1.1823   1.2399   1.2629   1.3369   1.4136   1.5947   1.6476
     1.7278   1.7946   1.8749   1.9948   2.0702   2.1545   2.2378   2.2907
     2.3665   2.4428   2.4916   2.6011   2.6227   2.7515   2.9391   3.0479
     7.1534   8.7000   9.0367   9.2192   9.7683  10.0675  10.2603  10.5626
    10.7852  10.9600

     occupation numbers 
     1.0000   1.0000   1.0000   1.0000   1.0000   1.0000   1.0000   1.0000
     1.0000   1.0000   1.0000   1.0000   1.0000   1.0000   1.0000   1.0000
     1.0000   1.0000   1.0000   1.0000   1.0000   1.0000   1.0000   1.0000
     1.0000   1.0000   1.0000   1.0000   1.0000   1.0000   1.0000   1.0000
     1.0000   1.0000   1.0000   1.0000   1.0000   1.0000   1.0000   1.0000
     1.0000   1.0000   1.0000   1.0000   1.0000   1.0000   1.0000   1.0000
     1.0000   1.0000   1.0000   1.0000   1.0000   1.0000   1.0000   1.0000
     1.0000   1.0000   1.0000   1.0000   1.0000   1.0000   1.0000   1.0000
     1.0000   1.0000   1.0000   1.0000   1.0000   1.0000   1.0000   1.0000
     1.0000   1.0000   1.0000   1.0000   1.0000   1.0000   1.0000   1.0000
     1.0000   1.0000   1.0000   1.0000   1.0000   1.0000   1.0000   1.0000
     1.0000   1.0000   1.0000   1.0000   1.0000   1.0000   1.0000   1.0000
     1.0000   1.0000   1.0000   1.0000   1.0000   1.0000   1.0000   1.0000
     0.0000   0.0000   0.0000   0.0000   0.0000   0.0000   0.0000   0.0000
     0.0000   0.0000

          k = 0.0000 0.2391 0.7012 ( 42219 PWs)   bands (ev):

   -87.1058 -87.0931 -86.8533 -86.7027 -53.1786 -53.1578 -53.0583 -53.0438
   -53.0411 -53.0227 -53.0073 -52.9544 -52.8146 -52.6884 -52.6493 -52.4916
   -46.2357 -18.2303 -18.2025 -18.1633 -16.6920 -16.5519 -16.5033 -16.3819
   -14.8501 -14.7316 -14.6369 -14.6041 -14.5593 -14.5054 -14.4669 -14.4608
   -14.4206 -14.3903 -14.3487 -14.3189  -5.3022  -5.1183  -4.9486  -4.8039
    -3.0252  -2.9522  -2.8380  -2.7155  -2.5121  -2.3581  -2.2891  -2.2396
    -2.1304  -2.0456  -1.9978  -1.9164  -1.2586  -1.2138  -1.0452  -0.9216
    -0.9029  -0.7968  -0.7712  -0.7412  -0.6372  -0.6137  -0.4816  -0.4297
    -0.3384  -0.2011  -0.1293  -0.0015   0.0479   0.1092   0.1441   0.2885
     0.4433   0.5054   0.5902   0.6736   0.7529   0.8568   0.8808   1.0012
     1.0426   1.1451   1.2490   1.2737   1.3143   1.3618   1.5071   1.6160
     1.6843   1.7820   1.8733   2.0720   2.1276   2.1666   2.2748   2.3220
     2.3714   2.4869   2.5147   2.6196   2.6583   2.7161   2.9146   3.0358
[...]
     atom   17 type  3   force =     0.07103729   -0.02242911    0.01368871
     atom   18 type  3   force =    -0.03333320   -0.06791615    0.02946383
     atom   19 type  3   force =     0.02200981    0.05091825    0.04162574
     atom   20 type  3   force =     0.00077327   -0.07006271   -0.05750008
     atom   21 type  3   force =    -0.01587965    0.06080521   -0.02794946
     atom   22 type  3   force =     0.03637443    0.06223785   -0.02394258
     atom   23 type  3   force =    -0.02461023   -0.05008445   -0.04244536
     atom   24 type  3   force =    -0.00495163    0.06976168    0.05399141
     atom   25 type  3   force =     0.02101668   -0.06032450    0.03137566
     The non-local contrib.  to forces
     atom    1 type  2   force =    -0.05815707   -0.03777785   -0.00108029
     atom    2 type  1   force =     0.03444100   -0.15064654   -0.00234869
     atom    3 type  1   force =    -0.01793568   -0.22887741    0.10563254
     atom    4 type  1   force =    -0.07538436    0.14043545    0.02305979
     atom    5 type  1   force =     0.03619950    0.20777897   -0.10623031
     atom    6 type  4   force =    -0.03899392    0.03938728    0.00322567
     atom    7 type  4   force =    -0.00767518    0.00412942   -0.04599774
     atom    8 type  4   force =     0.02748599   -0.03163496    0.01120755
     atom    9 type  4   force =     0.00486974   -0.00790225    0.04846361
     atom   10 type  3   force =    -0.00584318   -0.07005665   -1.39168932
     atom   11 type  3   force =    -0.16570687    0.12927610   -1.46277728
     atom   12 type  3   force =    -0.08265696    0.06703528    1.46313860
     atom   13 type  3   force =     0.15791830   -0.13745703    1.47625137
     atom   14 type  3   force =     1.32119032   -0.00372884   -0.66308929
     atom   15 type  3   force =    -1.19499204    0.54762750   -0.48861941
     atom   16 type  3   force =    -1.35367348   -0.00678251    0.61890149
     atom   17 type  3   force =     1.18286580   -0.55227655    0.37983105
     atom   18 type  3   force =    -0.61543799   -1.34962079    0.52784318
     atom   19 type  3   force =     0.43446221    0.90095722    0.93280984
     atom   20 type  3   force =     0.02007021   -1.23890690   -1.10354369
     atom   21 type  3   force =    -0.35759448    1.06632652   -0.66696815
     atom   22 type  3   force =     0.70717588    1.25393907   -0.41387104
     atom   23 type  3   force =    -0.48135788   -0.88134369   -0.93435171
     atom   24 type  3   force =    -0.08970996    1.26829455    1.08441979
     atom   25 type  3   force =     0.43452328   -1.04381726    0.71483183
     The ionic contribution  to forces
     atom    1 type  2   force =    -0.99269433    0.48069956    1.63292072
     atom    2 type  1   force =    11.24902463   -2.96143071   -0.60590721
     atom    3 type  1   force =     3.13597398   -2.79894673   -2.19231964
     atom    4 type  1   force =   -10.50022066    1.89964587    1.29239223
     atom    5 type  1   force =    -4.90705077    2.64328296    1.31257224
     atom    6 type  4   force =    -0.20437509   -0.27042095   -0.15272910
     atom    7 type  4   force =     3.83061526    0.35661172    0.60002078
     atom    8 type  4   force =     0.97414165   -0.01227596   -0.02864074
     atom    9 type  4   force =    -4.15450090   -0.10584015   -0.78740088
     atom   10 type  3   force =    -2.71104230   -1.08555542    0.45229027
     atom   11 type  3   force =     8.70594415   -0.61241421    2.01229960
     atom   12 type  3   force =     5.06751296   -0.23384835   -1.74590746
     atom   13 type  3   force =    -9.05354534    1.02925606   -2.08052971
     atom   14 type  3   force =     1.65063571   -0.43644522    6.23626952
     atom   15 type  3   force =    -0.28950586   -0.92707570    3.63319532
     atom   16 type  3   force =    -1.61488364    0.41787093   -6.04823706
     atom   17 type  3   force =     0.47604119    2.11860676   -2.93746289
     atom   18 type  3   force =     0.95073549    5.74045864    2.48788132
     atom   19 type  3   force =     5.71969167   -1.25137564   -3.75610139
     atom   20 type  3   force =     3.26964918    0.60932458    7.50126598
     atom   21 type  3   force =    -6.58867690   -2.67689577    1.15472376
     atom   22 type  3   force =    -1.40948974   -4.17436383   -2.90671445
     atom   23 type  3   force =    -5.49116393    1.68666571    3.74230407
     atom   24 type  3   force =    -2.74119476   -1.82346297   -7.18455716
     atom   25 type  3   force =     5.62837833    2.38792882   -1.63162813
     The local contribution  to forces
     atom    1 type  2   force =     1.05427209   -0.44077387   -1.63003434
     atom    2 type  1   force =   -11.28549095    3.12273319    0.61045156
     atom    3 type  1   force =    -3.11470841    3.04749862    2.07905224
     atom    4 type  1   force =    10.58197141   -2.04936806   -1.31830747
     atom    5 type  1   force =     4.86616149   -2.86792346   -1.19924018
     atom    6 type  4   force =     0.24931426    0.22592299    0.15298182
     atom    7 type  4   force =    -3.82502184   -0.36154143   -0.54660935
     atom    8 type  4   force =    -1.00834039    0.04799256    0.01330008
     atom    9 type  4   force =     4.15262653    0.11394662    0.73126217
     atom   10 type  3   force =     2.71096539    1.15423217    0.85834628
     atom   11 type  3   force =    -8.54201676    0.48912009   -0.63842313
     atom   12 type  3   force =    -4.98398322    0.16796659    0.36717252
     atom   13 type  3   force =     8.89542234   -0.89779037    0.69587963
     atom   14 type  3   force =    -2.88622903    0.44036929   -5.60730265
     atom   15 type  3   force =     1.40285606    0.40883018   -3.16900660
     atom   16 type  3   force =     2.87892842   -0.41188866    5.46033425
     atom   17 type  3   force =    -1.57657796   -1.59453698    2.57551939
     atom   18 type  3   force =    -0.37439991   -4.47236561   -2.98133517
     atom   19 type  3   force =    -6.12793645    0.40988173    2.87435313
     atom   20 type  3   force =    -3.28894669    0.54766263   -6.46654083
     atom   21 type  3   force =     6.92693239    1.68167916   -0.52237729
     atom   22 type  3   force =     0.74541851    2.99534100    3.29291500
     atom   23 type  3   force =     5.94320510   -0.86371859   -2.85983302
     atom   24 type  3   force =     2.82527235    0.63699916    6.16525123
     atom   25 type  3   force =    -6.03767080   -1.41452142    0.95534169
     The core correction contribution to forces
     atom    1 type  2   force =     0.00000000    0.00000000    0.00000000
     atom    2 type  1   force =    -0.00072690    0.00123371    0.00049366
     atom    3 type  1   force =     0.00086822    0.00157213   -0.00027622
     atom    4 type  1   force =     0.00110071   -0.00132400   -0.00094932
     atom    5 type  1   force =    -0.00109204   -0.00160875    0.00032099
     atom    6 type  4   force =     0.00317924   -0.00248025   -0.00004301
     atom    7 type  4   force =     0.00062198   -0.00060198    0.00354925
     atom    8 type  4   force =    -0.00252028    0.00175512   -0.00092758
     atom    9 type  4   force =    -0.00041563    0.00070878   -0.00354394
     atom   10 type  3   force =    -0.00057517    0.00068580    0.01345485
     atom   11 type  3   force =     0.00226937   -0.00134194    0.01418559
     atom   12 type  3   force =     0.00140861   -0.00059892   -0.01421527
     atom   13 type  3   force =    -0.00219023    0.00144608   -0.01429240
     atom   14 type  3   force =    -0.01261977    0.00004201    0.00700933
     atom   15 type  3   force =     0.01140545   -0.00568912    0.00532532
     atom   16 type  3   force =     0.01296254    0.00005265   -0.00659921
     atom   17 type  3   force =    -0.01128357    0.00577882   -0.00420109
     atom   18 type  3   force =     0.00577250    0.01361064   -0.00492857
     atom   19 type  3   force =    -0.00421462   -0.00854801   -0.00943602
     atom   20 type  3   force =     0.00000505    0.01185380    0.01132093
     atom   21 type  3   force =     0.00345010   -0.01030630    0.00666901
     atom   22 type  3   force =    -0.00672963   -0.01267742    0.00372762
     atom   23 type  3   force =     0.00469809    0.00831400    0.00943291
     atom   24 type  3   force =     0.00068455   -0.01207008   -0.01112243
     atom   25 type  3   force =    -0.00422144    0.01008800   -0.00717036
     The Hubbard contrib.    to forces
     atom    1 type  2   force =     0.00000000    0.00000000    0.00000000
     atom    2 type  1   force =     0.00000000    0.00000000    0.00000000
     atom    3 type  1   force =     0.00000000    0.00000000    0.00000000
     atom    4 type  1   force =     0.00000000    0.00000000    0.00000000
     atom    5 type  1   force =     0.00000000    0.00000000    0.00000000
     atom    6 type  4   force =     0.00000000    0.00000000    0.00000000
     atom    7 type  4   force =     0.00000000    0.00000000    0.00000000
     atom    8 type  4   force =     0.00000000    0.00000000    0.00000000
     atom    9 type  4   force =     0.00000000    0.00000000    0.00000000
     atom   10 type  3   force =     0.00000000    0.00000000    0.00000000
     atom   11 type  3   force =     0.00000000    0.00000000    0.00000000
     atom   12 type  3   force =     0.00000000    0.00000000    0.00000000
     atom   13 type  3   force =     0.00000000    0.00000000    0.00000000
     atom   14 type  3   force =     0.00000000    0.00000000    0.00000000
     atom   15 type  3   force =     0.00000000    0.00000000    0.00000000
     atom   16 type  3   force =     0.00000000    0.00000000    0.00000000
     atom   17 type  3   force =     0.00000000    0.00000000    0.00000000
     atom   18 type  3   force =     0.00000000    0.00000000    0.00000000
     atom   19 type  3   force =     0.00000000    0.00000000    0.00000000
     atom   20 type  3   force =     0.00000000    0.00000000    0.00000000
     atom   21 type  3   force =     0.00000000    0.00000000    0.00000000
     atom   22 type  3   force =     0.00000000    0.00000000    0.00000000
     atom   23 type  3   force =     0.00000000    0.00000000    0.00000000
     atom   24 type  3   force =     0.00000000    0.00000000    0.00000000
     atom   25 type  3   force =     0.00000000    0.00000000    0.00000000
     The SCF correction term to forces
     atom    1 type  2   force =    -0.00001186   -0.00000081   -0.00000038
     atom    2 type  1   force =     0.00000357    0.00000044    0.00000049
     atom    3 type  1   force =    -0.00000502   -0.00000002   -0.00000060
     atom    4 type  1   force =     0.00000554    0.00000012    0.00000108
     atom    5 type  1   force =    -0.00000253   -0.00000101    0.00000010
     atom    6 type  4   force =    -0.00000634    0.00000018    0.00000051
     atom    7 type  4   force =     0.00000499    0.00000023    0.00000049
     atom    8 type  4   force =    -0.00000528    0.00000104   -0.00000005
     atom    9 type  4   force =     0.00000644   -0.00000015    0.00000072
     atom   10 type  3   force =    -0.00000851    0.00000000   -0.00000251
     atom   11 type  3   force =     0.00000582    0.00000007   -0.00000145
     atom   12 type  3   force =    -0.00000577    0.00000066   -0.00000016
     atom   13 type  3   force =     0.00000876   -0.00000065   -0.00000296
     atom   14 type  3   force =     0.00001095   -0.00000031    0.00000225
     atom   15 type  3   force =    -0.00000847   -0.00000037    0.00000068
     atom   16 type  3   force =     0.00000792    0.00000011    0.00000067
     atom   17 type  3   force =    -0.00001092   -0.00000097    0.00000179
     atom   18 type  3   force =    -0.00000603    0.00000117    0.00000262
     atom   19 type  3   force =     0.00000425    0.00000315   -0.00000027
     atom   20 type  3   force =    -0.00000723    0.00000338   -0.00000292
     atom   21 type  3   force =     0.00000649    0.00000179    0.00000275
     atom   22 type  3   force =    -0.00000333   -0.00000077   -0.00000015
     atom   23 type  3   force =     0.00000564   -0.00000169    0.00000194
     atom   24 type  3   force =    -0.00000656    0.00000122   -0.00000046
     atom   25 type  3   force =     0.00000456   -0.00000245    0.00000018

     Total force =     0.308323     Total SCF correction =     0.000036


     Computing stress (Cartesian axis) and pressure


     negative rho (up, down):  0.000E+00 1.004E-03
          total   stress  (Ry/bohr**3)                   (kbar)     P=     -163.95
  -0.00142196   0.00010774  -0.00003591         -209.18       15.85       -5.28
   0.00010774  -0.00089294  -0.00006918           15.85     -131.36      -10.18
  -0.00003591  -0.00006918  -0.00102861           -5.28      -10.18     -151.31

     kinetic stress (kbar)  22475.37     41.88    -44.98
                               41.88  22678.93    -15.04
                              -44.98    -15.04  22552.65

     local   stress (kbar)  -7376.54   3216.70  -3994.29
                             3216.70 -13057.08   1694.47
                            -3994.29   1694.47  -6752.56

     nonloc. stress (kbar)  -5699.27      5.48      1.09
                                5.48  -5665.94      3.01
                                1.09      3.01  -5678.79

     hartree stress (kbar)  12352.83  -1284.55   1671.42
                            -1284.55  15589.61   -680.79
                             1671.42   -680.79  12506.71

     exc-cor stress (kbar)  -2386.01     -2.32      1.82
                               -2.32  -2390.92     -0.94
                                1.82     -0.94  -2389.00

     corecor stress (kbar)  -2686.18      0.43     -0.54
                                0.43  -2688.03      0.18
                               -0.54      0.18  -2687.84

     ewald   stress (kbar) -16889.38  -1961.76   2360.19
                            -1961.76 -14597.93  -1011.07
                             2360.19  -1011.07 -17702.49

     hubbard stress (kbar)      0.00      0.00      0.00
                                0.00      0.00      0.00
                                0.00      0.00      0.00

     DFT-D   stress (kbar)      0.00      0.00      0.00
                                0.00      0.00      0.00
                                0.00      0.00      0.00

     XDM     stress (kbar)      0.00      0.00      0.00
                                0.00      0.00      0.00
                                0.00      0.00      0.00

     dft-nl  stress (kbar)      0.00      0.00      0.00
                                0.00      0.00      0.00
                                0.00      0.00      0.00

     TS-vdW  stress (kbar)      0.00      0.00      0.00
                                0.00      0.00      0.00
                                0.00      0.00      0.00



     init_run     :   1303.27s CPU   1383.08s WALL (       1 calls)
     electrons    : 122395.83s CPU 134977.36s WALL (       1 calls)
     forces       :    193.19s CPU    226.44s WALL (       1 calls)
     stress       :    931.49s CPU   1015.56s WALL (       1 calls)

     Called by init_run:
     wfcinit      :   1287.41s CPU   1365.64s WALL (       1 calls)
     wfcinit:atom :      1.30s CPU      1.39s WALL (     316 calls)
     wfcinit:wfcr :   1279.80s CPU   1357.54s WALL (     316 calls)
     potinit      :      6.45s CPU      6.78s WALL (       1 calls)
     hinit0       :      5.79s CPU      6.21s WALL (       1 calls)

     Called by electrons:
     c_bands      : 102333.34s CPU 112876.21s WALL (      42 calls)
     sum_band     :  19746.47s CPU  21738.85s WALL (      42 calls)
     v_of_rho     :    112.41s CPU    122.75s WALL (      43 calls)
     v_h          :      7.99s CPU      8.94s WALL (      43 calls)
     v_xc         :    108.92s CPU    119.31s WALL (      45 calls)
     newd         :     93.24s CPU    117.61s WALL (      43 calls)
     PAW_pot      :     24.33s CPU     27.23s WALL (      43 calls)
     mix_rho      :     69.63s CPU     77.02s WALL (      42 calls)

     Called by c_bands:
     init_us_2    :    225.61s CPU    254.09s WALL (   27492 calls)
     cegterg      : 101019.26s CPU 111384.02s WALL (   13272 calls)

     Called by sum_band:
     sum_band:wei :      0.77s CPU      0.93s WALL (      42 calls)
     sum_band:loo :  19545.48s CPU  21491.29s WALL (      42 calls)
     sum_band:buf :     63.59s CPU     67.42s WALL (   13272 calls)
     sum_band:ini :    101.86s CPU    115.37s WALL (   13272 calls)
     sum_band:cal :   1832.07s CPU   2013.47s WALL (   13272 calls)
     sum_band:bec :      9.13s CPU      9.86s WALL (   13272 calls)
     addusdens    :    168.56s CPU    212.77s WALL (      42 calls)
     addusd:skk   :      1.27s CPU      1.43s WALL (     126 calls)
     addusd:dgemm :     69.57s CPU    100.05s WALL (     252 calls)
     addusd:qvan2 :     95.43s CPU    108.16s WALL (     252 calls)

     Called by *egterg:
     cdiaghg      :   4081.34s CPU   4526.46s WALL (   43943 calls)
     cegterg:over :   5369.61s CPU   5874.88s WALL (   30671 calls)
     cegterg:upda :    778.52s CPU    874.55s WALL (   30671 calls)
     cegterg:last :   1776.87s CPU   1987.39s WALL (   22050 calls)
     h_psi        :  83253.92s CPU  91783.57s WALL (   44259 calls)
     s_psi        :   1923.41s CPU   2143.02s WALL (   44259 calls)
     g_psi        :     14.38s CPU     15.63s WALL (   30671 calls)

     Called by h_psi:
     h_psi:calbec :   4722.41s CPU   5198.43s WALL (   44259 calls)
     vloc_psi     :  76369.80s CPU  84155.42s WALL (   44259 calls)
     add_vuspsi   :   2064.10s CPU   2325.92s WALL (   44259 calls)

     General routines
     calbec       :   6850.03s CPU   7541.52s WALL (   59111 calls)
     fft          :    173.14s CPU    188.08s WALL (    1113 calls)
     ffts         :      2.93s CPU      3.42s WALL (     170 calls)
     fftw         :  93575.87s CPU 103105.55s WALL ( 8113570 calls)
     interpolate  :     13.50s CPU     14.67s WALL (      86 calls)

     Parallel routines
     fft_scatt_xy :    399.61s CPU    400.41s WALL ( 8114853 calls)
     fft_scatt_yz :  90660.41s CPU 100198.43s WALL ( 8114853 calls)

     PAW routines
     PAW_pot      :     24.33s CPU     27.23s WALL (      43 calls)

     PWSCF        :   1d10h40m CPU   1d14h13m WALL


   This run was terminated on:  18: 0:46  28Jan2023            

=------------------------------------------------------------------------------=
   JOB DONE.
=------------------------------------------------------------------------------=
Note: The following floating-point exceptions are signalling: IEEE_UNDERFLOW_FLAG IEEE_DENORMAL
Note: The following floating-point exceptions are signalling: IEEE_DENORMAL
Note: The following floating-point exceptions are signalling: IEEE_INVALID_FLAG IEEE_DENORMAL
Note: The following floating-point exceptions are signalling: IEEE_DENORMAL
Note: The following floating-point exceptions are signalling: IEEE_DENORMAL
Note: The following floating-point exceptions are signalling: IEEE_DENORMAL
Note: The following floating-point exceptions are signalling: IEEE_DENORMAL
Note: The following floating-point exceptions are signalling: IEEE_DENORMAL
Note: The following floating-point exceptions are signalling: IEEE_DENORMAL
Note: The following floating-point exceptions are signalling: IEEE_INVALID_FLAG IEEE_DENORMAL
Note: The following floating-point exceptions are signalling: IEEE_INVALID_FLAG IEEE_DENORMAL
Note: The following floating-point exceptions are signalling: IEEE_DENORMAL
Note: The following floating-point exceptions are signalling: IEEE_DENORMAL
Note: The following floating-point exceptions are signalling: IEEE_DENORMAL
Note: The following floating-point exceptions are signalling: IEEE_INVALID_FLAG IEEE_DENORMAL
Note: The following floating-point exceptions are signalling: IEEE_DENORMAL
Note: The following floating-point exceptions are signalling: IEEE_DENORMAL
